<event>
 8    1  0.6834768E-011  0.9118800E+02  0.7816164E-02  0.1184000E+00
        -11   -1    0    0    0    0  0.00000000000E+00  0.00000000000E+00  0.45593999997E+02  0.45594000000E+02  0.51100000000E-03 0. -1.
         11   -1    0    0    0    0 -0.00000000000E+00 -0.00000000000E+00 -0.45593999997E+02  0.45594000000E+02  0.51100000000E-03 0.  1.
         23    2    1    2    0    0  0.00000000000E+00 -0.35527136788E-14  0.00000000000E+00  0.91188000000E+02  0.91188000000E+02 0.  0.
    9900012    2    3    3    0    0  0.12372222906E+02  0.29839713766E+02 -0.28985222124E+02  0.47787268222E+02  0.19999987133E+02 0.  0.
         12    1    3    3    0    0 -0.12372222906E+02 -0.29839713766E+02  0.28985222124E+02  0.43400731778E+02  0.00000000000E+00 0. -1.
         11    1    4    4    0    0  0.71309732316E+00  0.13536373814E+01 -0.82130069710E+01  0.83542998342E+01  0.51100000000E-03 0. -1.
        -11    1    4    4    0    0  0.14034920115E+02  0.23021491124E+02 -0.19666046556E+02  0.33372465051E+02  0.51100000000E-03 0.  1.
         12    1    4    4    0    0 -0.23757945320E+01  0.54645852608E+01 -0.11061685966E+01  0.60605033367E+01  0.00000000000E+00 0. -1.
</event>
<event>
 8    1  0.6524083E-011  0.9118800E+02  0.7816164E-02  0.1184000E+00
        -11   -1    0    0    0    0  0.00000000000E+00  0.00000000000E+00  0.45593999997E+02  0.45594000000E+02  0.51100000000E-03 0. -1.
         11   -1    0    0    0    0 -0.00000000000E+00 -0.00000000000E+00 -0.45593999997E+02  0.45594000000E+02  0.51100000000E-03 0.  1.
         23    2    1    2    0    0 -0.17763568394E-14 -0.35527136788E-14  0.00000000000E+00  0.91188000000E+02  0.91188000000E+02 0.  0.
    9900012    2    3    3    0    0 -0.10121095033E+02 -0.30429853591E+02  0.29244018171E+02  0.47787249395E+02  0.19999901293E+02 0.  0.
        -12    1    3    3    0    0  0.10121095033E+02  0.30429853591E+02 -0.29244018171E+02  0.43400750605E+02  0.00000000000E+00 0.  1.
         11    1    4    4    0    0 -0.86009566325E-01 -0.39020136401E+00 -0.32685975019E+00  0.51622892924E+00  0.51100000000E-03 0.  1.
        -11    1    4    4    0    0 -0.10611727740E+02 -0.22934500435E+02  0.11344362331E+02  0.27700083624E+02  0.51100000000E-03 0. -1.
         12    1    4    4    0    0  0.57664227316E+00 -0.71051517917E+01  0.18226515590E+02  0.19570936842E+02  0.00000000000E+00 0. -1.
</event>
<event>
 8    1  0.6524083E-011  0.9118800E+02  0.7816164E-02  0.1184000E+00
        -11   -1    0    0    0    0  0.00000000000E+00  0.00000000000E+00  0.45593999997E+02  0.45594000000E+02  0.51100000000E-03 0.  1.
         11   -1    0    0    0    0 -0.00000000000E+00 -0.00000000000E+00 -0.45593999997E+02  0.45594000000E+02  0.51100000000E-03 0. -1.
         23    2    1    2    0    0  0.17763568394E-14  0.71054273576E-14 -0.71054273576E-14  0.91188000000E+02  0.91188000000E+02 0.  0.
    9900012    2    3    3    0    0  0.11096736097E+02  0.32082404943E+02 -0.27040802314E+02  0.47787271335E+02  0.20000001323E+02 0.  0.
         12    1    3    3    0    0 -0.11096736097E+02 -0.32082404943E+02  0.27040802314E+02  0.43400728665E+02  0.00000000000E+00 0. -1.
         11    1    4    4    0    0 -0.15063234778E+01  0.15423867005E+02 -0.17872579604E+02  0.23655734733E+02  0.51100000000E-03 0. -1.
        -11    1    4    4    0    0  0.30647136071E+01  0.80862697300E+01 -0.51905578418E+00  0.86631199235E+01  0.51100000000E-03 0.  1.
        -12    1    4    4    0    0  0.95383459672E+01  0.85722682075E+01 -0.86491669255E+01  0.15468416678E+02  0.00000000000E+00 0.  1.
</event>
<event>
 8    1  0.6524083E-011  0.9118800E+02  0.7816164E-02  0.1184000E+00
        -11   -1    0    0    0    0  0.00000000000E+00  0.00000000000E+00  0.45593999997E+02  0.45594000000E+02  0.51100000000E-03 0. -1.
         11   -1    0    0    0    0 -0.00000000000E+00 -0.00000000000E+00 -0.45593999997E+02  0.45594000000E+02  0.51100000000E-03 0.  1.
         23    2    1    2    0    0  0.00000000000E+00 -0.88817841970E-15  0.71054273576E-14  0.91188000000E+02  0.91188000000E+02 0.  0.
    9900012    2    3    3    0    0 -0.32253088636E+02 -0.44132546688E+01  0.28703391095E+02  0.47787271853E+02  0.20000003687E+02 0.  0.
        -12    1    3    3    0    0  0.32253088636E+02  0.44132546688E+01 -0.28703391095E+02  0.43400728147E+02  0.00000000000E+00 0.  1.
         11    1    4    4    0    0 -0.39437005996E+01  0.13664516416E+00  0.62060812720E+01  0.73543790585E+01  0.51100000000E-03 0. -1.
        -11    1    4    4    0    0 -0.18248029442E+02 -0.11198459914E+02  0.16049003402E+02  0.26757552082E+02  0.51100000000E-03 0.  1.
         12    1    4    4    0    0 -0.10061358594E+02  0.66485600810E+01  0.64483064209E+01  0.13675340712E+02  0.00000000000E+00 0. -1.
</event>
<event>
 8    1  0.6524083E-011  0.9118800E+02  0.7816164E-02  0.1184000E+00
        -11   -1    0    0    0    0  0.00000000000E+00  0.00000000000E+00  0.45593999997E+02  0.45594000000E+02  0.51100000000E-03 0. -1.
         11   -1    0    0    0    0 -0.00000000000E+00 -0.00000000000E+00 -0.45593999997E+02  0.45594000000E+02  0.51100000000E-03 0.  1.
         23    2    1    2    0    0  0.00000000000E+00  0.00000000000E+00  0.00000000000E+00  0.91188000000E+02  0.91188000000E+02 0.  0.
    9900012    2    3    3    0    0 -0.16110969364E+02  0.33001283668E+02 -0.23129533232E+02  0.47787269993E+02  0.19999995208E+02 0.  0.
         12    1    3    3    0    0  0.16110969364E+02 -0.33001283668E+02  0.23129533232E+02  0.43400730007E+02  0.00000000000E+00 0. -1.
         11    1    4    4    0    0 -0.24898111519E+01  0.49676552236E+01 -0.43286891908E+01  0.70437424970E+01  0.51100000000E-03 0. -1.
        -11    1    4    4    0    0 -0.10827551837E+02  0.30532666764E+02 -0.16995775433E+02  0.36583274885E+02  0.51100000000E-03 0.  1.
         12    1    4    4    0    0 -0.27936063750E+01 -0.24990383201E+01 -0.18050686088E+01  0.41602526109E+01  0.00000000000E+00 0. -1.
</event>
<event>
 8    1  0.6524083E-011  0.9118800E+02  0.7816164E-02  0.1184000E+00
        -11   -1    0    0    0    0  0.00000000000E+00  0.00000000000E+00  0.45593999997E+02  0.45594000000E+02  0.51100000000E-03 0. -1.
         11   -1    0    0    0    0 -0.00000000000E+00 -0.00000000000E+00 -0.45593999997E+02  0.45594000000E+02  0.51100000000E-03 0.  1.
         23    2    1    2    0    0  0.35527136788E-14  0.17763568394E-14  0.00000000000E+00  0.91188000000E+02  0.91188000000E+02 0.  0.
    9900012    2    3    3    0    0 -0.29473118055E+02 -0.10217172625E+02 -0.30175620027E+02  0.47787270187E+02  0.19999996088E+02 0.  0.
         12    1    3    3    0    0  0.29473118055E+02  0.10217172625E+02  0.30175620027E+02  0.43400729813E+02  0.00000000000E+00 0. -1.
         11    1    4    4    0    0 -0.25395670425E+01 -0.11074399816E+01  0.12453109010E+01  0.30375357739E+01  0.51100000000E-03 0. -1.
        -11    1    4    4    0    0 -0.27050323734E+02 -0.59162630952E+01 -0.23898864013E+02  0.36577013061E+02  0.51100000000E-03 0.  1.
         12    1    4    4    0    0  0.11677272067E+00 -0.31934695481E+01 -0.75220669146E+01  0.81727213516E+01  0.00000000000E+00 0. -1.
</event>
<event>
 8    1  0.6524083E-011  0.9118800E+02  0.7816164E-02  0.1184000E+00
        -11   -1    0    0    0    0  0.00000000000E+00  0.00000000000E+00  0.45593999997E+02  0.45594000000E+02  0.51100000000E-03 0. -1.
         11   -1    0    0    0    0 -0.00000000000E+00 -0.00000000000E+00 -0.45593999997E+02  0.45594000000E+02  0.51100000000E-03 0.  1.
         23    2    1    2    0    0  0.00000000000E+00  0.35527136788E-14  0.71054273576E-14  0.91188000000E+02  0.91188000000E+02 0.  0.
    9900012    2    3    3    0    0 -0.11571126083E+02 -0.19325667694E+02 -0.37097858079E+02  0.47787268846E+02  0.19999989976E+02 0.  0.
         12    1    3    3    0    0  0.11571126083E+02  0.19325667694E+02  0.37097858079E+02  0.43400731154E+02  0.00000000000E+00 0. -1.
         11    1    4    4    0    0 -0.58507352087E+01 -0.15388495287E+02 -0.23491485976E+02  0.28686003613E+02  0.51100000000E-03 0. -1.
        -11    1    4    4    0    0 -0.55443138998E+00 -0.87344954997E-01 -0.12561928622E+02  0.12574461192E+02  0.51100000000E-03 0.  1.
         12    1    4    4    0    0 -0.51659594838E+01 -0.38498274513E+01 -0.10444434813E+01  0.65268040402E+01  0.00000000000E+00 0. -1.
</event>
<event>
 8    1  0.6524083E-011  0.9118800E+02  0.7816164E-02  0.1184000E+00
        -11   -1    0    0    0    0  0.00000000000E+00  0.00000000000E+00  0.45593999997E+02  0.45594000000E+02  0.51100000000E-03 0. -1.
         11   -1    0    0    0    0 -0.00000000000E+00 -0.00000000000E+00 -0.45593999997E+02  0.45594000000E+02  0.51100000000E-03 0.  1.
         23    2    1    2    0    0  0.35527136788E-14  0.00000000000E+00 -0.71054273576E-14  0.91188000000E+02  0.91188000000E+02 0.  0.
    9900012    2    3    3    0    0 -0.24396240933E+02  0.11155770733E+02 -0.34117378571E+02  0.47787270595E+02  0.19999997953E+02 0.  0.
         12    1    3    3    0    0  0.24396240933E+02 -0.11155770733E+02  0.34117378571E+02  0.43400729405E+02  0.00000000000E+00 0. -1.
         11    1    4    4    0    0 -0.13834336931E+02  0.64247209885E+01 -0.24636820179E+02  0.28976521995E+02  0.51100000000E-03 0. -1.
        -11    1    4    4    0    0 -0.88689974305E+01  0.41555835989E+01 -0.12144841613E+02  0.15602088596E+02  0.51100000000E-03 0.  1.
         12    1    4    4    0    0 -0.16929065710E+01  0.57546614563E+00  0.26642832217E+01  0.32086600051E+01  0.00000000000E+00 0. -1.
</event>
<event>
 8    1  0.6524083E-011  0.9118800E+02  0.7816164E-02  0.1184000E+00
        -11   -1    0    0    0    0  0.00000000000E+00  0.00000000000E+00  0.45593999997E+02  0.45594000000E+02  0.51100000000E-03 0. -1.
         11   -1    0    0    0    0 -0.00000000000E+00 -0.00000000000E+00 -0.45593999997E+02  0.45594000000E+02  0.51100000000E-03 0.  1.
         23    2    1    2    0    0  0.00000000000E+00  0.00000000000E+00  0.00000000000E+00  0.91188000000E+02  0.91188000000E+02 0.  0.
    9900012    2    3    3    0    0 -0.32687343779E+02 -0.23381830681E+02 -0.16384468999E+02  0.47787271047E+02  0.20000000010E+02 0.  0.
         12    1    3    3    0    0  0.32687343779E+02  0.23381830681E+02  0.16384468999E+02  0.43400728953E+02  0.00000000000E+00 0. -1.
         11    1    4    4    0    0 -0.10949983350E+02 -0.16932038607E+01 -0.91261765503E+00  0.11117641203E+02  0.51100000000E-03 0. -1.
        -11    1    4    4    0    0 -0.66840433628E+01 -0.11657536799E+02 -0.94801400374E+00  0.13471203759E+02  0.51100000000E-03 0.  1.
        -12    1    4    4    0    0 -0.15053317066E+02 -0.10031090021E+02 -0.14523837341E+02  0.23198426084E+02  0.00000000000E+00 0.  1.
</event>
<event>
 8    1  0.6524083E-011  0.9118800E+02  0.7816164E-02  0.1184000E+00
        -11   -1    0    0    0    0  0.00000000000E+00  0.00000000000E+00  0.45593999997E+02  0.45594000000E+02  0.51100000000E-03 0. -1.
         11   -1    0    0    0    0 -0.00000000000E+00 -0.00000000000E+00 -0.45593999997E+02  0.45594000000E+02  0.51100000000E-03 0.  1.
         23    2    1    2    0    0  0.00000000000E+00  0.35527136788E-14  0.00000000000E+00  0.91188000000E+02  0.91188000000E+02 0.  0.
    9900012    2    3    3    0    0 -0.23512689149E+02 -0.24111699669E+02 -0.27375201810E+02  0.47787282424E+02  0.20000051886E+02 0.  0.
         12    1    3    3    0    0  0.23512689149E+02  0.24111699669E+02  0.27375201810E+02  0.43400717576E+02  0.00000000000E+00 0. -1.
         11    1    4    4    0    0 -0.10401265201E+02 -0.70778474881E+01 -0.16447687269E+02  0.20707695661E+02  0.51100000000E-03 0. -1.
        -11    1    4    4    0    0 -0.15394239529E+01 -0.10236332814E+02 -0.86014379445E+01  0.13458717270E+02  0.51100000000E-03 0.  1.
        -12    1    4    4    0    0 -0.11571999994E+02 -0.67975193671E+01 -0.23260765970E+01  0.13620869493E+02  0.00000000000E+00 0.  1.
</event>
<event>
 8    1  0.6524083E-011  0.9118800E+02  0.7816164E-02  0.1184000E+00
        -11   -1    0    0    0    0  0.00000000000E+00  0.00000000000E+00  0.45593999997E+02  0.45594000000E+02  0.51100000000E-03 0. -1.
         11   -1    0    0    0    0 -0.00000000000E+00 -0.00000000000E+00 -0.45593999997E+02  0.45594000000E+02  0.51100000000E-03 0.  1.
         23    2    1    2    0    0 -0.35527136788E-14 -0.88817841970E-15  0.00000000000E+00  0.91188000000E+02  0.91188000000E+02 0.  0.
    9900012    2    3    3    0    0  0.22196814756E+02 -0.63673973043E+01  0.36747529716E+02  0.47787271043E+02  0.19999999994E+02 0.  0.
        -12    1    3    3    0    0 -0.22196814756E+02  0.63673973043E+01 -0.36747529716E+02  0.43400728957E+02  0.00000000000E+00 0.  1.
         11    1    4    4    0    0  0.14815094428E+02 -0.42801768589E+01  0.28664237865E+02  0.32549123943E+02  0.51100000000E-03 0. -1.
        -11    1    4    4    0    0  0.89194565689E+01 -0.42968338457E+01  0.48310428486E+01  0.11016281671E+02  0.51100000000E-03 0.  1.
         12    1    4    4    0    0 -0.15377362408E+01  0.22096134003E+01  0.32522490028E+01  0.42218654291E+01  0.00000000000E+00 0. -1.
</event>
<event>
 8    1  0.6524083E-011  0.9118800E+02  0.7816164E-02  0.1184000E+00
        -11   -1    0    0    0    0  0.00000000000E+00  0.00000000000E+00  0.45593999997E+02  0.45594000000E+02  0.51100000000E-03 0. -1.
         11   -1    0    0    0    0 -0.00000000000E+00 -0.00000000000E+00 -0.45593999997E+02  0.45594000000E+02  0.51100000000E-03 0.  1.
         23    2    1    2    0    0  0.00000000000E+00  0.35527136788E-14  0.35527136788E-14  0.91188000000E+02  0.91188000000E+02 0.  0.
    9900012    2    3    3    0    0 -0.33275026430E+02  0.11082569051E+02  0.25565061733E+02  0.47787273023E+02  0.20000009021E+02 0.  0.
        -12    1    3    3    0    0  0.33275026430E+02 -0.11082569051E+02 -0.25565061733E+02  0.43400726977E+02  0.00000000000E+00 0.  1.
         11    1    4    4    0    0 -0.56423309186E+01  0.89136544515E+01  0.11018807102E+02  0.15254613862E+02  0.51100000000E-03 0. -1.
        -11    1    4    4    0    0 -0.31415027831E+01 -0.24869377607E+01  0.87820143072E+00  0.41018455817E+01  0.51100000000E-03 0.  1.
        -12    1    4    4    0    0 -0.24491192728E+02  0.46558523607E+01  0.13668053201E+02  0.28430813579E+02  0.00000000000E+00 0.  1.
</event>
<event>
 8    1  0.6524083E-011  0.9118800E+02  0.7816164E-02  0.1184000E+00
        -11   -1    0    0    0    0  0.00000000000E+00  0.00000000000E+00  0.45593999997E+02  0.45594000000E+02  0.51100000000E-03 0. -1.
         11   -1    0    0    0    0 -0.00000000000E+00 -0.00000000000E+00 -0.45593999997E+02  0.45594000000E+02  0.51100000000E-03 0.  1.
         23    2    1    2    0    0  0.00000000000E+00  0.00000000000E+00  0.00000000000E+00  0.91188000000E+02  0.91188000000E+02 0.  0.
    9900012    2    3    3    0    0 -0.34542334053E+02 -0.16134223008E+02  0.20739742638E+02  0.47787275138E+02  0.20000018663E+02 0.  0.
        -12    1    3    3    0    0  0.34542334053E+02  0.16134223008E+02 -0.20739742638E+02  0.43400724862E+02  0.00000000000E+00 0.  1.
         11    1    4    4    0    0  0.53668520540E+00  0.33201815572E+00  0.30779848770E+01  0.31420149951E+01  0.51100000000E-03 0.  1.
        -11    1    4    4    0    0 -0.30334196824E+02 -0.18408648801E+02  0.13232785694E+02  0.37870152695E+02  0.51100000000E-03 0. -1.
         12    1    4    4    0    0 -0.47448224337E+01  0.19424076371E+01  0.44289720668E+01  0.67751074475E+01  0.00000000000E+00 0. -1.
</event>
<event>
 8    1  0.6524083E-011  0.9118800E+02  0.7816164E-02  0.1184000E+00
        -11   -1    0    0    0    0  0.00000000000E+00  0.00000000000E+00  0.45593999997E+02  0.45594000000E+02  0.51100000000E-03 0. -1.
         11   -1    0    0    0    0 -0.00000000000E+00 -0.00000000000E+00 -0.45593999997E+02  0.45594000000E+02  0.51100000000E-03 0.  1.
         23    2    1    2    0    0  0.00000000000E+00 -0.55511151231E-15  0.00000000000E+00  0.91188000000E+02  0.91188000000E+02 0.  0.
    9900012    2    3    3    0    0  0.42012812129E+02 -0.27248664112E+00  0.10884449907E+02  0.47787287082E+02  0.20000073122E+02 0.  0.
        -12    1    3    3    0    0 -0.42012812129E+02  0.27248664112E+00 -0.10884449907E+02  0.43400712918E+02  0.00000000000E+00 0.  1.
         11    1    4    4    0    0  0.92131211198E+01 -0.11059543643E+00 -0.14459235984E+01  0.93265495995E+01  0.51100000000E-03 0. -1.
        -11    1    4    4    0    0  0.11078229014E+02  0.47234844490E+01 -0.16731852624E+01  0.12158865597E+02  0.51100000000E-03 0.  1.
        -12    1    4    4    0    0  0.21721461995E+02 -0.48853756537E+01  0.14003558768E+02  0.26301871885E+02  0.00000000000E+00 0.  1.
</event>
<event>
 8    1  0.6524083E-011  0.9118800E+02  0.7816164E-02  0.1184000E+00
        -11   -1    0    0    0    0  0.00000000000E+00  0.00000000000E+00  0.45593999997E+02  0.45594000000E+02  0.51100000000E-03 0. -1.
         11   -1    0    0    0    0 -0.00000000000E+00 -0.00000000000E+00 -0.45593999997E+02  0.45594000000E+02  0.51100000000E-03 0.  1.
         23    2    1    2    0    0  0.00000000000E+00  0.66613381478E-15  0.00000000000E+00  0.91188000000E+02  0.91188000000E+02 0.  0.
    9900012    2    3    3    0    0 -0.32991937705E+02  0.63853166298E+00 -0.28191259072E+02  0.47787276915E+02  0.20000026768E+02 0.  0.
         12    1    3    3    0    0  0.32991937705E+02 -0.63853166298E+00  0.28191259072E+02  0.43400723085E+02  0.00000000000E+00 0. -1.
         11    1    4    4    0    0 -0.15954301646E+01 -0.13718644330E+00 -0.94601578360E+00  0.18598826991E+01  0.51100000000E-03 0. -1.
        -11    1    4    4    0    0 -0.30922152464E+02 -0.38522450414E+01 -0.27061448019E+02  0.41271555266E+02  0.51100000000E-03 0.  1.
         12    1    4    4    0    0 -0.47435507575E+00  0.46279631477E+01 -0.18379526963E+00  0.46558389507E+01  0.00000000000E+00 0. -1.
</event>
<event>
 8    1  0.6524083E-011  0.9118800E+02  0.7816164E-02  0.1184000E+00
        -11   -1    0    0    0    0  0.00000000000E+00  0.00000000000E+00  0.45593999997E+02  0.45594000000E+02  0.51100000000E-03 0.  1.
         11   -1    0    0    0    0 -0.00000000000E+00 -0.00000000000E+00 -0.45593999997E+02  0.45594000000E+02  0.51100000000E-03 0. -1.
         23    2    1    2    0    0  0.00000000000E+00  0.00000000000E+00  0.00000000000E+00  0.91188000000E+02  0.91188000000E+02 0.  0.
    9900012    2    3    3    0    0  0.14190195574E+02 -0.40786721430E+02 -0.43248838147E+01  0.47787275174E+02  0.20000018827E+02 0.  0.
        -12    1    3    3    0    0 -0.14190195574E+02  0.40786721430E+02  0.43248838147E+01  0.43400724826E+02  0.00000000000E+00 0.  1.
         11    1    4    4    0    0  0.17823999759E+01  0.17747066984E+00 -0.23948531236E+01  0.29906131909E+01  0.51100000000E-03 0.  1.
        -11    1    4    4    0    0  0.44028036815E+01 -0.21255834251E+02  0.52728022464E+01  0.22338254493E+02  0.51100000000E-03 0. -1.
         12    1    4    4    0    0  0.80049919163E+01 -0.19708357849E+02 -0.72028329375E+01  0.22458407490E+02  0.00000000000E+00 0. -1.
</event>
<event>
 8    1  0.6524083E-011  0.9118800E+02  0.7816164E-02  0.1184000E+00
        -11   -1    0    0    0    0  0.00000000000E+00  0.00000000000E+00  0.45593999997E+02  0.45594000000E+02  0.51100000000E-03 0. -1.
         11   -1    0    0    0    0 -0.00000000000E+00 -0.00000000000E+00 -0.45593999997E+02  0.45594000000E+02  0.51100000000E-03 0.  1.
         23    2    1    2    0    0  0.00000000000E+00  0.35527136788E-14  0.00000000000E+00  0.91188000000E+02  0.91188000000E+02 0.  0.
    9900012    2    3    3    0    0  0.11882055298E+02  0.31843018701E+02  0.26990037686E+02  0.47787271753E+02  0.20000003232E+02 0.  0.
        -12    1    3    3    0    0 -0.11882055298E+02 -0.31843018701E+02 -0.26990037686E+02  0.43400728247E+02  0.00000000000E+00 0.  1.
         11    1    4    4    0    0  0.38208375883E+01  0.14028365810E+02  0.16969771780E+02  0.22346521020E+02  0.51100000000E-03 0. -1.
        -11    1    4    4    0    0  0.78407019474E+01  0.19813407756E+02  0.85977243270E+01  0.22977567273E+02  0.51100000000E-03 0.  1.
        -12    1    4    4    0    0  0.22051576252E+00 -0.19987548655E+01  0.14225415788E+01  0.24631834599E+01  0.00000000000E+00 0.  1.
</event>
<event>
 8    1  0.6524083E-011  0.9118800E+02  0.7816164E-02  0.1184000E+00
        -11   -1    0    0    0    0  0.00000000000E+00  0.00000000000E+00  0.45593999997E+02  0.45594000000E+02  0.51100000000E-03 0.  1.
         11   -1    0    0    0    0 -0.00000000000E+00 -0.00000000000E+00 -0.45593999997E+02  0.45594000000E+02  0.51100000000E-03 0. -1.
         23    2    1    2    0    0  0.00000000000E+00  0.00000000000E+00  0.11102230246E-14  0.91188000000E+02  0.91188000000E+02 0.  0.
    9900012    2    3    3    0    0  0.42554361929E+02  0.84642138162E+01  0.10518669694E+01  0.47787273522E+02  0.20000011297E+02 0.  0.
        -12    1    3    3    0    0 -0.42554361929E+02 -0.84642138162E+01 -0.10518669694E+01  0.43400726478E+02  0.00000000000E+00 0.  1.
         11    1    4    4    0    0  0.13337895278E+02  0.72779273784E+00  0.39085097152E+01  0.13917815244E+02  0.51100000000E-03 0.  1.
        -11    1    4    4    0    0  0.20699062132E+02 -0.16725408844E+01  0.38648612355E+00  0.20770121279E+02  0.51100000000E-03 0. -1.
        -12    1    4    4    0    0  0.85174045185E+01  0.94089619627E+01 -0.32431288693E+01  0.13099336999E+02  0.00000000000E+00 0.  1.
</event>
<event>
 8    1  0.6524083E-011  0.9118800E+02  0.7816164E-02  0.1184000E+00
        -11   -1    0    0    0    0  0.00000000000E+00  0.00000000000E+00  0.45593999997E+02  0.45594000000E+02  0.51100000000E-03 0.  1.
         11   -1    0    0    0    0 -0.00000000000E+00 -0.00000000000E+00 -0.45593999997E+02  0.45594000000E+02  0.51100000000E-03 0. -1.
         23    2    1    2    0    0 -0.71054273576E-14  0.00000000000E+00  0.00000000000E+00  0.91188000000E+02  0.91188000000E+02 0.  0.
    9900012    2    3    3    0    0  0.32052678526E+02  0.21249075978E+02 -0.20117807250E+02  0.47787267297E+02  0.19999982914E+02 0.  0.
         12    1    3    3    0    0 -0.32052678526E+02 -0.21249075978E+02  0.20117807250E+02  0.43400732703E+02  0.00000000000E+00 0. -1.
         11    1    4    4    0    0  0.18601031779E+02  0.12717994987E+02 -0.16784165457E+02  0.28097223886E+02  0.51100000000E-03 0.  1.
        -11    1    4    4    0    0  0.11541870471E+01  0.68948788464E+01 -0.14920709396E+01  0.71482709795E+01  0.51100000000E-03 0. -1.
        -12    1    4    4    0    0  0.12297459700E+02  0.16362021445E+01 -0.18415708540E+01  0.12541772432E+02  0.00000000000E+00 0.  1.
</event>
<event>
 8    1  0.6524083E-011  0.9118800E+02  0.7816164E-02  0.1184000E+00
        -11   -1    0    0    0    0  0.00000000000E+00  0.00000000000E+00  0.45593999997E+02  0.45594000000E+02  0.51100000000E-03 0. -1.
         11   -1    0    0    0    0 -0.00000000000E+00 -0.00000000000E+00 -0.45593999997E+02  0.45594000000E+02  0.51100000000E-03 0.  1.
         23    2    1    2    0    0  0.00000000000E+00  0.00000000000E+00 -0.71054273576E-14  0.91188000000E+02  0.91188000000E+02 0.  0.
    9900012    2    3    3    0    0  0.17316881775E+01  0.24355993157E+02 -0.35880496195E+02  0.47787272427E+02  0.20000006304E+02 0.  0.
         12    1    3    3    0    0 -0.17316881775E+01 -0.24355993157E+02  0.35880496195E+02  0.43400727573E+02  0.00000000000E+00 0. -1.
         11    1    4    4    0    0 -0.38080341561E+01  0.10503336435E+01 -0.10927839010E+02  0.11619896324E+02  0.51100000000E-03 0. -1.
        -11    1    4    4    0    0  0.54952336234E+01  0.16471957535E+02 -0.23434820405E+02  0.29166998222E+02  0.51100000000E-03 0.  1.
         12    1    4    4    0    0  0.44488710150E-01  0.68337019792E+01 -0.15178367807E+01  0.70003778812E+01  0.00000000000E+00 0. -1.
</event>
<event>
 8    1  0.6524083E-011  0.9118800E+02  0.7816164E-02  0.1184000E+00
        -11   -1    0    0    0    0  0.00000000000E+00  0.00000000000E+00  0.45593999997E+02  0.45594000000E+02  0.51100000000E-03 0. -1.
         11   -1    0    0    0    0 -0.00000000000E+00 -0.00000000000E+00 -0.45593999997E+02  0.45594000000E+02  0.51100000000E-03 0.  1.
         23    2    1    2    0    0  0.00000000000E+00  0.00000000000E+00  0.00000000000E+00  0.91188000000E+02  0.91188000000E+02 0.  0.
    9900012    2    3    3    0    0 -0.18429269247E+02 -0.53988530420E+01  0.38920919622E+02  0.47787267710E+02  0.19999984795E+02 0.  0.
        -12    1    3    3    0    0  0.18429269247E+02  0.53988530420E+01 -0.38920919622E+02  0.43400732290E+02  0.00000000000E+00 0.  1.
         11    1    4    4    0    0 -0.39137249386E+00  0.36806101185E+01  0.53858529800E+01  0.65350957037E+01  0.51100000000E-03 0.  1.
        -11    1    4    4    0    0 -0.76442579795E+01 -0.94965760027E+01  0.24934197405E+02  0.27754888512E+02  0.51100000000E-03 0. -1.
         12    1    4    4    0    0 -0.10393638773E+02  0.41711284219E+00  0.86008692367E+01  0.13497283493E+02  0.00000000000E+00 0. -1.
</event>
<event>
 8    1  0.6524083E-011  0.9118800E+02  0.7816164E-02  0.1184000E+00
        -11   -1    0    0    0    0  0.00000000000E+00  0.00000000000E+00  0.45593999997E+02  0.45594000000E+02  0.51100000000E-03 0. -1.
         11   -1    0    0    0    0 -0.00000000000E+00 -0.00000000000E+00 -0.45593999997E+02  0.45594000000E+02  0.51100000000E-03 0.  1.
         23    2    1    2    0    0  0.00000000000E+00 -0.13322676296E-14 -0.35527136788E-14  0.91188000000E+02  0.91188000000E+02 0.  0.
    9900012    2    3    3    0    0 -0.34457969573E+02  0.12468123442E+01  0.26357484651E+02  0.47787271835E+02  0.20000003604E+02 0.  0.
        -12    1    3    3    0    0  0.34457969573E+02 -0.12468123442E+01 -0.26357484651E+02  0.43400728165E+02  0.00000000000E+00 0.  1.
         11    1    4    4    0    0 -0.25789908967E+02  0.28048781292E+00  0.16030981889E+02  0.30367588948E+02  0.51100000000E-03 0. -1.
        -11    1    4    4    0    0 -0.14654121250E+01  0.44325890512E+01  0.41548639507E+00  0.46869934498E+01  0.51100000000E-03 0.  1.
         12    1    4    4    0    0 -0.72026484814E+01 -0.34662645199E+01  0.99110163677E+01  0.12732689437E+02  0.00000000000E+00 0. -1.
</event>
<event>
 8    1  0.6524083E-011  0.9118800E+02  0.7816164E-02  0.1184000E+00
        -11   -1    0    0    0    0  0.00000000000E+00  0.00000000000E+00  0.45593999997E+02  0.45594000000E+02  0.51100000000E-03 0. -1.
         11   -1    0    0    0    0 -0.00000000000E+00 -0.00000000000E+00 -0.45593999997E+02  0.45594000000E+02  0.51100000000E-03 0.  1.
         23    2    1    2    0    0 -0.35527136788E-14  0.17763568394E-14 -0.71054273576E-14  0.91188000000E+02  0.91188000000E+02 0.  0.
    9900012    2    3    3    0    0  0.21310567905E+02 -0.13798795986E+02  0.35200515269E+02  0.47787270164E+02  0.19999995987E+02 0.  0.
        -12    1    3    3    0    0 -0.21310567905E+02  0.13798795986E+02 -0.35200515269E+02  0.43400729836E+02  0.00000000000E+00 0.  1.
         11    1    4    4    0    0  0.11039197109E+01 -0.85287032755E+01  0.13230549066E+02  0.15779887424E+02  0.51100000000E-03 0. -1.
        -11    1    4    4    0    0  0.79296465155E+01  0.20502134423E+01  0.12197685076E+02  0.14692385459E+02  0.51100000000E-03 0.  1.
        -12    1    4    4    0    0  0.12277001678E+02 -0.73203061531E+01  0.97722811274E+01  0.17314997280E+02  0.00000000000E+00 0.  1.
</event>
<event>
 8    1  0.6524083E-011  0.9118800E+02  0.7816164E-02  0.1184000E+00
        -11   -1    0    0    0    0  0.00000000000E+00  0.00000000000E+00  0.45593999997E+02  0.45594000000E+02  0.51100000000E-03 0. -1.
         11   -1    0    0    0    0 -0.00000000000E+00 -0.00000000000E+00 -0.45593999997E+02  0.45594000000E+02  0.51100000000E-03 0.  1.
         23    2    1    2    0    0  0.00000000000E+00  0.00000000000E+00  0.00000000000E+00  0.91188000000E+02  0.91188000000E+02 0.  0.
    9900012    2    3    3    0    0  0.31007678153E+02  0.18873490943E+02  0.23789447951E+02  0.47787278824E+02  0.20000035468E+02 0.  0.
        -12    1    3    3    0    0 -0.31007678153E+02 -0.18873490943E+02 -0.23789447951E+02  0.43400721176E+02  0.00000000000E+00 0.  1.
         11    1    4    4    0    0  0.67133617581E+01  0.35601886387E+00  0.10616741167E+02  0.12566271078E+02  0.51100000000E-03 0. -1.
        -11    1    4    4    0    0  0.36163027820E+01  0.93893344633E+01  0.41006391150E+01  0.10865196220E+02  0.51100000000E-03 0.  1.
        -12    1    4    4    0    0  0.20678013613E+02  0.91281376156E+01  0.90720676681E+01  0.24355811526E+02  0.00000000000E+00 0.  1.
</event>
<event>
 8    1  0.6524083E-011  0.9118800E+02  0.7816164E-02  0.1184000E+00
        -11   -1    0    0    0    0  0.00000000000E+00  0.00000000000E+00  0.45593999997E+02  0.45594000000E+02  0.51100000000E-03 0. -1.
         11   -1    0    0    0    0 -0.00000000000E+00 -0.00000000000E+00 -0.45593999997E+02  0.45594000000E+02  0.51100000000E-03 0.  1.
         23    2    1    2    0    0  0.44408920985E-15  0.00000000000E+00  0.71054273576E-14  0.91188000000E+02  0.91188000000E+02 0.  0.
    9900012    2    3    3    0    0 -0.23220790481E+01  0.19050965691E+02 -0.38926752254E+02  0.47787269754E+02  0.19999994115E+02 0.  0.
         12    1    3    3    0    0  0.23220790481E+01 -0.19050965691E+02  0.38926752254E+02  0.43400730246E+02  0.00000000000E+00 0. -1.
         11    1    4    4    0    0  0.42415627134E+01  0.85897153825E+00 -0.11201671024E+02  0.12008585277E+02  0.51100000000E-03 0. -1.
        -11    1    4    4    0    0 -0.10443678981E+01  0.36130931093E+00 -0.99254293386E+01  0.99867610636E+01  0.51100000000E-03 0.  1.
        -12    1    4    4    0    0 -0.55192738634E+01  0.17830684841E+02 -0.17799651891E+02  0.25791923413E+02  0.00000000000E+00 0.  1.
</event>
<event>
 8    1  0.6524083E-011  0.9118800E+02  0.7816164E-02  0.1184000E+00
        -11   -1    0    0    0    0  0.00000000000E+00  0.00000000000E+00  0.45593999997E+02  0.45594000000E+02  0.51100000000E-03 0. -1.
         11   -1    0    0    0    0 -0.00000000000E+00 -0.00000000000E+00 -0.45593999997E+02  0.45594000000E+02  0.51100000000E-03 0.  1.
         23    2    1    2    0    0 -0.35527136788E-14  0.35527136788E-14  0.00000000000E+00  0.91188000000E+02  0.91188000000E+02 0.  0.
    9900012    2    3    3    0    0  0.27796148340E+02 -0.13531503221E+02  0.30461383036E+02  0.47787270761E+02  0.19999998708E+02 0.  0.
        -12    1    3    3    0    0 -0.27796148340E+02  0.13531503221E+02 -0.30461383036E+02  0.43400729239E+02  0.00000000000E+00 0.  1.
         11    1    4    4    0    0  0.18655280107E+02 -0.56782924489E+01  0.17977472971E+02  0.26522669845E+02  0.51100000000E-03 0. -1.
        -11    1    4    4    0    0  0.69015574750E+01 -0.10214957557E+02  0.13060006432E+02  0.17959415963E+02  0.51100000000E-03 0.  1.
         12    1    4    4    0    0  0.22393107582E+01  0.23617467847E+01 -0.57609636749E+00  0.33051849527E+01  0.00000000000E+00 0. -1.
</event>
<event>
 8    1  0.6524083E-011  0.9118800E+02  0.7816164E-02  0.1184000E+00
        -11   -1    0    0    0    0  0.00000000000E+00  0.00000000000E+00  0.45593999997E+02  0.45594000000E+02  0.51100000000E-03 0. -1.
         11   -1    0    0    0    0 -0.00000000000E+00 -0.00000000000E+00 -0.45593999997E+02  0.45594000000E+02  0.51100000000E-03 0.  1.
         23    2    1    2    0    0  0.71054273576E-14  0.35527136788E-14  0.00000000000E+00  0.91188000000E+02  0.91188000000E+02 0.  0.
    9900012    2    3    3    0    0  0.31443620181E+02  0.25153542462E+02  0.16193322164E+02  0.47787243887E+02  0.19999876177E+02 0.  0.
        -12    1    3    3    0    0 -0.31443620181E+02 -0.25153542462E+02 -0.16193322164E+02  0.43400756113E+02  0.00000000000E+00 0.  1.
         11    1    4    4    0    0  0.14046013087E+02  0.93587079590E+01  0.10918204715E+02  0.20101818146E+02  0.51100000000E-03 0. -1.
        -11    1    4    4    0    0  0.13656565405E+02  0.44987360386E+01 -0.64848379792E+00  0.14393086399E+02  0.51100000000E-03 0.  1.
         12    1    4    4    0    0  0.37410416892E+01  0.11296098464E+02  0.59236012470E+01  0.13292339341E+02  0.00000000000E+00 0. -1.
</event>
<event>
 8    1  0.6524083E-011  0.9118800E+02  0.7816164E-02  0.1184000E+00
        -11   -1    0    0    0    0  0.00000000000E+00  0.00000000000E+00  0.45593999997E+02  0.45594000000E+02  0.51100000000E-03 0. -1.
         11   -1    0    0    0    0 -0.00000000000E+00 -0.00000000000E+00 -0.45593999997E+02  0.45594000000E+02  0.51100000000E-03 0.  1.
         23    2    1    2    0    0  0.00000000000E+00  0.35527136788E-14  0.00000000000E+00  0.91188000000E+02  0.91188000000E+02 0.  0.
    9900012    2    3    3    0    0 -0.71461675911E+01  0.26048471911E+02 -0.33971048056E+02  0.47787277585E+02  0.20000029822E+02 0.  0.
         12    1    3    3    0    0  0.71461675911E+01 -0.26048471911E+02  0.33971048056E+02  0.43400722415E+02  0.00000000000E+00 0. -1.
         11    1    4    4    0    0 -0.73857353541E+01  0.88837301340E+01 -0.23519283245E+01  0.11789881887E+02  0.51100000000E-03 0. -1.
        -11    1    4    4    0    0  0.69560394364E+00  0.10814591949E+02 -0.20211610033E+02  0.22933565886E+02  0.51100000000E-03 0.  1.
         12    1    4    4    0    0 -0.45603618067E+00  0.63501498277E+01 -0.11407509699E+02  0.13063829812E+02  0.00000000000E+00 0. -1.
</event>
<event>
 8    1  0.6524083E-011  0.9118800E+02  0.7816164E-02  0.1184000E+00
        -11   -1    0    0    0    0  0.00000000000E+00  0.00000000000E+00  0.45593999997E+02  0.45594000000E+02  0.51100000000E-03 0. -1.
         11   -1    0    0    0    0 -0.00000000000E+00 -0.00000000000E+00 -0.45593999997E+02  0.45594000000E+02  0.51100000000E-03 0.  1.
         23    2    1    2    0    0  0.44408920985E-15  0.00000000000E+00  0.71054273576E-14  0.91188000000E+02  0.91188000000E+02 0.  0.
    9900012    2    3    3    0    0  0.35703820984E+01 -0.46894279063E+01  0.42998661228E+02  0.47787271552E+02  0.20000002312E+02 0.  0.
        -12    1    3    3    0    0 -0.35703820984E+01  0.46894279063E+01 -0.42998661228E+02  0.43400728448E+02  0.00000000000E+00 0.  1.
         11    1    4    4    0    0  0.17524802591E+01 -0.14461420304E+01  0.17403355532E+02  0.17551048341E+02  0.51100000000E-03 0. -1.
        -11    1    4    4    0    0  0.61102905678E+01  0.35718547776E+01  0.69216366295E+01  0.98996389463E+01  0.51100000000E-03 0.  1.
        -12    1    4    4    0    0 -0.42923887285E+01 -0.68151406535E+01  0.18673669067E+02  0.20336584265E+02  0.00000000000E+00 0.  1.
</event>
<event>
 8    1  0.6524083E-011  0.9118800E+02  0.7816164E-02  0.1184000E+00
        -11   -1    0    0    0    0  0.00000000000E+00  0.00000000000E+00  0.45593999997E+02  0.45594000000E+02  0.51100000000E-03 0. -1.
         11   -1    0    0    0    0 -0.00000000000E+00 -0.00000000000E+00 -0.45593999997E+02  0.45594000000E+02  0.51100000000E-03 0.  1.
         23    2    1    2    0    0  0.17763568394E-14 -0.17763568394E-14 -0.71054273576E-14  0.91188000000E+02  0.91188000000E+02 0.  0.
    9900012    2    3    3    0    0 -0.12574865035E+02  0.96919166440E+01  0.40392586147E+02  0.47787291543E+02  0.20000093463E+02 0.  0.
        -12    1    3    3    0    0  0.12574865035E+02 -0.96919166440E+01 -0.40392586147E+02  0.43400708457E+02  0.00000000000E+00 0.  1.
         11    1    4    4    0    0 -0.12033210782E+02 -0.16520193860E+01  0.22524441980E+02  0.25590580622E+02  0.51100000000E-03 0. -1.
        -11    1    4    4    0    0 -0.24867052515E+01  0.66485373109E+01  0.60304770428E+01  0.93141507936E+01  0.51100000000E-03 0.  1.
        -12    1    4    4    0    0  0.19450509981E+01  0.46953987191E+01  0.11837667124E+02  0.12882560128E+02  0.00000000000E+00 0.  1.
</event>
<event>
 8    1  0.6524083E-011  0.9118800E+02  0.7816164E-02  0.1184000E+00
        -11   -1    0    0    0    0  0.00000000000E+00  0.00000000000E+00  0.45593999997E+02  0.45594000000E+02  0.51100000000E-03 0. -1.
         11   -1    0    0    0    0 -0.00000000000E+00 -0.00000000000E+00 -0.45593999997E+02  0.45594000000E+02  0.51100000000E-03 0.  1.
         23    2    1    2    0    0  0.35527136788E-14  0.00000000000E+00  0.11102230246E-14  0.91188000000E+02  0.91188000000E+02 0.  0.
    9900012    2    3    3    0    0  0.19582157193E+02  0.38712853414E+02  0.12155477956E+01  0.47787268944E+02  0.19999990421E+02 0.  0.
         12    1    3    3    0    0 -0.19582157193E+02 -0.38712853414E+02 -0.12155477956E+01  0.43400731056E+02  0.00000000000E+00 0. -1.
         11    1    4    4    0    0  0.68284051573E+01  0.50647797553E+01  0.71257017256E+01  0.11093003935E+02  0.51100000000E-03 0. -1.
        -11    1    4    4    0    0  0.25561254835E+01  0.11218375266E+02 -0.82123416241E+00  0.11535169999E+02  0.51100000000E-03 0.  1.
         12    1    4    4    0    0  0.10197626552E+02  0.22429698393E+02 -0.50889197676E+01  0.25159095010E+02  0.00000000000E+00 0. -1.
</event>
<event>
 8    1  0.6524083E-011  0.9118800E+02  0.7816164E-02  0.1184000E+00
        -11   -1    0    0    0    0  0.00000000000E+00  0.00000000000E+00  0.45593999997E+02  0.45594000000E+02  0.51100000000E-03 0. -1.
         11   -1    0    0    0    0 -0.00000000000E+00 -0.00000000000E+00 -0.45593999997E+02  0.45594000000E+02  0.51100000000E-03 0.  1.
         23    2    1    2    0    0  0.00000000000E+00  0.00000000000E+00  0.00000000000E+00  0.91188000000E+02  0.91188000000E+02 0.  0.
    9900012    2    3    3    0    0 -0.27960293429E+02  0.27230322400E+02 -0.18983006560E+02  0.47787274146E+02  0.20000014140E+02 0.  0.
         12    1    3    3    0    0  0.27960293429E+02 -0.27230322400E+02  0.18983006560E+02  0.43400725854E+02  0.00000000000E+00 0. -1.
         11    1    4    4    0    0 -0.22066414528E+01  0.42207487620E+01 -0.91498829757E+01  0.10315248196E+02  0.51100000000E-03 0. -1.
        -11    1    4    4    0    0 -0.16766653937E+02  0.79676884700E+01 -0.62489894053E+01  0.19587103222E+02  0.51100000000E-03 0.  1.
        -12    1    4    4    0    0 -0.89869980390E+01  0.15041885168E+02 -0.35841341792E+01  0.17884922728E+02  0.00000000000E+00 0.  1.
</event>
<event>
 8    1  0.6524083E-011  0.9118800E+02  0.7816164E-02  0.1184000E+00
        -11   -1    0    0    0    0  0.00000000000E+00  0.00000000000E+00  0.45593999997E+02  0.45594000000E+02  0.51100000000E-03 0. -1.
         11   -1    0    0    0    0 -0.00000000000E+00 -0.00000000000E+00 -0.45593999997E+02  0.45594000000E+02  0.51100000000E-03 0.  1.
         23    2    1    2    0    0  0.00000000000E+00 -0.88817841970E-15  0.00000000000E+00  0.91188000000E+02  0.91188000000E+02 0.  0.
    9900012    2    3    3    0    0 -0.24392132680E+02  0.41874589124E+01  0.35652662304E+02  0.47787270995E+02  0.19999999775E+02 0.  0.
        -12    1    3    3    0    0  0.24392132680E+02 -0.41874589124E+01 -0.35652662304E+02  0.43400729005E+02  0.00000000000E+00 0.  1.
         11    1    4    4    0    0 -0.20002127895E+01  0.58882021299E+01  0.50154552227E+01  0.79891530764E+01  0.51100000000E-03 0. -1.
        -11    1    4    4    0    0 -0.91543430623E+01 -0.46399131389E+01  0.66064951565E+01  0.12205595821E+02  0.51100000000E-03 0.  1.
        -12    1    4    4    0    0 -0.13237576828E+02  0.29391699214E+01  0.24030711924E+02  0.27592522098E+02  0.00000000000E+00 0.  1.
</event>
<event>
 8    1  0.6524213E-011  0.9118800E+02  0.7816164E-02  0.1184000E+00
        -11   -1    0    0    0    0  0.00000000000E+00  0.00000000000E+00  0.45593999997E+02  0.45594000000E+02  0.51100000000E-03 0. -1.
         11   -1    0    0    0    0 -0.00000000000E+00 -0.00000000000E+00 -0.45593999997E+02  0.45594000000E+02  0.51100000000E-03 0.  1.
         23    2    1    2    0    0  0.00000000000E+00  0.00000000000E+00  0.00000000000E+00  0.91188000000E+02  0.91188000000E+02 0.  0.
    9900012    2    3    3    0    0  0.29001378832E+02 -0.17049760924E+02 -0.27419864136E+02  0.47787271078E+02  0.20000000152E+02 0.  0.
         12    1    3    3    0    0 -0.29001378832E+02  0.17049760924E+02  0.27419864136E+02  0.43400728922E+02  0.00000000000E+00 0. -1.
         11    1    4    4    0    0 -0.13892970023E+01 -0.60395895380E+01 -0.34834664510E+01  0.71092423453E+01  0.51100000000E-03 0. -1.
        -11    1    4    4    0    0  0.14400535404E+02 -0.84415338453E+01 -0.11899241785E+02  0.20499435819E+02  0.51100000000E-03 0.  1.
         12    1    4    4    0    0  0.15990140430E+02 -0.25686375403E+01 -0.12037155900E+02  0.20178592913E+02  0.00000000000E+00 0. -1.
</event>
<event>
 8    1  0.8200594E-011  0.9118800E+02  0.7816164E-02  0.1184000E+00
        -11   -1    0    0    0    0  0.00000000000E+00  0.00000000000E+00  0.45593999997E+02  0.45594000000E+02  0.51100000000E-03 0. -1.
         11   -1    0    0    0    0 -0.00000000000E+00 -0.00000000000E+00 -0.45593999997E+02  0.45594000000E+02  0.51100000000E-03 0.  1.
         23    2    1    2    0    0  0.00000000000E+00 -0.17763568394E-14  0.00000000000E+00  0.91188000000E+02  0.91188000000E+02 0.  0.
    9900012    2    3    3    0    0 -0.53179939411E+00  0.85924020124E+01 -0.42538346375E+02  0.47787273102E+02  0.20000009383E+02 0.  0.
         12    1    3    3    0    0  0.53179939411E+00 -0.85924020124E+01  0.42538346375E+02  0.43400726898E+02  0.00000000000E+00 0. -1.
         11    1    4    4    0    0  0.57576021137E+01 -0.26377784407E+01 -0.55896415924E+01  0.84470083814E+01  0.51100000000E-03 0. -1.
        -11    1    4    4    0    0 -0.57433879827E+00  0.50744974132E+01 -0.14182607807E+02  0.15074042374E+02  0.51100000000E-03 0.  1.
         12    1    4    4    0    0 -0.57150627096E+01  0.61556830399E+01 -0.22766096976E+02  0.24266222347E+02  0.00000000000E+00 0. -1.
</event>
<event>
 8    1  0.6524083E-011  0.9118800E+02  0.7816164E-02  0.1184000E+00
        -11   -1    0    0    0    0  0.00000000000E+00  0.00000000000E+00  0.45593999997E+02  0.45594000000E+02  0.51100000000E-03 0. -1.
         11   -1    0    0    0    0 -0.00000000000E+00 -0.00000000000E+00 -0.45593999997E+02  0.45594000000E+02  0.51100000000E-03 0.  1.
         23    2    1    2    0    0  0.00000000000E+00 -0.17763568394E-14 -0.35527136788E-14  0.91188000000E+02  0.91188000000E+02 0.  0.
    9900012    2    3    3    0    0  0.31552724567E+02  0.10549971577E+02  0.27870181545E+02  0.47787270200E+02  0.19999996148E+02 0.  0.
        -12    1    3    3    0    0 -0.31552724567E+02 -0.10549971577E+02 -0.27870181545E+02  0.43400729800E+02  0.00000000000E+00 0.  1.
         11    1    4    4    0    0  0.17208364524E+02  0.76555492430E+01  0.16896526356E+02  0.25302724102E+02  0.51100000000E-03 0. -1.
        -11    1    4    4    0    0  0.13309248252E+02 -0.11127274767E+01  0.32865370014E+01  0.13754111283E+02  0.51100000000E-03 0.  1.
         12    1    4    4    0    0  0.10351117907E+01  0.40071498103E+01  0.76871181875E+01  0.87304348145E+01  0.00000000000E+00 0. -1.
</event>
<event>
 8    1  0.6524083E-011  0.9118800E+02  0.7816164E-02  0.1184000E+00
        -11   -1    0    0    0    0  0.00000000000E+00  0.00000000000E+00  0.45593999997E+02  0.45594000000E+02  0.51100000000E-03 0. -1.
         11   -1    0    0    0    0 -0.00000000000E+00 -0.00000000000E+00 -0.45593999997E+02  0.45594000000E+02  0.51100000000E-03 0.  1.
         23    2    1    2    0    0  0.00000000000E+00  0.00000000000E+00  0.00000000000E+00  0.91188000000E+02  0.91188000000E+02 0.  0.
    9900012    2    3    3    0    0 -0.14941642950E+02  0.27514693096E+02 -0.30055151549E+02  0.47787272301E+02  0.20000005729E+02 0.  0.
         12    1    3    3    0    0  0.14941642950E+02 -0.27514693096E+02  0.30055151549E+02  0.43400727699E+02  0.00000000000E+00 0. -1.
         11    1    4    4    0    0 -0.13665173524E+02  0.15670018444E+02 -0.17492930232E+02  0.27171475003E+02  0.51100000000E-03 0.  1.
        -11    1    4    4    0    0 -0.16350931965E+01  0.10567934852E+02 -0.32029640728E+01  0.11163053163E+02  0.51100000000E-03 0. -1.
        -12    1    4    4    0    0  0.35862377073E+00  0.12767397994E+01 -0.93592572444E+01  0.94527441355E+01  0.00000000000E+00 0.  1.
</event>
<event>
 8    1  0.6524083E-011  0.9118800E+02  0.7816164E-02  0.1184000E+00
        -11   -1    0    0    0    0  0.00000000000E+00  0.00000000000E+00  0.45593999997E+02  0.45594000000E+02  0.51100000000E-03 0. -1.
         11   -1    0    0    0    0 -0.00000000000E+00 -0.00000000000E+00 -0.45593999997E+02  0.45594000000E+02  0.51100000000E-03 0.  1.
         23    2    1    2    0    0  0.00000000000E+00  0.00000000000E+00  0.00000000000E+00  0.91188000000E+02  0.91188000000E+02 0.  0.
    9900012    2    3    3    0    0 -0.13323982520E+02 -0.91061583254E+01  0.40288614436E+02  0.47787273246E+02  0.20000010036E+02 0.  0.
        -12    1    3    3    0    0  0.13323982520E+02  0.91061583254E+01 -0.40288614436E+02  0.43400726754E+02  0.00000000000E+00 0.  1.
         11    1    4    4    0    0 -0.16209428711E+01  0.13944443023E+01 -0.10623022861E+01  0.23875546301E+01  0.51100000000E-03 0. -1.
        -11    1    4    4    0    0 -0.90558804505E+01 -0.68480630963E+01  0.15814889049E+02  0.19468324396E+02  0.51100000000E-03 0.  1.
         12    1    4    4    0    0 -0.26471591989E+01 -0.36525395314E+01  0.25536027673E+02  0.25931394219E+02  0.00000000000E+00 0. -1.
</event>
<event>
 8    1  0.6524083E-011  0.9118800E+02  0.7816164E-02  0.1184000E+00
        -11   -1    0    0    0    0  0.00000000000E+00  0.00000000000E+00  0.45593999997E+02  0.45594000000E+02  0.51100000000E-03 0.  1.
         11   -1    0    0    0    0 -0.00000000000E+00 -0.00000000000E+00 -0.45593999997E+02  0.45594000000E+02  0.51100000000E-03 0. -1.
         23    2    1    2    0    0  0.00000000000E+00  0.35527136788E-14  0.35527136788E-14  0.91188000000E+02  0.91188000000E+02 0.  0.
    9900012    2    3    3    0    0  0.29766579704E+02 -0.27555703528E+02 -0.15435580512E+02  0.47787271781E+02  0.20000003358E+02 0.  0.
        -12    1    3    3    0    0 -0.29766579704E+02  0.27555703528E+02  0.15435580512E+02  0.43400728219E+02  0.00000000000E+00 0.  1.
         11    1    4    4    0    0  0.73962601939E+01 -0.88949669226E+01 -0.10105849016E+02  0.15360771010E+02  0.51100000000E-03 0. -1.
        -11    1    4    4    0    0  0.45350289257E+01 -0.79175531057E+01 -0.70555969001E+01  0.11534105185E+02  0.51100000000E-03 0.  1.
         12    1    4    4    0    0  0.17835290584E+02 -0.10743183500E+02  0.17258654045E+01  0.20892395586E+02  0.00000000000E+00 0. -1.
</event>
<event>
 8    1  0.7610040E-011  0.9118800E+02  0.7816164E-02  0.1184000E+00
        -11   -1    0    0    0    0  0.00000000000E+00  0.00000000000E+00  0.45593999997E+02  0.45594000000E+02  0.51100000000E-03 0. -1.
         11   -1    0    0    0    0 -0.00000000000E+00 -0.00000000000E+00 -0.45593999997E+02  0.45594000000E+02  0.51100000000E-03 0.  1.
         23    2    1    2    0    0  0.00000000000E+00  0.00000000000E+00  0.00000000000E+00  0.91188000000E+02  0.91188000000E+02 0.  0.
    9900012    2    3    3    0    0 -0.35958749281E+02  0.22955630268E+02 -0.79768925073E+01  0.47787269304E+02  0.19999992066E+02 0.  0.
         12    1    3    3    0    0  0.35958749281E+02 -0.22955630268E+02  0.79768925073E+01  0.43400730696E+02  0.00000000000E+00 0. -1.
         11    1    4    4    0    0 -0.37182490550E+01  0.38704500278E+00 -0.47419185911E+01  0.60382921472E+01  0.51100000000E-03 0. -1.
        -11    1    4    4    0    0 -0.27888519543E+02  0.14071226940E+02 -0.60028593435E+01  0.31808855221E+02  0.51100000000E-03 0.  1.
         12    1    4    4    0    0 -0.43519806826E+01  0.84973583251E+01  0.27678854273E+01  0.99401219361E+01  0.00000000000E+00 0. -1.
</event>
<event>
 8    1  0.6524083E-011  0.9118800E+02  0.7816164E-02  0.1184000E+00
        -11   -1    0    0    0    0  0.00000000000E+00  0.00000000000E+00  0.45593999997E+02  0.45594000000E+02  0.51100000000E-03 0. -1.
         11   -1    0    0    0    0 -0.00000000000E+00 -0.00000000000E+00 -0.45593999997E+02  0.45594000000E+02  0.51100000000E-03 0.  1.
         23    2    1    2    0    0  0.71054273576E-14  0.00000000000E+00 -0.71054273576E-14  0.91188000000E+02  0.91188000000E+02 0.  0.
    9900012    2    3    3    0    0 -0.23922993229E+02  0.11234257674E+02  0.34425359914E+02  0.47787267797E+02  0.19999985196E+02 0.  0.
        -12    1    3    3    0    0  0.23922993229E+02 -0.11234257674E+02 -0.34425359914E+02  0.43400732203E+02  0.00000000000E+00 0.  1.
         11    1    4    4    0    0 -0.11981281657E+02  0.12022831431E+02  0.29365335121E+02  0.33917878660E+02  0.51100000000E-03 0. -1.
        -11    1    4    4    0    0 -0.58961210616E+01 -0.12641333697E+01  0.49541129782E+01  0.78041983836E+01  0.51100000000E-03 0.  1.
        -12    1    4    4    0    0 -0.60455905112E+01  0.47555961255E+00  0.10591181470E+00  0.60651907543E+01  0.00000000000E+00 0.  1.
</event>
<event>
 8    1  0.6604013E-011  0.9118800E+02  0.7816164E-02  0.1184000E+00
        -11   -1    0    0    0    0  0.00000000000E+00  0.00000000000E+00  0.45593999997E+02  0.45594000000E+02  0.51100000000E-03 0. -1.
         11   -1    0    0    0    0 -0.00000000000E+00 -0.00000000000E+00 -0.45593999997E+02  0.45594000000E+02  0.51100000000E-03 0.  1.
         23    2    1    2    0    0  0.00000000000E+00  0.17763568394E-14  0.71054273576E-14  0.91188000000E+02  0.91188000000E+02 0.  0.
    9900012    2    3    3    0    0  0.98246030364E+01  0.15819057827E+02 -0.39202779370E+02  0.47787270448E+02  0.19999997280E+02 0.  0.
         12    1    3    3    0    0 -0.98246030364E+01 -0.15819057827E+02  0.39202779370E+02  0.43400729552E+02  0.00000000000E+00 0. -1.
         11    1    4    4    0    0  0.25978441772E+01  0.87039857426E+01 -0.68863462466E+01  0.11398680935E+02  0.51100000000E-03 0. -1.
        -11    1    4    4    0    0  0.19134582589E+01  0.65559263006E+01 -0.29633199703E+02  0.30409998637E+02  0.51100000000E-03 0.  1.
         12    1    4    4    0    0  0.53133006003E+01  0.55914578333E+00 -0.26832334201E+01  0.59785908760E+01  0.00000000000E+00 0. -1.
</event>
<event>
 8    1  0.6524083E-011  0.9118800E+02  0.7816164E-02  0.1184000E+00
        -11   -1    0    0    0    0  0.00000000000E+00  0.00000000000E+00  0.45593999997E+02  0.45594000000E+02  0.51100000000E-03 0. -1.
         11   -1    0    0    0    0 -0.00000000000E+00 -0.00000000000E+00 -0.45593999997E+02  0.45594000000E+02  0.51100000000E-03 0.  1.
         23    2    1    2    0    0 -0.17763568394E-14  0.35527136788E-14  0.71054273576E-14  0.91188000000E+02  0.91188000000E+02 0.  0.
    9900012    2    3    3    0    0  0.99818764977E+01 -0.16983645772E+02 -0.38672226091E+02  0.47787272437E+02  0.20000006350E+02 0.  0.
         12    1    3    3    0    0 -0.99818764977E+01  0.16983645772E+02  0.38672226091E+02  0.43400727563E+02  0.00000000000E+00 0. -1.
         11    1    4    4    0    0  0.21678600937E+00  0.38654603630E+01 -0.70009313754E+01  0.80001137727E+01  0.51100000000E-03 0. -1.
        -11    1    4    4    0    0  0.29829763755E+01 -0.20649212419E+01 -0.23925830831E+01  0.43458603133E+01  0.51100000000E-03 0.  1.
        -12    1    4    4    0    0  0.67821141129E+01 -0.18784184893E+02 -0.29278711633E+02  0.35441298351E+02  0.00000000000E+00 0.  1.
</event>
<event>
 8    1  0.6524083E-011  0.9118800E+02  0.7816164E-02  0.1184000E+00
        -11   -1    0    0    0    0  0.00000000000E+00  0.00000000000E+00  0.45593999997E+02  0.45594000000E+02  0.51100000000E-03 0. -1.
         11   -1    0    0    0    0 -0.00000000000E+00 -0.00000000000E+00 -0.45593999997E+02  0.45594000000E+02  0.51100000000E-03 0.  1.
         23    2    1    2    0    0  0.35527136788E-14  0.00000000000E+00  0.00000000000E+00  0.91188000000E+02  0.91188000000E+02 0.  0.
    9900012    2    3    3    0    0 -0.27664016720E+02  0.17383077624E+02  0.28568404629E+02  0.47787274755E+02  0.20000016919E+02 0.  0.
        -12    1    3    3    0    0  0.27664016720E+02 -0.17383077624E+02 -0.28568404629E+02  0.43400725245E+02  0.00000000000E+00 0.  1.
         11    1    4    4    0    0 -0.12005773848E+02  0.62740759815E+01  0.18122595590E+02  0.22625894596E+02  0.51100000000E-03 0. -1.
        -11    1    4    4    0    0 -0.57000218994E+01 -0.16800065067E+01  0.12132793534E+00  0.59436850729E+01  0.51100000000E-03 0.  1.
         12    1    4    4    0    0 -0.99582209728E+01  0.12789008149E+02  0.10324481104E+02  0.19217695086E+02  0.00000000000E+00 0. -1.
</event>
<event>
 8    1  0.6524083E-011  0.9118800E+02  0.7816164E-02  0.1184000E+00
        -11   -1    0    0    0    0  0.00000000000E+00  0.00000000000E+00  0.45593999997E+02  0.45594000000E+02  0.51100000000E-03 0. -1.
         11   -1    0    0    0    0 -0.00000000000E+00 -0.00000000000E+00 -0.45593999997E+02  0.45594000000E+02  0.51100000000E-03 0.  1.
         23    2    1    2    0    0  0.00000000000E+00  0.00000000000E+00  0.17763568394E-14  0.91188000000E+02  0.91188000000E+02 0.  0.
    9900012    2    3    3    0    0  0.95091500323E+01 -0.40614577088E+02 -0.11985528611E+02  0.47787300668E+02  0.20000135066E+02 0.  0.
         12    1    3    3    0    0 -0.95091500323E+01  0.40614577088E+02  0.11985528611E+02  0.43400699332E+02  0.00000000000E+00 0. -1.
         11    1    4    4    0    0  0.25492561981E+01  0.13760585379E+01 -0.38018715020E+00  0.29217780192E+01  0.51100000000E-03 0.  1.
        -11    1    4    4    0    0 -0.91544579813E+00 -0.15345400307E+02 -0.21844814484E+01  0.15527115349E+02  0.51100000000E-03 0. -1.
        -12    1    4    4    0    0  0.78753396324E+01 -0.26645235319E+02 -0.94208600129E+01  0.29338407300E+02  0.00000000000E+00 0.  1.
</event>
<event>
 8    1  0.6524083E-011  0.9118800E+02  0.7816164E-02  0.1184000E+00
        -11   -1    0    0    0    0  0.00000000000E+00  0.00000000000E+00  0.45593999997E+02  0.45594000000E+02  0.51100000000E-03 0. -1.
         11   -1    0    0    0    0 -0.00000000000E+00 -0.00000000000E+00 -0.45593999997E+02  0.45594000000E+02  0.51100000000E-03 0.  1.
         23    2    1    2    0    0  0.00000000000E+00  0.00000000000E+00  0.00000000000E+00  0.91188000000E+02  0.91188000000E+02 0.  0.
    9900012    2    3    3    0    0  0.84588441523E+01 -0.34862661608E+02  0.24426748477E+02  0.47787271205E+02  0.20000000732E+02 0.  0.
        -12    1    3    3    0    0 -0.84588441523E+01  0.34862661608E+02 -0.24426748477E+02  0.43400728795E+02  0.00000000000E+00 0.  1.
         11    1    4    4    0    0 -0.35406180805E+00 -0.22715014371E+02  0.90462666336E+01  0.24452651756E+02  0.51100000000E-03 0. -1.
        -11    1    4    4    0    0 -0.11860601317E+00  0.54526313601E+00  0.41249778618E+01  0.41625499271E+01  0.51100000000E-03 0.  1.
        -12    1    4    4    0    0  0.89315119735E+01 -0.12692910373E+02  0.11255503981E+02  0.19172069522E+02  0.00000000000E+00 0.  1.
</event>
<event>
 8    1  0.6524083E-011  0.9118800E+02  0.7816164E-02  0.1184000E+00
        -11   -1    0    0    0    0  0.00000000000E+00  0.00000000000E+00  0.45593999997E+02  0.45594000000E+02  0.51100000000E-03 0. -1.
         11   -1    0    0    0    0 -0.00000000000E+00 -0.00000000000E+00 -0.45593999997E+02  0.45594000000E+02  0.51100000000E-03 0.  1.
         23    2    1    2    0    0  0.71054273576E-14  0.35527136788E-14 -0.71054273576E-14  0.91188000000E+02  0.91188000000E+02 0.  0.
    9900012    2    3    3    0    0 -0.34799315247E+02 -0.16765090399E+02  0.19787946259E+02  0.47787269420E+02  0.19999992592E+02 0.  0.
        -12    1    3    3    0    0  0.34799315247E+02  0.16765090399E+02 -0.19787946259E+02  0.43400730580E+02  0.00000000000E+00 0.  1.
         11    1    4    4    0    0 -0.26660880199E+02 -0.75902953619E+01  0.11298169625E+02  0.29934324007E+02  0.51100000000E-03 0. -1.
        -11    1    4    4    0    0  0.48674893537E+00  0.15023675841E+01  0.23147169994E+01  0.28021327471E+01  0.51100000000E-03 0.  1.
        -12    1    4    4    0    0 -0.86251839838E+01 -0.10677162621E+02  0.61750596348E+01  0.15050812665E+02  0.00000000000E+00 0.  1.
</event>
<event>
 8    1  0.6524083E-011  0.9118800E+02  0.7816164E-02  0.1184000E+00
        -11   -1    0    0    0    0  0.00000000000E+00  0.00000000000E+00  0.45593999997E+02  0.45594000000E+02  0.51100000000E-03 0. -1.
         11   -1    0    0    0    0 -0.00000000000E+00 -0.00000000000E+00 -0.45593999997E+02  0.45594000000E+02  0.51100000000E-03 0.  1.
         23    2    1    2    0    0  0.17763568394E-14 -0.17763568394E-14 -0.71054273576E-14  0.91188000000E+02  0.91188000000E+02 0.  0.
    9900012    2    3    3    0    0  0.15929777077E+02  0.12080086081E+02 -0.38521880878E+02  0.47787290515E+02  0.20000088773E+02 0.  0.
         12    1    3    3    0    0 -0.15929777077E+02 -0.12080086081E+02  0.38521880878E+02  0.43400709485E+02  0.00000000000E+00 0. -1.
         11    1    4    4    0    0  0.98738962847E+01  0.55915971416E+01 -0.10055611067E+02  0.15161632519E+02  0.51100000000E-03 0. -1.
        -11    1    4    4    0    0  0.20938889811E+01  0.10243490812E+02 -0.19582636042E+02  0.22198943887E+02  0.51100000000E-03 0.  1.
        -12    1    4    4    0    0  0.39619918109E+01 -0.37550018729E+01 -0.88836337690E+01  0.10426714109E+02  0.00000000000E+00 0.  1.
</event>
<event>
 8    1  0.6524083E-011  0.9118800E+02  0.7816164E-02  0.1184000E+00
        -11   -1    0    0    0    0  0.00000000000E+00  0.00000000000E+00  0.45593999997E+02  0.45594000000E+02  0.51100000000E-03 0. -1.
         11   -1    0    0    0    0 -0.00000000000E+00 -0.00000000000E+00 -0.45593999997E+02  0.45594000000E+02  0.51100000000E-03 0.  1.
         23    2    1    2    0    0  0.71054273576E-14  0.00000000000E+00  0.00000000000E+00  0.91188000000E+02  0.91188000000E+02 0.  0.
    9900012    2    3    3    0    0 -0.37302892882E+02  0.13492365572E+02  0.17608898232E+02  0.47787273703E+02  0.20000012123E+02 0.  0.
        -12    1    3    3    0    0  0.37302892882E+02 -0.13492365572E+02 -0.17608898232E+02  0.43400726297E+02  0.00000000000E+00 0.  1.
         11    1    4    4    0    0 -0.11922503037E+02  0.79778530106E+01  0.64213260330E+01  0.15717049520E+02  0.51100000000E-03 0. -1.
        -11    1    4    4    0    0 -0.15588496324E+02 -0.74647236741E+00 -0.46365345120E+00  0.15613244808E+02  0.51100000000E-03 0.  1.
         12    1    4    4    0    0 -0.97918935211E+01  0.62609849293E+01  0.11651225650E+02  0.16456979376E+02  0.00000000000E+00 0. -1.
</event>
<event>
 8    1  0.6524083E-011  0.9118800E+02  0.7816164E-02  0.1184000E+00
        -11   -1    0    0    0    0  0.00000000000E+00  0.00000000000E+00  0.45593999997E+02  0.45594000000E+02  0.51100000000E-03 0. -1.
         11   -1    0    0    0    0 -0.00000000000E+00 -0.00000000000E+00 -0.45593999997E+02  0.45594000000E+02  0.51100000000E-03 0.  1.
         23    2    1    2    0    0  0.00000000000E+00  0.00000000000E+00  0.00000000000E+00  0.91188000000E+02  0.91188000000E+02 0.  0.
    9900012    2    3    3    0    0  0.15602453360E+02  0.92810056728E+01  0.39421438014E+02  0.47787269681E+02  0.19999993784E+02 0.  0.
        -12    1    3    3    0    0 -0.15602453360E+02 -0.92810056728E+01 -0.39421438014E+02  0.43400730319E+02  0.00000000000E+00 0.  1.
         11    1    4    4    0    0 -0.32740613149E+01 -0.47938285746E+00  0.15267394867E+01  0.36442034986E+01  0.51100000000E-03 0. -1.
        -11    1    4    4    0    0  0.91420186062E+01  0.51162854629E+01  0.11120142598E+02  0.15277776435E+02  0.51100000000E-03 0.  1.
         12    1    4    4    0    0  0.97344960683E+01  0.46441030673E+01  0.26774555929E+02  0.28865289748E+02  0.00000000000E+00 0. -1.
</event>
<event>
 8    1  0.6524083E-011  0.9118800E+02  0.7816164E-02  0.1184000E+00
        -11   -1    0    0    0    0  0.00000000000E+00  0.00000000000E+00  0.45593999997E+02  0.45594000000E+02  0.51100000000E-03 0. -1.
         11   -1    0    0    0    0 -0.00000000000E+00 -0.00000000000E+00 -0.45593999997E+02  0.45594000000E+02  0.51100000000E-03 0.  1.
         23    2    1    2    0    0 -0.35527136788E-14  0.00000000000E+00 -0.35527136788E-14  0.91188000000E+02  0.91188000000E+02 0.  0.
    9900012    2    3    3    0    0  0.21773799963E+02  0.25808460244E+02  0.27266246784E+02  0.47787271911E+02  0.20000003950E+02 0.  0.
        -12    1    3    3    0    0 -0.21773799963E+02 -0.25808460244E+02 -0.27266246784E+02  0.43400728089E+02  0.00000000000E+00 0.  1.
         11    1    4    4    0    0  0.16791268994E+01  0.14076127084E+02  0.13947582472E+02  0.19886977596E+02  0.51100000000E-03 0. -1.
        -11    1    4    4    0    0  0.66342902693E+01  0.25387816979E+01  0.81252780340E+01  0.10792560552E+02  0.51100000000E-03 0.  1.
         12    1    4    4    0    0  0.13460382794E+02  0.91935514629E+01  0.51933862775E+01  0.17107733762E+02  0.00000000000E+00 0. -1.
</event>
<event>
 8    1  0.6524083E-011  0.9118800E+02  0.7816164E-02  0.1184000E+00
        -11   -1    0    0    0    0  0.00000000000E+00  0.00000000000E+00  0.45593999997E+02  0.45594000000E+02  0.51100000000E-03 0.  1.
         11   -1    0    0    0    0 -0.00000000000E+00 -0.00000000000E+00 -0.45593999997E+02  0.45594000000E+02  0.51100000000E-03 0. -1.
         23    2    1    2    0    0  0.00000000000E+00  0.00000000000E+00 -0.44408920985E-15  0.91188000000E+02  0.91188000000E+02 0.  0.
    9900012    2    3    3    0    0 -0.72846048336E+01 -0.42683024901E+02 -0.29524760945E+01  0.47787271926E+02  0.20000004019E+02 0.  0.
         12    1    3    3    0    0  0.72846048336E+01  0.42683024901E+02  0.29524760945E+01  0.43400728074E+02  0.00000000000E+00 0. -1.
         11    1    4    4    0    0  0.13180895539E+01  0.81455889176E+00  0.12597509022E+01  0.19969573999E+01  0.51100000000E-03 0. -1.
        -11    1    4    4    0    0  0.10581634358E+01 -0.21319392162E+02 -0.31421200599E+01  0.21575660146E+02  0.51100000000E-03 0.  1.
        -12    1    4    4    0    0 -0.96608578232E+01 -0.22178191631E+02 -0.10701069368E+01  0.24214654380E+02  0.00000000000E+00 0.  1.
</event>
<event>
 8    1  0.8289248E-011  0.9118800E+02  0.7816164E-02  0.1184000E+00
        -11   -1    0    0    0    0  0.00000000000E+00  0.00000000000E+00  0.45593999997E+02  0.45594000000E+02  0.51100000000E-03 0. -1.
         11   -1    0    0    0    0 -0.00000000000E+00 -0.00000000000E+00 -0.45593999997E+02  0.45594000000E+02  0.51100000000E-03 0.  1.
         23    2    1    2    0    0  0.00000000000E+00  0.00000000000E+00  0.00000000000E+00  0.91188000000E+02  0.91188000000E+02 0.  0.
    9900012    2    3    3    0    0  0.13382854695E+02 -0.13598682776E+02 -0.38982025015E+02  0.47787271351E+02  0.20000001396E+02 0.  0.
         12    1    3    3    0    0 -0.13382854695E+02  0.13598682776E+02  0.38982025015E+02  0.43400728649E+02  0.00000000000E+00 0. -1.
         11    1    4    4    0    0 -0.27327923770E+00 -0.37982893955E+01 -0.15879379051E+02  0.16329616137E+02  0.51100000000E-03 0. -1.
        -11    1    4    4    0    0  0.14407888627E+02 -0.84664140209E+01 -0.24315405425E+02  0.29504344803E+02  0.51100000000E-03 0.  1.
         12    1    4    4    0    0 -0.75175469354E+00 -0.13339793595E+01  0.12127594605E+01  0.19533104105E+01  0.00000000000E+00 0. -1.
</event>
<event>
 8    1  0.6524083E-011  0.9118800E+02  0.7816164E-02  0.1184000E+00
        -11   -1    0    0    0    0  0.00000000000E+00  0.00000000000E+00  0.45593999997E+02  0.45594000000E+02  0.51100000000E-03 0. -1.
         11   -1    0    0    0    0 -0.00000000000E+00 -0.00000000000E+00 -0.45593999997E+02  0.45594000000E+02  0.51100000000E-03 0.  1.
         23    2    1    2    0    0  0.71054273576E-14 -0.35527136788E-14 -0.35527136788E-14  0.91188000000E+02  0.91188000000E+02 0.  0.
    9900012    2    3    3    0    0  0.21798053640E+02  0.20222777008E+02 -0.31614910483E+02  0.47787326995E+02  0.20000255099E+02 0.  0.
         12    1    3    3    0    0 -0.21798053640E+02 -0.20222777008E+02  0.31614910483E+02  0.43400673005E+02  0.00000000000E+00 0. -1.
         11    1    4    4    0    0  0.18628760718E+02  0.19497779394E+02 -0.24948221482E+02  0.36737009712E+02  0.51100000000E-03 0. -1.
        -11    1    4    4    0    0  0.57606546637E+01  0.17348296748E+01 -0.42513238587E+01  0.73667177880E+01  0.51100000000E-03 0.  1.
        -12    1    4    4    0    0 -0.25913617422E+01 -0.10098320602E+01 -0.24153651425E+01  0.36835994951E+01  0.00000000000E+00 0.  1.
</event>
<event>
 8    1  0.6524083E-011  0.9118800E+02  0.7816164E-02  0.1184000E+00
        -11   -1    0    0    0    0  0.00000000000E+00  0.00000000000E+00  0.45593999997E+02  0.45594000000E+02  0.51100000000E-03 0. -1.
         11   -1    0    0    0    0 -0.00000000000E+00 -0.00000000000E+00 -0.45593999997E+02  0.45594000000E+02  0.51100000000E-03 0.  1.
         23    2    1    2    0    0  0.00000000000E+00  0.00000000000E+00  0.00000000000E+00  0.91188000000E+02  0.91188000000E+02 0.  0.
    9900012    2    3    3    0    0 -0.13866411253E+02  0.34415559690E+02  0.22514774474E+02  0.47787272132E+02  0.20000004960E+02 0.  0.
        -12    1    3    3    0    0  0.13866411253E+02 -0.34415559690E+02 -0.22514774474E+02  0.43400727868E+02  0.00000000000E+00 0.  1.
         11    1    4    4    0    0 -0.52979669913E+01  0.73889224009E+01  0.80088128663E+01  0.12116340713E+02  0.51100000000E-03 0. -1.
        -11    1    4    4    0    0 -0.40680884921E+00  0.77929487107E+01 -0.30522172203E+01  0.83792346470E+01  0.51100000000E-03 0.  1.
        -12    1    4    4    0    0 -0.81616354124E+01  0.19233688579E+02  0.17558178828E+02  0.27291696772E+02  0.00000000000E+00 0.  1.
</event>
<event>
 8    1  0.6878131E-011  0.9118800E+02  0.7816164E-02  0.1184000E+00
        -11   -1    0    0    0    0  0.00000000000E+00  0.00000000000E+00  0.45593999997E+02  0.45594000000E+02  0.51100000000E-03 0. -1.
         11   -1    0    0    0    0 -0.00000000000E+00 -0.00000000000E+00 -0.45593999997E+02  0.45594000000E+02  0.51100000000E-03 0.  1.
         23    2    1    2    0    0 -0.35527136788E-14  0.35527136788E-14  0.35527136788E-14  0.91188000000E+02  0.91188000000E+02 0.  0.
    9900012    2    3    3    0    0  0.27803773762E+02 -0.18385124513E+02 -0.27794956083E+02  0.47787283158E+02  0.20000055229E+02 0.  0.
         12    1    3    3    0    0 -0.27803773762E+02  0.18385124513E+02  0.27794956083E+02  0.43400716842E+02  0.00000000000E+00 0. -1.
         11    1    4    4    0    0  0.59727622914E+01 -0.99455508184E+01 -0.57398336356E+01  0.12943475611E+02  0.51100000000E-03 0. -1.
        -11    1    4    4    0    0  0.16515771519E+02 -0.23387213302E+01 -0.77148671584E+01  0.18378234460E+02  0.51100000000E-03 0.  1.
         12    1    4    4    0    0  0.53152399520E+01 -0.61008523644E+01 -0.14340255289E+02  0.16465573087E+02  0.00000000000E+00 0. -1.
</event>
<event>
 8    1  0.6524083E-011  0.9118800E+02  0.7816164E-02  0.1184000E+00
        -11   -1    0    0    0    0  0.00000000000E+00  0.00000000000E+00  0.45593999997E+02  0.45594000000E+02  0.51100000000E-03 0. -1.
         11   -1    0    0    0    0 -0.00000000000E+00 -0.00000000000E+00 -0.45593999997E+02  0.45594000000E+02  0.51100000000E-03 0.  1.
         23    2    1    2    0    0  0.35527136788E-14  0.00000000000E+00  0.00000000000E+00  0.91188000000E+02  0.91188000000E+02 0.  0.
    9900012    2    3    3    0    0  0.28513659932E+02 -0.21107169395E+02  0.25001617478E+02  0.47787282505E+02  0.20000052253E+02 0.  0.
        -12    1    3    3    0    0 -0.28513659932E+02  0.21107169395E+02 -0.25001617478E+02  0.43400717495E+02  0.00000000000E+00 0.  1.
         11    1    4    4    0    0  0.69737338385E+01 -0.57439955696E+01 -0.15984417910E+00  0.90361495769E+01  0.51100000000E-03 0. -1.
        -11    1    4    4    0    0  0.11064042237E+01 -0.30401898341E+00 -0.15330939915E+01  0.19149243579E+01  0.51100000000E-03 0.  1.
         12    1    4    4    0    0  0.20433521870E+02 -0.15059154842E+02  0.26694555648E+02  0.36836208570E+02  0.00000000000E+00 0. -1.
</event>
<event>
 8    1  0.6524083E-011  0.9118800E+02  0.7816164E-02  0.1184000E+00
        -11   -1    0    0    0    0  0.00000000000E+00  0.00000000000E+00  0.45593999997E+02  0.45594000000E+02  0.51100000000E-03 0.  1.
         11   -1    0    0    0    0 -0.00000000000E+00 -0.00000000000E+00 -0.45593999997E+02  0.45594000000E+02  0.51100000000E-03 0. -1.
         23    2    1    2    0    0 -0.17763568394E-14  0.00000000000E+00 -0.88817841970E-15  0.91188000000E+02  0.91188000000E+02 0.  0.
    9900012    2    3    3    0    0 -0.10599437608E+02 -0.41350848286E+02 -0.78347138809E+01  0.47787268748E+02  0.19999989530E+02 0.  0.
         12    1    3    3    0    0  0.10599437608E+02  0.41350848286E+02  0.78347138809E+01  0.43400731252E+02  0.00000000000E+00 0. -1.
         11    1    4    4    0    0 -0.73821147120E+01 -0.83332370861E+01  0.21002347688E+01  0.11329141375E+02  0.51100000000E-03 0. -1.
        -11    1    4    4    0    0  0.38221343776E+01 -0.71082329060E+01 -0.85578307153E+00  0.81159134528E+01  0.51100000000E-03 0.  1.
        -12    1    4    4    0    0 -0.70394572733E+01 -0.25909378294E+02 -0.90791655782E+01  0.28342213920E+02  0.00000000000E+00 0.  1.
</event>
<event>
 8    1  0.6524083E-011  0.9118800E+02  0.7816164E-02  0.1184000E+00
        -11   -1    0    0    0    0  0.00000000000E+00  0.00000000000E+00  0.45593999997E+02  0.45594000000E+02  0.51100000000E-03 0.  1.
         11   -1    0    0    0    0 -0.00000000000E+00 -0.00000000000E+00 -0.45593999997E+02  0.45594000000E+02  0.51100000000E-03 0. -1.
         23    2    1    2    0    0 -0.35527136788E-14  0.35527136788E-14 -0.35527136788E-14  0.91188000000E+02  0.91188000000E+02 0.  0.
    9900012    2    3    3    0    0  0.22193467836E+02  0.23845755323E+02  0.28678443734E+02  0.47787271936E+02  0.20000004063E+02 0.  0.
        -12    1    3    3    0    0 -0.22193467836E+02 -0.23845755323E+02 -0.28678443734E+02  0.43400728064E+02  0.00000000000E+00 0.  1.
         11    1    4    4    0    0  0.19297387403E+02  0.23467737112E+02  0.23177637287E+02  0.38214221387E+02  0.51100000000E-03 0. -1.
        -11    1    4    4    0    0 -0.38477605437E+00  0.19334558689E+01 -0.93638626247E+00  0.21824581789E+01  0.51100000000E-03 0.  1.
         12    1    4    4    0    0  0.32808564875E+01 -0.15554376580E+01  0.64371927091E+01  0.73905923696E+01  0.00000000000E+00 0. -1.
</event>
<event>
 8    1  0.6524083E-011  0.9118800E+02  0.7816164E-02  0.1184000E+00
        -11   -1    0    0    0    0  0.00000000000E+00  0.00000000000E+00  0.45593999997E+02  0.45594000000E+02  0.51100000000E-03 0. -1.
         11   -1    0    0    0    0 -0.00000000000E+00 -0.00000000000E+00 -0.45593999997E+02  0.45594000000E+02  0.51100000000E-03 0.  1.
         23    2    1    2    0    0  0.88817841970E-15  0.71054273576E-14  0.00000000000E+00  0.91188000000E+02  0.91188000000E+02 0.  0.
    9900012    2    3    3    0    0  0.52702849906E+01  0.42194707314E+02  0.86864283664E+01  0.47787271124E+02  0.20000000364E+02 0.  0.
        -12    1    3    3    0    0 -0.52702849906E+01 -0.42194707314E+02 -0.86864283664E+01  0.43400728876E+02  0.00000000000E+00 0.  1.
         11    1    4    4    0    0 -0.82288502019E+00  0.13352242225E+02 -0.34298558389E+01  0.13810265150E+02  0.51100000000E-03 0.  1.
        -11    1    4    4    0    0  0.78484489529E+01  0.11487562317E+02  0.27638385723E+01  0.14184535342E+02  0.51100000000E-03 0. -1.
        -12    1    4    4    0    0 -0.17552789422E+01  0.17354902772E+02  0.93524456330E+01  0.19792470632E+02  0.00000000000E+00 0.  1.
</event>
<event>
 8    1  0.6524083E-011  0.9118800E+02  0.7816164E-02  0.1184000E+00
        -11   -1    0    0    0    0  0.00000000000E+00  0.00000000000E+00  0.45593999997E+02  0.45594000000E+02  0.51100000000E-03 0. -1.
         11   -1    0    0    0    0 -0.00000000000E+00 -0.00000000000E+00 -0.45593999997E+02  0.45594000000E+02  0.51100000000E-03 0.  1.
         23    2    1    2    0    0  0.00000000000E+00  0.17763568394E-14  0.00000000000E+00  0.91188000000E+02  0.91188000000E+02 0.  0.
    9900012    2    3    3    0    0  0.20298249363E+01 -0.14467898286E+02  0.40867865032E+02  0.47787278089E+02  0.20000032119E+02 0.  0.
        -12    1    3    3    0    0 -0.20298249363E+01  0.14467898286E+02 -0.40867865032E+02  0.43400721911E+02  0.00000000000E+00 0.  1.
         11    1    4    4    0    0  0.26529556470E+01 -0.22561858684E+01  0.10509626223E+02  0.11071621017E+02  0.51100000000E-03 0. -1.
        -11    1    4    4    0    0  0.62276344065E+01 -0.77403094634E+00  0.48426038873E+01  0.79267500830E+01  0.51100000000E-03 0.  1.
         12    1    4    4    0    0 -0.68507651172E+01 -0.11437681472E+02  0.25515634922E+02  0.28788906989E+02  0.00000000000E+00 0. -1.
</event>
<event>
 8    1  0.6524083E-011  0.9118800E+02  0.7816164E-02  0.1184000E+00
        -11   -1    0    0    0    0  0.00000000000E+00  0.00000000000E+00  0.45593999997E+02  0.45594000000E+02  0.51100000000E-03 0. -1.
         11   -1    0    0    0    0 -0.00000000000E+00 -0.00000000000E+00 -0.45593999997E+02  0.45594000000E+02  0.51100000000E-03 0.  1.
         23    2    1    2    0    0  0.00000000000E+00  0.00000000000E+00  0.22204460493E-15  0.91188000000E+02  0.91188000000E+02 0.  0.
    9900012    2    3    3    0    0  0.41666177614E+02 -0.12139514915E+02 -0.43006353139E+00  0.47787272656E+02  0.20000007346E+02 0.  0.
         12    1    3    3    0    0 -0.41666177614E+02  0.12139514915E+02  0.43006353139E+00  0.43400727344E+02  0.00000000000E+00 0. -1.
         11    1    4    4    0    0  0.28982256527E+01  0.28255600647E+01  0.17430986412E+01  0.44070278814E+01  0.51100000000E-03 0. -1.
        -11    1    4    4    0    0  0.83225930771E+01 -0.85948041415E+01  0.15075455512E+01  0.12058561589E+02  0.51100000000E-03 0.  1.
        -12    1    4    4    0    0  0.30445358885E+02 -0.63702708387E+01 -0.36807077238E+01  0.31321683185E+02  0.00000000000E+00 0.  1.
</event>
<event>
 8    1  0.6524083E-011  0.9118800E+02  0.7816164E-02  0.1184000E+00
        -11   -1    0    0    0    0  0.00000000000E+00  0.00000000000E+00  0.45593999997E+02  0.45594000000E+02  0.51100000000E-03 0. -1.
         11   -1    0    0    0    0 -0.00000000000E+00 -0.00000000000E+00 -0.45593999997E+02  0.45594000000E+02  0.51100000000E-03 0.  1.
         23    2    1    2    0    0  0.00000000000E+00  0.00000000000E+00  0.00000000000E+00  0.91188000000E+02  0.91188000000E+02 0.  0.
    9900012    2    3    3    0    0  0.21522726896E+02 -0.16706639104E+02  0.33782919784E+02  0.47787248483E+02  0.19999897131E+02 0.  0.
        -12    1    3    3    0    0 -0.21522726896E+02  0.16706639104E+02 -0.33782919784E+02  0.43400751517E+02  0.00000000000E+00 0.  1.
         11    1    4    4    0    0  0.70090821867E+01 -0.12482683511E+01  0.13538572664E+02  0.15296351102E+02  0.51100000000E-03 0.  1.
        -11    1    4    4    0    0  0.12896608577E+01 -0.10970601883E+02  0.11837860823E+02  0.16191117315E+02  0.51100000000E-03 0. -1.
        -12    1    4    4    0    0  0.13223983851E+02 -0.44877688702E+01  0.84064862965E+01  0.16299780066E+02  0.00000000000E+00 0.  1.
</event>
<event>
 8    1  0.6524083E-011  0.9118800E+02  0.7816164E-02  0.1184000E+00
        -11   -1    0    0    0    0  0.00000000000E+00  0.00000000000E+00  0.45593999997E+02  0.45594000000E+02  0.51100000000E-03 0. -1.
         11   -1    0    0    0    0 -0.00000000000E+00 -0.00000000000E+00 -0.45593999997E+02  0.45594000000E+02  0.51100000000E-03 0.  1.
         23    2    1    2    0    0  0.00000000000E+00  0.00000000000E+00  0.00000000000E+00  0.91188000000E+02  0.91188000000E+02 0.  0.
    9900012    2    3    3    0    0 -0.17719619184E+02  0.34542773293E+02  0.19401945104E+02  0.47787267695E+02  0.19999984730E+02 0.  0.
        -12    1    3    3    0    0  0.17719619184E+02 -0.34542773293E+02 -0.19401945104E+02  0.43400732305E+02  0.00000000000E+00 0.  1.
         11    1    4    4    0    0  0.33245238198E+01  0.31657913130E+01  0.13677879035E+01  0.47901500265E+01  0.51100000000E-03 0. -1.
        -11    1    4    4    0    0 -0.93767568920E+01  0.80624764464E+01  0.94007527813E+01  0.15533874255E+02  0.51100000000E-03 0.  1.
         12    1    4    4    0    0 -0.11667386112E+02  0.23314505533E+02  0.86334044192E+01  0.27463243414E+02  0.00000000000E+00 0. -1.
</event>
<event>
 8    1  0.6524083E-011  0.9118800E+02  0.7816164E-02  0.1184000E+00
        -11   -1    0    0    0    0  0.00000000000E+00  0.00000000000E+00  0.45593999997E+02  0.45594000000E+02  0.51100000000E-03 0. -1.
         11   -1    0    0    0    0 -0.00000000000E+00 -0.00000000000E+00 -0.45593999997E+02  0.45594000000E+02  0.51100000000E-03 0.  1.
         23    2    1    2    0    0  0.35527136788E-14 -0.17763568394E-14  0.71054273576E-14  0.91188000000E+02  0.91188000000E+02 0.  0.
    9900012    2    3    3    0    0  0.22221483564E+02 -0.10538052408E+02  0.35760010837E+02  0.47787271257E+02  0.20000000969E+02 0.  0.
        -12    1    3    3    0    0 -0.22221483564E+02  0.10538052408E+02 -0.35760010837E+02  0.43400728743E+02  0.00000000000E+00 0.  1.
         11    1    4    4    0    0  0.12807042803E+02 -0.45232915808E+01  0.18198582391E+02  0.22708344576E+02  0.51100000000E-03 0. -1.
        -11    1    4    4    0    0  0.65330248150E+01  0.50287177896E+00  0.47915848339E+00  0.65698467541E+01  0.51100000000E-03 0.  1.
         12    1    4    4    0    0  0.28814159460E+01 -0.65176326064E+01  0.17082269963E+02  0.18509079927E+02  0.00000000000E+00 0. -1.
</event>
<event>
 8    1  0.6524083E-011  0.9118800E+02  0.7816164E-02  0.1184000E+00
        -11   -1    0    0    0    0  0.00000000000E+00  0.00000000000E+00  0.45593999997E+02  0.45594000000E+02  0.51100000000E-03 0. -1.
         11   -1    0    0    0    0 -0.00000000000E+00 -0.00000000000E+00 -0.45593999997E+02  0.45594000000E+02  0.51100000000E-03 0.  1.
         23    2    1    2    0    0  0.00000000000E+00  0.00000000000E+00  0.00000000000E+00  0.91188000000E+02  0.91188000000E+02 0.  0.
    9900012    2    3    3    0    0 -0.14110708412E+02  0.20622161240E+02 -0.35485737131E+02  0.47787272289E+02  0.20000005677E+02 0.  0.
         12    1    3    3    0    0  0.14110708412E+02 -0.20622161240E+02  0.35485737131E+02  0.43400727711E+02  0.00000000000E+00 0. -1.
         11    1    4    4    0    0 -0.99633482857E+01  0.18322055181E+02 -0.14811164672E+02  0.25580004189E+02  0.51100000000E-03 0. -1.
        -11    1    4    4    0    0 -0.39574949068E+01  0.44348407250E+01 -0.15860970610E+02  0.16938121712E+02  0.51100000000E-03 0.  1.
         12    1    4    4    0    0 -0.18986521925E+00 -0.21347346662E+01 -0.48136018489E+01  0.52691463879E+01  0.00000000000E+00 0. -1.
</event>
<event>
 8    1  0.6524083E-011  0.9118800E+02  0.7816164E-02  0.1184000E+00
        -11   -1    0    0    0    0  0.00000000000E+00  0.00000000000E+00  0.45593999997E+02  0.45594000000E+02  0.51100000000E-03 0. -1.
         11   -1    0    0    0    0 -0.00000000000E+00 -0.00000000000E+00 -0.45593999997E+02  0.45594000000E+02  0.51100000000E-03 0.  1.
         23    2    1    2    0    0  0.00000000000E+00  0.00000000000E+00  0.00000000000E+00  0.91188000000E+02  0.91188000000E+02 0.  0.
    9900012    2    3    3    0    0  0.20671537587E+02  0.16845612075E+02 -0.34242310404E+02  0.47787274958E+02  0.20000017843E+02 0.  0.
         12    1    3    3    0    0 -0.20671537587E+02 -0.16845612075E+02  0.34242310404E+02  0.43400725042E+02  0.00000000000E+00 0. -1.
         11    1    4    4    0    0 -0.92335730551E+00 -0.80793760687E+00  0.14594563585E+01  0.19066633194E+01  0.51100000000E-03 0. -1.
        -11    1    4    4    0    0  0.73574255460E+01  0.55259000505E+01 -0.17559856447E+02  0.19824627127E+02  0.51100000000E-03 0.  1.
         12    1    4    4    0    0  0.14237469346E+02  0.12127649631E+02 -0.18141910316E+02  0.26055984512E+02  0.00000000000E+00 0. -1.
</event>
<event>
 8    1  0.6524083E-011  0.9118800E+02  0.7816164E-02  0.1184000E+00
        -11   -1    0    0    0    0  0.00000000000E+00  0.00000000000E+00  0.45593999997E+02  0.45594000000E+02  0.51100000000E-03 0.  1.
         11   -1    0    0    0    0 -0.00000000000E+00 -0.00000000000E+00 -0.45593999997E+02  0.45594000000E+02  0.51100000000E-03 0. -1.
         23    2    1    2    0    0  0.00000000000E+00  0.00000000000E+00  0.00000000000E+00  0.91188000000E+02  0.91188000000E+02 0.  0.
    9900012    2    3    3    0    0 -0.13494332190E+02  0.40524474721E+02 -0.77003135935E+01  0.47787252516E+02  0.19999915522E+02 0.  0.
         12    1    3    3    0    0  0.13494332190E+02 -0.40524474721E+02  0.77003135935E+01  0.43400747484E+02  0.00000000000E+00 0. -1.
         11    1    4    4    0    0 -0.45865103402E+01  0.59758050248E+01 -0.35230220914E+01  0.83161293709E+01  0.51100000000E-03 0. -1.
        -11    1    4    4    0    0 -0.13967162493E+01  0.19633165866E+02  0.51467065575E+01  0.20344547349E+02  0.51100000000E-03 0.  1.
        -12    1    4    4    0    0 -0.75111056007E+01  0.14915503831E+02 -0.93239980595E+01  0.19126575796E+02  0.00000000000E+00 0.  1.
</event>
<event>
 8    1  0.6524083E-011  0.9118800E+02  0.7816164E-02  0.1184000E+00
        -11   -1    0    0    0    0  0.00000000000E+00  0.00000000000E+00  0.45593999997E+02  0.45594000000E+02  0.51100000000E-03 0. -1.
         11   -1    0    0    0    0 -0.00000000000E+00 -0.00000000000E+00 -0.45593999997E+02  0.45594000000E+02  0.51100000000E-03 0.  1.
         23    2    1    2    0    0  0.00000000000E+00  0.00000000000E+00 -0.35527136788E-14  0.91188000000E+02  0.91188000000E+02 0.  0.
    9900012    2    3    3    0    0  0.30948169376E+02  0.17197958280E+02 -0.25101089496E+02  0.47787266704E+02  0.19999980209E+02 0.  0.
         12    1    3    3    0    0 -0.30948169376E+02 -0.17197958280E+02  0.25101089496E+02  0.43400733296E+02  0.00000000000E+00 0. -1.
         11    1    4    4    0    0  0.31692611353E+01  0.87353220047E+00 -0.10501492658E+02  0.11004027579E+02  0.51100000000E-03 0. -1.
        -11    1    4    4    0    0  0.18777397489E+02  0.55271131851E+01 -0.10081652857E+02  0.22017705630E+02  0.51100000000E-03 0.  1.
         12    1    4    4    0    0  0.90015107524E+01  0.10797312895E+02 -0.45179439806E+01  0.14765533495E+02  0.00000000000E+00 0. -1.
</event>
<event>
 8    1  0.6524083E-011  0.9118800E+02  0.7816164E-02  0.1184000E+00
        -11   -1    0    0    0    0  0.00000000000E+00  0.00000000000E+00  0.45593999997E+02  0.45594000000E+02  0.51100000000E-03 0.  1.
         11   -1    0    0    0    0 -0.00000000000E+00 -0.00000000000E+00 -0.45593999997E+02  0.45594000000E+02  0.51100000000E-03 0. -1.
         23    2    1    2    0    0  0.00000000000E+00  0.00000000000E+00  0.00000000000E+00  0.91188000000E+02  0.91188000000E+02 0.  0.
    9900012    2    3    3    0    0  0.35561790077E+02  0.16465442117E+02 -0.18651323641E+02  0.47787267620E+02  0.19999984385E+02 0.  0.
         12    1    3    3    0    0 -0.35561790077E+02 -0.16465442117E+02  0.18651323641E+02  0.43400732380E+02  0.00000000000E+00 0. -1.
         11    1    4    4    0    0  0.13302099917E+02  0.65127031568E+01 -0.14779961678E+00  0.14811583629E+02  0.51100000000E-03 0.  1.
        -11    1    4    4    0    0  0.17542719897E+01  0.60173714281E+01 -0.57714231001E+01  0.85203024582E+01  0.51100000000E-03 0. -1.
        -12    1    4    4    0    0  0.20505418170E+02  0.39353675320E+01 -0.12732100925E+02  0.24455381532E+02  0.00000000000E+00 0.  1.
</event>
<event>
 8    1  0.6524083E-011  0.9118800E+02  0.7816164E-02  0.1184000E+00
        -11   -1    0    0    0    0  0.00000000000E+00  0.00000000000E+00  0.45593999997E+02  0.45594000000E+02  0.51100000000E-03 0. -1.
         11   -1    0    0    0    0 -0.00000000000E+00 -0.00000000000E+00 -0.45593999997E+02  0.45594000000E+02  0.51100000000E-03 0.  1.
         23    2    1    2    0    0 -0.35527136788E-14  0.00000000000E+00  0.00000000000E+00  0.91188000000E+02  0.91188000000E+02 0.  0.
    9900012    2    3    3    0    0  0.20195315672E+02  0.23191206132E+02  0.30625822373E+02  0.47787264834E+02  0.19999971683E+02 0.  0.
        -12    1    3    3    0    0 -0.20195315672E+02 -0.23191206132E+02 -0.30625822373E+02  0.43400735166E+02  0.00000000000E+00 0.  1.
         11    1    4    4    0    0  0.16150695840E+02  0.92245726640E+01  0.15384581013E+02  0.24137585839E+02  0.51100000000E-03 0. -1.
        -11    1    4    4    0    0  0.55550575981E+00  0.95517379310E+01  0.15272942065E+02  0.18022403939E+02  0.51100000000E-03 0.  1.
         12    1    4    4    0    0  0.34891140723E+01  0.44148955374E+01 -0.31700705523E-01  0.56272750555E+01  0.00000000000E+00 0. -1.
</event>
<event>
 8    1  0.6524083E-011  0.9118800E+02  0.7816164E-02  0.1184000E+00
        -11   -1    0    0    0    0  0.00000000000E+00  0.00000000000E+00  0.45593999997E+02  0.45594000000E+02  0.51100000000E-03 0. -1.
         11   -1    0    0    0    0 -0.00000000000E+00 -0.00000000000E+00 -0.45593999997E+02  0.45594000000E+02  0.51100000000E-03 0.  1.
         23    2    1    2    0    0  0.00000000000E+00  0.00000000000E+00  0.71054273576E-14  0.91188000000E+02  0.91188000000E+02 0.  0.
    9900012    2    3    3    0    0 -0.19838622355E+02 -0.18132700109E+02 -0.34077229843E+02  0.47787270237E+02  0.19999996320E+02 0.  0.
         12    1    3    3    0    0  0.19838622355E+02  0.18132700109E+02  0.34077229843E+02  0.43400729763E+02  0.00000000000E+00 0. -1.
         11    1    4    4    0    0  0.63678635847E+00 -0.33549898045E+01 -0.42824146806E+00  0.34416339827E+01  0.51100000000E-03 0. -1.
        -11    1    4    4    0    0 -0.11483924913E+02 -0.84354572520E+01 -0.77820752151E+01  0.16235706494E+02  0.51100000000E-03 0.  1.
        -12    1    4    4    0    0 -0.89914838006E+01 -0.63422530521E+01 -0.25866913160E+02  0.28109929760E+02  0.00000000000E+00 0.  1.
</event>
<event>
 8    1  0.6524083E-011  0.9118800E+02  0.7816164E-02  0.1184000E+00
        -11   -1    0    0    0    0  0.00000000000E+00  0.00000000000E+00  0.45593999997E+02  0.45594000000E+02  0.51100000000E-03 0. -1.
         11   -1    0    0    0    0 -0.00000000000E+00 -0.00000000000E+00 -0.45593999997E+02  0.45594000000E+02  0.51100000000E-03 0.  1.
         23    2    1    2    0    0  0.00000000000E+00  0.00000000000E+00  0.00000000000E+00  0.91188000000E+02  0.91188000000E+02 0.  0.
    9900012    2    3    3    0    0  0.30095335341E+02 -0.17522375395E+02  0.25900973207E+02  0.47787271183E+02  0.20000000634E+02 0.  0.
        -12    1    3    3    0    0 -0.30095335341E+02  0.17522375395E+02 -0.25900973207E+02  0.43400728817E+02  0.00000000000E+00 0.  1.
         11    1    4    4    0    0  0.10998352998E+02 -0.87589500831E+01  0.15006210709E+01  0.14139831650E+02  0.51100000000E-03 0. -1.
        -11    1    4    4    0    0  0.81699098625E+01 -0.83412598373E+01  0.89146763569E+01  0.14689979498E+02  0.51100000000E-03 0.  1.
        -12    1    4    4    0    0  0.10927072480E+02 -0.42216547446E+00  0.15485675779E+02  0.18957460036E+02  0.00000000000E+00 0.  1.
</event>
<event>
 8    1  0.6524083E-011  0.9118800E+02  0.7816164E-02  0.1184000E+00
        -11   -1    0    0    0    0  0.00000000000E+00  0.00000000000E+00  0.45593999997E+02  0.45594000000E+02  0.51100000000E-03 0. -1.
         11   -1    0    0    0    0 -0.00000000000E+00 -0.00000000000E+00 -0.45593999997E+02  0.45594000000E+02  0.51100000000E-03 0.  1.
         23    2    1    2    0    0  0.00000000000E+00 -0.44408920985E-15  0.00000000000E+00  0.91188000000E+02  0.91188000000E+02 0.  0.
    9900012    2    3    3    0    0 -0.63162760271E+01  0.11664008727E+01  0.42922806763E+02  0.47787272192E+02  0.20000005232E+02 0.  0.
        -12    1    3    3    0    0  0.63162760271E+01 -0.11664008727E+01 -0.42922806763E+02  0.43400727808E+02  0.00000000000E+00 0.  1.
         11    1    4    4    0    0 -0.64901359746E+01 -0.10209949966E+01  0.12227323396E+02  0.13880624389E+02  0.51100000000E-03 0. -1.
        -11    1    4    4    0    0  0.25932180790E+01  0.25574335800E+01  0.57543733235E+00  0.36873262543E+01  0.51100000000E-03 0.  1.
         12    1    4    4    0    0 -0.24193581315E+01 -0.37003771067E+00  0.30120046035E+02  0.30219321548E+02  0.00000000000E+00 0. -1.
</event>
<event>
 8    1  0.6524083E-011  0.9118800E+02  0.7816164E-02  0.1184000E+00
        -11   -1    0    0    0    0  0.00000000000E+00  0.00000000000E+00  0.45593999997E+02  0.45594000000E+02  0.51100000000E-03 0. -1.
         11   -1    0    0    0    0 -0.00000000000E+00 -0.00000000000E+00 -0.45593999997E+02  0.45594000000E+02  0.51100000000E-03 0.  1.
         23    2    1    2    0    0  0.00000000000E+00  0.17763568394E-14 -0.71054273576E-14  0.91188000000E+02  0.91188000000E+02 0.  0.
    9900012    2    3    3    0    0 -0.27752724558E+02 -0.90648232811E+01  0.32112900714E+02  0.47787272659E+02  0.20000007362E+02 0.  0.
        -12    1    3    3    0    0  0.27752724558E+02  0.90648232811E+01 -0.32112900714E+02  0.43400727341E+02  0.00000000000E+00 0.  1.
         11    1    4    4    0    0 -0.13552812628E+02 -0.81772689008E+01  0.18857149376E+02  0.24619880984E+02  0.51100000000E-03 0. -1.
        -11    1    4    4    0    0 -0.68795558503E+01 -0.44845229487E+01  0.12526663184E+02  0.14978535495E+02  0.51100000000E-03 0.  1.
        -12    1    4    4    0    0 -0.73203560792E+01  0.35969685684E+01  0.72908815311E+00  0.81888561804E+01  0.00000000000E+00 0.  1.
</event>
<event>
 8    1  0.6524083E-011  0.9118800E+02  0.7816164E-02  0.1184000E+00
        -11   -1    0    0    0    0  0.00000000000E+00  0.00000000000E+00  0.45593999997E+02  0.45594000000E+02  0.51100000000E-03 0. -1.
         11   -1    0    0    0    0 -0.00000000000E+00 -0.00000000000E+00 -0.45593999997E+02  0.45594000000E+02  0.51100000000E-03 0.  1.
         23    2    1    2    0    0  0.88817841970E-15 -0.35527136788E-14  0.00000000000E+00  0.91188000000E+02  0.91188000000E+02 0.  0.
    9900012    2    3    3    0    0  0.11293640845E+01 -0.18216242465E+02  0.39376597651E+02  0.47787269645E+02  0.19999993619E+02 0.  0.
        -12    1    3    3    0    0 -0.11293640845E+01  0.18216242465E+02 -0.39376597651E+02  0.43400730355E+02  0.00000000000E+00 0.  1.
         11    1    4    4    0    0 -0.25774362525E+00 -0.15837307795E+02  0.30975287961E+02  0.34790159736E+02  0.51100000000E-03 0. -1.
        -11    1    4    4    0    0  0.40138205321E+01 -0.79644529747E+00  0.89872958075E+01  0.98750476742E+01  0.51100000000E-03 0.  1.
        -12    1    4    4    0    0 -0.26267128224E+01 -0.15824893724E+01 -0.58598611712E+00  0.31220622343E+01  0.00000000000E+00 0.  1.
</event>
<event>
 8    1  0.6524083E-011  0.9118800E+02  0.7816164E-02  0.1184000E+00
        -11   -1    0    0    0    0  0.00000000000E+00  0.00000000000E+00  0.45593999997E+02  0.45594000000E+02  0.51100000000E-03 0. -1.
         11   -1    0    0    0    0 -0.00000000000E+00 -0.00000000000E+00 -0.45593999997E+02  0.45594000000E+02  0.51100000000E-03 0.  1.
         23    2    1    2    0    0  0.00000000000E+00  0.00000000000E+00  0.00000000000E+00  0.91188000000E+02  0.91188000000E+02 0.  0.
    9900012    2    3    3    0    0 -0.11617155003E+02 -0.41118675584E+02  0.76104959510E+01  0.47787269352E+02  0.19999992285E+02 0.  0.
        -12    1    3    3    0    0  0.11617155003E+02  0.41118675584E+02 -0.76104959510E+01  0.43400730648E+02  0.00000000000E+00 0.  1.
         11    1    4    4    0    0 -0.35744194001E+01 -0.17256186506E+02  0.66577543861E+01  0.18838209588E+02  0.51100000000E-03 0. -1.
        -11    1    4    4    0    0  0.38711614203E+01 -0.46610481675E+01 -0.14332164694E+01  0.62261842625E+01  0.51100000000E-03 0.  1.
        -12    1    4    4    0    0 -0.11913897023E+02 -0.19201440911E+02  0.23859580343E+01  0.22722875502E+02  0.00000000000E+00 0.  1.
</event>
<event>
 8    1  0.6524083E-011  0.9118800E+02  0.7816164E-02  0.1184000E+00
        -11   -1    0    0    0    0  0.00000000000E+00  0.00000000000E+00  0.45593999997E+02  0.45594000000E+02  0.51100000000E-03 0. -1.
         11   -1    0    0    0    0 -0.00000000000E+00 -0.00000000000E+00 -0.45593999997E+02  0.45594000000E+02  0.51100000000E-03 0.  1.
         23    2    1    2    0    0  0.00000000000E+00  0.00000000000E+00  0.00000000000E+00  0.91188000000E+02  0.91188000000E+02 0.  0.
    9900012    2    3    3    0    0  0.17618702157E+02 -0.22810013024E+02  0.32448543322E+02  0.47787270472E+02  0.19999997389E+02 0.  0.
        -12    1    3    3    0    0 -0.17618702157E+02  0.22810013024E+02 -0.32448543322E+02  0.43400729528E+02  0.00000000000E+00 0.  1.
         11    1    4    4    0    0  0.10244849472E+02 -0.16159502303E+02  0.10691796027E+02  0.21918050961E+02  0.51100000000E-03 0. -1.
        -11    1    4    4    0    0  0.67134128944E+01 -0.57244356626E+00  0.62081936401E+01  0.91618378539E+01  0.51100000000E-03 0.  1.
        -12    1    4    4    0    0  0.66043979097E+00 -0.60780671544E+01  0.15548553656E+02  0.16707381657E+02  0.00000000000E+00 0.  1.
</event>
<event>
 8    1  0.6524083E-011  0.9118800E+02  0.7816164E-02  0.1184000E+00
        -11   -1    0    0    0    0  0.00000000000E+00  0.00000000000E+00  0.45593999997E+02  0.45594000000E+02  0.51100000000E-03 0. -1.
         11   -1    0    0    0    0 -0.00000000000E+00 -0.00000000000E+00 -0.45593999997E+02  0.45594000000E+02  0.51100000000E-03 0.  1.
         23    2    1    2    0    0  0.00000000000E+00  0.35527136788E-14  0.00000000000E+00  0.91188000000E+02  0.91188000000E+02 0.  0.
    9900012    2    3    3    0    0 -0.17816577528E+02  0.26548155145E+02  0.29349414388E+02  0.47787273032E+02  0.20000009063E+02 0.  0.
        -12    1    3    3    0    0  0.17816577528E+02 -0.26548155145E+02 -0.29349414388E+02  0.43400726968E+02  0.00000000000E+00 0.  1.
         11    1    4    4    0    0 -0.76945620043E+01  0.58285968697E+01  0.56503394484E+01  0.11185041889E+02  0.51100000000E-03 0. -1.
        -11    1    4    4    0    0  0.23288853419E+01 -0.18033095765E+00  0.62265629960E+01  0.66502867002E+01  0.51100000000E-03 0.  1.
        -12    1    4    4    0    0 -0.12450900866E+02  0.20899889233E+02  0.17472511944E+02  0.29951944443E+02  0.00000000000E+00 0.  1.
</event>
<event>
 8    1  0.6524083E-011  0.9118800E+02  0.7816164E-02  0.1184000E+00
        -11   -1    0    0    0    0  0.00000000000E+00  0.00000000000E+00  0.45593999997E+02  0.45594000000E+02  0.51100000000E-03 0. -1.
         11   -1    0    0    0    0 -0.00000000000E+00 -0.00000000000E+00 -0.45593999997E+02  0.45594000000E+02  0.51100000000E-03 0.  1.
         23    2    1    2    0    0 -0.17763568394E-14  0.00000000000E+00 -0.71054273576E-14  0.91188000000E+02  0.91188000000E+02 0.  0.
    9900012    2    3    3    0    0  0.14350050642E+02  0.24750275371E+02  0.32636219449E+02  0.47787275302E+02  0.20000019412E+02 0.  0.
        -12    1    3    3    0    0 -0.14350050642E+02 -0.24750275371E+02 -0.32636219449E+02  0.43400724698E+02  0.00000000000E+00 0.  1.
         11    1    4    4    0    0  0.11557389049E+02  0.15573153801E+02  0.27475612251E+02  0.33630427142E+02  0.51100000000E-03 0. -1.
        -11    1    4    4    0    0 -0.18437713522E+01 -0.30285570081E+00  0.27620213862E+01  0.33346629176E+01  0.51100000000E-03 0.  1.
         12    1    4    4    0    0  0.46364329454E+01  0.94799772711E+01  0.23985858116E+01  0.10822185242E+02  0.00000000000E+00 0. -1.
</event>
<event>
 8    1  0.7501163E-011  0.9118800E+02  0.7816164E-02  0.1184000E+00
        -11   -1    0    0    0    0  0.00000000000E+00  0.00000000000E+00  0.45593999997E+02  0.45594000000E+02  0.51100000000E-03 0. -1.
         11   -1    0    0    0    0 -0.00000000000E+00 -0.00000000000E+00 -0.45593999997E+02  0.45594000000E+02  0.51100000000E-03 0.  1.
         23    2    1    2    0    0  0.00000000000E+00  0.00000000000E+00  0.00000000000E+00  0.91188000000E+02  0.91188000000E+02 0.  0.
    9900012    2    3    3    0    0  0.20114353354E+02  0.35704177883E+02 -0.14291544389E+02  0.47787265327E+02  0.19999973933E+02 0.  0.
         12    1    3    3    0    0 -0.20114353354E+02 -0.35704177883E+02  0.14291544389E+02  0.43400734673E+02  0.00000000000E+00 0. -1.
         11    1    4    4    0    0 -0.94373260422E+00  0.54303316245E+01 -0.67928411838E+01  0.87476753706E+01  0.51100000000E-03 0. -1.
        -11    1    4    4    0    0  0.13316288407E+02  0.20199579739E+02 -0.98433655490E+01  0.26119693799E+02  0.51100000000E-03 0.  1.
         12    1    4    4    0    0  0.77417975508E+01  0.10074266519E+02  0.23446623433E+01  0.12919896158E+02  0.00000000000E+00 0. -1.
</event>
<event>
 8    1  0.6524083E-011  0.9118800E+02  0.7816164E-02  0.1184000E+00
        -11   -1    0    0    0    0  0.00000000000E+00  0.00000000000E+00  0.45593999997E+02  0.45594000000E+02  0.51100000000E-03 0. -1.
         11   -1    0    0    0    0 -0.00000000000E+00 -0.00000000000E+00 -0.45593999997E+02  0.45594000000E+02  0.51100000000E-03 0.  1.
         23    2    1    2    0    0  0.00000000000E+00  0.00000000000E+00  0.00000000000E+00  0.91188000000E+02  0.91188000000E+02 0.  0.
    9900012    2    3    3    0    0 -0.72537988258E+01  0.16276965350E+02 -0.39573552153E+02  0.47787271569E+02  0.20000002389E+02 0.  0.
         12    1    3    3    0    0  0.72537988258E+01 -0.16276965350E+02  0.39573552153E+02  0.43400728431E+02  0.00000000000E+00 0. -1.
         11    1    4    4    0    0 -0.59065200691E+01  0.21426828122E+01 -0.80949550514E+00  0.63350889649E+01  0.51100000000E-03 0. -1.
        -11    1    4    4    0    0  0.25951176953E+00  0.21816895418E+01 -0.10419320867E+02  0.10648444168E+02  0.51100000000E-03 0.  1.
         12    1    4    4    0    0 -0.16067905262E+01  0.11952592996E+02 -0.28344735781E+02  0.30803738435E+02  0.00000000000E+00 0. -1.
</event>
<event>
 8    1  0.6524083E-011  0.9118800E+02  0.7816164E-02  0.1184000E+00
        -11   -1    0    0    0    0  0.00000000000E+00  0.00000000000E+00  0.45593999997E+02  0.45594000000E+02  0.51100000000E-03 0. -1.
         11   -1    0    0    0    0 -0.00000000000E+00 -0.00000000000E+00 -0.45593999997E+02  0.45594000000E+02  0.51100000000E-03 0.  1.
         23    2    1    2    0    0  0.35527136788E-14  0.00000000000E+00  0.00000000000E+00  0.91188000000E+02  0.91188000000E+02 0.  0.
    9900012    2    3    3    0    0  0.18000946971E+02  0.36815482873E+02 -0.14290165829E+02  0.47787277535E+02  0.20000029595E+02 0.  0.
         12    1    3    3    0    0 -0.18000946971E+02 -0.36815482873E+02  0.14290165829E+02  0.43400722465E+02  0.00000000000E+00 0. -1.
         11    1    4    4    0    0  0.61763191076E+01  0.10690907111E+02 -0.85976100541E+01  0.15045308620E+02  0.51100000000E-03 0.  1.
        -11    1    4    4    0    0  0.81797055753E+01  0.25261150216E+02 -0.77956066697E+00  0.26563904243E+02  0.51100000000E-03 0. -1.
         12    1    4    4    0    0  0.36449222879E+01  0.86342554582E+00 -0.49129951083E+01  0.61780646721E+01  0.00000000000E+00 0. -1.
</event>
<event>
 8    1  0.6524083E-011  0.9118800E+02  0.7816164E-02  0.1184000E+00
        -11   -1    0    0    0    0  0.00000000000E+00  0.00000000000E+00  0.45593999997E+02  0.45594000000E+02  0.51100000000E-03 0. -1.
         11   -1    0    0    0    0 -0.00000000000E+00 -0.00000000000E+00 -0.45593999997E+02  0.45594000000E+02  0.51100000000E-03 0.  1.
         23    2    1    2    0    0  0.00000000000E+00  0.00000000000E+00  0.00000000000E+00  0.91188000000E+02  0.91188000000E+02 0.  0.
    9900012    2    3    3    0    0 -0.10372501611E+02  0.56857927377E+01 -0.41757719049E+02  0.47787261194E+02  0.19999955088E+02 0.  0.
         12    1    3    3    0    0  0.10372501611E+02 -0.56857927377E+01  0.41757719049E+02  0.43400738806E+02  0.00000000000E+00 0. -1.
         11    1    4    4    0    0 -0.11893030059E+02 -0.38222893489E+00 -0.21689000760E+02  0.24738694735E+02  0.51100000000E-03 0. -1.
        -11    1    4    4    0    0  0.18199968907E+01 -0.81425741136E+00 -0.13095673492E+02  0.13246587043E+02  0.51100000000E-03 0.  1.
         12    1    4    4    0    0 -0.29946844235E+00  0.68822790840E+01 -0.69730447970E+01  0.98019794164E+01  0.00000000000E+00 0. -1.
</event>
<event>
 8    1  0.6524083E-011  0.9118800E+02  0.7816164E-02  0.1184000E+00
        -11   -1    0    0    0    0  0.00000000000E+00  0.00000000000E+00  0.45593999997E+02  0.45594000000E+02  0.51100000000E-03 0. -1.
         11   -1    0    0    0    0 -0.00000000000E+00 -0.00000000000E+00 -0.45593999997E+02  0.45594000000E+02  0.51100000000E-03 0.  1.
         23    2    1    2    0    0  0.17763568394E-14  0.00000000000E+00  0.00000000000E+00  0.91188000000E+02  0.91188000000E+02 0.  0.
    9900012    2    3    3    0    0  0.70747550395E+01 -0.26938258998E+01  0.42735402307E+02  0.47787268817E+02  0.19999989846E+02 0.  0.
        -12    1    3    3    0    0 -0.70747550395E+01  0.26938258998E+01 -0.42735402307E+02  0.43400731183E+02  0.00000000000E+00 0.  1.
         11    1    4    4    0    0  0.62916463279E+01 -0.85915741093E+01  0.35518154837E+02  0.37080173712E+02  0.51100000000E-03 0. -1.
        -11    1    4    4    0    0 -0.40712586212E+00  0.52210324186E+00 -0.76401676778E+00  0.10109723762E+01  0.51100000000E-03 0.  1.
        -12    1    4    4    0    0  0.11902345737E+01  0.53756449677E+01  0.79812642372E+01  0.96961227293E+01  0.00000000000E+00 0.  1.
</event>
<event>
 8    1  0.6524083E-011  0.9118800E+02  0.7816164E-02  0.1184000E+00
        -11   -1    0    0    0    0  0.00000000000E+00  0.00000000000E+00  0.45593999997E+02  0.45594000000E+02  0.51100000000E-03 0. -1.
         11   -1    0    0    0    0 -0.00000000000E+00 -0.00000000000E+00 -0.45593999997E+02  0.45594000000E+02  0.51100000000E-03 0.  1.
         23    2    1    2    0    0  0.00000000000E+00 -0.17763568394E-14  0.00000000000E+00  0.91188000000E+02  0.91188000000E+02 0.  0.
    9900012    2    3    3    0    0 -0.23623077217E+02  0.15235722123E+02  0.33067299659E+02  0.47787270599E+02  0.19999997968E+02 0.  0.
        -12    1    3    3    0    0  0.23623077217E+02 -0.15235722123E+02 -0.33067299659E+02  0.43400729401E+02  0.00000000000E+00 0.  1.
         11    1    4    4    0    0  0.91365503096E+00  0.35092257609E+01  0.26292488814E+01  0.44791049215E+01  0.51100000000E-03 0. -1.
        -11    1    4    4    0    0  0.82502223446E+00  0.58373656021E-01  0.64437598119E+01  0.64966229647E+01  0.51100000000E-03 0.  1.
         12    1    4    4    0    0 -0.25361754482E+02  0.11668122706E+02  0.23994290966E+02  0.36811542712E+02  0.00000000000E+00 0. -1.
</event>
<event>
 8    1  0.6524083E-011  0.9118800E+02  0.7816164E-02  0.1184000E+00
        -11   -1    0    0    0    0  0.00000000000E+00  0.00000000000E+00  0.45593999997E+02  0.45594000000E+02  0.51100000000E-03 0. -1.
         11   -1    0    0    0    0 -0.00000000000E+00 -0.00000000000E+00 -0.45593999997E+02  0.45594000000E+02  0.51100000000E-03 0.  1.
         23    2    1    2    0    0  0.00000000000E+00  0.00000000000E+00  0.00000000000E+00  0.91188000000E+02  0.91188000000E+02 0.  0.
    9900012    2    3    3    0    0 -0.15291337280E+01 -0.24909239962E+02 -0.35507950392E+02  0.47787273895E+02  0.20000012997E+02 0.  0.
         12    1    3    3    0    0  0.15291337280E+01  0.24909239962E+02  0.35507950392E+02  0.43400726105E+02  0.00000000000E+00 0. -1.
         11    1    4    4    0    0  0.12449049510E+01 -0.68279530468E+01 -0.29957513972E+01  0.75594482498E+01  0.51100000000E-03 0. -1.
        -11    1    4    4    0    0 -0.13185880169E+01 -0.15494255131E+02 -0.12375965229E+02  0.19873981283E+02  0.51100000000E-03 0.  1.
        -12    1    4    4    0    0 -0.14554506621E+01 -0.25870317842E+01 -0.20136233765E+02  0.20353844362E+02  0.00000000000E+00 0.  1.
</event>
<event>
 8    1  0.6524083E-011  0.9118800E+02  0.7816164E-02  0.1184000E+00
        -11   -1    0    0    0    0  0.00000000000E+00  0.00000000000E+00  0.45593999997E+02  0.45594000000E+02  0.51100000000E-03 0. -1.
         11   -1    0    0    0    0 -0.00000000000E+00 -0.00000000000E+00 -0.45593999997E+02  0.45594000000E+02  0.51100000000E-03 0.  1.
         23    2    1    2    0    0  0.35527136788E-14  0.00000000000E+00  0.35527136788E-14  0.91188000000E+02  0.91188000000E+02 0.  0.
    9900012    2    3    3    0    0  0.25585818814E+02 -0.29587211242E+02  0.18803885341E+02  0.47787270773E+02  0.19999998764E+02 0.  0.
        -12    1    3    3    0    0 -0.25585818814E+02  0.29587211242E+02 -0.18803885341E+02  0.43400729227E+02  0.00000000000E+00 0.  1.
         11    1    4    4    0    0  0.20369028160E+02 -0.19174448127E+02  0.82795637699E+01  0.29173754397E+02  0.51100000000E-03 0. -1.
        -11    1    4    4    0    0  0.57269358289E+01 -0.97051395328E+01  0.12271512175E+02  0.16660658410E+02  0.51100000000E-03 0.  1.
        -12    1    4    4    0    0 -0.51014517444E+00 -0.70762358244E+00 -0.17471906032E+01  0.19528579665E+01  0.00000000000E+00 0.  1.
</event>
<event>
 8    1  0.6524083E-011  0.9118800E+02  0.7816164E-02  0.1184000E+00
        -11   -1    0    0    0    0  0.00000000000E+00  0.00000000000E+00  0.45593999997E+02  0.45594000000E+02  0.51100000000E-03 0. -1.
         11   -1    0    0    0    0 -0.00000000000E+00 -0.00000000000E+00 -0.45593999997E+02  0.45594000000E+02  0.51100000000E-03 0.  1.
         23    2    1    2    0    0  0.00000000000E+00  0.17763568394E-14  0.00000000000E+00  0.91188000000E+02  0.91188000000E+02 0.  0.
    9900012    2    3    3    0    0  0.30505024866E+02 -0.10752906214E+02 -0.28938586573E+02  0.47787270433E+02  0.19999997211E+02 0.  0.
         12    1    3    3    0    0 -0.30505024866E+02  0.10752906214E+02  0.28938586573E+02  0.43400729567E+02  0.00000000000E+00 0. -1.
         11    1    4    4    0    0  0.16934656929E+01  0.27698625928E+01 -0.66419091251E+01  0.73928967207E+01  0.51100000000E-03 0. -1.
        -11    1    4    4    0    0  0.10005598318E+02 -0.10684249001E+02 -0.10493779408E+02  0.18010679636E+02  0.51100000000E-03 0.  1.
        -12    1    4    4    0    0  0.18805960855E+02 -0.28385198061E+01 -0.11802898040E+02  0.22383694076E+02  0.00000000000E+00 0.  1.
</event>
<event>
 8    1  0.6524083E-011  0.9118800E+02  0.7816164E-02  0.1184000E+00
        -11   -1    0    0    0    0  0.00000000000E+00  0.00000000000E+00  0.45593999997E+02  0.45594000000E+02  0.51100000000E-03 0. -1.
         11   -1    0    0    0    0 -0.00000000000E+00 -0.00000000000E+00 -0.45593999997E+02  0.45594000000E+02  0.51100000000E-03 0.  1.
         23    2    1    2    0    0  0.00000000000E+00  0.17763568394E-14  0.00000000000E+00  0.91188000000E+02  0.91188000000E+02 0.  0.
    9900012    2    3    3    0    0  0.12072728639E+02  0.66358275733E+01 -0.41156266774E+02  0.47787270984E+02  0.19999999722E+02 0.  0.
         12    1    3    3    0    0 -0.12072728639E+02 -0.66358275733E+01  0.41156266774E+02  0.43400729016E+02  0.00000000000E+00 0. -1.
         11    1    4    4    0    0 -0.17142221257E+01  0.80725899667E+01 -0.96341597577E+01  0.12685515392E+02  0.51100000000E-03 0. -1.
        -11    1    4    4    0    0  0.62142367254E+01 -0.11201306080E+01 -0.69631387802E+01  0.93998262001E+01  0.51100000000E-03 0.  1.
         12    1    4    4    0    0  0.75727140394E+01 -0.31663178541E+00 -0.24558968236E+02  0.25701929391E+02  0.00000000000E+00 0. -1.
</event>
<event>
 8    1  0.6524083E-011  0.9118800E+02  0.7816164E-02  0.1184000E+00
        -11   -1    0    0    0    0  0.00000000000E+00  0.00000000000E+00  0.45593999997E+02  0.45594000000E+02  0.51100000000E-03 0.  1.
         11   -1    0    0    0    0 -0.00000000000E+00 -0.00000000000E+00 -0.45593999997E+02  0.45594000000E+02  0.51100000000E-03 0. -1.
         23    2    1    2    0    0  0.71054273576E-14  0.00000000000E+00 -0.44408920985E-15  0.91188000000E+02  0.91188000000E+02 0.  0.
    9900012    2    3    3    0    0  0.39132262780E+02 -0.18766556564E+02 -0.32501065422E+00  0.47787271119E+02  0.20000000338E+02 0.  0.
         12    1    3    3    0    0 -0.39132262780E+02  0.18766556564E+02  0.32501065422E+00  0.43400728881E+02  0.00000000000E+00 0. -1.
         11    1    4    4    0    0  0.16963513693E+02 -0.10739081144E+02 -0.97476003606E+01  0.22318252030E+02  0.51100000000E-03 0. -1.
        -11    1    4    4    0    0  0.63603589619E+01 -0.32542580373E+01  0.30633451737E+01  0.77735735291E+01  0.51100000000E-03 0.  1.
         12    1    4    4    0    0  0.15808390125E+02 -0.47732173826E+01  0.63592445327E+01  0.17695445559E+02  0.00000000000E+00 0. -1.
</event>
<event>
 8    1  0.6524083E-011  0.9118800E+02  0.7816164E-02  0.1184000E+00
        -11   -1    0    0    0    0  0.00000000000E+00  0.00000000000E+00  0.45593999997E+02  0.45594000000E+02  0.51100000000E-03 0. -1.
         11   -1    0    0    0    0 -0.00000000000E+00 -0.00000000000E+00 -0.45593999997E+02  0.45594000000E+02  0.51100000000E-03 0.  1.
         23    2    1    2    0    0 -0.44408920985E-15  0.00000000000E+00  0.00000000000E+00  0.91188000000E+02  0.91188000000E+02 0.  0.
    9900012    2    3    3    0    0  0.20001713925E+01 -0.12318162003E+02 -0.41567842762E+02  0.47787270137E+02  0.19999995863E+02 0.  0.
         12    1    3    3    0    0 -0.20001713925E+01  0.12318162003E+02  0.41567842762E+02  0.43400729863E+02  0.00000000000E+00 0. -1.
         11    1    4    4    0    0 -0.41178679462E+01  0.12090529374E+01 -0.10687735082E+01  0.44227731685E+01  0.51100000000E-03 0. -1.
        -11    1    4    4    0    0  0.36472690168E+01 -0.37156779865E+01 -0.10805971921E+02  0.11994909903E+02  0.51100000000E-03 0.  1.
        -12    1    4    4    0    0  0.24707703218E+01 -0.98115369538E+01 -0.29693097333E+02  0.31369587065E+02  0.00000000000E+00 0.  1.
</event>
<event>
 8    1  0.6524083E-011  0.9118800E+02  0.7816164E-02  0.1184000E+00
        -11   -1    0    0    0    0  0.00000000000E+00  0.00000000000E+00  0.45593999997E+02  0.45594000000E+02  0.51100000000E-03 0. -1.
         11   -1    0    0    0    0 -0.00000000000E+00 -0.00000000000E+00 -0.45593999997E+02  0.45594000000E+02  0.51100000000E-03 0.  1.
         23    2    1    2    0    0  0.17763568394E-14 -0.17763568394E-14  0.00000000000E+00  0.91188000000E+02  0.91188000000E+02 0.  0.
    9900012    2    3    3    0    0  0.12105841187E+02 -0.88498584402E+01  0.40727770662E+02  0.47787277790E+02  0.20000030757E+02 0.  0.
        -12    1    3    3    0    0 -0.12105841187E+02  0.88498584402E+01 -0.40727770662E+02  0.43400722210E+02  0.00000000000E+00 0.  1.
         11    1    4    4    0    0  0.87908639375E+01 -0.14098085091E+02  0.28695185566E+02  0.33157939727E+02  0.51100000000E-03 0. -1.
        -11    1    4    4    0    0 -0.16568949152E+00  0.14047228845E+01  0.78245792029E+01  0.79513985784E+01  0.51100000000E-03 0.  1.
         12    1    4    4    0    0  0.34806667413E+01  0.38435037668E+01  0.42080058928E+01  0.66779394848E+01  0.00000000000E+00 0. -1.
</event>
<event>
 8    1  0.6524083E-011  0.9118800E+02  0.7816164E-02  0.1184000E+00
        -11   -1    0    0    0    0  0.00000000000E+00  0.00000000000E+00  0.45593999997E+02  0.45594000000E+02  0.51100000000E-03 0. -1.
         11   -1    0    0    0    0 -0.00000000000E+00 -0.00000000000E+00 -0.45593999997E+02  0.45594000000E+02  0.51100000000E-03 0.  1.
         23    2    1    2    0    0  0.00000000000E+00 -0.35527136788E-14  0.71054273576E-14  0.91188000000E+02  0.91188000000E+02 0.  0.
    9900012    2    3    3    0    0  0.13578759551E+02 -0.25296204438E+02 -0.32547550857E+02  0.47787265713E+02  0.19999975690E+02 0.  0.
         12    1    3    3    0    0 -0.13578759551E+02  0.25296204438E+02  0.32547550857E+02  0.43400734287E+02  0.00000000000E+00 0. -1.
         11    1    4    4    0    0  0.72575281974E+00 -0.54995662605E+01 -0.56640088304E+01  0.79279847692E+01  0.51100000000E-03 0. -1.
        -11    1    4    4    0    0  0.16673778483E+02 -0.12824043610E+02 -0.22412986142E+02  0.30737809477E+02  0.51100000000E-03 0.  1.
        -12    1    4    4    0    0 -0.38207717520E+01 -0.69725945684E+01 -0.44705558847E+01  0.91214714665E+01  0.00000000000E+00 0.  1.
</event>
<event>
 8    1  0.6524083E-011  0.9118800E+02  0.7816164E-02  0.1184000E+00
        -11   -1    0    0    0    0  0.00000000000E+00  0.00000000000E+00  0.45593999997E+02  0.45594000000E+02  0.51100000000E-03 0. -1.
         11   -1    0    0    0    0 -0.00000000000E+00 -0.00000000000E+00 -0.45593999997E+02  0.45594000000E+02  0.51100000000E-03 0.  1.
         23    2    1    2    0    0  0.00000000000E+00  0.00000000000E+00  0.17763568394E-14  0.91188000000E+02  0.91188000000E+02 0.  0.
    9900012    2    3    3    0    0  0.16951692764E+02  0.37530343334E+02 -0.13701698021E+02  0.47787273198E+02  0.20000009818E+02 0.  0.
         12    1    3    3    0    0 -0.16951692764E+02 -0.37530343334E+02  0.13701698021E+02  0.43400726802E+02  0.00000000000E+00 0. -1.
         11    1    4    4    0    0  0.61933738895E+01  0.17528419178E+02 -0.11116351190E+02  0.21660485292E+02  0.51100000000E-03 0. -1.
        -11    1    4    4    0    0 -0.26769059547E+01  0.35529268567E+01  0.10715664169E+01  0.45757370539E+01  0.51100000000E-03 0.  1.
         12    1    4    4    0    0  0.13435224829E+02  0.16448997298E+02 -0.36569132480E+01  0.21551050852E+02  0.00000000000E+00 0. -1.
</event>
<event>
 8    1  0.6524083E-011  0.9118800E+02  0.7816164E-02  0.1184000E+00
        -11   -1    0    0    0    0  0.00000000000E+00  0.00000000000E+00  0.45593999997E+02  0.45594000000E+02  0.51100000000E-03 0. -1.
         11   -1    0    0    0    0 -0.00000000000E+00 -0.00000000000E+00 -0.45593999997E+02  0.45594000000E+02  0.51100000000E-03 0.  1.
         23    2    1    2    0    0  0.00000000000E+00  0.00000000000E+00  0.00000000000E+00  0.91188000000E+02  0.91188000000E+02 0.  0.
    9900012    2    3    3    0    0 -0.19904475724E+02  0.89822666699E+01  0.37506719312E+02  0.47787271182E+02  0.20000000628E+02 0.  0.
        -12    1    3    3    0    0  0.19904475724E+02 -0.89822666699E+01 -0.37506719312E+02  0.43400728818E+02  0.00000000000E+00 0.  1.
         11    1    4    4    0    0 -0.65411980422E+01  0.62783357541E+01  0.18678944648E+02  0.20763134279E+02  0.51100000000E-03 0. -1.
        -11    1    4    4    0    0 -0.40582976503E+01  0.54864308678E+01  0.12443656087E+01  0.69367967762E+01  0.51100000000E-03 0.  1.
         12    1    4    4    0    0 -0.93049800313E+01 -0.27824999520E+01  0.17583409055E+02  0.20087340127E+02  0.00000000000E+00 0. -1.
</event>
<event>
 8    1  0.6524083E-011  0.9118800E+02  0.7816164E-02  0.1184000E+00
        -11   -1    0    0    0    0  0.00000000000E+00  0.00000000000E+00  0.45593999997E+02  0.45594000000E+02  0.51100000000E-03 0.  1.
         11   -1    0    0    0    0 -0.00000000000E+00 -0.00000000000E+00 -0.45593999997E+02  0.45594000000E+02  0.51100000000E-03 0. -1.
         23    2    1    2    0    0 -0.35527136788E-14  0.00000000000E+00  0.00000000000E+00  0.91188000000E+02  0.91188000000E+02 0.  0.
    9900012    2    3    3    0    0  0.26985256159E+02  0.22038018931E+02 -0.25879413249E+02  0.47787281590E+02  0.20000048083E+02 0.  0.
         12    1    3    3    0    0 -0.26985256159E+02 -0.22038018931E+02  0.25879413249E+02  0.43400718410E+02  0.00000000000E+00 0. -1.
         11    1    4    4    0    0  0.73770812251E+01  0.51090053413E+01 -0.12068651612E+02  0.15039136111E+02  0.51100000000E-03 0. -1.
        -11    1    4    4    0    0 -0.10090987369E+01  0.31736740110E+01 -0.58230463940E+01  0.67080814363E+01  0.51100000000E-03 0.  1.
         12    1    4    4    0    0  0.20617273671E+02  0.13755339578E+02 -0.79877152429E+01  0.26040064042E+02  0.00000000000E+00 0. -1.
</event>
<event>
 8    1  0.6524083E-011  0.9118800E+02  0.7816164E-02  0.1184000E+00
        -11   -1    0    0    0    0  0.00000000000E+00  0.00000000000E+00  0.45593999997E+02  0.45594000000E+02  0.51100000000E-03 0.  1.
         11   -1    0    0    0    0 -0.00000000000E+00 -0.00000000000E+00 -0.45593999997E+02  0.45594000000E+02  0.51100000000E-03 0. -1.
         23    2    1    2    0    0  0.00000000000E+00  0.00000000000E+00  0.00000000000E+00  0.91188000000E+02  0.91188000000E+02 0.  0.
    9900012    2    3    3    0    0 -0.36591462164E+02 -0.20062716134E+02 -0.11923686765E+02  0.47787285858E+02  0.20000067540E+02 0.  0.
         12    1    3    3    0    0  0.36591462164E+02  0.20062716134E+02  0.11923686765E+02  0.43400714142E+02  0.00000000000E+00 0. -1.
         11    1    4    4    0    0 -0.16708728085E+02 -0.31179330655E+01 -0.93364835042E+01  0.19392602335E+02  0.51100000000E-03 0. -1.
        -11    1    4    4    0    0 -0.11766269855E+02 -0.30021241308E+01 -0.10446834910E+01  0.12188076938E+02  0.51100000000E-03 0.  1.
        -12    1    4    4    0    0 -0.81164642239E+01 -0.13942658938E+02 -0.15425197696E+01  0.16206606585E+02  0.00000000000E+00 0.  1.
</event>
<event>
 8    1  0.6524083E-011  0.9118800E+02  0.7816164E-02  0.1184000E+00
        -11   -1    0    0    0    0  0.00000000000E+00  0.00000000000E+00  0.45593999997E+02  0.45594000000E+02  0.51100000000E-03 0. -1.
         11   -1    0    0    0    0 -0.00000000000E+00 -0.00000000000E+00 -0.45593999997E+02  0.45594000000E+02  0.51100000000E-03 0.  1.
         23    2    1    2    0    0  0.66613381478E-15 -0.35527136788E-14  0.00000000000E+00  0.91188000000E+02  0.91188000000E+02 0.  0.
    9900012    2    3    3    0    0  0.18555388839E+01 -0.15690513237E+02 -0.40422624280E+02  0.47787265169E+02  0.19999973213E+02 0.  0.
         12    1    3    3    0    0 -0.18555388839E+01  0.15690513237E+02  0.40422624280E+02  0.43400734831E+02  0.00000000000E+00 0. -1.
         11    1    4    4    0    0 -0.13864802527E+00 -0.95802093739E+01 -0.29064490369E+02  0.30603010238E+02  0.51100000000E-03 0. -1.
        -11    1    4    4    0    0  0.53949578559E+01 -0.73274412764E+01 -0.67519610869E+01  0.11330752169E+02  0.51100000000E-03 0.  1.
         12    1    4    4    0    0 -0.34007709468E+01  0.12171374137E+01 -0.46061728234E+01  0.58535027629E+01  0.00000000000E+00 0. -1.
</event>
<event>
 8    1  0.6524083E-011  0.9118800E+02  0.7816164E-02  0.1184000E+00
        -11   -1    0    0    0    0  0.00000000000E+00  0.00000000000E+00  0.45593999997E+02  0.45594000000E+02  0.51100000000E-03 0. -1.
         11   -1    0    0    0    0 -0.00000000000E+00 -0.00000000000E+00 -0.45593999997E+02  0.45594000000E+02  0.51100000000E-03 0.  1.
         23    2    1    2    0    0 -0.14210854715E-13  0.17763568394E-14  0.00000000000E+00  0.91188000000E+02  0.91188000000E+02 0.  0.
    9900012    2    3    3    0    0  0.41292754365E+02  0.13020556595E+02 -0.29993352666E+01  0.47787280316E+02  0.20000042272E+02 0.  0.
        -12    1    3    3    0    0 -0.41292754365E+02 -0.13020556595E+02  0.29993352666E+01  0.43400719684E+02  0.00000000000E+00 0.  1.
         11    1    4    4    0    0  0.19024219885E+02  0.13931939782E+02 -0.51576053782E+01  0.24137538851E+02  0.51100000000E-03 0. -1.
        -11    1    4    4    0    0  0.15528433952E+02  0.25619384331E+01  0.29967261435E+01  0.16021115984E+02  0.51100000000E-03 0.  1.
        -12    1    4    4    0    0  0.67401005282E+01 -0.34733216197E+01 -0.83845603193E+00  0.76286254805E+01  0.00000000000E+00 0.  1.
</event>
<event>
 8    1  0.6524083E-011  0.9118800E+02  0.7816164E-02  0.1184000E+00
        -11   -1    0    0    0    0  0.00000000000E+00  0.00000000000E+00  0.45593999997E+02  0.45594000000E+02  0.51100000000E-03 0. -1.
         11   -1    0    0    0    0 -0.00000000000E+00 -0.00000000000E+00 -0.45593999997E+02  0.45594000000E+02  0.51100000000E-03 0.  1.
         23    2    1    2    0    0 -0.35527136788E-14 -0.71054273576E-14  0.00000000000E+00  0.91188000000E+02  0.91188000000E+02 0.  0.
    9900012    2    3    3    0    0 -0.16429242263E+02 -0.39909360188E+02 -0.45767771255E+01  0.47787263591E+02  0.19999966017E+02 0.  0.
         12    1    3    3    0    0  0.16429242263E+02  0.39909360188E+02  0.45767771255E+01  0.43400736409E+02  0.00000000000E+00 0. -1.
         11    1    4    4    0    0 -0.62786799460E+01 -0.70038558867E+01 -0.20452313741E+01  0.96259436307E+01  0.51100000000E-03 0. -1.
        -11    1    4    4    0    0 -0.30539608706E+01 -0.29526411897E+02  0.62662567655E+00  0.29690542880E+02  0.51100000000E-03 0.  1.
        -12    1    4    4    0    0 -0.70966014467E+01 -0.33790924043E+01 -0.31581714280E+01  0.84707770800E+01  0.00000000000E+00 0.  1.
</event>
<event>
 8    1  0.6524083E-011  0.9118800E+02  0.7816164E-02  0.1184000E+00
        -11   -1    0    0    0    0  0.00000000000E+00  0.00000000000E+00  0.45593999997E+02  0.45594000000E+02  0.51100000000E-03 0. -1.
         11   -1    0    0    0    0 -0.00000000000E+00 -0.00000000000E+00 -0.45593999997E+02  0.45594000000E+02  0.51100000000E-03 0.  1.
         23    2    1    2    0    0  0.00000000000E+00  0.00000000000E+00  0.33306690739E-15  0.91188000000E+02  0.91188000000E+02 0.  0.
    9900012    2    3    3    0    0 -0.26981864864E+02 -0.33981894207E+02  0.91276143237E+00  0.47787270756E+02  0.19999998686E+02 0.  0.
         12    1    3    3    0    0  0.26981864864E+02  0.33981894207E+02 -0.91276143237E+00  0.43400729244E+02  0.00000000000E+00 0. -1.
         11    1    4    4    0    0 -0.14903533968E+02 -0.16086521562E+02  0.49404056405E+01  0.22478859154E+02  0.51100000000E-03 0. -1.
        -11    1    4    4    0    0 -0.89098576754E+01 -0.17400505113E+02  0.73952588177E+00  0.19562976276E+02  0.51100000000E-03 0.  1.
         12    1    4    4    0    0 -0.31684732210E+01 -0.49486753218E+00 -0.47671700899E+01  0.57454353266E+01  0.00000000000E+00 0. -1.
</event>
<event>
 8    1  0.6524083E-011  0.9118800E+02  0.7816164E-02  0.1184000E+00
        -11   -1    0    0    0    0  0.00000000000E+00  0.00000000000E+00  0.45593999997E+02  0.45594000000E+02  0.51100000000E-03 0. -1.
         11   -1    0    0    0    0 -0.00000000000E+00 -0.00000000000E+00 -0.45593999997E+02  0.45594000000E+02  0.51100000000E-03 0.  1.
         23    2    1    2    0    0 -0.17763568394E-14 -0.88817841970E-15  0.71054273576E-14  0.91188000000E+02  0.91188000000E+02 0.  0.
    9900012    2    3    3    0    0  0.15810632563E+02  0.48474213483E+01 -0.40126667961E+02  0.47787273308E+02  0.20000010319E+02 0.  0.
         12    1    3    3    0    0 -0.15810632563E+02 -0.48474213483E+01  0.40126667961E+02  0.43400726692E+02  0.00000000000E+00 0. -1.
         11    1    4    4    0    0 -0.33681759424E+01  0.91784727544E+00 -0.78942959248E+01  0.86317414934E+01  0.51100000000E-03 0. -1.
        -11    1    4    4    0    0 -0.80762521590E+00  0.14480173514E+01 -0.51170937307E+01  0.53790018823E+01  0.51100000000E-03 0.  1.
        -12    1    4    4    0    0  0.19986433722E+02  0.24815567214E+01 -0.27115278305E+02  0.33776529932E+02  0.00000000000E+00 0.  1.
</event>
<event>
 8    1  0.6524083E-011  0.9118800E+02  0.7816164E-02  0.1184000E+00
        -11   -1    0    0    0    0  0.00000000000E+00  0.00000000000E+00  0.45593999997E+02  0.45594000000E+02  0.51100000000E-03 0. -1.
         11   -1    0    0    0    0 -0.00000000000E+00 -0.00000000000E+00 -0.45593999997E+02  0.45594000000E+02  0.51100000000E-03 0.  1.
         23    2    1    2    0    0 -0.88817841970E-15  0.00000000000E+00 -0.71054273576E-14  0.91188000000E+02  0.91188000000E+02 0.  0.
    9900012    2    3    3    0    0  0.23771239415E+01 -0.55531016480E+01 -0.42978318343E+02  0.47787268396E+02  0.19999987927E+02 0.  0.
         12    1    3    3    0    0 -0.23771239415E+01  0.55531016480E+01  0.42978318343E+02  0.43400731604E+02  0.00000000000E+00 0. -1.
         11    1    4    4    0    0  0.75519463692E+01 -0.80890811400E+01 -0.26840848442E+02  0.29032675953E+02  0.51100000000E-03 0. -1.
        -11    1    4    4    0    0 -0.76296598218E+00  0.33787942951E+01 -0.12511168837E+02  0.12981822441E+02  0.51100000000E-03 0.  1.
        -12    1    4    4    0    0 -0.44118564455E+01 -0.84281480310E+00 -0.36263010646E+01  0.57727700023E+01  0.00000000000E+00 0.  1.
</event>
<event>
 8    1  0.6524083E-011  0.9118800E+02  0.7816164E-02  0.1184000E+00
        -11   -1    0    0    0    0  0.00000000000E+00  0.00000000000E+00  0.45593999997E+02  0.45594000000E+02  0.51100000000E-03 0. -1.
         11   -1    0    0    0    0 -0.00000000000E+00 -0.00000000000E+00 -0.45593999997E+02  0.45594000000E+02  0.51100000000E-03 0.  1.
         23    2    1    2    0    0  0.00000000000E+00  0.35527136788E-14  0.00000000000E+00  0.91188000000E+02  0.91188000000E+02 0.  0.
    9900012    2    3    3    0    0  0.11880907916E+02  0.20262186384E+02 -0.36495366399E+02  0.47787263387E+02  0.19999965085E+02 0.  0.
         12    1    3    3    0    0 -0.11880907916E+02 -0.20262186384E+02  0.36495366399E+02  0.43400736613E+02  0.00000000000E+00 0. -1.
         11    1    4    4    0    0  0.89884831868E+01  0.12238962871E+02 -0.13809343026E+02  0.20525179590E+02  0.51100000000E-03 0.  1.
        -11    1    4    4    0    0 -0.30042543830E+01  0.68421568817E+01 -0.61879772353E+01  0.97021501594E+01  0.51100000000E-03 0. -1.
         12    1    4    4    0    0  0.58966791120E+01  0.11810666313E+01 -0.16498046138E+02  0.17559933637E+02  0.00000000000E+00 0. -1.
</event>
<event>
 8    1  0.6524083E-011  0.9118800E+02  0.7816164E-02  0.1184000E+00
        -11   -1    0    0    0    0  0.00000000000E+00  0.00000000000E+00  0.45593999997E+02  0.45594000000E+02  0.51100000000E-03 0.  1.
         11   -1    0    0    0    0 -0.00000000000E+00 -0.00000000000E+00 -0.45593999997E+02  0.45594000000E+02  0.51100000000E-03 0. -1.
         23    2    1    2    0    0  0.00000000000E+00  0.00000000000E+00  0.00000000000E+00  0.91188000000E+02  0.91188000000E+02 0.  0.
    9900012    2    3    3    0    0  0.22250476852E+02  0.31483114766E+02  0.19933731923E+02  0.47787263787E+02  0.19999966909E+02 0.  0.
        -12    1    3    3    0    0 -0.22250476852E+02 -0.31483114766E+02 -0.19933731923E+02  0.43400736213E+02  0.00000000000E+00 0.  1.
         11    1    4    4    0    0  0.69567188023E+01  0.61290569143E+01  0.14118558287E+02  0.16890676823E+02  0.51100000000E-03 0.  1.
        -11    1    4    4    0    0  0.16222082588E+01  0.83099316055E+01  0.10328493739E+01  0.85295545612E+01  0.51100000000E-03 0. -1.
        -12    1    4    4    0    0  0.13671549791E+02  0.17044126246E+02  0.47823242617E+01  0.22367032403E+02  0.00000000000E+00 0.  1.
</event>
<event>
 8    1  0.6524083E-011  0.9118800E+02  0.7816164E-02  0.1184000E+00
        -11   -1    0    0    0    0  0.00000000000E+00  0.00000000000E+00  0.45593999997E+02  0.45594000000E+02  0.51100000000E-03 0. -1.
         11   -1    0    0    0    0 -0.00000000000E+00 -0.00000000000E+00 -0.45593999997E+02  0.45594000000E+02  0.51100000000E-03 0.  1.
         23    2    1    2    0    0  0.00000000000E+00  0.88817841970E-15  0.71054273576E-14  0.91188000000E+02  0.91188000000E+02 0.  0.
    9900012    2    3    3    0    0 -0.21895735994E+02  0.79228653407E+01  0.36625514284E+02  0.47787270208E+02  0.19999996186E+02 0.  0.
        -12    1    3    3    0    0  0.21895735994E+02 -0.79228653407E+01 -0.36625514284E+02  0.43400729792E+02  0.00000000000E+00 0.  1.
         11    1    4    4    0    0 -0.10292969776E+02  0.30581459465E+01  0.24024825851E+02  0.26315199806E+02  0.51100000000E-03 0. -1.
        -11    1    4    4    0    0 -0.44802450909E+01 -0.13882120880E+01  0.10868285756E+02  0.11837202558E+02  0.51100000000E-03 0.  1.
        -12    1    4    4    0    0 -0.71225211264E+01  0.62529314822E+01  0.17324026775E+01  0.96348678431E+01  0.00000000000E+00 0.  1.
</event>
<event>
 8    1  0.6524083E-011  0.9118800E+02  0.7816164E-02  0.1184000E+00
        -11   -1    0    0    0    0  0.00000000000E+00  0.00000000000E+00  0.45593999997E+02  0.45594000000E+02  0.51100000000E-03 0. -1.
         11   -1    0    0    0    0 -0.00000000000E+00 -0.00000000000E+00 -0.45593999997E+02  0.45594000000E+02  0.51100000000E-03 0.  1.
         23    2    1    2    0    0  0.35527136788E-14  0.00000000000E+00  0.35527136788E-14  0.91188000000E+02  0.91188000000E+02 0.  0.
    9900012    2    3    3    0    0 -0.30903108814E+02 -0.25040575395E+02 -0.17366369557E+02  0.47787270259E+02  0.19999996417E+02 0.  0.
         12    1    3    3    0    0  0.30903108814E+02  0.25040575395E+02  0.17366369557E+02  0.43400729741E+02  0.00000000000E+00 0. -1.
         11    1    4    4    0    0  0.21366979641E+00  0.49021250976E+00 -0.18048260173E+01  0.18823815502E+01  0.51100000000E-03 0. -1.
        -11    1    4    4    0    0  0.53803074407E+00 -0.21902462539E+01 -0.45254992178E+01  0.50563622463E+01  0.51100000000E-03 0.  1.
        -12    1    4    4    0    0 -0.31654809355E+02 -0.23340541651E+02 -0.11036044322E+02  0.40848526462E+02  0.00000000000E+00 0.  1.
</event>
<event>
 8    1  0.6524083E-011  0.9118800E+02  0.7816164E-02  0.1184000E+00
        -11   -1    0    0    0    0  0.00000000000E+00  0.00000000000E+00  0.45593999997E+02  0.45594000000E+02  0.51100000000E-03 0. -1.
         11   -1    0    0    0    0 -0.00000000000E+00 -0.00000000000E+00 -0.45593999997E+02  0.45594000000E+02  0.51100000000E-03 0.  1.
         23    2    1    2    0    0 -0.35527136788E-14  0.13877787808E-16  0.00000000000E+00  0.91188000000E+02  0.91188000000E+02 0.  0.
    9900012    2    3    3    0    0  0.17982966853E+02  0.10030078756E+00 -0.39499691938E+02  0.47787276270E+02  0.20000023824E+02 0.  0.
         12    1    3    3    0    0 -0.17982966853E+02 -0.10030078756E+00  0.39499691938E+02  0.43400723730E+02  0.00000000000E+00 0. -1.
         11    1    4    4    0    0  0.24978293383E+01  0.50078542507E+00 -0.55014282911E+01  0.60626438910E+01  0.51100000000E-03 0. -1.
        -11    1    4    4    0    0  0.11552626928E+02 -0.76407233889E+00 -0.35620712508E+02  0.37455068486E+02  0.51100000000E-03 0.  1.
         12    1    4    4    0    0  0.39325105865E+01  0.36358770138E+00  0.16224488602E+01  0.42695638926E+01  0.00000000000E+00 0. -1.
</event>
<event>
 8    1  0.6524083E-011  0.9118800E+02  0.7816164E-02  0.1184000E+00
        -11   -1    0    0    0    0  0.00000000000E+00  0.00000000000E+00  0.45593999997E+02  0.45594000000E+02  0.51100000000E-03 0. -1.
         11   -1    0    0    0    0 -0.00000000000E+00 -0.00000000000E+00 -0.45593999997E+02  0.45594000000E+02  0.51100000000E-03 0.  1.
         23    2    1    2    0    0  0.00000000000E+00  0.17763568394E-14  0.71054273576E-14  0.91188000000E+02  0.91188000000E+02 0.  0.
    9900012    2    3    3    0    0  0.59810266307E+01  0.14861766761E+02  0.40335822436E+02  0.47787270025E+02  0.19999995350E+02 0.  0.
        -12    1    3    3    0    0 -0.59810266307E+01 -0.14861766761E+02 -0.40335822436E+02  0.43400729975E+02  0.00000000000E+00 0.  1.
         11    1    4    4    0    0  0.39856355791E+01  0.15087798597E+02  0.22869223515E+02  0.27686248246E+02  0.51100000000E-03 0. -1.
        -11    1    4    4    0    0 -0.94468266507E+00 -0.78059482172E+00 -0.88214776539E+00  0.15099465403E+01  0.51100000000E-03 0.  1.
        -12    1    4    4    0    0  0.29400737167E+01  0.55456298535E+00  0.18348746686E+02  0.18591075238E+02  0.00000000000E+00 0.  1.
</event>
<event>
 8    1  0.6524083E-011  0.9118800E+02  0.7816164E-02  0.1184000E+00
        -11   -1    0    0    0    0  0.00000000000E+00  0.00000000000E+00  0.45593999997E+02  0.45594000000E+02  0.51100000000E-03 0. -1.
         11   -1    0    0    0    0 -0.00000000000E+00 -0.00000000000E+00 -0.45593999997E+02  0.45594000000E+02  0.51100000000E-03 0.  1.
         23    2    1    2    0    0 -0.35527136788E-14 -0.35527136788E-14  0.00000000000E+00  0.91188000000E+02  0.91188000000E+02 0.  0.
    9900012    2    3    3    0    0  0.27082417690E+02  0.31636943936E+02  0.12217597429E+02  0.47787271245E+02  0.20000000913E+02 0.  0.
        -12    1    3    3    0    0 -0.27082417690E+02 -0.31636943936E+02 -0.12217597429E+02  0.43400728755E+02  0.00000000000E+00 0.  1.
         11    1    4    4    0    0  0.30851349982E+01 -0.49781616014E+00  0.85565519337E+00  0.32400655792E+01  0.51100000000E-03 0. -1.
        -11    1    4    4    0    0  0.19259815987E+02  0.25836437986E+02  0.19681255577E+01  0.32285221977E+02  0.51100000000E-03 0.  1.
         12    1    4    4    0    0  0.47374667050E+01  0.62983221103E+01  0.93938166781E+01  0.12261983688E+02  0.00000000000E+00 0. -1.
</event>
<event>
 8    1  0.6524083E-011  0.9118800E+02  0.7816164E-02  0.1184000E+00
        -11   -1    0    0    0    0  0.00000000000E+00  0.00000000000E+00  0.45593999997E+02  0.45594000000E+02  0.51100000000E-03 0. -1.
         11   -1    0    0    0    0 -0.00000000000E+00 -0.00000000000E+00 -0.45593999997E+02  0.45594000000E+02  0.51100000000E-03 0.  1.
         23    2    1    2    0    0  0.17763568394E-14  0.17763568394E-14  0.00000000000E+00  0.91188000000E+02  0.91188000000E+02 0.  0.
    9900012    2    3    3    0    0  0.13695401987E+02  0.14188976672E+02 -0.38661738149E+02  0.47787296189E+02  0.20000114644E+02 0.  0.
         12    1    3    3    0    0 -0.13695401987E+02 -0.14188976672E+02  0.38661738149E+02  0.43400703811E+02  0.00000000000E+00 0. -1.
         11    1    4    4    0    0  0.39546749273E+01 -0.18466920309E+01 -0.68168785728E+01  0.80944152954E+01  0.51100000000E-03 0. -1.
        -11    1    4    4    0    0  0.67532919333E+01 -0.26997029082E+00 -0.12555804393E+02  0.14259314854E+02  0.51100000000E-03 0.  1.
         12    1    4    4    0    0  0.29874351262E+01  0.16305638994E+02 -0.19289055183E+02  0.25433566040E+02  0.00000000000E+00 0. -1.
</event>
<event>
 8    1  0.6524083E-011  0.9118800E+02  0.7816164E-02  0.1184000E+00
        -11   -1    0    0    0    0  0.00000000000E+00  0.00000000000E+00  0.45593999997E+02  0.45594000000E+02  0.51100000000E-03 0. -1.
         11   -1    0    0    0    0 -0.00000000000E+00 -0.00000000000E+00 -0.45593999997E+02  0.45594000000E+02  0.51100000000E-03 0.  1.
         23    2    1    2    0    0  0.00000000000E+00  0.00000000000E+00  0.00000000000E+00  0.91188000000E+02  0.91188000000E+02 0.  0.
    9900012    2    3    3    0    0 -0.32649000496E+02 -0.26144765261E+01 -0.28475085341E+02  0.47787271826E+02  0.20000003563E+02 0.  0.
         12    1    3    3    0    0  0.32649000496E+02  0.26144765261E+01  0.28475085341E+02  0.43400728174E+02  0.00000000000E+00 0. -1.
         11    1    4    4    0    0 -0.46834049803E+01  0.60951644904E+01 -0.92437454100E+01  0.12022152130E+02  0.51100000000E-03 0. -1.
        -11    1    4    4    0    0 -0.65312401410E+01 -0.53350788275E+01 -0.60152745534E+01  0.10358749543E+02  0.51100000000E-03 0.  1.
         12    1    4    4    0    0 -0.21434355375E+02 -0.33745621891E+01 -0.13216065377E+02  0.25406370153E+02  0.00000000000E+00 0. -1.
</event>
<event>
 8    1  0.6524083E-011  0.9118800E+02  0.7816164E-02  0.1184000E+00
        -11   -1    0    0    0    0  0.00000000000E+00  0.00000000000E+00  0.45593999997E+02  0.45594000000E+02  0.51100000000E-03 0. -1.
         11   -1    0    0    0    0 -0.00000000000E+00 -0.00000000000E+00 -0.45593999997E+02  0.45594000000E+02  0.51100000000E-03 0.  1.
         23    2    1    2    0    0  0.66613381478E-15 -0.11102230246E-15  0.00000000000E+00  0.91188000000E+02  0.91188000000E+02 0.  0.
    9900012    2    3    3    0    0 -0.33728628902E+00 -0.96665386095E+00  0.43388650688E+02  0.47787272008E+02  0.20000004392E+02 0.  0.
        -12    1    3    3    0    0  0.33728628902E+00  0.96665386095E+00 -0.43388650688E+02  0.43400727992E+02  0.00000000000E+00 0.  1.
         11    1    4    4    0    0 -0.16897752156E+01 -0.10858262548E+01  0.31397573483E+02  0.31461754239E+02  0.51100000000E-03 0. -1.
        -11    1    4    4    0    0 -0.37156407372E+01  0.23367430085E+01  0.90546069805E+01  0.10062418288E+02  0.51100000000E-03 0.  1.
         12    1    4    4    0    0  0.50681296638E+01 -0.22175706147E+01  0.29364702249E+01  0.62630994804E+01  0.00000000000E+00 0. -1.
</event>
<event>
 8    1  0.6524083E-011  0.9118800E+02  0.7816164E-02  0.1184000E+00
        -11   -1    0    0    0    0  0.00000000000E+00  0.00000000000E+00  0.45593999997E+02  0.45594000000E+02  0.51100000000E-03 0. -1.
         11   -1    0    0    0    0 -0.00000000000E+00 -0.00000000000E+00 -0.45593999997E+02  0.45594000000E+02  0.51100000000E-03 0.  1.
         23    2    1    2    0    0 -0.44408920985E-15  0.00000000000E+00  0.00000000000E+00  0.91188000000E+02  0.91188000000E+02 0.  0.
    9900012    2    3    3    0    0  0.39469622681E+01  0.51314438118E+01  0.42915184444E+02  0.47787270944E+02  0.19999999540E+02 0.  0.
        -12    1    3    3    0    0 -0.39469622681E+01 -0.51314438118E+01 -0.42915184444E+02  0.43400729056E+02  0.00000000000E+00 0.  1.
         11    1    4    4    0    0 -0.17603106897E+01  0.69878041587E+01  0.80272414845E+01  0.10787247415E+02  0.51100000000E-03 0. -1.
        -11    1    4    4    0    0  0.45292204204E+01 -0.31420049347E+01  0.63499214012E+01  0.84087772410E+01  0.51100000000E-03 0.  1.
         12    1    4    4    0    0  0.11780525374E+01  0.12856445879E+01  0.28538021559E+02  0.28591246287E+02  0.00000000000E+00 0. -1.
</event>
<event>
 8    1  0.6524083E-011  0.9118800E+02  0.7816164E-02  0.1184000E+00
        -11   -1    0    0    0    0  0.00000000000E+00  0.00000000000E+00  0.45593999997E+02  0.45594000000E+02  0.51100000000E-03 0. -1.
         11   -1    0    0    0    0 -0.00000000000E+00 -0.00000000000E+00 -0.45593999997E+02  0.45594000000E+02  0.51100000000E-03 0.  1.
         23    2    1    2    0    0  0.00000000000E+00 -0.44408920985E-15  0.00000000000E+00  0.91188000000E+02  0.91188000000E+02 0.  0.
    9900012    2    3    3    0    0 -0.43025612839E+01  0.99513701667E+00  0.43175438463E+02  0.47787299341E+02  0.20000129013E+02 0.  0.
        -12    1    3    3    0    0  0.43025612839E+01 -0.99513701667E+00 -0.43175438463E+02  0.43400700659E+02  0.00000000000E+00 0.  1.
         11    1    4    4    0    0 -0.18629692855E+01  0.35136811090E+01  0.30640052231E+02  0.30897077701E+02  0.51100000000E-03 0. -1.
        -11    1    4    4    0    0 -0.62700491648E+01  0.38903767912E+00  0.87423692302E+01  0.10765402308E+02  0.51100000000E-03 0.  1.
        -12    1    4    4    0    0  0.38304571665E+01 -0.29075817715E+01  0.37930170014E+01  0.61248193308E+01  0.00000000000E+00 0.  1.
</event>
<event>
 8    1  0.6524083E-011  0.9118800E+02  0.7816164E-02  0.1184000E+00
        -11   -1    0    0    0    0  0.00000000000E+00  0.00000000000E+00  0.45593999997E+02  0.45594000000E+02  0.51100000000E-03 0. -1.
         11   -1    0    0    0    0 -0.00000000000E+00 -0.00000000000E+00 -0.45593999997E+02  0.45594000000E+02  0.51100000000E-03 0.  1.
         23    2    1    2    0    0  0.00000000000E+00  0.00000000000E+00  0.00000000000E+00  0.91188000000E+02  0.91188000000E+02 0.  0.
    9900012    2    3    3    0    0  0.42926236441E+01  0.37772734157E+02 -0.20938409243E+02  0.47787273680E+02  0.20000012018E+02 0.  0.
         12    1    3    3    0    0 -0.42926236441E+01 -0.37772734157E+02  0.20938409243E+02  0.43400726320E+02  0.00000000000E+00 0. -1.
         11    1    4    4    0    0 -0.52149694584E+01  0.18787268817E+02 -0.94829864515E+01  0.21681430035E+02  0.51100000000E-03 0. -1.
        -11    1    4    4    0    0  0.31065538388E+01  0.76169323002E+01  0.72380987841E+00  0.82578590095E+01  0.51100000000E-03 0.  1.
        -12    1    4    4    0    0  0.64010392637E+01  0.11368533040E+02 -0.12179232670E+02  0.17847984636E+02  0.00000000000E+00 0.  1.
</event>
<event>
 8    1  0.6524083E-011  0.9118800E+02  0.7816164E-02  0.1184000E+00
        -11   -1    0    0    0    0  0.00000000000E+00  0.00000000000E+00  0.45593999997E+02  0.45594000000E+02  0.51100000000E-03 0. -1.
         11   -1    0    0    0    0 -0.00000000000E+00 -0.00000000000E+00 -0.45593999997E+02  0.45594000000E+02  0.51100000000E-03 0.  1.
         23    2    1    2    0    0  0.17763568394E-14  0.00000000000E+00  0.00000000000E+00  0.91188000000E+02  0.91188000000E+02 0.  0.
    9900012    2    3    3    0    0 -0.14933121777E+02 -0.32828234553E+02 -0.24144000855E+02  0.47787263979E+02  0.19999967785E+02 0.  0.
         12    1    3    3    0    0  0.14933121777E+02  0.32828234553E+02  0.24144000855E+02  0.43400736021E+02  0.00000000000E+00 0. -1.
         11    1    4    4    0    0 -0.14408624826E+02 -0.13572750350E+02 -0.11160717821E+02  0.22724208324E+02  0.51100000000E-03 0.  1.
        -11    1    4    4    0    0 -0.14997209153E+01 -0.13584756156E+02 -0.37308097730E+01  0.14167346416E+02  0.51100000000E-03 0. -1.
        -12    1    4    4    0    0  0.97522396407E+00 -0.56707280472E+01 -0.92524732616E+01  0.10895709239E+02  0.00000000000E+00 0.  1.
</event>
<event>
 8    1  0.6524083E-011  0.9118800E+02  0.7816164E-02  0.1184000E+00
        -11   -1    0    0    0    0  0.00000000000E+00  0.00000000000E+00  0.45593999997E+02  0.45594000000E+02  0.51100000000E-03 0.  1.
         11   -1    0    0    0    0 -0.00000000000E+00 -0.00000000000E+00 -0.45593999997E+02  0.45594000000E+02  0.51100000000E-03 0. -1.
         23    2    1    2    0    0  0.00000000000E+00  0.00000000000E+00  0.19428902931E-15  0.91188000000E+02  0.91188000000E+02 0.  0.
    9900012    2    3    3    0    0 -0.59768882543E+01 -0.42987083477E+02 -0.10383088875E+00  0.47787270514E+02  0.19999997583E+02 0.  0.
        -12    1    3    3    0    0  0.59768882543E+01  0.42987083477E+02  0.10383088875E+00  0.43400729486E+02  0.00000000000E+00 0.  1.
         11    1    4    4    0    0  0.59745883301E+01 -0.10712450857E+02  0.41843202221E+01  0.12959970874E+02  0.51100000000E-03 0.  1.
        -11    1    4    4    0    0 -0.79405802148E+01 -0.21125665583E+02 -0.12909515544E+01  0.22605599232E+02  0.51100000000E-03 0. -1.
        -12    1    4    4    0    0 -0.40108963696E+01 -0.11148967037E+02 -0.29971995565E+01  0.12221700408E+02  0.00000000000E+00 0.  1.
</event>
<event>
 8    1  0.6524083E-011  0.9118800E+02  0.7816164E-02  0.1184000E+00
        -11   -1    0    0    0    0  0.00000000000E+00  0.00000000000E+00  0.45593999997E+02  0.45594000000E+02  0.51100000000E-03 0. -1.
         11   -1    0    0    0    0 -0.00000000000E+00 -0.00000000000E+00 -0.45593999997E+02  0.45594000000E+02  0.51100000000E-03 0.  1.
         23    2    1    2    0    0  0.00000000000E+00  0.00000000000E+00  0.00000000000E+00  0.91188000000E+02  0.91188000000E+02 0.  0.
    9900012    2    3    3    0    0  0.25367100200E+02 -0.50374141862E+01  0.34853378659E+02  0.47787270534E+02  0.19999997671E+02 0.  0.
        -12    1    3    3    0    0 -0.25367100200E+02  0.50374141862E+01 -0.34853378659E+02  0.43400729466E+02  0.00000000000E+00 0.  1.
         11    1    4    4    0    0  0.66235094656E+01 -0.43176776662E+01  0.83307267874E+01  0.11485391902E+02  0.51100000000E-03 0. -1.
        -11    1    4    4    0    0 -0.11388113544E+01  0.21327404314E+01  0.10015456470E+02  0.10303147170E+02  0.51100000000E-03 0.  1.
        -12    1    4    4    0    0  0.19882402089E+02 -0.28524769513E+01  0.16507195402E+02  0.25998731462E+02  0.00000000000E+00 0.  1.
</event>
<event>
 8    1  0.6524083E-011  0.9118800E+02  0.7816164E-02  0.1184000E+00
        -11   -1    0    0    0    0  0.00000000000E+00  0.00000000000E+00  0.45593999997E+02  0.45594000000E+02  0.51100000000E-03 0. -1.
         11   -1    0    0    0    0 -0.00000000000E+00 -0.00000000000E+00 -0.45593999997E+02  0.45594000000E+02  0.51100000000E-03 0.  1.
         23    2    1    2    0    0  0.00000000000E+00  0.00000000000E+00  0.00000000000E+00  0.91188000000E+02  0.91188000000E+02 0.  0.
    9900012    2    3    3    0    0  0.43171675563E+02 -0.32846123431E+01 -0.30062201247E+01  0.47787313270E+02  0.20000192524E+02 0.  0.
        -12    1    3    3    0    0 -0.43171675563E+02  0.32846123431E+01  0.30062201247E+01  0.43400686730E+02  0.00000000000E+00 0.  1.
         11    1    4    4    0    0  0.42315075888E+01 -0.31590399963E+01  0.34960107234E+00  0.52922028819E+01  0.51100000000E-03 0. -1.
        -11    1    4    4    0    0  0.28251251674E+02  0.32116076748E+01 -0.91733009684E+01  0.29876363499E+02  0.51100000000E-03 0.  1.
        -12    1    4    4    0    0  0.10688916301E+02 -0.33371800216E+01  0.58174797713E+01  0.12618746890E+02  0.00000000000E+00 0.  1.
</event>
<event>
 8    1  0.6524083E-011  0.9118800E+02  0.7816164E-02  0.1184000E+00
        -11   -1    0    0    0    0  0.00000000000E+00  0.00000000000E+00  0.45593999997E+02  0.45594000000E+02  0.51100000000E-03 0. -1.
         11   -1    0    0    0    0 -0.00000000000E+00 -0.00000000000E+00 -0.45593999997E+02  0.45594000000E+02  0.51100000000E-03 0.  1.
         23    2    1    2    0    0  0.00000000000E+00  0.00000000000E+00 -0.49266146718E-15  0.91188000000E+02  0.91188000000E+02 0.  0.
    9900012    2    3    3    0    0 -0.20891705048E+02 -0.38041547978E+02  0.38492283242E-01  0.47787260444E+02  0.19999951667E+02 0.  0.
         12    1    3    3    0    0  0.20891705048E+02  0.38041547978E+02 -0.38492283242E-01  0.43400739556E+02  0.00000000000E+00 0. -1.
         11    1    4    4    0    0 -0.25794441437E+01 -0.34568577979E+00  0.26002804364E+01  0.36789250274E+01  0.51100000000E-03 0. -1.
        -11    1    4    4    0    0 -0.12665640995E+02 -0.20297110133E+02 -0.76565395216E+01  0.25119986848E+02  0.51100000000E-03 0.  1.
         12    1    4    4    0    0 -0.56466199094E+01 -0.17398752065E+02  0.50947513685E+01  0.18988348568E+02  0.00000000000E+00 0. -1.
</event>
<event>
 8    1  0.8846270E-011  0.9118800E+02  0.7816164E-02  0.1184000E+00
        -11   -1    0    0    0    0  0.00000000000E+00  0.00000000000E+00  0.45593999997E+02  0.45594000000E+02  0.51100000000E-03 0. -1.
         11   -1    0    0    0    0 -0.00000000000E+00 -0.00000000000E+00 -0.45593999997E+02  0.45594000000E+02  0.51100000000E-03 0.  1.
         23    2    1    2    0    0  0.00000000000E+00  0.88817841970E-15  0.00000000000E+00  0.91188000000E+02  0.91188000000E+02 0.  0.
    9900012    2    3    3    0    0  0.40209001755E+02  0.55813587719E+01 -0.15352826350E+02  0.47787255020E+02  0.19999926939E+02 0.  0.
         12    1    3    3    0    0 -0.40209001755E+02 -0.55813587719E+01  0.15352826350E+02  0.43400744980E+02  0.00000000000E+00 0. -1.
         11    1    4    4    0    0  0.79105918371E+01 -0.33724552780E+01  0.44837040147E+00  0.86111528899E+01  0.51100000000E-03 0. -1.
        -11    1    4    4    0    0  0.18495156385E+02  0.91051090845E+01 -0.14717786955E+02  0.25329569169E+02  0.51100000000E-03 0.  1.
         12    1    4    4    0    0  0.13803253533E+02 -0.15129503461E+00 -0.10834097963E+01  0.13846532962E+02  0.00000000000E+00 0. -1.
</event>
<event>
 8    1  0.6524083E-011  0.9118800E+02  0.7816164E-02  0.1184000E+00
        -11   -1    0    0    0    0  0.00000000000E+00  0.00000000000E+00  0.45593999997E+02  0.45594000000E+02  0.51100000000E-03 0. -1.
         11   -1    0    0    0    0 -0.00000000000E+00 -0.00000000000E+00 -0.45593999997E+02  0.45594000000E+02  0.51100000000E-03 0.  1.
         23    2    1    2    0    0 -0.17763568394E-14  0.00000000000E+00  0.00000000000E+00  0.91188000000E+02  0.91188000000E+02 0.  0.
    9900012    2    3    3    0    0  0.10390569500E+02  0.16953915316E+02 -0.38577508672E+02  0.47787270117E+02  0.19999995771E+02 0.  0.
         12    1    3    3    0    0 -0.10390569500E+02 -0.16953915316E+02  0.38577508672E+02  0.43400729883E+02  0.00000000000E+00 0. -1.
         11    1    4    4    0    0 -0.24668247536E+01  0.33420749205E+01 -0.16839916596E+01  0.44822446731E+01  0.51100000000E-03 0. -1.
        -11    1    4    4    0    0  0.29771539955E+01 -0.13818076634E+01 -0.13049715229E+02  0.13456147523E+02  0.51100000000E-03 0.  1.
         12    1    4    4    0    0  0.98802402577E+01  0.14993648059E+02 -0.23843801783E+02  0.29848877921E+02  0.00000000000E+00 0. -1.
</event>
<event>
 8    1  0.6524083E-011  0.9118800E+02  0.7816164E-02  0.1184000E+00
        -11   -1    0    0    0    0  0.00000000000E+00  0.00000000000E+00  0.45593999997E+02  0.45594000000E+02  0.51100000000E-03 0. -1.
         11   -1    0    0    0    0 -0.00000000000E+00 -0.00000000000E+00 -0.45593999997E+02  0.45594000000E+02  0.51100000000E-03 0.  1.
         23    2    1    2    0    0  0.00000000000E+00  0.00000000000E+00  0.00000000000E+00  0.91188000000E+02  0.91188000000E+02 0.  0.
    9900012    2    3    3    0    0  0.36523934627E+02 -0.17212912856E+02  0.15916701784E+02  0.47787267687E+02  0.19999984691E+02 0.  0.
        -12    1    3    3    0    0 -0.36523934627E+02  0.17212912856E+02 -0.15916701784E+02  0.43400732313E+02  0.00000000000E+00 0.  1.
         11    1    4    4    0    0  0.14142015941E+02 -0.95603405830E+01  0.80115179246E+01  0.18856859406E+02  0.51100000000E-03 0. -1.
        -11    1    4    4    0    0  0.17167246026E+02 -0.10981018645E+02  0.21691251171E+01  0.20493955466E+02  0.51100000000E-03 0.  1.
        -12    1    4    4    0    0  0.52146726601E+01  0.33284463718E+01  0.57360587424E+01  0.84364528149E+01  0.00000000000E+00 0.  1.
</event>
<event>
 8    1  0.6524083E-011  0.9118800E+02  0.7816164E-02  0.1184000E+00
        -11   -1    0    0    0    0  0.00000000000E+00  0.00000000000E+00  0.45593999997E+02  0.45594000000E+02  0.51100000000E-03 0.  1.
         11   -1    0    0    0    0 -0.00000000000E+00 -0.00000000000E+00 -0.45593999997E+02  0.45594000000E+02  0.51100000000E-03 0. -1.
         23    2    1    2    0    0  0.00000000000E+00  0.00000000000E+00  0.00000000000E+00  0.91188000000E+02  0.91188000000E+02 0.  0.
    9900012    2    3    3    0    0 -0.37099414642E+02  0.20777097119E+02  0.86930432771E+01  0.47787270364E+02  0.19999996899E+02 0.  0.
         12    1    3    3    0    0  0.37099414642E+02 -0.20777097119E+02 -0.86930432771E+01  0.43400729636E+02  0.00000000000E+00 0. -1.
         11    1    4    4    0    0 -0.21471347635E+01 -0.30542454735E+01 -0.15901715680E+00  0.37368288458E+01  0.51100000000E-03 0. -1.
        -11    1    4    4    0    0 -0.29875175322E+01  0.65089724126E+00  0.27192125517E+01  0.40918266564E+01  0.51100000000E-03 0.  1.
        -12    1    4    4    0    0 -0.31964762347E+02  0.23180445351E+02  0.61328478822E+01  0.39958614862E+02  0.00000000000E+00 0.  1.
</event>
<event>
 8    1  0.6524083E-011  0.9118800E+02  0.7816164E-02  0.1184000E+00
        -11   -1    0    0    0    0  0.00000000000E+00  0.00000000000E+00  0.45593999997E+02  0.45594000000E+02  0.51100000000E-03 0. -1.
         11   -1    0    0    0    0 -0.00000000000E+00 -0.00000000000E+00 -0.45593999997E+02  0.45594000000E+02  0.51100000000E-03 0.  1.
         23    2    1    2    0    0 -0.35527136788E-14 -0.88817841970E-15  0.35527136788E-14  0.91188000000E+02  0.91188000000E+02 0.  0.
    9900012    2    3    3    0    0 -0.30415509556E+02 -0.54927124564E+01 -0.30468839024E+02  0.47787271168E+02  0.20000000565E+02 0.  0.
         12    1    3    3    0    0  0.30415509556E+02  0.54927124564E+01  0.30468839024E+02  0.43400728832E+02  0.00000000000E+00 0. -1.
         11    1    4    4    0    0  0.16043905373E+01 -0.22963831408E+01 -0.79695761311E+00  0.29124879783E+01  0.51100000000E-03 0. -1.
        -11    1    4    4    0    0 -0.10063482502E+02  0.23836259372E+01 -0.53763616685E+01  0.11655926292E+02  0.51100000000E-03 0.  1.
        -12    1    4    4    0    0 -0.21956417591E+02 -0.55799552528E+01 -0.24295519742E+02  0.33218856898E+02  0.00000000000E+00 0.  1.
</event>
<event>
 8    1  0.6524083E-011  0.9118800E+02  0.7816164E-02  0.1184000E+00
        -11   -1    0    0    0    0  0.00000000000E+00  0.00000000000E+00  0.45593999997E+02  0.45594000000E+02  0.51100000000E-03 0. -1.
         11   -1    0    0    0    0 -0.00000000000E+00 -0.00000000000E+00 -0.45593999997E+02  0.45594000000E+02  0.51100000000E-03 0.  1.
         23    2    1    2    0    0 -0.56898930012E-15 -0.17763568394E-14  0.71054273576E-14  0.91188000000E+02  0.91188000000E+02 0.  0.
    9900012    2    3    3    0    0  0.29334025848E-01 -0.12590183340E+02  0.41534442509E+02  0.47787268536E+02  0.19999988565E+02 0.  0.
        -12    1    3    3    0    0 -0.29334025848E-01  0.12590183340E+02 -0.41534442509E+02  0.43400731464E+02  0.00000000000E+00 0.  1.
         11    1    4    4    0    0  0.98566313429E+01 -0.76233809862E+01  0.20382950923E+02  0.23890035741E+02  0.51100000000E-03 0. -1.
        -11    1    4    4    0    0 -0.15480326496E+01 -0.54354301061E+00  0.21585029583E+01  0.27112689595E+01  0.51100000000E-03 0.  1.
         12    1    4    4    0    0 -0.82792646674E+01 -0.44232593428E+01  0.18992988628E+02  0.21185963836E+02  0.00000000000E+00 0. -1.
</event>
<event>
 8    1  0.6524083E-011  0.9118800E+02  0.7816164E-02  0.1184000E+00
        -11   -1    0    0    0    0  0.00000000000E+00  0.00000000000E+00  0.45593999997E+02  0.45594000000E+02  0.51100000000E-03 0. -1.
         11   -1    0    0    0    0 -0.00000000000E+00 -0.00000000000E+00 -0.45593999997E+02  0.45594000000E+02  0.51100000000E-03 0.  1.
         23    2    1    2    0    0  0.00000000000E+00 -0.35527136788E-14  0.00000000000E+00  0.91188000000E+02  0.91188000000E+02 0.  0.
    9900012    2    3    3    0    0 -0.18067555025E+02 -0.18328135048E+02  0.34946632840E+02  0.47787260078E+02  0.19999949999E+02 0.  0.
        -12    1    3    3    0    0  0.18067555025E+02  0.18328135048E+02 -0.34946632840E+02  0.43400739922E+02  0.00000000000E+00 0.  1.
         11    1    4    4    0    0  0.19238950896E+01 -0.11400529675E+01  0.25448831393E+01  0.33878493972E+01  0.51100000000E-03 0. -1.
        -11    1    4    4    0    0 -0.14946210206E+02 -0.30878619608E+01  0.18305291524E+02  0.23832913986E+02  0.51100000000E-03 0.  1.
         12    1    4    4    0    0 -0.50452399084E+01 -0.14100220120E+02  0.14096458177E+02  0.20566496695E+02  0.00000000000E+00 0. -1.
</event>
<event>
 8    1  0.6524083E-011  0.9118800E+02  0.7816164E-02  0.1184000E+00
        -11   -1    0    0    0    0  0.00000000000E+00  0.00000000000E+00  0.45593999997E+02  0.45594000000E+02  0.51100000000E-03 0. -1.
         11   -1    0    0    0    0 -0.00000000000E+00 -0.00000000000E+00 -0.45593999997E+02  0.45594000000E+02  0.51100000000E-03 0.  1.
         23    2    1    2    0    0  0.00000000000E+00  0.22204460493E-15  0.00000000000E+00  0.91188000000E+02  0.91188000000E+02 0.  0.
    9900012    2    3    3    0    0  0.71646854249E+01  0.58505824062E+00 -0.42801265155E+02  0.47787270637E+02  0.19999998142E+02 0.  0.
         12    1    3    3    0    0 -0.71646854249E+01 -0.58505824062E+00  0.42801265155E+02  0.43400729363E+02  0.00000000000E+00 0. -1.
         11    1    4    4    0    0 -0.14966422448E+01  0.13691034768E-01 -0.39453151784E+00  0.15478310092E+01  0.51100000000E-03 0. -1.
        -11    1    4    4    0    0  0.12566110781E+02 -0.56503792687E+00 -0.38853794853E+02  0.40839243171E+02  0.51100000000E-03 0.  1.
        -12    1    4    4    0    0 -0.39047831112E+01  0.11364051327E+01 -0.35529387839E+01  0.54001964569E+01  0.00000000000E+00 0.  1.
</event>
<event>
 8    1  0.6793876E-011  0.9118800E+02  0.7816164E-02  0.1184000E+00
        -11   -1    0    0    0    0  0.00000000000E+00  0.00000000000E+00  0.45593999997E+02  0.45594000000E+02  0.51100000000E-03 0. -1.
         11   -1    0    0    0    0 -0.00000000000E+00 -0.00000000000E+00 -0.45593999997E+02  0.45594000000E+02  0.51100000000E-03 0.  1.
         23    2    1    2    0    0  0.00000000000E+00  0.00000000000E+00  0.00000000000E+00  0.91188000000E+02  0.91188000000E+02 0.  0.
    9900012    2    3    3    0    0 -0.72136260480E+01  0.39587054996E+02 -0.16261980715E+02  0.47787270274E+02  0.19999996486E+02 0.  0.
         12    1    3    3    0    0  0.72136260480E+01 -0.39587054996E+02  0.16261980715E+02  0.43400729726E+02  0.00000000000E+00 0. -1.
         11    1    4    4    0    0 -0.52390464385E+01  0.39099648837E+00 -0.89306719760E+00  0.53289825594E+01  0.51100000000E-03 0. -1.
        -11    1    4    4    0    0 -0.22550769946E+01  0.16566368636E+02 -0.42909102058E+01  0.17260992228E+02  0.51100000000E-03 0.  1.
         12    1    4    4    0    0  0.28049738507E+00  0.22629689871E+02 -0.11078003312E+02  0.25197295487E+02  0.00000000000E+00 0. -1.
</event>
<event>
 8    1  0.6524083E-011  0.9118800E+02  0.7816164E-02  0.1184000E+00
        -11   -1    0    0    0    0  0.00000000000E+00  0.00000000000E+00  0.45593999997E+02  0.45594000000E+02  0.51100000000E-03 0. -1.
         11   -1    0    0    0    0 -0.00000000000E+00 -0.00000000000E+00 -0.45593999997E+02  0.45594000000E+02  0.51100000000E-03 0.  1.
         23    2    1    2    0    0  0.00000000000E+00  0.00000000000E+00  0.35527136788E-14  0.91188000000E+02  0.91188000000E+02 0.  0.
    9900012    2    3    3    0    0  0.67477948300E+01 -0.29601101932E+02 -0.31013973997E+02  0.47787256300E+02  0.19999932772E+02 0.  0.
         12    1    3    3    0    0 -0.67477948300E+01  0.29601101932E+02  0.31013973997E+02  0.43400743700E+02  0.00000000000E+00 0. -1.
         11    1    4    4    0    0  0.37806288018E+01 -0.44166442226E+00 -0.30225516217E+01  0.48604567857E+01  0.51100000000E-03 0. -1.
        -11    1    4    4    0    0 -0.53401183944E+01 -0.98718580386E+01 -0.12701110487E+02  0.16949591543E+02  0.51100000000E-03 0.  1.
         12    1    4    4    0    0  0.83072844226E+01 -0.19287579471E+02 -0.15290311889E+02  0.25977207971E+02  0.00000000000E+00 0. -1.
</event>
<event>
 8    1  0.6524083E-011  0.9118800E+02  0.7816164E-02  0.1184000E+00
        -11   -1    0    0    0    0  0.00000000000E+00  0.00000000000E+00  0.45593999997E+02  0.45594000000E+02  0.51100000000E-03 0. -1.
         11   -1    0    0    0    0 -0.00000000000E+00 -0.00000000000E+00 -0.45593999997E+02  0.45594000000E+02  0.51100000000E-03 0.  1.
         23    2    1    2    0    0  0.00000000000E+00 -0.88817841970E-15 -0.71054273576E-14  0.91188000000E+02  0.91188000000E+02 0.  0.
    9900012    2    3    3    0    0 -0.11229008714E+02 -0.54987627346E+01  0.41560756918E+02  0.47787267934E+02  0.19999985817E+02 0.  0.
        -12    1    3    3    0    0  0.11229008714E+02  0.54987627346E+01 -0.41560756918E+02  0.43400732066E+02  0.00000000000E+00 0.  1.
         11    1    4    4    0    0 -0.23987395296E+01 -0.58723467255E+01  0.16404748536E+02  0.17588467307E+02  0.51100000000E-03 0. -1.
        -11    1    4    4    0    0 -0.11804706135E+02 -0.14335028778E+01  0.13292232776E+02  0.17835062934E+02  0.51100000000E-03 0.  1.
        -12    1    4    4    0    0  0.29744369507E+01  0.18070868687E+01  0.11863775605E+02  0.12363737693E+02  0.00000000000E+00 0.  1.
</event>
<event>
 8    1  0.6524083E-011  0.9118800E+02  0.7816164E-02  0.1184000E+00
        -11   -1    0    0    0    0  0.00000000000E+00  0.00000000000E+00  0.45593999997E+02  0.45594000000E+02  0.51100000000E-03 0. -1.
         11   -1    0    0    0    0 -0.00000000000E+00 -0.00000000000E+00 -0.45593999997E+02  0.45594000000E+02  0.51100000000E-03 0.  1.
         23    2    1    2    0    0  0.00000000000E+00  0.00000000000E+00 -0.35527136788E-14  0.91188000000E+02  0.91188000000E+02 0.  0.
    9900012    2    3    3    0    0  0.81973246362E+01  0.33287452154E+02 -0.26615273757E+02  0.47787269600E+02  0.19999993415E+02 0.  0.
         12    1    3    3    0    0 -0.81973246362E+01 -0.33287452154E+02  0.26615273757E+02  0.43400730400E+02  0.00000000000E+00 0. -1.
         11    1    4    4    0    0  0.34941211930E+01  0.20817705126E+02 -0.69122292617E+01  0.22211813146E+02  0.51100000000E-03 0.  1.
        -11    1    4    4    0    0  0.43079834781E+01  0.34742025478E+01 -0.23242984002E+01  0.60025967968E+01  0.51100000000E-03 0. -1.
        -12    1    4    4    0    0  0.39521996508E+00  0.89955444798E+01 -0.17378746095E+02  0.19572859657E+02  0.00000000000E+00 0.  1.
</event>
<event>
 8    1  0.6524083E-011  0.9118800E+02  0.7816164E-02  0.1184000E+00
        -11   -1    0    0    0    0  0.00000000000E+00  0.00000000000E+00  0.45593999997E+02  0.45594000000E+02  0.51100000000E-03 0. -1.
         11   -1    0    0    0    0 -0.00000000000E+00 -0.00000000000E+00 -0.45593999997E+02  0.45594000000E+02  0.51100000000E-03 0.  1.
         23    2    1    2    0    0  0.00000000000E+00  0.00000000000E+00  0.00000000000E+00  0.91188000000E+02  0.91188000000E+02 0.  0.
    9900012    2    3    3    0    0 -0.30932932105E+02  0.23322880071E+02 -0.19565790034E+02  0.47787272321E+02  0.20000005821E+02 0.  0.
         12    1    3    3    0    0  0.30932932105E+02 -0.23322880071E+02  0.19565790034E+02  0.43400727679E+02  0.00000000000E+00 0. -1.
         11    1    4    4    0    0 -0.15704398030E+02  0.50279636189E+01 -0.52401550178E+01  0.17302247267E+02  0.51100000000E-03 0. -1.
        -11    1    4    4    0    0 -0.36017049494E+01  0.76589719920E+01  0.97685578400E+00  0.85197639639E+01  0.51100000000E-03 0.  1.
        -12    1    4    4    0    0 -0.11626829126E+02  0.10635944460E+02 -0.15302490800E+02  0.21965261090E+02  0.00000000000E+00 0.  1.
</event>
<event>
 8    1  0.6524083E-011  0.9118800E+02  0.7816164E-02  0.1184000E+00
        -11   -1    0    0    0    0  0.00000000000E+00  0.00000000000E+00  0.45593999997E+02  0.45594000000E+02  0.51100000000E-03 0. -1.
         11   -1    0    0    0    0 -0.00000000000E+00 -0.00000000000E+00 -0.45593999997E+02  0.45594000000E+02  0.51100000000E-03 0.  1.
         23    2    1    2    0    0  0.00000000000E+00  0.00000000000E+00  0.00000000000E+00  0.91188000000E+02  0.91188000000E+02 0.  0.
    9900012    2    3    3    0    0 -0.29505486547E+02  0.85552741959E+01 -0.30657076501E+02  0.47787276590E+02  0.20000025283E+02 0.  0.
         12    1    3    3    0    0  0.29505486547E+02 -0.85552741959E+01  0.30657076501E+02  0.43400723410E+02  0.00000000000E+00 0. -1.
         11    1    4    4    0    0 -0.58665597127E+01  0.64927672410E+01 -0.17833433951E+02  0.19864639842E+02  0.51100000000E-03 0. -1.
        -11    1    4    4    0    0 -0.18920509825E+02  0.44807657585E+01 -0.10842375943E+02  0.22262526141E+02  0.51100000000E-03 0.  1.
        -12    1    4    4    0    0 -0.47184170095E+01 -0.24182588036E+01 -0.19812666073E+01  0.56601106072E+01  0.00000000000E+00 0.  1.
</event>
<event>
 8    1  0.6524083E-011  0.9118800E+02  0.7816164E-02  0.1184000E+00
        -11   -1    0    0    0    0  0.00000000000E+00  0.00000000000E+00  0.45593999997E+02  0.45594000000E+02  0.51100000000E-03 0. -1.
         11   -1    0    0    0    0 -0.00000000000E+00 -0.00000000000E+00 -0.45593999997E+02  0.45594000000E+02  0.51100000000E-03 0.  1.
         23    2    1    2    0    0  0.00000000000E+00  0.00000000000E+00  0.00000000000E+00  0.91188000000E+02  0.91188000000E+02 0.  0.
    9900012    2    3    3    0    0 -0.22497845794E+01 -0.18614182852E+02  0.39141708240E+02  0.47787278142E+02  0.20000032359E+02 0.  0.
        -12    1    3    3    0    0  0.22497845794E+01  0.18614182852E+02 -0.39141708240E+02  0.43400721858E+02  0.00000000000E+00 0.  1.
         11    1    4    4    0    0 -0.43062548667E+01 -0.71138785049E+01  0.10317763654E+02  0.13251692173E+02  0.51100000000E-03 0. -1.
        -11    1    4    4    0    0 -0.64184163256E+01 -0.56643358854E+01  0.10799776106E+02  0.13780998997E+02  0.51100000000E-03 0.  1.
        -12    1    4    4    0    0  0.84748866129E+01 -0.58359684616E+01  0.18024168480E+02  0.20754586972E+02  0.00000000000E+00 0.  1.
</event>
<event>
 8    1  0.9132044E-011  0.9118800E+02  0.7816164E-02  0.1184000E+00
        -11   -1    0    0    0    0  0.00000000000E+00  0.00000000000E+00  0.45593999997E+02  0.45594000000E+02  0.51100000000E-03 0. -1.
         11   -1    0    0    0    0 -0.00000000000E+00 -0.00000000000E+00 -0.45593999997E+02  0.45594000000E+02  0.51100000000E-03 0.  1.
         23    2    1    2    0    0  0.00000000000E+00  0.00000000000E+00  0.00000000000E+00  0.91188000000E+02  0.91188000000E+02 0.  0.
    9900012    2    3    3    0    0  0.11362775565E+02 -0.30436077276E+02 -0.28777697437E+02  0.47787270303E+02  0.19999996619E+02 0.  0.
         12    1    3    3    0    0 -0.11362775565E+02  0.30436077276E+02  0.28777697437E+02  0.43400729697E+02  0.00000000000E+00 0. -1.
         11    1    4    4    0    0 -0.19816390871E+01 -0.14151567871E+02 -0.90631937039E+01  0.16921443409E+02  0.51100000000E-03 0. -1.
        -11    1    4    4    0    0  0.81794918413E+01 -0.15322502275E+02 -0.18687098414E+02  0.25512561810E+02  0.51100000000E-03 0.  1.
         12    1    4    4    0    0  0.51649228112E+01 -0.96200713036E+00 -0.10274053189E+01  0.53532650835E+01  0.00000000000E+00 0. -1.
</event>
<event>
 8    1  0.6524083E-011  0.9118800E+02  0.7816164E-02  0.1184000E+00
        -11   -1    0    0    0    0  0.00000000000E+00  0.00000000000E+00  0.45593999997E+02  0.45594000000E+02  0.51100000000E-03 0. -1.
         11   -1    0    0    0    0 -0.00000000000E+00 -0.00000000000E+00 -0.45593999997E+02  0.45594000000E+02  0.51100000000E-03 0.  1.
         23    2    1    2    0    0 -0.35527136788E-14  0.00000000000E+00  0.00000000000E+00  0.91188000000E+02  0.91188000000E+02 0.  0.
    9900012    2    3    3    0    0  0.31941533544E+02  0.36235105650E+01 -0.29158715945E+02  0.47787284458E+02  0.20000061160E+02 0.  0.
         12    1    3    3    0    0 -0.31941533544E+02 -0.36235105650E+01  0.29158715945E+02  0.43400715542E+02  0.00000000000E+00 0. -1.
         11    1    4    4    0    0  0.70740958535E+01 -0.17055625074E+01 -0.27702053542E+01  0.77862579958E+01  0.51100000000E-03 0. -1.
        -11    1    4    4    0    0  0.12801358538E+02 -0.60634877338E+00 -0.32217041753E+01  0.13214454862E+02  0.51100000000E-03 0.  1.
        -12    1    4    4    0    0  0.12066079152E+02  0.59354218458E+01 -0.23166806416E+02  0.26786571601E+02  0.00000000000E+00 0.  1.
</event>
<event>
 8    1  0.6524083E-011  0.9118800E+02  0.7816164E-02  0.1184000E+00
        -11   -1    0    0    0    0  0.00000000000E+00  0.00000000000E+00  0.45593999997E+02  0.45594000000E+02  0.51100000000E-03 0. -1.
         11   -1    0    0    0    0 -0.00000000000E+00 -0.00000000000E+00 -0.45593999997E+02  0.45594000000E+02  0.51100000000E-03 0.  1.
         23    2    1    2    0    0  0.00000000000E+00  0.35527136788E-14  0.00000000000E+00  0.91188000000E+02  0.91188000000E+02 0.  0.
    9900012    2    3    3    0    0  0.22477196206E+02 -0.25830129618E+02  0.26668395760E+02  0.47787271000E+02  0.19999999797E+02 0.  0.
        -12    1    3    3    0    0 -0.22477196206E+02  0.25830129618E+02 -0.26668395760E+02  0.43400729000E+02  0.00000000000E+00 0.  1.
         11    1    4    4    0    0  0.96239493938E+01 -0.15539755296E+02  0.98763884811E+01  0.20776126836E+02  0.51100000000E-03 0. -1.
        -11    1    4    4    0    0  0.64853895226E+01 -0.12351251132E+02  0.13984958817E+02  0.19753297324E+02  0.51100000000E-03 0.  1.
        -12    1    4    4    0    0  0.63678572895E+01  0.20608768113E+01  0.28070484621E+01  0.72578468404E+01  0.00000000000E+00 0.  1.
</event>
<event>
 8    1  0.6524083E-011  0.9118800E+02  0.7816164E-02  0.1184000E+00
        -11   -1    0    0    0    0  0.00000000000E+00  0.00000000000E+00  0.45593999997E+02  0.45594000000E+02  0.51100000000E-03 0. -1.
         11   -1    0    0    0    0 -0.00000000000E+00 -0.00000000000E+00 -0.45593999997E+02  0.45594000000E+02  0.51100000000E-03 0.  1.
         23    2    1    2    0    0  0.00000000000E+00 -0.88817841970E-15  0.00000000000E+00  0.91188000000E+02  0.91188000000E+02 0.  0.
    9900012    2    3    3    0    0 -0.23208697036E+01 -0.57435892033E+01 -0.42956360623E+02  0.47787260708E+02  0.19999952871E+02 0.  0.
         12    1    3    3    0    0  0.23208697036E+01  0.57435892033E+01  0.42956360623E+02  0.43400739292E+02  0.00000000000E+00 0. -1.
         11    1    4    4    0    0 -0.94164887707E+01 -0.38497275859E+01 -0.23074354036E+02  0.25217384434E+02  0.51100000000E-03 0. -1.
        -11    1    4    4    0    0  0.29068388311E+01  0.19185654348E+01 -0.13908811426E+02  0.14338257943E+02  0.51100000000E-03 0.  1.
        -12    1    4    4    0    0  0.41887802359E+01 -0.38124270522E+01 -0.59731951613E+01  0.82316183298E+01  0.00000000000E+00 0.  1.
</event>
<event>
 8    1  0.6524083E-011  0.9118800E+02  0.7816164E-02  0.1184000E+00
        -11   -1    0    0    0    0  0.00000000000E+00  0.00000000000E+00  0.45593999997E+02  0.45594000000E+02  0.51100000000E-03 0. -1.
         11   -1    0    0    0    0 -0.00000000000E+00 -0.00000000000E+00 -0.45593999997E+02  0.45594000000E+02  0.51100000000E-03 0.  1.
         23    2    1    2    0    0  0.35527136788E-14  0.00000000000E+00  0.00000000000E+00  0.91188000000E+02  0.91188000000E+02 0.  0.
    9900012    2    3    3    0    0  0.20099496002E+02  0.22587741251E+01 -0.38399627157E+02  0.47787272289E+02  0.20000005675E+02 0.  0.
         12    1    3    3    0    0 -0.20099496002E+02 -0.22587741251E+01  0.38399627157E+02  0.43400727711E+02  0.00000000000E+00 0. -1.
         11    1    4    4    0    0 -0.10406402242E+01 -0.22227100760E+01 -0.20702855924E+01  0.32108339810E+01  0.51100000000E-03 0. -1.
        -11    1    4    4    0    0  0.15661382248E+02  0.57729475490E+00 -0.34032529907E+02  0.37467656122E+02  0.51100000000E-03 0.  1.
        -12    1    4    4    0    0  0.54787539777E+01  0.39041894462E+01 -0.22968116574E+01  0.71087821861E+01  0.00000000000E+00 0.  1.
</event>
<event>
 8    1  0.6524083E-011  0.9118800E+02  0.7816164E-02  0.1184000E+00
        -11   -1    0    0    0    0  0.00000000000E+00  0.00000000000E+00  0.45593999997E+02  0.45594000000E+02  0.51100000000E-03 0. -1.
         11   -1    0    0    0    0 -0.00000000000E+00 -0.00000000000E+00 -0.45593999997E+02  0.45594000000E+02  0.51100000000E-03 0.  1.
         23    2    1    2    0    0  0.88817841970E-15  0.00000000000E+00  0.00000000000E+00  0.91188000000E+02  0.91188000000E+02 0.  0.
    9900012    2    3    3    0    0 -0.72748825941E+01 -0.17816650377E+02 -0.38900722712E+02  0.47787272185E+02  0.20000005199E+02 0.  0.
         12    1    3    3    0    0  0.72748825941E+01  0.17816650377E+02  0.38900722712E+02  0.43400727815E+02  0.00000000000E+00 0. -1.
         11    1    4    4    0    0  0.14688724363E+00  0.30214246339E+01 -0.21487465800E+01  0.37104844437E+01  0.51100000000E-03 0. -1.
        -11    1    4    4    0    0 -0.42802614458E+01 -0.10318905550E+02 -0.27631126858E+02  0.29804020224E+02  0.51100000000E-03 0.  1.
        -12    1    4    4    0    0 -0.31415083920E+01 -0.10519169461E+02 -0.91208492734E+01  0.14272767517E+02  0.00000000000E+00 0.  1.
</event>
<event>
 8    1  0.6524083E-011  0.9118800E+02  0.7816164E-02  0.1184000E+00
        -11   -1    0    0    0    0  0.00000000000E+00  0.00000000000E+00  0.45593999997E+02  0.45594000000E+02  0.51100000000E-03 0. -1.
         11   -1    0    0    0    0 -0.00000000000E+00 -0.00000000000E+00 -0.45593999997E+02  0.45594000000E+02  0.51100000000E-03 0.  1.
         23    2    1    2    0    0  0.35527136788E-14  0.00000000000E+00 -0.35527136788E-14  0.91188000000E+02  0.91188000000E+02 0.  0.
    9900012    2    3    3    0    0 -0.26488899630E+02  0.25250811353E+02 -0.23331484724E+02  0.47787268935E+02  0.19999990381E+02 0.  0.
         12    1    3    3    0    0  0.26488899630E+02 -0.25250811353E+02  0.23331484724E+02  0.43400731065E+02  0.00000000000E+00 0. -1.
         11    1    4    4    0    0 -0.71488595113E+00  0.35299427174E+01 -0.34088659687E+01  0.49590245982E+01  0.51100000000E-03 0. -1.
        -11    1    4    4    0    0 -0.22129280055E+02  0.12888517067E+02 -0.21125541850E+02  0.33198003353E+02  0.51100000000E-03 0.  1.
         12    1    4    4    0    0 -0.36447336239E+01  0.88323515687E+01  0.12029230948E+01  0.96302409832E+01  0.00000000000E+00 0. -1.
</event>
<event>
 8    1  0.6524083E-011  0.9118800E+02  0.7816164E-02  0.1184000E+00
        -11   -1    0    0    0    0  0.00000000000E+00  0.00000000000E+00  0.45593999997E+02  0.45594000000E+02  0.51100000000E-03 0. -1.
         11   -1    0    0    0    0 -0.00000000000E+00 -0.00000000000E+00 -0.45593999997E+02  0.45594000000E+02  0.51100000000E-03 0.  1.
         23    2    1    2    0    0  0.00000000000E+00  0.00000000000E+00 -0.71054273576E-14  0.91188000000E+02  0.91188000000E+02 0.  0.
    9900012    2    3    3    0    0  0.28649415652E+01 -0.91421572479E+01  0.42330073495E+02  0.47787285128E+02  0.20000064211E+02 0.  0.
        -12    1    3    3    0    0 -0.28649415652E+01  0.91421572479E+01 -0.42330073495E+02  0.43400714872E+02  0.00000000000E+00 0.  1.
         11    1    4    4    0    0 -0.25527348040E+01  0.43600331829E+00  0.28074813268E+01  0.38194902192E+01  0.51100000000E-03 0. -1.
        -11    1    4    4    0    0  0.51726136883E+01  0.28361161315E+01  0.19817955265E+02  0.20677302489E+02  0.51100000000E-03 0.  1.
         12    1    4    4    0    0  0.24506268081E+00 -0.12414276698E+02  0.19704636903E+02  0.23290492419E+02  0.00000000000E+00 0. -1.
</event>
<event>
 8    1  0.8663477E-011  0.9118800E+02  0.7816164E-02  0.1184000E+00
        -11   -1    0    0    0    0  0.00000000000E+00  0.00000000000E+00  0.45593999997E+02  0.45594000000E+02  0.51100000000E-03 0. -1.
         11   -1    0    0    0    0 -0.00000000000E+00 -0.00000000000E+00 -0.45593999997E+02  0.45594000000E+02  0.51100000000E-03 0.  1.
         23    2    1    2    0    0  0.00000000000E+00 -0.35527136788E-14  0.00000000000E+00  0.91188000000E+02  0.91188000000E+02 0.  0.
    9900012    2    3    3    0    0 -0.16704576298E+02 -0.27874460726E+02 -0.28767950719E+02  0.47787269376E+02  0.19999992394E+02 0.  0.
         12    1    3    3    0    0  0.16704576298E+02  0.27874460726E+02  0.28767950719E+02  0.43400730624E+02  0.00000000000E+00 0. -1.
         11    1    4    4    0    0 -0.57216962144E+01 -0.13174623623E+02 -0.18511280937E+02  0.23430237672E+02  0.51100000000E-03 0. -1.
        -11    1    4    4    0    0 -0.40158281068E+01 -0.13583566245E+02 -0.99202496327E+01  0.17293105572E+02  0.51100000000E-03 0.  1.
         12    1    4    4    0    0 -0.69670519771E+01 -0.11162708584E+01 -0.33642015007E+00  0.70639261320E+01  0.00000000000E+00 0. -1.
</event>
<event>
 8    1  0.6524083E-011  0.9118800E+02  0.7816164E-02  0.1184000E+00
        -11   -1    0    0    0    0  0.00000000000E+00  0.00000000000E+00  0.45593999997E+02  0.45594000000E+02  0.51100000000E-03 0. -1.
         11   -1    0    0    0    0 -0.00000000000E+00 -0.00000000000E+00 -0.45593999997E+02  0.45594000000E+02  0.51100000000E-03 0.  1.
         23    2    1    2    0    0  0.00000000000E+00  0.00000000000E+00  0.35527136788E-14  0.91188000000E+02  0.91188000000E+02 0.  0.
    9900012    2    3    3    0    0 -0.28125479294E+02  0.27003615350E+02 -0.19062662534E+02  0.47787275002E+02  0.20000018044E+02 0.  0.
         12    1    3    3    0    0  0.28125479294E+02 -0.27003615350E+02  0.19062662534E+02  0.43400724998E+02  0.00000000000E+00 0. -1.
         11    1    4    4    0    0 -0.11150532813E+02  0.16544999848E+02 -0.12341965233E+02  0.23460509544E+02  0.51100000000E-03 0. -1.
        -11    1    4    4    0    0 -0.31285704608E+01  0.63695751855E+01  0.21090455308E+01  0.74032097420E+01  0.51100000000E-03 0.  1.
        -12    1    4    4    0    0 -0.13846376020E+02  0.40890403163E+01 -0.88297428313E+01  0.16923555716E+02  0.00000000000E+00 0.  1.
</event>
<event>
 8    1  0.6524083E-011  0.9118800E+02  0.7816164E-02  0.1184000E+00
        -11   -1    0    0    0    0  0.00000000000E+00  0.00000000000E+00  0.45593999997E+02  0.45594000000E+02  0.51100000000E-03 0. -1.
         11   -1    0    0    0    0 -0.00000000000E+00 -0.00000000000E+00 -0.45593999997E+02  0.45594000000E+02  0.51100000000E-03 0.  1.
         23    2    1    2    0    0  0.11102230246E-15  0.11102230246E-14  0.00000000000E+00  0.91188000000E+02  0.91188000000E+02 0.  0.
    9900012    2    3    3    0    0  0.87689433947E+00 -0.12973786241E+01  0.43372467119E+02  0.47787273751E+02  0.20000012339E+02 0.  0.
        -12    1    3    3    0    0 -0.87689433947E+00  0.12973786241E+01 -0.43372467119E+02  0.43400726249E+02  0.00000000000E+00 0.  1.
         11    1    4    4    0    0 -0.23119816562E+01  0.11009837994E+01  0.18837200236E+02  0.19010458635E+02  0.51100000000E-03 0. -1.
        -11    1    4    4    0    0  0.15235185562E+01  0.61461629751E+01  0.10331809106E+02  0.12117867295E+02  0.51100000000E-03 0.  1.
        -12    1    4    4    0    0  0.16653574394E+01 -0.85445253987E+01  0.14203457776E+02  0.16658947821E+02  0.00000000000E+00 0.  1.
</event>
<event>
 8    1  0.6524083E-011  0.9118800E+02  0.7816164E-02  0.1184000E+00
        -11   -1    0    0    0    0  0.00000000000E+00  0.00000000000E+00  0.45593999997E+02  0.45594000000E+02  0.51100000000E-03 0. -1.
         11   -1    0    0    0    0 -0.00000000000E+00 -0.00000000000E+00 -0.45593999997E+02  0.45594000000E+02  0.51100000000E-03 0.  1.
         23    2    1    2    0    0  0.00000000000E+00  0.17763568394E-14  0.33306690739E-15  0.91188000000E+02  0.91188000000E+02 0.  0.
    9900012    2    3    3    0    0 -0.41611810666E+02 -0.12326802615E+02 -0.36146699759E+00  0.47787268347E+02  0.19999987703E+02 0.  0.
        -12    1    3    3    0    0  0.41611810666E+02  0.12326802615E+02  0.36146699759E+00  0.43400731653E+02  0.00000000000E+00 0.  1.
         11    1    4    4    0    0 -0.11219661734E+01 -0.40118916500E+01 -0.94635167089E+00  0.42719625995E+01  0.51100000000E-03 0. -1.
        -11    1    4    4    0    0 -0.18190296098E+02  0.13943483269E+01  0.47208417510E+01  0.18844559599E+02  0.51100000000E-03 0.  1.
         12    1    4    4    0    0 -0.22299548394E+02 -0.97092592919E+01 -0.41359570777E+01  0.24670746149E+02  0.00000000000E+00 0. -1.
</event>
<event>
 8    1  0.6524083E-011  0.9118800E+02  0.7816164E-02  0.1184000E+00
        -11   -1    0    0    0    0  0.00000000000E+00  0.00000000000E+00  0.45593999997E+02  0.45594000000E+02  0.51100000000E-03 0. -1.
         11   -1    0    0    0    0 -0.00000000000E+00 -0.00000000000E+00 -0.45593999997E+02  0.45594000000E+02  0.51100000000E-03 0.  1.
         23    2    1    2    0    0  0.00000000000E+00  0.22204460493E-15  0.00000000000E+00  0.91188000000E+02  0.91188000000E+02 0.  0.
    9900012    2    3    3    0    0 -0.35983039958E+02 -0.13719926487E+01 -0.24227295476E+02  0.47787269885E+02  0.19999994712E+02 0.  0.
         12    1    3    3    0    0  0.35983039958E+02  0.13719926487E+01  0.24227295476E+02  0.43400730115E+02  0.00000000000E+00 0. -1.
         11    1    4    4    0    0 -0.30791052340E+02 -0.34146112084E+01 -0.11861674000E+02  0.33172997818E+02  0.51100000000E-03 0. -1.
        -11    1    4    4    0    0 -0.23693451944E+01 -0.20171952064E+00 -0.81483586931E+00  0.25136517599E+01  0.51100000000E-03 0.  1.
        -12    1    4    4    0    0 -0.28226424240E+01  0.22443380803E+01 -0.11550785607E+02  0.12100620307E+02  0.00000000000E+00 0.  1.
</event>
<event>
 8    1  0.6524083E-011  0.9118800E+02  0.7816164E-02  0.1184000E+00
        -11   -1    0    0    0    0  0.00000000000E+00  0.00000000000E+00  0.45593999997E+02  0.45594000000E+02  0.51100000000E-03 0.  1.
         11   -1    0    0    0    0 -0.00000000000E+00 -0.00000000000E+00 -0.45593999997E+02  0.45594000000E+02  0.51100000000E-03 0. -1.
         23    2    1    2    0    0  0.35527136788E-14  0.71054273576E-14 -0.17763568394E-14  0.91188000000E+02  0.91188000000E+02 0.  0.
    9900012    2    3    3    0    0 -0.24587985669E+02 -0.34104170998E+02  0.10768467688E+02  0.47787269418E+02  0.19999992585E+02 0.  0.
        -12    1    3    3    0    0  0.24587985669E+02  0.34104170998E+02 -0.10768467688E+02  0.43400730582E+02  0.00000000000E+00 0.  1.
         11    1    4    4    0    0 -0.99308737191E+01 -0.40957332476E+01  0.92057560577E+01  0.14147198610E+02  0.51100000000E-03 0.  1.
        -11    1    4    4    0    0 -0.10835607748E+02 -0.18633598513E+02  0.18742405004E+01  0.21636408355E+02  0.51100000000E-03 0. -1.
        -12    1    4    4    0    0 -0.38215042016E+01 -0.11374839237E+02 -0.31152886998E+00  0.12003662453E+02  0.00000000000E+00 0.  1.
</event>
<event>
 8    1  0.6524083E-011  0.9118800E+02  0.7816164E-02  0.1184000E+00
        -11   -1    0    0    0    0  0.00000000000E+00  0.00000000000E+00  0.45593999997E+02  0.45594000000E+02  0.51100000000E-03 0. -1.
         11   -1    0    0    0    0 -0.00000000000E+00 -0.00000000000E+00 -0.45593999997E+02  0.45594000000E+02  0.51100000000E-03 0.  1.
         23    2    1    2    0    0  0.00000000000E+00  0.00000000000E+00  0.00000000000E+00  0.91188000000E+02  0.91188000000E+02 0.  0.
    9900012    2    3    3    0    0  0.84053600290E+01  0.33173536315E+02 -0.26692509683E+02  0.47787266572E+02  0.19999979609E+02 0.  0.
         12    1    3    3    0    0 -0.84053600290E+01 -0.33173536315E+02  0.26692509683E+02  0.43400733428E+02  0.00000000000E+00 0. -1.
         11    1    4    4    0    0  0.13540083615E+00  0.46778189482E+01  0.70195300620E+00  0.47321307867E+01  0.51100000000E-03 0. -1.
        -11    1    4    4    0    0  0.57573306321E+01  0.19599611630E+01 -0.24745966390E+01  0.65659677546E+01  0.51100000000E-03 0.  1.
        -12    1    4    4    0    0  0.25126285607E+01  0.26535756204E+02 -0.24919866050E+02  0.36489168031E+02  0.00000000000E+00 0.  1.
</event>
<event>
 8    1  0.6524083E-011  0.9118800E+02  0.7816164E-02  0.1184000E+00
        -11   -1    0    0    0    0  0.00000000000E+00  0.00000000000E+00  0.45593999997E+02  0.45594000000E+02  0.51100000000E-03 0. -1.
         11   -1    0    0    0    0 -0.00000000000E+00 -0.00000000000E+00 -0.45593999997E+02  0.45594000000E+02  0.51100000000E-03 0.  1.
         23    2    1    2    0    0  0.00000000000E+00  0.00000000000E+00  0.00000000000E+00  0.91188000000E+02  0.91188000000E+02 0.  0.
    9900012    2    3    3    0    0  0.45334309775E+01 -0.23289542468E+02 -0.36341002629E+02  0.47787271240E+02  0.20000000894E+02 0.  0.
         12    1    3    3    0    0 -0.45334309775E+01  0.23289542468E+02  0.36341002629E+02  0.43400728760E+02  0.00000000000E+00 0. -1.
         11    1    4    4    0    0  0.25184659277E+01 -0.96458959944E+00  0.52651791508E+00  0.27477854902E+01  0.51100000000E-03 0. -1.
        -11    1    4    4    0    0 -0.15293464335E+01 -0.35530856727E+01 -0.17167798730E+02  0.17598199675E+02  0.51100000000E-03 0.  1.
        -12    1    4    4    0    0  0.35443114833E+01 -0.18771867196E+02 -0.19699721814E+02  0.27441286075E+02  0.00000000000E+00 0.  1.
</event>
<event>
 8    1  0.6524083E-011  0.9118800E+02  0.7816164E-02  0.1184000E+00
        -11   -1    0    0    0    0  0.00000000000E+00  0.00000000000E+00  0.45593999997E+02  0.45594000000E+02  0.51100000000E-03 0. -1.
         11   -1    0    0    0    0 -0.00000000000E+00 -0.00000000000E+00 -0.45593999997E+02  0.45594000000E+02  0.51100000000E-03 0.  1.
         23    2    1    2    0    0  0.00000000000E+00 -0.35527136788E-14  0.00000000000E+00  0.91188000000E+02  0.91188000000E+02 0.  0.
    9900012    2    3    3    0    0  0.11970256831E+02 -0.16303989536E+02 -0.38399426788E+02  0.47787273036E+02  0.20000009080E+02 0.  0.
         12    1    3    3    0    0 -0.11970256831E+02  0.16303989536E+02  0.38399426788E+02  0.43400726964E+02  0.00000000000E+00 0. -1.
         11    1    4    4    0    0  0.10373412532E+02 -0.86205315068E+01 -0.86427319055E+01  0.16019302921E+02  0.51100000000E-03 0. -1.
        -11    1    4    4    0    0 -0.25783622211E+01 -0.29556410484E+00 -0.58505561404E+01  0.64003372799E+01  0.51100000000E-03 0.  1.
        -12    1    4    4    0    0  0.41752065205E+01 -0.73878939245E+01 -0.23906138742E+02  0.25367632835E+02  0.00000000000E+00 0.  1.
</event>
<event>
 8    1  0.6524083E-011  0.9118800E+02  0.7816164E-02  0.1184000E+00
        -11   -1    0    0    0    0  0.00000000000E+00  0.00000000000E+00  0.45593999997E+02  0.45594000000E+02  0.51100000000E-03 0. -1.
         11   -1    0    0    0    0 -0.00000000000E+00 -0.00000000000E+00 -0.45593999997E+02  0.45594000000E+02  0.51100000000E-03 0.  1.
         23    2    1    2    0    0  0.00000000000E+00 -0.35527136788E-14  0.00000000000E+00  0.91188000000E+02  0.91188000000E+02 0.  0.
    9900012    2    3    3    0    0  0.19667915883E+02  0.29297743387E+02 -0.25267325477E+02  0.47787280887E+02  0.20000044877E+02 0.  0.
         12    1    3    3    0    0 -0.19667915883E+02 -0.29297743387E+02  0.25267325477E+02  0.43400719113E+02  0.00000000000E+00 0. -1.
         11    1    4    4    0    0  0.51948726255E+01  0.51269781064E+01 -0.52480063107E+01  0.89896705499E+01  0.51100000000E-03 0.  1.
        -11    1    4    4    0    0  0.94393566334E+01  0.22816869571E+02 -0.22145312104E+02  0.33168144946E+02  0.51100000000E-03 0. -1.
         12    1    4    4    0    0  0.50336866241E+01  0.13538957091E+01  0.21259929378E+01  0.56294653914E+01  0.00000000000E+00 0. -1.
</event>
<event>
 8    1  0.6524083E-011  0.9118800E+02  0.7816164E-02  0.1184000E+00
        -11   -1    0    0    0    0  0.00000000000E+00  0.00000000000E+00  0.45593999997E+02  0.45594000000E+02  0.51100000000E-03 0. -1.
         11   -1    0    0    0    0 -0.00000000000E+00 -0.00000000000E+00 -0.45593999997E+02  0.45594000000E+02  0.51100000000E-03 0.  1.
         23    2    1    2    0    0  0.00000000000E+00  0.35527136788E-14  0.00000000000E+00  0.91188000000E+02  0.91188000000E+02 0.  0.
    9900012    2    3    3    0    0 -0.19835843838E+02 -0.29625510637E+02 -0.24748576692E+02  0.47787266947E+02  0.19999981318E+02 0.  0.
         12    1    3    3    0    0  0.19835843838E+02  0.29625510637E+02  0.24748576692E+02  0.43400733053E+02  0.00000000000E+00 0. -1.
         11    1    4    4    0    0  0.20913161997E+01  0.42308442558E+00  0.32601526656E+00  0.21584462221E+01  0.51100000000E-03 0. -1.
        -11    1    4    4    0    0 -0.13272979513E+02 -0.11256586868E+02 -0.10570410156E+02  0.20362129167E+02  0.51100000000E-03 0.  1.
        -12    1    4    4    0    0 -0.86541805243E+01 -0.18792008194E+02 -0.14504181803E+02  0.25266691558E+02  0.00000000000E+00 0.  1.
</event>
<event>
 8    1  0.6524083E-011  0.9118800E+02  0.7816164E-02  0.1184000E+00
        -11   -1    0    0    0    0  0.00000000000E+00  0.00000000000E+00  0.45593999997E+02  0.45594000000E+02  0.51100000000E-03 0.  1.
         11   -1    0    0    0    0 -0.00000000000E+00 -0.00000000000E+00 -0.45593999997E+02  0.45594000000E+02  0.51100000000E-03 0. -1.
         23    2    1    2    0    0  0.35527136788E-14  0.00000000000E+00  0.13322676296E-14  0.91188000000E+02  0.91188000000E+02 0.  0.
    9900012    2    3    3    0    0 -0.28892949441E+02  0.32342320732E+02  0.16721040697E+01  0.47787260723E+02  0.19999952942E+02 0.  0.
         12    1    3    3    0    0  0.28892949441E+02 -0.32342320732E+02 -0.16721040697E+01  0.43400739277E+02  0.00000000000E+00 0. -1.
         11    1    4    4    0    0  0.17739878895E+01  0.12171175164E+01  0.17231315804E+01  0.27563727588E+01  0.51100000000E-03 0. -1.
        -11    1    4    4    0    0 -0.14511274014E+02  0.12160069337E+02  0.50630429038E+01  0.19597927531E+02  0.51100000000E-03 0.  1.
        -12    1    4    4    0    0 -0.16155663316E+02  0.18965133879E+02 -0.51140704145E+01  0.25432960434E+02  0.00000000000E+00 0.  1.
</event>
<event>
 8    1  0.6524083E-011  0.9118800E+02  0.7816164E-02  0.1184000E+00
        -11   -1    0    0    0    0  0.00000000000E+00  0.00000000000E+00  0.45593999997E+02  0.45594000000E+02  0.51100000000E-03 0. -1.
         11   -1    0    0    0    0 -0.00000000000E+00 -0.00000000000E+00 -0.45593999997E+02  0.45594000000E+02  0.51100000000E-03 0.  1.
         23    2    1    2    0    0  0.00000000000E+00 -0.35527136788E-14 -0.35527136788E-14  0.91188000000E+02  0.91188000000E+02 0.  0.
    9900012    2    3    3    0    0 -0.13697351707E+02  0.26591857132E+02  0.31446435703E+02  0.47787278486E+02  0.20000033928E+02 0.  0.
        -12    1    3    3    0    0  0.13697351707E+02 -0.26591857132E+02 -0.31446435703E+02  0.43400721514E+02  0.00000000000E+00 0.  1.
         11    1    4    4    0    0 -0.17239632943E+01  0.21322412296E+02  0.19792860464E+02  0.29144032685E+02  0.51100000000E-03 0. -1.
        -11    1    4    4    0    0 -0.27265810600E+01 -0.83510326515E+00  0.48934913739E+01  0.56637355012E+01  0.51100000000E-03 0.  1.
        -12    1    4    4    0    0 -0.92468073529E+01  0.61045481017E+01  0.67600838656E+01  0.12979510300E+02  0.00000000000E+00 0.  1.
</event>
<event>
 8    1  0.6524083E-011  0.9118800E+02  0.7816164E-02  0.1184000E+00
        -11   -1    0    0    0    0  0.00000000000E+00  0.00000000000E+00  0.45593999997E+02  0.45594000000E+02  0.51100000000E-03 0. -1.
         11   -1    0    0    0    0 -0.00000000000E+00 -0.00000000000E+00 -0.45593999997E+02  0.45594000000E+02  0.51100000000E-03 0.  1.
         23    2    1    2    0    0 -0.35527136788E-14  0.17763568394E-14  0.71054273576E-14  0.91188000000E+02  0.91188000000E+02 0.  0.
    9900012    2    3    3    0    0  0.16910512753E+02 -0.10465199182E+02 -0.38576388177E+02  0.47787267745E+02  0.19999984955E+02 0.  0.
         12    1    3    3    0    0 -0.16910512753E+02  0.10465199182E+02  0.38576388177E+02  0.43400732255E+02  0.00000000000E+00 0. -1.
         11    1    4    4    0    0  0.17134086924E+02 -0.49975314070E+01 -0.16327659595E+02  0.24189764840E+02  0.51100000000E-03 0. -1.
        -11    1    4    4    0    0  0.26432259189E+01 -0.31447496411E+01 -0.13231738030E+02  0.13854782031E+02  0.51100000000E-03 0.  1.
        -12    1    4    4    0    0 -0.28668000903E+01 -0.23229181341E+01 -0.90169905520E+01  0.97427208741E+01  0.00000000000E+00 0.  1.
</event>
<event>
 8    1  0.6524083E-011  0.9118800E+02  0.7816164E-02  0.1184000E+00
        -11   -1    0    0    0    0  0.00000000000E+00  0.00000000000E+00  0.45593999997E+02  0.45594000000E+02  0.51100000000E-03 0. -1.
         11   -1    0    0    0    0 -0.00000000000E+00 -0.00000000000E+00 -0.45593999997E+02  0.45594000000E+02  0.51100000000E-03 0.  1.
         23    2    1    2    0    0  0.00000000000E+00  0.00000000000E+00  0.00000000000E+00  0.91188000000E+02  0.91188000000E+02 0.  0.
    9900012    2    3    3    0    0  0.33581804257E+00  0.35264034216E+02  0.25297399845E+02  0.47787270491E+02  0.19999997479E+02 0.  0.
        -12    1    3    3    0    0 -0.33581804257E+00 -0.35264034216E+02 -0.25297399845E+02  0.43400729509E+02  0.00000000000E+00 0.  1.
         11    1    4    4    0    0 -0.14862223652E+01 -0.12267951218E+01  0.47456963482E+00  0.19847165513E+01  0.51100000000E-03 0. -1.
        -11    1    4    4    0    0  0.19180887640E+01  0.46550327212E+01 -0.58783335476E+00  0.50689192592E+01  0.51100000000E-03 0.  1.
         12    1    4    4    0    0 -0.96048356314E-01  0.31835796617E+02  0.25410663565E+02  0.40733634681E+02  0.00000000000E+00 0. -1.
</event>
<event>
 8    1  0.6524083E-011  0.9118800E+02  0.7816164E-02  0.1184000E+00
        -11   -1    0    0    0    0  0.00000000000E+00  0.00000000000E+00  0.45593999997E+02  0.45594000000E+02  0.51100000000E-03 0. -1.
         11   -1    0    0    0    0 -0.00000000000E+00 -0.00000000000E+00 -0.45593999997E+02  0.45594000000E+02  0.51100000000E-03 0.  1.
         23    2    1    2    0    0  0.00000000000E+00  0.00000000000E+00  0.00000000000E+00  0.91188000000E+02  0.91188000000E+02 0.  0.
    9900012    2    3    3    0    0 -0.22569512059E+02  0.22884670807E+02  0.29163888270E+02  0.47787269458E+02  0.19999992768E+02 0.  0.
        -12    1    3    3    0    0  0.22569512059E+02 -0.22884670807E+02 -0.29163888270E+02  0.43400730542E+02  0.00000000000E+00 0.  1.
         11    1    4    4    0    0 -0.46720123552E+01  0.12445300422E+02  0.86181043311E+01  0.15842503734E+02  0.51100000000E-03 0. -1.
        -11    1    4    4    0    0 -0.75229499506E+01  0.53718487071E+01  0.17829688567E+02  0.20083558678E+02  0.51100000000E-03 0.  1.
        -12    1    4    4    0    0 -0.10374549753E+02  0.50675216780E+01  0.27160953720E+01  0.11861207047E+02  0.00000000000E+00 0.  1.
</event>
<event>
 8    1  0.6524083E-011  0.9118800E+02  0.7816164E-02  0.1184000E+00
        -11   -1    0    0    0    0  0.00000000000E+00  0.00000000000E+00  0.45593999997E+02  0.45594000000E+02  0.51100000000E-03 0. -1.
         11   -1    0    0    0    0 -0.00000000000E+00 -0.00000000000E+00 -0.45593999997E+02  0.45594000000E+02  0.51100000000E-03 0.  1.
         23    2    1    2    0    0  0.00000000000E+00  0.35527136788E-14  0.00000000000E+00  0.91188000000E+02  0.91188000000E+02 0.  0.
    9900012    2    3    3    0    0 -0.66609567144E+01 -0.22630691625E+02  0.36429474640E+02  0.47787272238E+02  0.20000005441E+02 0.  0.
        -12    1    3    3    0    0  0.66609567144E+01  0.22630691625E+02 -0.36429474640E+02  0.43400727762E+02  0.00000000000E+00 0.  1.
         11    1    4    4    0    0 -0.61118138106E+01  0.11046089342E+01  0.68117649476E+01  0.92181652684E+01  0.51100000000E-03 0.  1.
        -11    1    4    4    0    0  0.29725295916E+01 -0.85371537880E+01  0.12233526815E+02  0.15211117828E+02  0.51100000000E-03 0. -1.
        -12    1    4    4    0    0 -0.35216724954E+01 -0.15198146771E+02  0.17384182877E+02  0.23357989142E+02  0.00000000000E+00 0.  1.
</event>
<event>
 8    1  0.6524083E-011  0.9118800E+02  0.7816164E-02  0.1184000E+00
        -11   -1    0    0    0    0  0.00000000000E+00  0.00000000000E+00  0.45593999997E+02  0.45594000000E+02  0.51100000000E-03 0. -1.
         11   -1    0    0    0    0 -0.00000000000E+00 -0.00000000000E+00 -0.45593999997E+02  0.45594000000E+02  0.51100000000E-03 0.  1.
         23    2    1    2    0    0  0.00000000000E+00 -0.17763568394E-14  0.00000000000E+00  0.91188000000E+02  0.91188000000E+02 0.  0.
    9900012    2    3    3    0    0 -0.34062682857E+02 -0.15977913809E+02  0.21634775229E+02  0.47787267376E+02  0.19999983274E+02 0.  0.
        -12    1    3    3    0    0  0.34062682857E+02  0.15977913809E+02 -0.21634775229E+02  0.43400732624E+02  0.00000000000E+00 0.  1.
         11    1    4    4    0    0 -0.26156562730E+02 -0.97467618396E+01  0.16348948645E+02  0.32348929847E+02  0.51100000000E-03 0. -1.
        -11    1    4    4    0    0 -0.41480347816E+01  0.19923667763E+01 -0.61351563849E+00  0.46424260490E+01  0.51100000000E-03 0.  1.
         12    1    4    4    0    0 -0.37580853455E+01 -0.82235187455E+01  0.58993422233E+01  0.10795911480E+02  0.00000000000E+00 0. -1.
</event>
<event>
 8    1  0.6524083E-011  0.9118800E+02  0.7816164E-02  0.1184000E+00
        -11   -1    0    0    0    0  0.00000000000E+00  0.00000000000E+00  0.45593999997E+02  0.45594000000E+02  0.51100000000E-03 0. -1.
         11   -1    0    0    0    0 -0.00000000000E+00 -0.00000000000E+00 -0.45593999997E+02  0.45594000000E+02  0.51100000000E-03 0.  1.
         23    2    1    2    0    0  0.00000000000E+00  0.35527136788E-14  0.00000000000E+00  0.91188000000E+02  0.91188000000E+02 0.  0.
    9900012    2    3    3    0    0  0.20351673292E+02  0.28533463873E+02  0.25598321939E+02  0.47787271291E+02  0.20000001123E+02 0.  0.
        -12    1    3    3    0    0 -0.20351673292E+02 -0.28533463873E+02 -0.25598321939E+02  0.43400728709E+02  0.00000000000E+00 0.  1.
         11    1    4    4    0    0 -0.78529861044E+00 -0.11601528798E+00  0.19036823573E+01  0.20625615707E+01  0.51100000000E-03 0. -1.
        -11    1    4    4    0    0  0.36189215131E+01  0.80627992027E+01  0.14854229196E+02  0.17284485794E+02  0.51100000000E-03 0.  1.
         12    1    4    4    0    0  0.17518050389E+02  0.20586679958E+02  0.88404103856E+01  0.28440223926E+02  0.00000000000E+00 0. -1.
</event>
<event>
 8    1  0.6524083E-011  0.9118800E+02  0.7816164E-02  0.1184000E+00
        -11   -1    0    0    0    0  0.00000000000E+00  0.00000000000E+00  0.45593999997E+02  0.45594000000E+02  0.51100000000E-03 0. -1.
         11   -1    0    0    0    0 -0.00000000000E+00 -0.00000000000E+00 -0.45593999997E+02  0.45594000000E+02  0.51100000000E-03 0.  1.
         23    2    1    2    0    0 -0.71054273576E-14 -0.88817841970E-15  0.00000000000E+00  0.91188000000E+02  0.91188000000E+02 0.  0.
    9900012    2    3    3    0    0  0.33168021596E+02  0.74467963631E+01 -0.26982414036E+02  0.47787273048E+02  0.20000009137E+02 0.  0.
         12    1    3    3    0    0 -0.33168021596E+02 -0.74467963631E+01  0.26982414036E+02  0.43400726952E+02  0.00000000000E+00 0. -1.
         11    1    4    4    0    0  0.16520895501E+02  0.91040534658E+01 -0.98421812691E+01  0.21276567158E+02  0.51100000000E-03 0. -1.
        -11    1    4    4    0    0  0.92827016159E+01 -0.27574845454E+01 -0.23695669313E+01  0.99693088030E+01  0.51100000000E-03 0.  1.
        -12    1    4    4    0    0  0.73644244799E+01  0.11002274427E+01 -0.14770665836E+02  0.16541397087E+02  0.00000000000E+00 0.  1.
</event>
<event>
 8    1  0.6524083E-011  0.9118800E+02  0.7816164E-02  0.1184000E+00
        -11   -1    0    0    0    0  0.00000000000E+00  0.00000000000E+00  0.45593999997E+02  0.45594000000E+02  0.51100000000E-03 0. -1.
         11   -1    0    0    0    0 -0.00000000000E+00 -0.00000000000E+00 -0.45593999997E+02  0.45594000000E+02  0.51100000000E-03 0.  1.
         23    2    1    2    0    0  0.00000000000E+00  0.17763568394E-14  0.35527136788E-14  0.91188000000E+02  0.91188000000E+02 0.  0.
    9900012    2    3    3    0    0 -0.28198051671E+02 -0.12384844639E+02  0.30579545428E+02  0.47787273124E+02  0.20000009480E+02 0.  0.
        -12    1    3    3    0    0  0.28198051671E+02  0.12384844639E+02 -0.30579545428E+02  0.43400726876E+02  0.00000000000E+00 0.  1.
         11    1    4    4    0    0 -0.10071631254E+02 -0.79192608748E+01  0.13028077872E+02  0.18272472800E+02  0.51100000000E-03 0. -1.
        -11    1    4    4    0    0 -0.48576928797E+01  0.46560776118E+01  0.91363001181E+01  0.11346727235E+02  0.51100000000E-03 0.  1.
         12    1    4    4    0    0 -0.13268727538E+02 -0.91216613764E+01  0.84151674377E+01  0.18168073088E+02  0.00000000000E+00 0. -1.
</event>
<event>
 8    1  0.6524083E-011  0.9118800E+02  0.7816164E-02  0.1184000E+00
        -11   -1    0    0    0    0  0.00000000000E+00  0.00000000000E+00  0.45593999997E+02  0.45594000000E+02  0.51100000000E-03 0. -1.
         11   -1    0    0    0    0 -0.00000000000E+00 -0.00000000000E+00 -0.45593999997E+02  0.45594000000E+02  0.51100000000E-03 0.  1.
         23    2    1    2    0    0  0.00000000000E+00  0.00000000000E+00  0.00000000000E+00  0.91188000000E+02  0.91188000000E+02 0.  0.
    9900012    2    3    3    0    0 -0.12361708073E+02  0.22651172127E+02 -0.34896071029E+02  0.47787271913E+02  0.20000003962E+02 0.  0.
         12    1    3    3    0    0  0.12361708073E+02 -0.22651172127E+02  0.34896071029E+02  0.43400728087E+02  0.00000000000E+00 0. -1.
         11    1    4    4    0    0  0.16806543273E+01  0.15281719884E+02 -0.15668940333E+02  0.21951566072E+02  0.51100000000E-03 0. -1.
        -11    1    4    4    0    0 -0.83675838422E+01  0.79210755813E+01 -0.12095451801E+02  0.16705084623E+02  0.51100000000E-03 0.  1.
         12    1    4    4    0    0 -0.56747785577E+01 -0.55162333845E+00 -0.71316788946E+01  0.91306212189E+01  0.00000000000E+00 0. -1.
</event>
<event>
 8    1  0.6524083E-011  0.9118800E+02  0.7816164E-02  0.1184000E+00
        -11   -1    0    0    0    0  0.00000000000E+00  0.00000000000E+00  0.45593999997E+02  0.45594000000E+02  0.51100000000E-03 0. -1.
         11   -1    0    0    0    0 -0.00000000000E+00 -0.00000000000E+00 -0.45593999997E+02  0.45594000000E+02  0.51100000000E-03 0.  1.
         23    2    1    2    0    0  0.17763568394E-14  0.00000000000E+00  0.00000000000E+00  0.91188000000E+02  0.91188000000E+02 0.  0.
    9900012    2    3    3    0    0 -0.86672281200E+01 -0.39445265457E+02  0.15892567135E+02  0.47787268435E+02  0.19999988102E+02 0.  0.
        -12    1    3    3    0    0  0.86672281200E+01  0.39445265457E+02 -0.15892567135E+02  0.43400731565E+02  0.00000000000E+00 0.  1.
         11    1    4    4    0    0  0.27000975580E+01  0.67354247548E+00  0.20396096752E+01  0.34502455242E+01  0.51100000000E-03 0.  1.
        -11    1    4    4    0    0 -0.19385077368E+01 -0.13915814870E+02  0.25344306300E+01  0.14276941361E+02  0.51100000000E-03 0. -1.
        -12    1    4    4    0    0 -0.94288179412E+01 -0.26202993062E+02  0.11318526830E+02  0.30060081550E+02  0.00000000000E+00 0.  1.
</event>
<event>
 8    1  0.6524083E-011  0.9118800E+02  0.7816164E-02  0.1184000E+00
        -11   -1    0    0    0    0  0.00000000000E+00  0.00000000000E+00  0.45593999997E+02  0.45594000000E+02  0.51100000000E-03 0. -1.
         11   -1    0    0    0    0 -0.00000000000E+00 -0.00000000000E+00 -0.45593999997E+02  0.45594000000E+02  0.51100000000E-03 0.  1.
         23    2    1    2    0    0  0.00000000000E+00  0.00000000000E+00 -0.17763568394E-14  0.91188000000E+02  0.91188000000E+02 0.  0.
    9900012    2    3    3    0    0 -0.40813192935E+02  0.47431882974E+01 -0.13978866889E+02  0.47787271063E+02  0.20000000084E+02 0.  0.
         12    1    3    3    0    0  0.40813192935E+02 -0.47431882974E+01  0.13978866889E+02  0.43400728937E+02  0.00000000000E+00 0. -1.
         11    1    4    4    0    0 -0.24635907897E+02  0.10285770901E+01 -0.98800499341E+01  0.26563157111E+02  0.51100000000E-03 0. -1.
        -11    1    4    4    0    0 -0.17386396555E+02  0.62362474335E+00 -0.26326330528E+01  0.17595637245E+02  0.51100000000E-03 0.  1.
         12    1    4    4    0    0  0.12091115171E+01  0.30909864639E+01 -0.14661839022E+01  0.36284767074E+01  0.00000000000E+00 0. -1.
</event>
<event>
 8    1  0.6524083E-011  0.9118800E+02  0.7816164E-02  0.1184000E+00
        -11   -1    0    0    0    0  0.00000000000E+00  0.00000000000E+00  0.45593999997E+02  0.45594000000E+02  0.51100000000E-03 0. -1.
         11   -1    0    0    0    0 -0.00000000000E+00 -0.00000000000E+00 -0.45593999997E+02  0.45594000000E+02  0.51100000000E-03 0.  1.
         23    2    1    2    0    0  0.00000000000E+00  0.00000000000E+00  0.35527136788E-14  0.91188000000E+02  0.91188000000E+02 0.  0.
    9900012    2    3    3    0    0  0.34963931405E+02  0.19509719729E+02  0.16748666153E+02  0.47787268657E+02  0.19999989116E+02 0.  0.
        -12    1    3    3    0    0 -0.34963931405E+02 -0.19509719729E+02 -0.16748666153E+02  0.43400731343E+02  0.00000000000E+00 0.  1.
         11    1    4    4    0    0  0.24550803486E+02  0.80662418740E+01  0.10653970273E+02  0.27951981909E+02  0.51100000000E-03 0. -1.
        -11    1    4    4    0    0  0.72488949392E+00 -0.49253410134E+00 -0.21993705067E+01  0.23675484169E+01  0.51100000000E-03 0.  1.
        -12    1    4    4    0    0  0.96882384245E+01  0.11936011957E+02  0.82940663866E+01  0.17467738332E+02  0.00000000000E+00 0.  1.
</event>
<event>
 8    1  0.6524083E-011  0.9118800E+02  0.7816164E-02  0.1184000E+00
        -11   -1    0    0    0    0  0.00000000000E+00  0.00000000000E+00  0.45593999997E+02  0.45594000000E+02  0.51100000000E-03 0.  1.
         11   -1    0    0    0    0 -0.00000000000E+00 -0.00000000000E+00 -0.45593999997E+02  0.45594000000E+02  0.51100000000E-03 0. -1.
         23    2    1    2    0    0  0.00000000000E+00  0.00000000000E+00  0.00000000000E+00  0.91188000000E+02  0.91188000000E+02 0.  0.
    9900012    2    3    3    0    0 -0.21949668996E+02  0.29522569043E+02  0.23027230052E+02  0.47787269870E+02  0.19999994647E+02 0.  0.
        -12    1    3    3    0    0  0.21949668996E+02 -0.29522569043E+02 -0.23027230052E+02  0.43400730130E+02  0.00000000000E+00 0.  1.
         11    1    4    4    0    0 -0.74543489414E+01  0.82052478075E+01  0.10951009348E+01  0.11139688328E+02  0.51100000000E-03 0. -1.
        -11    1    4    4    0    0 -0.13380754446E+02  0.87684441063E+01  0.16328259302E+02  0.22859183137E+02  0.51100000000E-03 0.  1.
         12    1    4    4    0    0 -0.11145656089E+01  0.12548877129E+02  0.56038698156E+01  0.13788398406E+02  0.00000000000E+00 0. -1.
</event>
<event>
 8    1  0.6524083E-011  0.9118800E+02  0.7816164E-02  0.1184000E+00
        -11   -1    0    0    0    0  0.00000000000E+00  0.00000000000E+00  0.45593999997E+02  0.45594000000E+02  0.51100000000E-03 0. -1.
         11   -1    0    0    0    0 -0.00000000000E+00 -0.00000000000E+00 -0.45593999997E+02  0.45594000000E+02  0.51100000000E-03 0.  1.
         23    2    1    2    0    0  0.17763568394E-14  0.00000000000E+00  0.35527136788E-14  0.91188000000E+02  0.91188000000E+02 0.  0.
    9900012    2    3    3    0    0 -0.82130293084E+01  0.32518420379E+02 -0.27544903078E+02  0.47787271896E+02  0.20000003882E+02 0.  0.
         12    1    3    3    0    0  0.82130293084E+01 -0.32518420379E+02  0.27544903078E+02  0.43400728104E+02  0.00000000000E+00 0. -1.
         11    1    4    4    0    0 -0.47474833866E+01  0.46955995266E+01 -0.14016471804E+02  0.15525744282E+02  0.51100000000E-03 0. -1.
        -11    1    4    4    0    0 -0.59988586042E+01  0.16141676944E+02 -0.93807139739E+01  0.19609636255E+02  0.51100000000E-03 0.  1.
         12    1    4    4    0    0  0.25333126824E+01  0.11681143908E+02 -0.41477173004E+01  0.12651891359E+02  0.00000000000E+00 0. -1.
</event>
<event>
 8    1  0.6524083E-011  0.9118800E+02  0.7816164E-02  0.1184000E+00
        -11   -1    0    0    0    0  0.00000000000E+00  0.00000000000E+00  0.45593999997E+02  0.45594000000E+02  0.51100000000E-03 0. -1.
         11   -1    0    0    0    0 -0.00000000000E+00 -0.00000000000E+00 -0.45593999997E+02  0.45594000000E+02  0.51100000000E-03 0.  1.
         23    2    1    2    0    0 -0.11102230246E-15  0.00000000000E+00  0.00000000000E+00  0.91188000000E+02  0.91188000000E+02 0.  0.
    9900012    2    3    3    0    0  0.83394251932E+00  0.29973274936E+02  0.31377235119E+02  0.47787267814E+02  0.19999985273E+02 0.  0.
        -12    1    3    3    0    0 -0.83394251932E+00 -0.29973274936E+02 -0.31377235119E+02  0.43400732186E+02  0.00000000000E+00 0.  1.
         11    1    4    4    0    0  0.22002829134E+01  0.68785102939E+01  0.99451058922E+00  0.72900068818E+01  0.51100000000E-03 0. -1.
        -11    1    4    4    0    0  0.25630187107E+00  0.89583378748E+00 -0.14084092782E+01  0.16887349644E+01  0.51100000000E-03 0.  1.
         12    1    4    4    0    0 -0.16226422652E+01  0.22198930855E+02  0.31791133808E+02  0.38808525968E+02  0.00000000000E+00 0. -1.
</event>
<event>
 8    1  0.6524083E-011  0.9118800E+02  0.7816164E-02  0.1184000E+00
        -11   -1    0    0    0    0  0.00000000000E+00  0.00000000000E+00  0.45593999997E+02  0.45594000000E+02  0.51100000000E-03 0. -1.
         11   -1    0    0    0    0 -0.00000000000E+00 -0.00000000000E+00 -0.45593999997E+02  0.45594000000E+02  0.51100000000E-03 0.  1.
         23    2    1    2    0    0  0.00000000000E+00 -0.88817841970E-15  0.00000000000E+00  0.91188000000E+02  0.91188000000E+02 0.  0.
    9900012    2    3    3    0    0  0.41908705771E+02 -0.62409434869E+01 -0.93986271449E+01  0.47787272043E+02  0.20000004553E+02 0.  0.
         12    1    3    3    0    0 -0.41908705771E+02  0.62409434869E+01  0.93986271449E+01  0.43400727957E+02  0.00000000000E+00 0. -1.
         11    1    4    4    0    0  0.40176409623E+01 -0.26942643093E+01  0.35602173077E+01  0.60063005761E+01  0.51100000000E-03 0. -1.
        -11    1    4    4    0    0  0.15130201030E+02  0.41576340874E+01 -0.50962202959E+01  0.16497889743E+02  0.51100000000E-03 0.  1.
         12    1    4    4    0    0  0.22760863779E+02 -0.77043132650E+01 -0.78626241568E+01  0.25283081724E+02  0.00000000000E+00 0. -1.
</event>
<event>
 8    1  0.6524083E-011  0.9118800E+02  0.7816164E-02  0.1184000E+00
        -11   -1    0    0    0    0  0.00000000000E+00  0.00000000000E+00  0.45593999997E+02  0.45594000000E+02  0.51100000000E-03 0. -1.
         11   -1    0    0    0    0 -0.00000000000E+00 -0.00000000000E+00 -0.45593999997E+02  0.45594000000E+02  0.51100000000E-03 0.  1.
         23    2    1    2    0    0  0.71054273576E-14  0.35527136788E-14  0.35527136788E-14  0.91188000000E+02  0.91188000000E+02 0.  0.
    9900012    2    3    3    0    0 -0.32216260616E+02 -0.13456240933E+02 -0.25781091848E+02  0.47787279211E+02  0.20000037235E+02 0.  0.
         12    1    3    3    0    0  0.32216260616E+02  0.13456240933E+02  0.25781091848E+02  0.43400720789E+02  0.00000000000E+00 0. -1.
         11    1    4    4    0    0 -0.12334693625E+02  0.13844671975E+01 -0.17441454319E+01  0.12534091902E+02  0.51100000000E-03 0. -1.
        -11    1    4    4    0    0 -0.14389774852E+02 -0.10166497302E+02 -0.12335202663E+02  0.21507684967E+02  0.51100000000E-03 0.  1.
        -12    1    4    4    0    0 -0.54917921393E+01 -0.46742108280E+01 -0.11701743753E+02  0.13745502342E+02  0.00000000000E+00 0.  1.
</event>
<event>
 8    1  0.6524083E-011  0.9118800E+02  0.7816164E-02  0.1184000E+00
        -11   -1    0    0    0    0  0.00000000000E+00  0.00000000000E+00  0.45593999997E+02  0.45594000000E+02  0.51100000000E-03 0.  1.
         11   -1    0    0    0    0 -0.00000000000E+00 -0.00000000000E+00 -0.45593999997E+02  0.45594000000E+02  0.51100000000E-03 0. -1.
         23    2    1    2    0    0  0.00000000000E+00  0.71054273576E-14  0.00000000000E+00  0.91188000000E+02  0.91188000000E+02 0.  0.
    9900012    2    3    3    0    0 -0.16464269208E+02 -0.39887300064E+02 -0.46426626896E+01  0.47787272082E+02  0.20000004733E+02 0.  0.
        -12    1    3    3    0    0  0.16464269208E+02  0.39887300064E+02  0.46426626896E+01  0.43400727918E+02  0.00000000000E+00 0.  1.
         11    1    4    4    0    0  0.19246981493E+01 -0.30169588922E+01 -0.12325023221E+01  0.37849129658E+01  0.51100000000E-03 0. -1.
        -11    1    4    4    0    0  0.10173684016E+01 -0.68431645985E+01  0.32354147743E+01  0.76375289990E+01  0.51100000000E-03 0.  1.
         12    1    4    4    0    0 -0.19406335759E+02 -0.30027176573E+02 -0.66455751419E+01  0.36364830118E+02  0.00000000000E+00 0. -1.
</event>
<event>
 8    1  0.6524083E-011  0.9118800E+02  0.7816164E-02  0.1184000E+00
        -11   -1    0    0    0    0  0.00000000000E+00  0.00000000000E+00  0.45593999997E+02  0.45594000000E+02  0.51100000000E-03 0. -1.
         11   -1    0    0    0    0 -0.00000000000E+00 -0.00000000000E+00 -0.45593999997E+02  0.45594000000E+02  0.51100000000E-03 0.  1.
         23    2    1    2    0    0  0.22204460493E-15  0.00000000000E+00  0.00000000000E+00  0.91188000000E+02  0.91188000000E+02 0.  0.
    9900012    2    3    3    0    0  0.13511411607E+01 -0.23408033466E+02 -0.36522068882E+02  0.47787272719E+02  0.20000007633E+02 0.  0.
         12    1    3    3    0    0 -0.13511411607E+01  0.23408033466E+02  0.36522068882E+02  0.43400727281E+02  0.00000000000E+00 0. -1.
         11    1    4    4    0    0  0.48630708940E+01  0.87274265741E+00 -0.61542827270E+01  0.78921691829E+01  0.51100000000E-03 0. -1.
        -11    1    4    4    0    0 -0.96972464762E-01 -0.85832035198E+01 -0.51961658013E+01  0.10033988520E+02  0.51100000000E-03 0.  1.
         12    1    4    4    0    0 -0.34149572685E+01 -0.15697572603E+02 -0.25171620353E+02  0.29861115016E+02  0.00000000000E+00 0. -1.
</event>
<event>
 8    1  0.6524083E-011  0.9118800E+02  0.7816164E-02  0.1184000E+00
        -11   -1    0    0    0    0  0.00000000000E+00  0.00000000000E+00  0.45593999997E+02  0.45594000000E+02  0.51100000000E-03 0. -1.
         11   -1    0    0    0    0 -0.00000000000E+00 -0.00000000000E+00 -0.45593999997E+02  0.45594000000E+02  0.51100000000E-03 0.  1.
         23    2    1    2    0    0 -0.35527136788E-14  0.00000000000E+00  0.00000000000E+00  0.91188000000E+02  0.91188000000E+02 0.  0.
    9900012    2    3    3    0    0  0.22834136940E+02  0.31586383390E+02  0.19092552471E+02  0.47787274368E+02  0.20000015156E+02 0.  0.
        -12    1    3    3    0    0 -0.22834136940E+02 -0.31586383390E+02 -0.19092552471E+02  0.43400725632E+02  0.00000000000E+00 0.  1.
         11    1    4    4    0    0  0.18578387052E+01  0.10674967804E+02  0.11027210150E+02  0.15459814559E+02  0.51100000000E-03 0. -1.
        -11    1    4    4    0    0  0.13652424235E+02  0.10902824566E+02  0.94239234868E+01  0.19851211680E+02  0.51100000000E-03 0.  1.
        -12    1    4    4    0    0  0.73238740002E+01  0.10008591021E+02 -0.13585811660E+01  0.12476248129E+02  0.00000000000E+00 0.  1.
</event>
<event>
 8    1  0.6524083E-011  0.9118800E+02  0.7816164E-02  0.1184000E+00
        -11   -1    0    0    0    0  0.00000000000E+00  0.00000000000E+00  0.45593999997E+02  0.45594000000E+02  0.51100000000E-03 0. -1.
         11   -1    0    0    0    0 -0.00000000000E+00 -0.00000000000E+00 -0.45593999997E+02  0.45594000000E+02  0.51100000000E-03 0.  1.
         23    2    1    2    0    0  0.00000000000E+00  0.00000000000E+00  0.00000000000E+00  0.91188000000E+02  0.91188000000E+02 0.  0.
    9900012    2    3    3    0    0 -0.21927861882E+02  0.33153962431E+02  0.17424316588E+02  0.47787272354E+02  0.20000005972E+02 0.  0.
        -12    1    3    3    0    0  0.21927861882E+02 -0.33153962431E+02 -0.17424316588E+02  0.43400727646E+02  0.00000000000E+00 0.  1.
         11    1    4    4    0    0 -0.31588170463E+01  0.53473623491E+01  0.79500054724E+01  0.10088359455E+02  0.51100000000E-03 0. -1.
        -11    1    4    4    0    0 -0.58577349608E+01  0.20512992429E+02  0.30963481310E+01  0.21556513848E+02  0.51100000000E-03 0.  1.
        -12    1    4    4    0    0 -0.12911309875E+02  0.72936076532E+01  0.63779629844E+01  0.16142399051E+02  0.00000000000E+00 0.  1.
</event>
<event>
 8    1  0.6524083E-011  0.9118800E+02  0.7816164E-02  0.1184000E+00
        -11   -1    0    0    0    0  0.00000000000E+00  0.00000000000E+00  0.45593999997E+02  0.45594000000E+02  0.51100000000E-03 0.  1.
         11   -1    0    0    0    0 -0.00000000000E+00 -0.00000000000E+00 -0.45593999997E+02  0.45594000000E+02  0.51100000000E-03 0. -1.
         23    2    1    2    0    0  0.00000000000E+00  0.00000000000E+00 -0.35527136788E-14  0.91188000000E+02  0.91188000000E+02 0.  0.
    9900012    2    3    3    0    0 -0.27936619438E+02  0.16874722613E+02 -0.28607911389E+02  0.47787267715E+02  0.19999984820E+02 0.  0.
        -12    1    3    3    0    0  0.27936619438E+02 -0.16874722613E+02  0.28607911389E+02  0.43400732285E+02  0.00000000000E+00 0.  1.
         11    1    4    4    0    0 -0.10303765575E+02  0.26611989903E+01 -0.83131971178E+00  0.10674298938E+02  0.51100000000E-03 0. -1.
        -11    1    4    4    0    0 -0.12476995456E+02  0.38826718718E+01 -0.14621694955E+02  0.19609806732E+02  0.51100000000E-03 0.  1.
        -12    1    4    4    0    0 -0.51558584072E+01  0.10330851751E+02 -0.13154896722E+02  0.17503162045E+02  0.00000000000E+00 0.  1.
</event>
<event>
 8    1  0.6524083E-011  0.9118800E+02  0.7816164E-02  0.1184000E+00
        -11   -1    0    0    0    0  0.00000000000E+00  0.00000000000E+00  0.45593999997E+02  0.45594000000E+02  0.51100000000E-03 0.  1.
         11   -1    0    0    0    0 -0.00000000000E+00 -0.00000000000E+00 -0.45593999997E+02  0.45594000000E+02  0.51100000000E-03 0. -1.
         23    2    1    2    0    0  0.00000000000E+00  0.00000000000E+00  0.00000000000E+00  0.91188000000E+02  0.91188000000E+02 0.  0.
    9900012    2    3    3    0    0  0.39189258224E+02  0.17094555608E+02  0.74566349504E+01  0.47787271938E+02  0.20000004072E+02 0.  0.
         12    1    3    3    0    0 -0.39189258224E+02 -0.17094555608E+02 -0.74566349504E+01  0.43400728062E+02  0.00000000000E+00 0. -1.
         11    1    4    4    0    0  0.84027488045E+01  0.30508466774E+01  0.66585156945E+01  0.11146734250E+02  0.51100000000E-03 0.  1.
        -11    1    4    4    0    0  0.29043277737E+02  0.15799012465E+02 -0.17245125449E+01  0.33107321250E+02  0.51100000000E-03 0. -1.
         12    1    4    4    0    0  0.17432316818E+01 -0.17553035337E+01  0.25226318009E+01  0.35332164375E+01  0.00000000000E+00 0. -1.
</event>
<event>
 8    1  0.6524083E-011  0.9118800E+02  0.7816164E-02  0.1184000E+00
        -11   -1    0    0    0    0  0.00000000000E+00  0.00000000000E+00  0.45593999997E+02  0.45594000000E+02  0.51100000000E-03 0. -1.
         11   -1    0    0    0    0 -0.00000000000E+00 -0.00000000000E+00 -0.45593999997E+02  0.45594000000E+02  0.51100000000E-03 0.  1.
         23    2    1    2    0    0  0.00000000000E+00 -0.88817841970E-15  0.00000000000E+00  0.91188000000E+02  0.91188000000E+02 0.  0.
    9900012    2    3    3    0    0 -0.17464349501E+02  0.49045259771E+01 -0.39427971898E+02  0.47787275967E+02  0.20000022445E+02 0.  0.
         12    1    3    3    0    0  0.17464349501E+02 -0.49045259771E+01  0.39427971898E+02  0.43400724033E+02  0.00000000000E+00 0. -1.
         11    1    4    4    0    0 -0.39939735413E+01  0.63461115587E+01 -0.18791268535E+02  0.20232071817E+02  0.51100000000E-03 0. -1.
        -11    1    4    4    0    0 -0.10699087025E+02  0.43247250908E+01 -0.15644397153E+02  0.19440187057E+02  0.51100000000E-03 0.  1.
         12    1    4    4    0    0 -0.27712889352E+01 -0.57663106724E+01 -0.49923062104E+01  0.81150170937E+01  0.00000000000E+00 0. -1.
</event>
<event>
 8    1  0.6524083E-011  0.9118800E+02  0.7816164E-02  0.1184000E+00
        -11   -1    0    0    0    0  0.00000000000E+00  0.00000000000E+00  0.45593999997E+02  0.45594000000E+02  0.51100000000E-03 0. -1.
         11   -1    0    0    0    0 -0.00000000000E+00 -0.00000000000E+00 -0.45593999997E+02  0.45594000000E+02  0.51100000000E-03 0.  1.
         23    2    1    2    0    0  0.00000000000E+00  0.00000000000E+00  0.00000000000E+00  0.91188000000E+02  0.91188000000E+02 0.  0.
    9900012    2    3    3    0    0  0.10127715120E+02 -0.31677050245E+02  0.27885771267E+02  0.47787281515E+02  0.20000047742E+02 0.  0.
        -12    1    3    3    0    0 -0.10127715120E+02  0.31677050245E+02 -0.27885771267E+02  0.43400718485E+02  0.00000000000E+00 0.  1.
         11    1    4    4    0    0  0.80890439113E+01 -0.24106680482E+02  0.19843525502E+02  0.32254149809E+02  0.51100000000E-03 0. -1.
        -11    1    4    4    0    0  0.61602586887E-01 -0.72070427713E+01 -0.37170661403E-01  0.72074019109E+01  0.51100000000E-03 0.  1.
        -12    1    4    4    0    0  0.19770686216E+01 -0.36332699176E+00  0.80794164264E+01  0.83257297956E+01  0.00000000000E+00 0.  1.
</event>
<event>
 8    1  0.6524083E-011  0.9118800E+02  0.7816164E-02  0.1184000E+00
        -11   -1    0    0    0    0  0.00000000000E+00  0.00000000000E+00  0.45593999997E+02  0.45594000000E+02  0.51100000000E-03 0. -1.
         11   -1    0    0    0    0 -0.00000000000E+00 -0.00000000000E+00 -0.45593999997E+02  0.45594000000E+02  0.51100000000E-03 0.  1.
         23    2    1    2    0    0  0.00000000000E+00  0.35527136788E-14  0.00000000000E+00  0.91188000000E+02  0.91188000000E+02 0.  0.
    9900012    2    3    3    0    0  0.76655140502E+01 -0.23362664205E+02  0.35763822298E+02  0.47787249203E+02  0.19999900414E+02 0.  0.
        -12    1    3    3    0    0 -0.76655140502E+01  0.23362664205E+02 -0.35763822298E+02  0.43400750797E+02  0.00000000000E+00 0.  1.
         11    1    4    4    0    0  0.13753125244E+01  0.67066078932E+00  0.52538538643E+01  0.54721340556E+01  0.51100000000E-03 0. -1.
        -11    1    4    4    0    0 -0.23518215650E+01  0.10675112447E+01  0.42582087239E+01  0.49802597049E+01  0.51100000000E-03 0.  1.
         12    1    4    4    0    0  0.86420230908E+01 -0.25100836239E+02  0.26251759710E+02  0.37334855442E+02  0.00000000000E+00 0. -1.
</event>
<event>
 8    1  0.6524083E-011  0.9118800E+02  0.7816164E-02  0.1184000E+00
        -11   -1    0    0    0    0  0.00000000000E+00  0.00000000000E+00  0.45593999997E+02  0.45594000000E+02  0.51100000000E-03 0. -1.
         11   -1    0    0    0    0 -0.00000000000E+00 -0.00000000000E+00 -0.45593999997E+02  0.45594000000E+02  0.51100000000E-03 0.  1.
         23    2    1    2    0    0  0.17763568394E-14 -0.17763568394E-14  0.00000000000E+00  0.91188000000E+02  0.91188000000E+02 0.  0.
    9900012    2    3    3    0    0 -0.12350523086E+02 -0.13045996544E+02 -0.39508099086E+02  0.47787270286E+02  0.19999996540E+02 0.  0.
         12    1    3    3    0    0  0.12350523086E+02  0.13045996544E+02  0.39508099086E+02  0.43400729714E+02  0.00000000000E+00 0. -1.
         11    1    4    4    0    0 -0.31525574579E+01 -0.35006945881E+01 -0.44952680029E+00  0.47323942915E+01  0.51100000000E-03 0. -1.
        -11    1    4    4    0    0  0.44626694411E+00  0.53421997938E+00  0.65904925585E+00  0.95858820905E+00  0.51100000000E-03 0.  1.
        -12    1    4    4    0    0 -0.96442325726E+01 -0.10079521935E+02 -0.39717621542E+02  0.42096287785E+02  0.00000000000E+00 0.  1.
</event>
<event>
 8    1  0.6524083E-011  0.9118800E+02  0.7816164E-02  0.1184000E+00
        -11   -1    0    0    0    0  0.00000000000E+00  0.00000000000E+00  0.45593999997E+02  0.45594000000E+02  0.51100000000E-03 0. -1.
         11   -1    0    0    0    0 -0.00000000000E+00 -0.00000000000E+00 -0.45593999997E+02  0.45594000000E+02  0.51100000000E-03 0.  1.
         23    2    1    2    0    0  0.88817841970E-15  0.00000000000E+00 -0.71054273576E-14  0.91188000000E+02  0.91188000000E+02 0.  0.
    9900012    2    3    3    0    0  0.28574322779E+01 -0.20702325773E+02 -0.38037780198E+02  0.47787263439E+02  0.19999965325E+02 0.  0.
         12    1    3    3    0    0 -0.28574322779E+01  0.20702325773E+02  0.38037780198E+02  0.43400736561E+02  0.00000000000E+00 0. -1.
         11    1    4    4    0    0 -0.14416167822E+00 -0.20966165770E+01  0.74420835885E+00  0.22294461202E+01  0.51100000000E-03 0. -1.
        -11    1    4    4    0    0  0.59681834236E+01 -0.10381572368E+02 -0.32923523295E+02  0.35033621632E+02  0.51100000000E-03 0.  1.
         12    1    4    4    0    0 -0.29665894675E+01 -0.82241368287E+01 -0.58584652613E+01  0.10524195687E+02  0.00000000000E+00 0. -1.
</event>
<event>
 8    1  0.6832806E-011  0.9118800E+02  0.7816164E-02  0.1184000E+00
        -11   -1    0    0    0    0  0.00000000000E+00  0.00000000000E+00  0.45593999997E+02  0.45594000000E+02  0.51100000000E-03 0. -1.
         11   -1    0    0    0    0 -0.00000000000E+00 -0.00000000000E+00 -0.45593999997E+02  0.45594000000E+02  0.51100000000E-03 0.  1.
         23    2    1    2    0    0 -0.71054273576E-14 -0.44408920985E-15  0.35527136788E-14  0.91188000000E+02  0.91188000000E+02 0.  0.
    9900012    2    3    3    0    0 -0.36648730893E+02 -0.35763768894E+01 -0.22971782033E+02  0.47787277455E+02  0.20000029227E+02 0.  0.
         12    1    3    3    0    0  0.36648730893E+02  0.35763768894E+01  0.22971782033E+02  0.43400722545E+02  0.00000000000E+00 0. -1.
         11    1    4    4    0    0 -0.19789453562E+02  0.21054608253E+00 -0.53440494241E+01  0.20499406490E+02  0.51100000000E-03 0. -1.
        -11    1    4    4    0    0 -0.15503286523E+02  0.59147385504E+00 -0.16328332885E+02  0.22523680636E+02  0.51100000000E-03 0.  1.
         12    1    4    4    0    0 -0.13559908079E+01 -0.43783968270E+01 -0.12993997234E+01  0.47641903286E+01  0.00000000000E+00 0. -1.
</event>
<event>
 8    1  0.6524083E-011  0.9118800E+02  0.7816164E-02  0.1184000E+00
        -11   -1    0    0    0    0  0.00000000000E+00  0.00000000000E+00  0.45593999997E+02  0.45594000000E+02  0.51100000000E-03 0. -1.
         11   -1    0    0    0    0 -0.00000000000E+00 -0.00000000000E+00 -0.45593999997E+02  0.45594000000E+02  0.51100000000E-03 0.  1.
         23    2    1    2    0    0  0.00000000000E+00  0.00000000000E+00  0.35527136788E-14  0.91188000000E+02  0.91188000000E+02 0.  0.
    9900012    2    3    3    0    0  0.32743868580E+02  0.53385471446E+01  0.27981454590E+02  0.47787276317E+02  0.20000024041E+02 0.  0.
        -12    1    3    3    0    0 -0.32743868580E+02 -0.53385471446E+01 -0.27981454590E+02  0.43400723683E+02  0.00000000000E+00 0.  1.
         11    1    4    4    0    0  0.22820642392E+01 -0.15859142770E+01 -0.44507893032E+00  0.28144336555E+01  0.51100000000E-03 0. -1.
        -11    1    4    4    0    0  0.19333883686E+02  0.31775073335E+01  0.26680319033E+02  0.33101888695E+02  0.51100000000E-03 0.  1.
        -12    1    4    4    0    0  0.11127920655E+02  0.37469540881E+01  0.17462144875E+01  0.11870953967E+02  0.00000000000E+00 0.  1.
</event>
<event>
 8    1  0.6524083E-011  0.9118800E+02  0.7816164E-02  0.1184000E+00
        -11   -1    0    0    0    0  0.00000000000E+00  0.00000000000E+00  0.45593999997E+02  0.45594000000E+02  0.51100000000E-03 0. -1.
         11   -1    0    0    0    0 -0.00000000000E+00 -0.00000000000E+00 -0.45593999997E+02  0.45594000000E+02  0.51100000000E-03 0.  1.
         23    2    1    2    0    0  0.00000000000E+00  0.00000000000E+00 -0.35527136788E-14  0.91188000000E+02  0.91188000000E+02 0.  0.
    9900012    2    3    3    0    0 -0.20091986931E+02  0.21984571666E+02  0.31569193959E+02  0.47787270313E+02  0.19999996664E+02 0.  0.
        -12    1    3    3    0    0  0.20091986931E+02 -0.21984571666E+02 -0.31569193959E+02  0.43400729687E+02  0.00000000000E+00 0.  1.
         11    1    4    4    0    0 -0.57982164094E+00  0.67971342128E+01  0.77522614006E+01  0.10326411948E+02  0.51100000000E-03 0.  1.
        -11    1    4    4    0    0 -0.92600344076E+01 -0.19593309490E+00  0.13253197439E+02  0.16168916774E+02  0.51100000000E-03 0. -1.
         12    1    4    4    0    0 -0.10252130883E+02  0.15383370548E+02  0.10563735119E+02  0.21291941591E+02  0.00000000000E+00 0. -1.
</event>
<event>
 8    1  0.6524083E-011  0.9118800E+02  0.7816164E-02  0.1184000E+00
        -11   -1    0    0    0    0  0.00000000000E+00  0.00000000000E+00  0.45593999997E+02  0.45594000000E+02  0.51100000000E-03 0. -1.
         11   -1    0    0    0    0 -0.00000000000E+00 -0.00000000000E+00 -0.45593999997E+02  0.45594000000E+02  0.51100000000E-03 0.  1.
         23    2    1    2    0    0  0.00000000000E+00  0.00000000000E+00  0.00000000000E+00  0.91188000000E+02  0.91188000000E+02 0.  0.
    9900012    2    3    3    0    0 -0.11466575483E+02  0.22986292464E+02  0.34982437481E+02  0.47787275045E+02  0.20000018239E+02 0.  0.
        -12    1    3    3    0    0  0.11466575483E+02 -0.22986292464E+02 -0.34982437481E+02  0.43400724955E+02  0.00000000000E+00 0.  1.
         11    1    4    4    0    0 -0.97831842740E+01  0.10342821947E+02  0.24926893572E+02  0.28706004315E+02  0.51100000000E-03 0. -1.
        -11    1    4    4    0    0  0.15303621350E+01 -0.12060600552E+01  0.17286975310E+01  0.26048002872E+01  0.51100000000E-03 0.  1.
         12    1    4    4    0    0 -0.32137533437E+01  0.13849530572E+02  0.83268463785E+01  0.16476470442E+02  0.00000000000E+00 0. -1.
</event>
<event>
 8    1  0.6524083E-011  0.9118800E+02  0.7816164E-02  0.1184000E+00
        -11   -1    0    0    0    0  0.00000000000E+00  0.00000000000E+00  0.45593999997E+02  0.45594000000E+02  0.51100000000E-03 0. -1.
         11   -1    0    0    0    0 -0.00000000000E+00 -0.00000000000E+00 -0.45593999997E+02  0.45594000000E+02  0.51100000000E-03 0.  1.
         23    2    1    2    0    0  0.17763568394E-14 -0.17763568394E-14 -0.71054273576E-14  0.91188000000E+02  0.91188000000E+02 0.  0.
    9900012    2    3    3    0    0 -0.13092457038E+02  0.14886087516E+02  0.38608485741E+02  0.47787271849E+02  0.20000003667E+02 0.  0.
        -12    1    3    3    0    0  0.13092457038E+02 -0.14886087516E+02 -0.38608485741E+02  0.43400728151E+02  0.00000000000E+00 0.  1.
         11    1    4    4    0    0 -0.77159279718E+01  0.15729069303E+00  0.21652972188E+02  0.22987202737E+02  0.51100000000E-03 0. -1.
        -11    1    4    4    0    0 -0.76798138671E+01  0.96746906516E+01  0.13297708214E+02  0.18149606724E+02  0.51100000000E-03 0.  1.
        -12    1    4    4    0    0  0.23032848014E+01  0.50541061715E+01  0.36578053397E+01  0.66504623878E+01  0.00000000000E+00 0.  1.
</event>
<event>
 8    1  0.6524083E-011  0.9118800E+02  0.7816164E-02  0.1184000E+00
        -11   -1    0    0    0    0  0.00000000000E+00  0.00000000000E+00  0.45593999997E+02  0.45594000000E+02  0.51100000000E-03 0. -1.
         11   -1    0    0    0    0 -0.00000000000E+00 -0.00000000000E+00 -0.45593999997E+02  0.45594000000E+02  0.51100000000E-03 0.  1.
         23    2    1    2    0    0  0.00000000000E+00  0.00000000000E+00  0.17763568394E-14  0.91188000000E+02  0.91188000000E+02 0.  0.
    9900012    2    3    3    0    0 -0.64256778616E+01  0.41862385068E+02  0.94801416716E+01  0.47787289111E+02  0.20000082372E+02 0.  0.
        -12    1    3    3    0    0  0.64256778616E+01 -0.41862385068E+02 -0.94801416716E+01  0.43400710889E+02  0.00000000000E+00 0.  1.
         11    1    4    4    0    0 -0.48914811645E+01  0.21809540712E+02  0.10258548828E+02  0.24593098186E+02  0.51100000000E-03 0. -1.
        -11    1    4    4    0    0  0.47148056597E+01  0.59371518684E+01  0.10316708387E+01  0.76513730597E+01  0.51100000000E-03 0.  1.
         12    1    4    4    0    0 -0.62490023568E+01  0.14115692488E+02 -0.18100779950E+01  0.15542817866E+02  0.00000000000E+00 0. -1.
</event>
<event>
 8    1  0.6524083E-011  0.9118800E+02  0.7816164E-02  0.1184000E+00
        -11   -1    0    0    0    0  0.00000000000E+00  0.00000000000E+00  0.45593999997E+02  0.45594000000E+02  0.51100000000E-03 0. -1.
         11   -1    0    0    0    0 -0.00000000000E+00 -0.00000000000E+00 -0.45593999997E+02  0.45594000000E+02  0.51100000000E-03 0.  1.
         23    2    1    2    0    0  0.00000000000E+00  0.44408920985E-15  0.00000000000E+00  0.91188000000E+02  0.91188000000E+02 0.  0.
    9900012    2    3    3    0    0 -0.35248024800E+02 -0.18349282566E+01  0.25255357943E+02  0.47787270526E+02  0.19999997637E+02 0.  0.
        -12    1    3    3    0    0  0.35248024800E+02  0.18349282566E+01 -0.25255357943E+02  0.43400729474E+02  0.00000000000E+00 0.  1.
         11    1    4    4    0    0 -0.16343172310E+02 -0.74442124215E+01  0.41295540888E+01  0.18427392571E+02  0.51100000000E-03 0. -1.
        -11    1    4    4    0    0 -0.14486749826E+02  0.20046800789E+01  0.14142954141E+02  0.20344724496E+02  0.51100000000E-03 0.  1.
        -12    1    4    4    0    0 -0.44181026644E+01  0.36046040860E+01  0.69828497133E+01  0.90151534590E+01  0.00000000000E+00 0.  1.
</event>
<event>
 8    1  0.6524083E-011  0.9118800E+02  0.7816164E-02  0.1184000E+00
        -11   -1    0    0    0    0  0.00000000000E+00  0.00000000000E+00  0.45593999997E+02  0.45594000000E+02  0.51100000000E-03 0. -1.
         11   -1    0    0    0    0 -0.00000000000E+00 -0.00000000000E+00 -0.45593999997E+02  0.45594000000E+02  0.51100000000E-03 0.  1.
         23    2    1    2    0    0  0.35527136788E-14  0.35527136788E-14  0.00000000000E+00  0.91188000000E+02  0.91188000000E+02 0.  0.
    9900012    2    3    3    0    0 -0.17767265905E+02 -0.19432728070E+02 -0.34500967388E+02  0.47787269492E+02  0.19999992920E+02 0.  0.
         12    1    3    3    0    0  0.17767265905E+02  0.19432728070E+02  0.34500967388E+02  0.43400730508E+02  0.00000000000E+00 0. -1.
         11    1    4    4    0    0 -0.10793576371E+02 -0.49045232146E+01 -0.69592565881E+01  0.13747250320E+02  0.51100000000E-03 0. -1.
        -11    1    4    4    0    0 -0.93036359489E+01 -0.69765499669E+01 -0.12661520703E+02  0.17191393139E+02  0.51100000000E-03 0.  1.
        -12    1    4    4    0    0  0.23299464146E+01 -0.75516548882E+01 -0.14880190097E+02  0.16848626032E+02  0.00000000000E+00 0.  1.
</event>
<event>
 8    1  0.6524083E-011  0.9118800E+02  0.7816164E-02  0.1184000E+00
        -11   -1    0    0    0    0  0.00000000000E+00  0.00000000000E+00  0.45593999997E+02  0.45594000000E+02  0.51100000000E-03 0. -1.
         11   -1    0    0    0    0 -0.00000000000E+00 -0.00000000000E+00 -0.45593999997E+02  0.45594000000E+02  0.51100000000E-03 0.  1.
         23    2    1    2    0    0  0.22204460493E-15  0.00000000000E+00  0.71054273576E-14  0.91188000000E+02  0.91188000000E+02 0.  0.
    9900012    2    3    3    0    0 -0.13929918050E+01 -0.12080488102E+02 -0.41662267899E+02  0.47787272063E+02  0.20000004645E+02 0.  0.
         12    1    3    3    0    0  0.13929918050E+01  0.12080488102E+02  0.41662267899E+02  0.43400727937E+02  0.00000000000E+00 0. -1.
         11    1    4    4    0    0  0.84093955459E+01 -0.68400873204E+01 -0.21685048054E+02  0.24243474119E+02  0.51100000000E-03 0. -1.
        -11    1    4    4    0    0 -0.35471385578E+01 -0.50279808089E+01 -0.88865875571E+01  0.10808988002E+02  0.51100000000E-03 0.  1.
         12    1    4    4    0    0 -0.62552487931E+01 -0.21241997246E+00 -0.11090632288E+02  0.12734809942E+02  0.00000000000E+00 0. -1.
</event>
<event>
 8    1  0.6524083E-011  0.9118800E+02  0.7816164E-02  0.1184000E+00
        -11   -1    0    0    0    0  0.00000000000E+00  0.00000000000E+00  0.45593999997E+02  0.45594000000E+02  0.51100000000E-03 0. -1.
         11   -1    0    0    0    0 -0.00000000000E+00 -0.00000000000E+00 -0.45593999997E+02  0.45594000000E+02  0.51100000000E-03 0.  1.
         23    2    1    2    0    0  0.17763568394E-14  0.11102230246E-15  0.71054273576E-14  0.91188000000E+02  0.91188000000E+02 0.  0.
    9900012    2    3    3    0    0  0.12658580337E+02 -0.25192772150E+00  0.41512876715E+02  0.47787285065E+02  0.20000063923E+02 0.  0.
        -12    1    3    3    0    0 -0.12658580337E+02  0.25192772150E+00 -0.41512876715E+02  0.43400714935E+02  0.00000000000E+00 0.  1.
         11    1    4    4    0    0 -0.12644009279E+01 -0.41304470821E+01  0.16741506917E+02  0.17289805000E+02  0.51100000000E-03 0. -1.
        -11    1    4    4    0    0  0.27572047714E+01  0.34141827857E+00 -0.33014552815E+00  0.27978100227E+01  0.51100000000E-03 0.  1.
         12    1    4    4    0    0  0.11165776494E+02  0.35371010820E+01  0.25101515326E+02  0.27699670042E+02  0.00000000000E+00 0. -1.
</event>
<event>
 8    1  0.6524083E-011  0.9118800E+02  0.7816164E-02  0.1184000E+00
        -11   -1    0    0    0    0  0.00000000000E+00  0.00000000000E+00  0.45593999997E+02  0.45594000000E+02  0.51100000000E-03 0. -1.
         11   -1    0    0    0    0 -0.00000000000E+00 -0.00000000000E+00 -0.45593999997E+02  0.45594000000E+02  0.51100000000E-03 0.  1.
         23    2    1    2    0    0  0.00000000000E+00  0.00000000000E+00  0.00000000000E+00  0.91188000000E+02  0.91188000000E+02 0.  0.
    9900012    2    3    3    0    0  0.42813702337E+01 -0.72262439553E+01  0.42580212172E+02  0.47787271880E+02  0.20000003808E+02 0.  0.
        -12    1    3    3    0    0 -0.42813702337E+01  0.72262439553E+01 -0.42580212172E+02  0.43400728120E+02  0.00000000000E+00 0.  1.
         11    1    4    4    0    0  0.22869785761E+01  0.20128297676E+00  0.21699464724E+02  0.21820576422E+02  0.51100000000E-03 0. -1.
        -11    1    4    4    0    0  0.33599665106E+01 -0.76009527359E+01  0.22414672374E+02  0.23905677052E+02  0.51100000000E-03 0.  1.
        -12    1    4    4    0    0 -0.13655748530E+01  0.17342580387E+00 -0.15339249257E+01  0.20610184052E+01  0.00000000000E+00 0.  1.
</event>
<event>
 8    1  0.6524083E-011  0.9118800E+02  0.7816164E-02  0.1184000E+00
        -11   -1    0    0    0    0  0.00000000000E+00  0.00000000000E+00  0.45593999997E+02  0.45594000000E+02  0.51100000000E-03 0. -1.
         11   -1    0    0    0    0 -0.00000000000E+00 -0.00000000000E+00 -0.45593999997E+02  0.45594000000E+02  0.51100000000E-03 0.  1.
         23    2    1    2    0    0  0.35527136788E-14  0.17763568394E-14  0.00000000000E+00  0.91188000000E+02  0.91188000000E+02 0.  0.
    9900012    2    3    3    0    0  0.19941612552E+02  0.12061784122E+02  0.36612413659E+02  0.47787269806E+02  0.19999994355E+02 0.  0.
        -12    1    3    3    0    0 -0.19941612552E+02 -0.12061784122E+02 -0.36612413659E+02  0.43400730194E+02  0.00000000000E+00 0.  1.
         11    1    4    4    0    0  0.31144466069E+01  0.79163916943E+01  0.78001201519E+01  0.11541703071E+02  0.51100000000E-03 0. -1.
        -11    1    4    4    0    0  0.39757000292E+01  0.75513605426E+01  0.13451029162E+02  0.15929828077E+02  0.51100000000E-03 0.  1.
         12    1    4    4    0    0  0.12851465916E+02 -0.34059681146E+01  0.15361264345E+02  0.20315738659E+02  0.00000000000E+00 0. -1.
</event>
<event>
 8    1  0.6524083E-011  0.9118800E+02  0.7816164E-02  0.1184000E+00
        -11   -1    0    0    0    0  0.00000000000E+00  0.00000000000E+00  0.45593999997E+02  0.45594000000E+02  0.51100000000E-03 0. -1.
         11   -1    0    0    0    0 -0.00000000000E+00 -0.00000000000E+00 -0.45593999997E+02  0.45594000000E+02  0.51100000000E-03 0.  1.
         23    2    1    2    0    0  0.00000000000E+00  0.88817841970E-15  0.71054273576E-14  0.91188000000E+02  0.91188000000E+02 0.  0.
    9900012    2    3    3    0    0 -0.15325090935E+02 -0.59516770759E+01 -0.40166432201E+02  0.47787272495E+02  0.20000006613E+02 0.  0.
         12    1    3    3    0    0  0.15325090935E+02  0.59516770759E+01  0.40166432201E+02  0.43400727505E+02  0.00000000000E+00 0. -1.
         11    1    4    4    0    0 -0.36906048360E+01  0.34088516206E+01 -0.65590607437E+01  0.82620888114E+01  0.51100000000E-03 0. -1.
        -11    1    4    4    0    0 -0.11316593920E+02 -0.52976561081E+01 -0.33147064775E+02  0.35423980037E+02  0.51100000000E-03 0.  1.
         12    1    4    4    0    0 -0.31789217889E+00 -0.40628725884E+01 -0.46030668238E+00  0.41012036464E+01  0.00000000000E+00 0. -1.
</event>
<event>
 8    1  0.6524083E-011  0.9118800E+02  0.7816164E-02  0.1184000E+00
        -11   -1    0    0    0    0  0.00000000000E+00  0.00000000000E+00  0.45593999997E+02  0.45594000000E+02  0.51100000000E-03 0. -1.
         11   -1    0    0    0    0 -0.00000000000E+00 -0.00000000000E+00 -0.45593999997E+02  0.45594000000E+02  0.51100000000E-03 0.  1.
         23    2    1    2    0    0  0.00000000000E+00  0.00000000000E+00  0.00000000000E+00  0.91188000000E+02  0.91188000000E+02 0.  0.
    9900012    2    3    3    0    0 -0.19153463456E+02  0.24677864980E+02  0.30129239402E+02  0.47787271328E+02  0.20000001292E+02 0.  0.
        -12    1    3    3    0    0  0.19153463456E+02 -0.24677864980E+02 -0.30129239402E+02  0.43400728672E+02  0.00000000000E+00 0.  1.
         11    1    4    4    0    0 -0.19069956351E+02  0.91628725405E+01  0.14655863464E+02  0.25737439705E+02  0.51100000000E-03 0. -1.
        -11    1    4    4    0    0  0.10444320232E+01  0.38451767462E+01  0.38754719458E+01  0.55583725607E+01  0.51100000000E-03 0.  1.
         12    1    4    4    0    0 -0.11279391284E+01  0.11669815694E+02  0.11597903992E+02  0.16491459062E+02  0.00000000000E+00 0. -1.
</event>
<event>
 8    1  0.6524083E-011  0.9118800E+02  0.7816164E-02  0.1184000E+00
        -11   -1    0    0    0    0  0.00000000000E+00  0.00000000000E+00  0.45593999997E+02  0.45594000000E+02  0.51100000000E-03 0. -1.
         11   -1    0    0    0    0 -0.00000000000E+00 -0.00000000000E+00 -0.45593999997E+02  0.45594000000E+02  0.51100000000E-03 0.  1.
         23    2    1    2    0    0  0.00000000000E+00  0.00000000000E+00  0.71054273576E-14  0.91188000000E+02  0.91188000000E+02 0.  0.
    9900012    2    3    3    0    0  0.22599502164E+02  0.12521058858E+02 -0.34872743760E+02  0.47787277998E+02  0.20000031703E+02 0.  0.
         12    1    3    3    0    0 -0.22599502164E+02 -0.12521058858E+02  0.34872743760E+02  0.43400722002E+02  0.00000000000E+00 0. -1.
         11    1    4    4    0    0  0.55596174117E+00  0.40907798941E+01 -0.33579492950E+00  0.41420202915E+01  0.51100000000E-03 0. -1.
        -11    1    4    4    0    0  0.11310869496E+02 -0.22542585025E+01 -0.14411870939E+02  0.18458588093E+02  0.51100000000E-03 0.  1.
         12    1    4    4    0    0  0.10732670927E+02  0.10684537466E+02 -0.20125077891E+02  0.25186669614E+02  0.00000000000E+00 0. -1.
</event>
<event>
 8    1  0.6524083E-011  0.9118800E+02  0.7816164E-02  0.1184000E+00
        -11   -1    0    0    0    0  0.00000000000E+00  0.00000000000E+00  0.45593999997E+02  0.45594000000E+02  0.51100000000E-03 0. -1.
         11   -1    0    0    0    0 -0.00000000000E+00 -0.00000000000E+00 -0.45593999997E+02  0.45594000000E+02  0.51100000000E-03 0.  1.
         23    2    1    2    0    0  0.00000000000E+00  0.00000000000E+00  0.00000000000E+00  0.91188000000E+02  0.91188000000E+02 0.  0.
    9900012    2    3    3    0    0 -0.34129227459E+02 -0.34887612125E+01 -0.26582849120E+02  0.47787268565E+02  0.19999988695E+02 0.  0.
         12    1    3    3    0    0  0.34129227459E+02  0.34887612125E+01  0.26582849120E+02  0.43400731435E+02  0.00000000000E+00 0. -1.
         11    1    4    4    0    0 -0.14984126628E+02  0.41362880836E+01 -0.16204114213E+02  0.22454537350E+02  0.51100000000E-03 0. -1.
        -11    1    4    4    0    0 -0.15626947850E+02 -0.75531754712E+01 -0.12347502143E+02  0.21300534459E+02  0.51100000000E-03 0.  1.
         12    1    4    4    0    0 -0.35181529811E+01 -0.71873824905E-01  0.19687672363E+01  0.40321967556E+01  0.00000000000E+00 0. -1.
</event>
<event>
 8    1  0.6524083E-011  0.9118800E+02  0.7816164E-02  0.1184000E+00
        -11   -1    0    0    0    0  0.00000000000E+00  0.00000000000E+00  0.45593999997E+02  0.45594000000E+02  0.51100000000E-03 0. -1.
         11   -1    0    0    0    0 -0.00000000000E+00 -0.00000000000E+00 -0.45593999997E+02  0.45594000000E+02  0.51100000000E-03 0.  1.
         23    2    1    2    0    0  0.44408920985E-15  0.00000000000E+00  0.71054273576E-14  0.91188000000E+02  0.91188000000E+02 0.  0.
    9900012    2    3    3    0    0 -0.26597049137E+01 -0.23471846961E+02  0.36409080271E+02  0.47787277008E+02  0.20000027192E+02 0.  0.
        -12    1    3    3    0    0  0.26597049137E+01  0.23471846961E+02 -0.36409080271E+02  0.43400722992E+02  0.00000000000E+00 0.  1.
         11    1    4    4    0    0  0.25688748917E+01 -0.87068846186E+01  0.18412705767E+02  0.20528923301E+02  0.51100000000E-03 0. -1.
        -11    1    4    4    0    0  0.10546310638E+01 -0.83699119793E+01  0.15978613176E+02  0.18068861406E+02  0.51100000000E-03 0.  1.
        -12    1    4    4    0    0 -0.62832108692E+01 -0.63950503633E+01  0.20177613281E+01  0.91894923012E+01  0.00000000000E+00 0.  1.
</event>
<event>
 8    1  0.6524083E-011  0.9118800E+02  0.7816164E-02  0.1184000E+00
        -11   -1    0    0    0    0  0.00000000000E+00  0.00000000000E+00  0.45593999997E+02  0.45594000000E+02  0.51100000000E-03 0. -1.
         11   -1    0    0    0    0 -0.00000000000E+00 -0.00000000000E+00 -0.45593999997E+02  0.45594000000E+02  0.51100000000E-03 0.  1.
         23    2    1    2    0    0 -0.17763568394E-14 -0.35527136788E-14 -0.71054273576E-14  0.91188000000E+02  0.91188000000E+02 0.  0.
    9900012    2    3    3    0    0  0.14704461755E+02  0.29986211910E+02  0.27716933204E+02  0.47787280116E+02  0.20000041361E+02 0.  0.
        -12    1    3    3    0    0 -0.14704461755E+02 -0.29986211910E+02 -0.27716933204E+02  0.43400719884E+02  0.00000000000E+00 0.  1.
         11    1    4    4    0    0  0.87599037915E+01  0.99701906025E+01  0.77689431469E+01  0.15378461983E+02  0.51100000000E-03 0. -1.
        -11    1    4    4    0    0  0.10258045599E+02  0.88039639835E+01  0.10084737490E+02  0.16865325726E+02  0.51100000000E-03 0.  1.
         12    1    4    4    0    0 -0.43134876352E+01  0.11212057324E+02  0.98632525671E+01  0.15543492407E+02  0.00000000000E+00 0. -1.
</event>
<event>
 8    1  0.6524083E-011  0.9118800E+02  0.7816164E-02  0.1184000E+00
        -11   -1    0    0    0    0  0.00000000000E+00  0.00000000000E+00  0.45593999997E+02  0.45594000000E+02  0.51100000000E-03 0. -1.
         11   -1    0    0    0    0 -0.00000000000E+00 -0.00000000000E+00 -0.45593999997E+02  0.45594000000E+02  0.51100000000E-03 0.  1.
         23    2    1    2    0    0  0.35527136788E-14  0.00000000000E+00 -0.71054273576E-14  0.91188000000E+02  0.91188000000E+02 0.  0.
    9900012    2    3    3    0    0  0.26056033209E+02  0.16344144625E+02  0.30619859934E+02  0.47787265530E+02  0.19999974859E+02 0.  0.
        -12    1    3    3    0    0 -0.26056033209E+02 -0.16344144625E+02 -0.30619859934E+02  0.43400734470E+02  0.00000000000E+00 0.  1.
         11    1    4    4    0    0  0.86164921450E+01  0.49041448743E+01  0.22772328602E+02  0.24836938701E+02  0.51100000000E-03 0.  1.
        -11    1    4    4    0    0  0.11858339701E+02  0.93586284924E+01  0.77825566557E+01  0.16993302683E+02  0.51100000000E-03 0. -1.
        -12    1    4    4    0    0  0.55812013629E+01  0.20813712580E+01  0.64974677010E-01  0.59570241459E+01  0.00000000000E+00 0.  1.
</event>
<event>
 8    1  0.6524083E-011  0.9118800E+02  0.7816164E-02  0.1184000E+00
        -11   -1    0    0    0    0  0.00000000000E+00  0.00000000000E+00  0.45593999997E+02  0.45594000000E+02  0.51100000000E-03 0. -1.
         11   -1    0    0    0    0 -0.00000000000E+00 -0.00000000000E+00 -0.45593999997E+02  0.45594000000E+02  0.51100000000E-03 0.  1.
         23    2    1    2    0    0  0.00000000000E+00  0.17763568394E-14  0.00000000000E+00  0.91188000000E+02  0.91188000000E+02 0.  0.
    9900012    2    3    3    0    0 -0.11487786938E+02 -0.14969053769E+02  0.39084281379E+02  0.47787275693E+02  0.20000021195E+02 0.  0.
        -12    1    3    3    0    0  0.11487786938E+02  0.14969053769E+02 -0.39084281379E+02  0.43400724307E+02  0.00000000000E+00 0.  1.
         11    1    4    4    0    0 -0.20133578335E+01  0.11596232944E-01  0.12291914017E+02  0.12455717350E+02  0.51100000000E-03 0. -1.
        -11    1    4    4    0    0 -0.68063430808E+01 -0.71656579893E+01  0.32829231786E+01  0.10413959161E+02  0.51100000000E-03 0.  1.
        -12    1    4    4    0    0 -0.26680860234E+01 -0.78149920124E+01  0.23509444184E+02  0.24917599182E+02  0.00000000000E+00 0.  1.
</event>
<event>
 8    1  0.6524083E-011  0.9118800E+02  0.7816164E-02  0.1184000E+00
        -11   -1    0    0    0    0  0.00000000000E+00  0.00000000000E+00  0.45593999997E+02  0.45594000000E+02  0.51100000000E-03 0. -1.
         11   -1    0    0    0    0 -0.00000000000E+00 -0.00000000000E+00 -0.45593999997E+02  0.45594000000E+02  0.51100000000E-03 0.  1.
         23    2    1    2    0    0  0.00000000000E+00  0.00000000000E+00  0.00000000000E+00  0.91188000000E+02  0.91188000000E+02 0.  0.
    9900012    2    3    3    0    0 -0.34169996252E+02 -0.25820810599E+02  0.70228068332E+01  0.47787277429E+02  0.20000029111E+02 0.  0.
        -12    1    3    3    0    0  0.34169996252E+02  0.25820810599E+02 -0.70228068332E+01  0.43400722571E+02  0.00000000000E+00 0.  1.
         11    1    4    4    0    0 -0.39304617673E+01 -0.71470907681E+01  0.67796937962E+01  0.10606303993E+02  0.51100000000E-03 0. -1.
        -11    1    4    4    0    0 -0.10725353798E+02 -0.88082422335E+01 -0.48995723079E+01  0.14718157303E+02  0.51100000000E-03 0.  1.
         12    1    4    4    0    0 -0.19514180687E+02 -0.98654775972E+01  0.51426853449E+01  0.22462816134E+02  0.00000000000E+00 0. -1.
</event>
<event>
 8    1  0.6524083E-011  0.9118800E+02  0.7816164E-02  0.1184000E+00
        -11   -1    0    0    0    0  0.00000000000E+00  0.00000000000E+00  0.45593999997E+02  0.45594000000E+02  0.51100000000E-03 0. -1.
         11   -1    0    0    0    0 -0.00000000000E+00 -0.00000000000E+00 -0.45593999997E+02  0.45594000000E+02  0.51100000000E-03 0.  1.
         23    2    1    2    0    0  0.00000000000E+00 -0.71054273576E-14  0.35527136788E-14  0.91188000000E+02  0.91188000000E+02 0.  0.
    9900012    2    3    3    0    0  0.34629540182E+01  0.36077785217E+02 -0.23875152353E+02  0.47787291059E+02  0.20000091254E+02 0.  0.
         12    1    3    3    0    0 -0.34629540182E+01 -0.36077785217E+02  0.23875152353E+02  0.43400708941E+02  0.00000000000E+00 0. -1.
         11    1    4    4    0    0  0.37243082146E+00  0.12100918042E+01 -0.72662414332E+01  0.73757231319E+01  0.51100000000E-03 0.  1.
        -11    1    4    4    0    0  0.30206065256E+01  0.82367438449E+01  0.45111225002E+00  0.87847319522E+01  0.51100000000E-03 0. -1.
        -12    1    4    4    0    0  0.69916671122E-01  0.26630949568E+02 -0.17060023170E+02  0.31626835975E+02  0.00000000000E+00 0.  1.
</event>
<event>
 8    1  0.6524083E-011  0.9118800E+02  0.7816164E-02  0.1184000E+00
        -11   -1    0    0    0    0  0.00000000000E+00  0.00000000000E+00  0.45593999997E+02  0.45594000000E+02  0.51100000000E-03 0. -1.
         11   -1    0    0    0    0 -0.00000000000E+00 -0.00000000000E+00 -0.45593999997E+02  0.45594000000E+02  0.51100000000E-03 0.  1.
         23    2    1    2    0    0  0.00000000000E+00 -0.35527136788E-14  0.00000000000E+00  0.91188000000E+02  0.91188000000E+02 0.  0.
    9900012    2    3    3    0    0 -0.55295432503E+01  0.22602277488E+02  0.36635835849E+02  0.47787271152E+02  0.20000000491E+02 0.  0.
        -12    1    3    3    0    0  0.55295432503E+01 -0.22602277488E+02 -0.36635835849E+02  0.43400728848E+02  0.00000000000E+00 0.  1.
         11    1    4    4    0    0  0.49178732524E+01  0.30234417726E+01  0.11144324792E+02  0.12550802875E+02  0.51100000000E-03 0. -1.
        -11    1    4    4    0    0 -0.60438876077E+01  0.22531260828E+01  0.67503427483E+01  0.93366097723E+01  0.51100000000E-03 0.  1.
         12    1    4    4    0    0 -0.44035288949E+01  0.17325709632E+02  0.18741168309E+02  0.25899858505E+02  0.00000000000E+00 0. -1.
</event>
<event>
 8    1  0.6524083E-011  0.9118800E+02  0.7816164E-02  0.1184000E+00
        -11   -1    0    0    0    0  0.00000000000E+00  0.00000000000E+00  0.45593999997E+02  0.45594000000E+02  0.51100000000E-03 0. -1.
         11   -1    0    0    0    0 -0.00000000000E+00 -0.00000000000E+00 -0.45593999997E+02  0.45594000000E+02  0.51100000000E-03 0.  1.
         23    2    1    2    0    0  0.35527136788E-14 -0.35527136788E-14  0.00000000000E+00  0.91188000000E+02  0.91188000000E+02 0.  0.
    9900012    2    3    3    0    0 -0.17861693964E+02 -0.31036611106E+02 -0.24521669170E+02  0.47787267298E+02  0.19999982919E+02 0.  0.
         12    1    3    3    0    0  0.17861693964E+02  0.31036611106E+02  0.24521669170E+02  0.43400732702E+02  0.00000000000E+00 0. -1.
         11    1    4    4    0    0 -0.75522103547E+00 -0.35148831985E+01 -0.27421980756E+01  0.45215498735E+01  0.51100000000E-03 0. -1.
        -11    1    4    4    0    0 -0.87184947725E+01 -0.16755854684E+02 -0.22767042440E+02  0.29582241954E+02  0.51100000000E-03 0.  1.
         12    1    4    4    0    0 -0.83879781558E+01 -0.10765873223E+02  0.98757134561E+00  0.13683475470E+02  0.00000000000E+00 0. -1.
</event>
<event>
 8    1  0.6524083E-011  0.9118800E+02  0.7816164E-02  0.1184000E+00
        -11   -1    0    0    0    0  0.00000000000E+00  0.00000000000E+00  0.45593999997E+02  0.45594000000E+02  0.51100000000E-03 0. -1.
         11   -1    0    0    0    0 -0.00000000000E+00 -0.00000000000E+00 -0.45593999997E+02  0.45594000000E+02  0.51100000000E-03 0.  1.
         23    2    1    2    0    0  0.00000000000E+00  0.00000000000E+00  0.00000000000E+00  0.91188000000E+02  0.91188000000E+02 0.  0.
    9900012    2    3    3    0    0  0.14326636954E+02  0.26673881737E+02 -0.31094607018E+02  0.47787273290E+02  0.20000010238E+02 0.  0.
         12    1    3    3    0    0 -0.14326636954E+02 -0.26673881737E+02  0.31094607018E+02  0.43400726710E+02  0.00000000000E+00 0. -1.
         11    1    4    4    0    0  0.29219117843E+00 -0.20255036227E+00  0.18972682061E+01  0.19302925273E+01  0.51100000000E-03 0. -1.
        -11    1    4    4    0    0  0.11653094508E+02  0.15206023991E+02 -0.15243081181E+02  0.24482019961E+02  0.51100000000E-03 0.  1.
        -12    1    4    4    0    0  0.23813512681E+01  0.11670408108E+02 -0.17748794043E+02  0.21374960801E+02  0.00000000000E+00 0.  1.
</event>
<event>
 8    1  0.6524083E-011  0.9118800E+02  0.7816164E-02  0.1184000E+00
        -11   -1    0    0    0    0  0.00000000000E+00  0.00000000000E+00  0.45593999997E+02  0.45594000000E+02  0.51100000000E-03 0. -1.
         11   -1    0    0    0    0 -0.00000000000E+00 -0.00000000000E+00 -0.45593999997E+02  0.45594000000E+02  0.51100000000E-03 0.  1.
         23    2    1    2    0    0  0.35527136788E-14  0.00000000000E+00  0.00000000000E+00  0.91188000000E+02  0.91188000000E+02 0.  0.
    9900012    2    3    3    0    0  0.29387216389E+02 -0.97757454804E+01 -0.30404765020E+02  0.47787269330E+02  0.19999992182E+02 0.  0.
         12    1    3    3    0    0 -0.29387216389E+02  0.97757454804E+01  0.30404765020E+02  0.43400730670E+02  0.00000000000E+00 0. -1.
         11    1    4    4    0    0  0.52856063365E+01  0.16271196600E+01 -0.71976306198E+01  0.90769510042E+01  0.51100000000E-03 0. -1.
        -11    1    4    4    0    0  0.20138903183E+02 -0.15047523428E+02 -0.21449683767E+02  0.33046820070E+02  0.51100000000E-03 0.  1.
        -12    1    4    4    0    0  0.39627068689E+01  0.36446582879E+01 -0.17574506336E+01  0.56634982558E+01  0.00000000000E+00 0.  1.
</event>
<event>
 8    1  0.6524083E-011  0.9118800E+02  0.7816164E-02  0.1184000E+00
        -11   -1    0    0    0    0  0.00000000000E+00  0.00000000000E+00  0.45593999997E+02  0.45594000000E+02  0.51100000000E-03 0. -1.
         11   -1    0    0    0    0 -0.00000000000E+00 -0.00000000000E+00 -0.45593999997E+02  0.45594000000E+02  0.51100000000E-03 0.  1.
         23    2    1    2    0    0  0.00000000000E+00  0.00000000000E+00 -0.35527136788E-14  0.91188000000E+02  0.91188000000E+02 0.  0.
    9900012    2    3    3    0    0  0.22872019599E+02 -0.31187078803E+02  0.19694161424E+02  0.47787272368E+02  0.20000006035E+02 0.  0.
        -12    1    3    3    0    0 -0.22872019599E+02  0.31187078803E+02 -0.19694161424E+02  0.43400727632E+02  0.00000000000E+00 0.  1.
         11    1    4    4    0    0  0.10968290883E+02 -0.15038955432E+02  0.17736588578E+02  0.25711090214E+02  0.51100000000E-03 0. -1.
        -11    1    4    4    0    0  0.51782459172E+01 -0.13385056130E+01 -0.12621887807E+01  0.54953570252E+01  0.51100000000E-03 0.  1.
        -12    1    4    4    0    0  0.67254827986E+01 -0.14809617758E+02  0.32197616270E+01  0.16580825129E+02  0.00000000000E+00 0.  1.
</event>
<event>
 8    1  0.6524083E-011  0.9118800E+02  0.7816164E-02  0.1184000E+00
        -11   -1    0    0    0    0  0.00000000000E+00  0.00000000000E+00  0.45593999997E+02  0.45594000000E+02  0.51100000000E-03 0.  1.
         11   -1    0    0    0    0 -0.00000000000E+00 -0.00000000000E+00 -0.45593999997E+02  0.45594000000E+02  0.51100000000E-03 0. -1.
         23    2    1    2    0    0  0.71054273576E-14  0.44408920985E-15 -0.44408920985E-15  0.91188000000E+02  0.91188000000E+02 0.  0.
    9900012    2    3    3    0    0 -0.43157981793E+02 -0.32063043278E+01  0.32758510792E+01  0.47787274428E+02  0.20000015429E+02 0.  0.
        -12    1    3    3    0    0  0.43157981793E+02  0.32063043278E+01 -0.32758510792E+01  0.43400725572E+02  0.00000000000E+00 0.  1.
         11    1    4    4    0    0 -0.27533512376E+02  0.15912564600E+01 -0.48158349075E+01  0.27996761723E+02  0.51100000000E-03 0. -1.
        -11    1    4    4    0    0 -0.29082565254E+01  0.12655124848E+01  0.40311820214E+01  0.51293183385E+01  0.51100000000E-03 0.  1.
        -12    1    4    4    0    0 -0.12716212891E+02 -0.60630732726E+01  0.40605039653E+01  0.14661194366E+02  0.00000000000E+00 0.  1.
</event>
<event>
 8    1  0.6524083E-011  0.9118800E+02  0.7816164E-02  0.1184000E+00
        -11   -1    0    0    0    0  0.00000000000E+00  0.00000000000E+00  0.45593999997E+02  0.45594000000E+02  0.51100000000E-03 0. -1.
         11   -1    0    0    0    0 -0.00000000000E+00 -0.00000000000E+00 -0.45593999997E+02  0.45594000000E+02  0.51100000000E-03 0.  1.
         23    2    1    2    0    0  0.00000000000E+00  0.00000000000E+00  0.00000000000E+00  0.91188000000E+02  0.91188000000E+02 0.  0.
    9900012    2    3    3    0    0 -0.17981811138E+02 -0.50797271152E+01  0.39172360761E+02  0.47787274119E+02  0.20000014019E+02 0.  0.
        -12    1    3    3    0    0  0.17981811138E+02  0.50797271152E+01 -0.39172360761E+02  0.43400725881E+02  0.00000000000E+00 0.  1.
         11    1    4    4    0    0 -0.46525698195E+01 -0.20825922514E+01  0.88357546109E+01  0.10200693909E+02  0.51100000000E-03 0. -1.
        -11    1    4    4    0    0 -0.16356491805E+02 -0.21167468515E+01  0.30224863856E+02  0.34431930483E+02  0.51100000000E-03 0.  1.
        -12    1    4    4    0    0  0.30272504869E+01 -0.88038801232E+00  0.11174229431E+00  0.31546497274E+01  0.00000000000E+00 0.  1.
</event>
<event>
 8    1  0.6524083E-011  0.9118800E+02  0.7816164E-02  0.1184000E+00
        -11   -1    0    0    0    0  0.00000000000E+00  0.00000000000E+00  0.45593999997E+02  0.45594000000E+02  0.51100000000E-03 0. -1.
         11   -1    0    0    0    0 -0.00000000000E+00 -0.00000000000E+00 -0.45593999997E+02  0.45594000000E+02  0.51100000000E-03 0.  1.
         23    2    1    2    0    0  0.35527136788E-14  0.00000000000E+00 -0.35527136788E-14  0.91188000000E+02  0.91188000000E+02 0.  0.
    9900012    2    3    3    0    0  0.11243543767E+02  0.34953842831E+02 -0.23139476452E+02  0.47787265265E+02  0.19999973649E+02 0.  0.
         12    1    3    3    0    0 -0.11243543767E+02 -0.34953842831E+02  0.23139476452E+02  0.43400734735E+02  0.00000000000E+00 0. -1.
         11    1    4    4    0    0  0.58412659141E+01  0.21578949487E+02 -0.20549980710E+02  0.30365657508E+02  0.51100000000E-03 0. -1.
        -11    1    4    4    0    0  0.77876681553E+01  0.10556014712E+02 -0.35815221992E+01  0.13597960267E+02  0.51100000000E-03 0.  1.
         12    1    4    4    0    0 -0.23853903029E+01  0.28188786316E+01  0.99202645733E+00  0.38236474902E+01  0.00000000000E+00 0. -1.
</event>
<event>
 8    1  0.6524083E-011  0.9118800E+02  0.7816164E-02  0.1184000E+00
        -11   -1    0    0    0    0  0.00000000000E+00  0.00000000000E+00  0.45593999997E+02  0.45594000000E+02  0.51100000000E-03 0. -1.
         11   -1    0    0    0    0 -0.00000000000E+00 -0.00000000000E+00 -0.45593999997E+02  0.45594000000E+02  0.51100000000E-03 0.  1.
         23    2    1    2    0    0  0.22204460493E-15  0.00000000000E+00  0.00000000000E+00  0.91188000000E+02  0.91188000000E+02 0.  0.
    9900012    2    3    3    0    0 -0.11203212631E+01  0.30685754555E+02 -0.30671687094E+02  0.47787273721E+02  0.20000012203E+02 0.  0.
         12    1    3    3    0    0  0.11203212631E+01 -0.30685754555E+02  0.30671687094E+02  0.43400726279E+02  0.00000000000E+00 0. -1.
         11    1    4    4    0    0 -0.57048928469E+01  0.25188978795E+02 -0.22010920232E+02  0.33933922037E+02  0.51100000000E-03 0. -1.
        -11    1    4    4    0    0  0.34911316769E+01  0.49865907648E+01 -0.10211689498E+02  0.11888342630E+02  0.51100000000E-03 0.  1.
         12    1    4    4    0    0  0.10934399069E+01  0.51018499510E+00  0.15509226349E+01  0.19650090531E+01  0.00000000000E+00 0. -1.
</event>
<event>
 8    1  0.6524083E-011  0.9118800E+02  0.7816164E-02  0.1184000E+00
        -11   -1    0    0    0    0  0.00000000000E+00  0.00000000000E+00  0.45593999997E+02  0.45594000000E+02  0.51100000000E-03 0. -1.
         11   -1    0    0    0    0 -0.00000000000E+00 -0.00000000000E+00 -0.45593999997E+02  0.45594000000E+02  0.51100000000E-03 0.  1.
         23    2    1    2    0    0  0.35527136788E-14  0.35527136788E-14  0.00000000000E+00  0.91188000000E+02  0.91188000000E+02 0.  0.
    9900012    2    3    3    0    0 -0.22159994224E+02  0.30652628015E+02  0.21283195772E+02  0.47787269931E+02  0.19999994924E+02 0.  0.
        -12    1    3    3    0    0  0.22159994224E+02 -0.30652628015E+02 -0.21283195772E+02  0.43400730069E+02  0.00000000000E+00 0.  1.
         11    1    4    4    0    0 -0.22519130490E+02  0.23843792213E+02  0.11712549170E+02  0.34825586476E+02  0.51100000000E-03 0. -1.
        -11    1    4    4    0    0  0.97102532506E+00  0.42246336855E+01  0.17019569024E+01  0.46569386422E+01  0.51100000000E-03 0.  1.
         12    1    4    4    0    0 -0.61188905921E+00  0.25842021164E+01  0.78686897003E+01  0.83047448124E+01  0.00000000000E+00 0. -1.
</event>
<event>
 8    1  0.6524083E-011  0.9118800E+02  0.7816164E-02  0.1184000E+00
        -11   -1    0    0    0    0  0.00000000000E+00  0.00000000000E+00  0.45593999997E+02  0.45594000000E+02  0.51100000000E-03 0. -1.
         11   -1    0    0    0    0 -0.00000000000E+00 -0.00000000000E+00 -0.45593999997E+02  0.45594000000E+02  0.51100000000E-03 0.  1.
         23    2    1    2    0    0  0.35527136788E-14  0.00000000000E+00  0.00000000000E+00  0.91188000000E+02  0.91188000000E+02 0.  0.
    9900012    2    3    3    0    0 -0.22641619461E+02 -0.22174659419E+02  0.29652394384E+02  0.47787274835E+02  0.20000017284E+02 0.  0.
        -12    1    3    3    0    0  0.22641619461E+02  0.22174659419E+02 -0.29652394384E+02  0.43400725165E+02  0.00000000000E+00 0.  1.
         11    1    4    4    0    0 -0.91483368833E+01 -0.99743892183E+01  0.12478421733E+02  0.18409006416E+02  0.51100000000E-03 0. -1.
        -11    1    4    4    0    0 -0.14318137499E+01  0.35802238708E+01  0.17691365758E+01  0.42423976787E+01  0.51100000000E-03 0.  1.
        -12    1    4    4    0    0 -0.12061468827E+02 -0.15780494071E+02  0.15404836074E+02  0.25135870741E+02  0.00000000000E+00 0.  1.
</event>
<event>
 8    1  0.6524083E-011  0.9118800E+02  0.7816164E-02  0.1184000E+00
        -11   -1    0    0    0    0  0.00000000000E+00  0.00000000000E+00  0.45593999997E+02  0.45594000000E+02  0.51100000000E-03 0. -1.
         11   -1    0    0    0    0 -0.00000000000E+00 -0.00000000000E+00 -0.45593999997E+02  0.45594000000E+02  0.51100000000E-03 0.  1.
         23    2    1    2    0    0  0.00000000000E+00  0.88817841970E-15  0.00000000000E+00  0.91188000000E+02  0.91188000000E+02 0.  0.
    9900012    2    3    3    0    0  0.31397909749E+02  0.48824161721E+01 -0.29562755484E+02  0.47787271480E+02  0.20000001987E+02 0.  0.
         12    1    3    3    0    0 -0.31397909749E+02 -0.48824161721E+01  0.29562755484E+02  0.43400728520E+02  0.00000000000E+00 0. -1.
         11    1    4    4    0    0  0.58178383605E+01  0.43723804320E+01 -0.54201336436E+00  0.72978580817E+01  0.51100000000E-03 0. -1.
        -11    1    4    4    0    0  0.50799814684E+01  0.32592264367E+01 -0.12980075405E+02  0.14314717128E+02  0.51100000000E-03 0.  1.
         12    1    4    4    0    0  0.20500089920E+02 -0.27491906967E+01 -0.16040666715E+02  0.26174696270E+02  0.00000000000E+00 0. -1.
</event>
<event>
 8    1  0.6524083E-011  0.9118800E+02  0.7816164E-02  0.1184000E+00
        -11   -1    0    0    0    0  0.00000000000E+00  0.00000000000E+00  0.45593999997E+02  0.45594000000E+02  0.51100000000E-03 0.  1.
         11   -1    0    0    0    0 -0.00000000000E+00 -0.00000000000E+00 -0.45593999997E+02  0.45594000000E+02  0.51100000000E-03 0. -1.
         23    2    1    2    0    0  0.35527136788E-14  0.35527136788E-14  0.00000000000E+00  0.91188000000E+02  0.91188000000E+02 0.  0.
    9900012    2    3    3    0    0  0.24482354648E+02  0.29847776826E+02  0.19833011733E+02  0.47787264695E+02  0.19999971050E+02 0.  0.
        -12    1    3    3    0    0 -0.24482354648E+02 -0.29847776826E+02 -0.19833011733E+02  0.43400735305E+02  0.00000000000E+00 0.  1.
         11    1    4    4    0    0 -0.21198883024E+01  0.22869078823E+00 -0.18344951114E+00  0.21400653905E+01  0.51100000000E-03 0. -1.
        -11    1    4    4    0    0  0.92853263684E+01  0.14268714655E+02  0.13142634245E+02  0.21506797503E+02  0.51100000000E-03 0.  1.
         12    1    4    4    0    0  0.17316916582E+02  0.15350371383E+02  0.68738269991E+01  0.24140401802E+02  0.00000000000E+00 0. -1.
</event>
<event>
 8    1  0.6524083E-011  0.9118800E+02  0.7816164E-02  0.1184000E+00
        -11   -1    0    0    0    0  0.00000000000E+00  0.00000000000E+00  0.45593999997E+02  0.45594000000E+02  0.51100000000E-03 0. -1.
         11   -1    0    0    0    0 -0.00000000000E+00 -0.00000000000E+00 -0.45593999997E+02  0.45594000000E+02  0.51100000000E-03 0.  1.
         23    2    1    2    0    0  0.00000000000E+00 -0.17763568394E-14  0.00000000000E+00  0.91188000000E+02  0.91188000000E+02 0.  0.
    9900012    2    3    3    0    0 -0.16070912311E+02  0.83006111630E+01 -0.39451853432E+02  0.47787272962E+02  0.20000008745E+02 0.  0.
         12    1    3    3    0    0  0.16070912311E+02 -0.83006111630E+01  0.39451853432E+02  0.43400727038E+02  0.00000000000E+00 0. -1.
         11    1    4    4    0    0 -0.18843401953E+01  0.59252015239E+01 -0.27990181882E+01  0.68185962007E+01  0.51100000000E-03 0. -1.
        -11    1    4    4    0    0 -0.10732475488E+02  0.32194463825E+00 -0.12476403029E+02  0.16460568375E+02  0.51100000000E-03 0.  1.
        -12    1    4    4    0    0 -0.34540966278E+01  0.20534650009E+01 -0.24176432215E+02  0.24508108386E+02  0.00000000000E+00 0.  1.
</event>
<event>
 8    1  0.6524083E-011  0.9118800E+02  0.7816164E-02  0.1184000E+00
        -11   -1    0    0    0    0  0.00000000000E+00  0.00000000000E+00  0.45593999997E+02  0.45594000000E+02  0.51100000000E-03 0. -1.
         11   -1    0    0    0    0 -0.00000000000E+00 -0.00000000000E+00 -0.45593999997E+02  0.45594000000E+02  0.51100000000E-03 0.  1.
         23    2    1    2    0    0 -0.11102230246E-15 -0.35527136788E-14  0.00000000000E+00  0.91188000000E+02  0.91188000000E+02 0.  0.
    9900012    2    3    3    0    0 -0.31396496616E+00  0.21361829776E+02  0.37778259370E+02  0.47787271591E+02  0.20000002492E+02 0.  0.
        -12    1    3    3    0    0  0.31396496616E+00 -0.21361829776E+02 -0.37778259370E+02  0.43400728409E+02  0.00000000000E+00 0.  1.
         11    1    4    4    0    0 -0.26770486186E+01  0.20941797305E+02  0.25670781214E+02  0.33237245254E+02  0.51100000000E-03 0.  1.
        -11    1    4    4    0    0  0.29013809617E+01  0.90303355858E+00  0.69819650649E+00  0.31178453643E+01  0.51100000000E-03 0. -1.
        -12    1    4    4    0    0 -0.53829730919E+00 -0.48300108704E+00  0.11409281649E+02  0.11432180973E+02  0.00000000000E+00 0.  1.
</event>
<event>
 8    1  0.6524083E-011  0.9118800E+02  0.7816164E-02  0.1184000E+00
        -11   -1    0    0    0    0  0.00000000000E+00  0.00000000000E+00  0.45593999997E+02  0.45594000000E+02  0.51100000000E-03 0. -1.
         11   -1    0    0    0    0 -0.00000000000E+00 -0.00000000000E+00 -0.45593999997E+02  0.45594000000E+02  0.51100000000E-03 0.  1.
         23    2    1    2    0    0  0.35527136788E-14  0.00000000000E+00  0.00000000000E+00  0.91188000000E+02  0.91188000000E+02 0.  0.
    9900012    2    3    3    0    0 -0.21166454755E+02 -0.11562334763E+02  0.36082087490E+02  0.47787269249E+02  0.19999991815E+02 0.  0.
        -12    1    3    3    0    0  0.21166454755E+02  0.11562334763E+02 -0.36082087490E+02  0.43400730751E+02  0.00000000000E+00 0.  1.
         11    1    4    4    0    0 -0.14735393775E+02  0.11605263725E+01  0.10566231785E+02  0.18169312193E+02  0.51100000000E-03 0.  1.
        -11    1    4    4    0    0 -0.67986337077E+01 -0.96627297863E+01  0.18444418979E+02  0.21904026090E+02  0.51100000000E-03 0. -1.
        -12    1    4    4    0    0  0.36757272779E+00 -0.30601313488E+01  0.70714367265E+01  0.77139309667E+01  0.00000000000E+00 0.  1.
</event>
<event>
 8    1  0.6524083E-011  0.9118800E+02  0.7816164E-02  0.1184000E+00
        -11   -1    0    0    0    0  0.00000000000E+00  0.00000000000E+00  0.45593999997E+02  0.45594000000E+02  0.51100000000E-03 0. -1.
         11   -1    0    0    0    0 -0.00000000000E+00 -0.00000000000E+00 -0.45593999997E+02  0.45594000000E+02  0.51100000000E-03 0.  1.
         23    2    1    2    0    0  0.00000000000E+00 -0.17763568394E-14  0.35527136788E-14  0.91188000000E+02  0.91188000000E+02 0.  0.
    9900012    2    3    3    0    0  0.29435161509E+02  0.11037652545E+02  0.29922646560E+02  0.47787270929E+02  0.19999999474E+02 0.  0.
        -12    1    3    3    0    0 -0.29435161509E+02 -0.11037652545E+02 -0.29922646560E+02  0.43400729071E+02  0.00000000000E+00 0.  1.
         11    1    4    4    0    0  0.14591415862E+02  0.13294454082E+01  0.24743629361E+02  0.28756286898E+02  0.51100000000E-03 0. -1.
        -11    1    4    4    0    0  0.79552871851E+01  0.56279592119E+01  0.51560211295E+01  0.11024748216E+02  0.51100000000E-03 0.  1.
         12    1    4    4    0    0  0.68884584611E+01  0.40802479252E+01  0.22996069554E-01  0.80062358147E+01  0.00000000000E+00 0. -1.
</event>
<event>
 8    1  0.6524083E-011  0.9118800E+02  0.7816164E-02  0.1184000E+00
        -11   -1    0    0    0    0  0.00000000000E+00  0.00000000000E+00  0.45593999997E+02  0.45594000000E+02  0.51100000000E-03 0. -1.
         11   -1    0    0    0    0 -0.00000000000E+00 -0.00000000000E+00 -0.45593999997E+02  0.45594000000E+02  0.51100000000E-03 0.  1.
         23    2    1    2    0    0  0.17763568394E-14  0.00000000000E+00 -0.35527136788E-14  0.91188000000E+02  0.91188000000E+02 0.  0.
    9900012    2    3    3    0    0 -0.13725081681E+02 -0.34718984988E+02  0.22132268390E+02  0.47787273165E+02  0.20000009667E+02 0.  0.
        -12    1    3    3    0    0  0.13725081681E+02  0.34718984988E+02 -0.22132268390E+02  0.43400726835E+02  0.00000000000E+00 0.  1.
         11    1    4    4    0    0 -0.17289338209E+02 -0.19221765291E+02  0.15168033848E+02  0.29974434568E+02  0.51100000000E-03 0. -1.
        -11    1    4    4    0    0  0.45471816412E+00 -0.10412246891E+02  0.40949128423E+01  0.11197766088E+02  0.51100000000E-03 0.  1.
        -12    1    4    4    0    0  0.31095383632E+01 -0.50849728067E+01  0.28693217001E+01  0.66150725087E+01  0.00000000000E+00 0.  1.
</event>
<event>
 8    1  0.6524083E-011  0.9118800E+02  0.7816164E-02  0.1184000E+00
        -11   -1    0    0    0    0  0.00000000000E+00  0.00000000000E+00  0.45593999997E+02  0.45594000000E+02  0.51100000000E-03 0. -1.
         11   -1    0    0    0    0 -0.00000000000E+00 -0.00000000000E+00 -0.45593999997E+02  0.45594000000E+02  0.51100000000E-03 0.  1.
         23    2    1    2    0    0  0.35527136788E-14  0.00000000000E+00  0.00000000000E+00  0.91188000000E+02  0.91188000000E+02 0.  0.
    9900012    2    3    3    0    0 -0.21338145981E+02  0.14902050292E+02 -0.34730903276E+02  0.47787271675E+02  0.20000002873E+02 0.  0.
         12    1    3    3    0    0  0.21338145981E+02 -0.14902050292E+02  0.34730903276E+02  0.43400728325E+02  0.00000000000E+00 0. -1.
         11    1    4    4    0    0  0.92541217108E+00 -0.18434182029E+01 -0.25731449787E+01  0.32978256018E+01  0.51100000000E-03 0. -1.
        -11    1    4    4    0    0 -0.13264436321E+02  0.54544099498E+01 -0.82099133813E+01  0.16525693233E+02  0.51100000000E-03 0.  1.
         12    1    4    4    0    0 -0.89991218302E+01  0.11291058545E+02 -0.23947844916E+02  0.27963752840E+02  0.00000000000E+00 0. -1.
</event>
<event>
 8    1  0.6524083E-011  0.9118800E+02  0.7816164E-02  0.1184000E+00
        -11   -1    0    0    0    0  0.00000000000E+00  0.00000000000E+00  0.45593999997E+02  0.45594000000E+02  0.51100000000E-03 0. -1.
         11   -1    0    0    0    0 -0.00000000000E+00 -0.00000000000E+00 -0.45593999997E+02  0.45594000000E+02  0.51100000000E-03 0.  1.
         23    2    1    2    0    0  0.35527136788E-14 -0.17763568394E-14  0.00000000000E+00  0.91188000000E+02  0.91188000000E+02 0.  0.
    9900012    2    3    3    0    0 -0.20961550090E+02  0.14571959579E+02  0.35098357046E+02  0.47787271256E+02  0.20000000964E+02 0.  0.
        -12    1    3    3    0    0  0.20961550090E+02 -0.14571959579E+02 -0.35098357046E+02  0.43400728744E+02  0.00000000000E+00 0.  1.
         11    1    4    4    0    0 -0.24159057547E+00  0.59681376140E+01  0.26704058286E+01  0.65427899352E+01  0.51100000000E-03 0. -1.
        -11    1    4    4    0    0  0.12078936533E+00  0.41609598387E+01  0.48022204312E+01  0.63552732578E+01  0.51100000000E-03 0.  1.
         12    1    4    4    0    0 -0.20840748880E+02  0.44428621264E+01  0.27625730786E+02  0.34889208063E+02  0.00000000000E+00 0. -1.
</event>
<event>
 8    1  0.6524083E-011  0.9118800E+02  0.7816164E-02  0.1184000E+00
        -11   -1    0    0    0    0  0.00000000000E+00  0.00000000000E+00  0.45593999997E+02  0.45594000000E+02  0.51100000000E-03 0. -1.
         11   -1    0    0    0    0 -0.00000000000E+00 -0.00000000000E+00 -0.45593999997E+02  0.45594000000E+02  0.51100000000E-03 0.  1.
         23    2    1    2    0    0  0.00000000000E+00  0.17763568394E-14  0.00000000000E+00  0.91188000000E+02  0.91188000000E+02 0.  0.
    9900012    2    3    3    0    0 -0.29411310415E+01  0.82111219841E+01  0.42515293802E+02  0.47787274394E+02  0.20000015274E+02 0.  0.
        -12    1    3    3    0    0  0.29411310415E+01 -0.82111219841E+01 -0.42515293802E+02  0.43400725606E+02  0.00000000000E+00 0.  1.
         11    1    4    4    0    0  0.23680320270E+01 -0.28376859174E+01  0.16857423351E+02  0.17257831826E+02  0.51100000000E-03 0. -1.
        -11    1    4    4    0    0 -0.21806389193E+01  0.23190653036E+01 -0.67174957397E-01  0.31839853509E+01  0.51100000000E-03 0.  1.
        -12    1    4    4    0    0 -0.31285241492E+01  0.87297425979E+01  0.25725045408E+02  0.27345457218E+02  0.00000000000E+00 0.  1.
</event>
<event>
 8    1  0.6524083E-011  0.9118800E+02  0.7816164E-02  0.1184000E+00
        -11   -1    0    0    0    0  0.00000000000E+00  0.00000000000E+00  0.45593999997E+02  0.45594000000E+02  0.51100000000E-03 0. -1.
         11   -1    0    0    0    0 -0.00000000000E+00 -0.00000000000E+00 -0.45593999997E+02  0.45594000000E+02  0.51100000000E-03 0.  1.
         23    2    1    2    0    0  0.00000000000E+00  0.00000000000E+00  0.00000000000E+00  0.91188000000E+02  0.91188000000E+02 0.  0.
    9900012    2    3    3    0    0 -0.25283954802E+02 -0.14393602338E+02  0.32205109726E+02  0.47787271306E+02  0.20000001193E+02 0.  0.
        -12    1    3    3    0    0  0.25283954802E+02  0.14393602338E+02 -0.32205109726E+02  0.43400728694E+02  0.00000000000E+00 0.  1.
         11    1    4    4    0    0 -0.97790343605E+01 -0.88215532253E+01  0.65471546158E+01  0.14707635709E+02  0.51100000000E-03 0. -1.
        -11    1    4    4    0    0  0.20537700321E+01  0.78889713147E+00  0.25205551374E+01  0.33456730997E+01  0.51100000000E-03 0.  1.
         12    1    4    4    0    0 -0.17558690474E+02 -0.63609462439E+01  0.23137399973E+02  0.29733962497E+02  0.00000000000E+00 0. -1.
</event>
<event>
 8    1  0.6524083E-011  0.9118800E+02  0.7816164E-02  0.1184000E+00
        -11   -1    0    0    0    0  0.00000000000E+00  0.00000000000E+00  0.45593999997E+02  0.45594000000E+02  0.51100000000E-03 0. -1.
         11   -1    0    0    0    0 -0.00000000000E+00 -0.00000000000E+00 -0.45593999997E+02  0.45594000000E+02  0.51100000000E-03 0.  1.
         23    2    1    2    0    0  0.35527136788E-14  0.00000000000E+00 -0.71054273576E-14  0.91188000000E+02  0.91188000000E+02 0.  0.
    9900012    2    3    3    0    0  0.24283942905E+02  0.10960207196E+02 -0.34260578468E+02  0.47787271184E+02  0.20000000638E+02 0.  0.
         12    1    3    3    0    0 -0.24283942905E+02 -0.10960207196E+02  0.34260578468E+02  0.43400728816E+02  0.00000000000E+00 0. -1.
         11    1    4    4    0    0  0.42695622276E+01 -0.92340782360E+00 -0.30644477552E+01  0.53359801283E+01  0.51100000000E-03 0. -1.
        -11    1    4    4    0    0  0.65472835763E+01  0.12164033666E+01  0.19970800634E+00  0.66623151327E+01  0.51100000000E-03 0.  1.
        -12    1    4    4    0    0  0.13467097101E+02  0.10667211653E+02 -0.31395838719E+02  0.35788975923E+02  0.00000000000E+00 0.  1.
</event>
<event>
 8    1  0.6524083E-011  0.9118800E+02  0.7816164E-02  0.1184000E+00
        -11   -1    0    0    0    0  0.00000000000E+00  0.00000000000E+00  0.45593999997E+02  0.45594000000E+02  0.51100000000E-03 0. -1.
         11   -1    0    0    0    0 -0.00000000000E+00 -0.00000000000E+00 -0.45593999997E+02  0.45594000000E+02  0.51100000000E-03 0.  1.
         23    2    1    2    0    0  0.00000000000E+00  0.00000000000E+00  0.00000000000E+00  0.91188000000E+02  0.91188000000E+02 0.  0.
    9900012    2    3    3    0    0 -0.18498330411E+02 -0.16328723151E+02  0.35704451087E+02  0.47787271260E+02  0.20000000982E+02 0.  0.
        -12    1    3    3    0    0  0.18498330411E+02  0.16328723151E+02 -0.35704451087E+02  0.43400728740E+02  0.00000000000E+00 0.  1.
         11    1    4    4    0    0 -0.20275965973E+02 -0.11736775233E+02  0.19834878449E+02  0.30696727714E+02  0.51100000000E-03 0. -1.
        -11    1    4    4    0    0  0.51412936871E+00 -0.30218603834E+01  0.39400780465E+01  0.49920120651E+01  0.51100000000E-03 0.  1.
        -12    1    4    4    0    0  0.12635061930E+01 -0.15700875344E+01  0.11929494592E+02  0.12098531480E+02  0.00000000000E+00 0.  1.
</event>
<event>
 8    1  0.6524083E-011  0.9118800E+02  0.7816164E-02  0.1184000E+00
        -11   -1    0    0    0    0  0.00000000000E+00  0.00000000000E+00  0.45593999997E+02  0.45594000000E+02  0.51100000000E-03 0. -1.
         11   -1    0    0    0    0 -0.00000000000E+00 -0.00000000000E+00 -0.45593999997E+02  0.45594000000E+02  0.51100000000E-03 0.  1.
         23    2    1    2    0    0  0.00000000000E+00  0.00000000000E+00  0.00000000000E+00  0.91188000000E+02  0.91188000000E+02 0.  0.
    9900012    2    3    3    0    0 -0.16348910851E+02 -0.21128752589E+01  0.40148124417E+02  0.47787273945E+02  0.20000013226E+02 0.  0.
        -12    1    3    3    0    0  0.16348910851E+02  0.21128752589E+01 -0.40148124417E+02  0.43400726055E+02  0.00000000000E+00 0.  1.
         11    1    4    4    0    0  0.42862206010E+00  0.60491199828E+00  0.81175482802E+01  0.81513327585E+01  0.51100000000E-03 0. -1.
        -11    1    4    4    0    0 -0.13298411579E+02 -0.89949581846E+01  0.20261336543E+02  0.25851088604E+02  0.51100000000E-03 0.  1.
        -12    1    4    4    0    0 -0.34791213324E+01  0.62771709274E+01  0.11769239594E+02  0.13784852583E+02  0.00000000000E+00 0.  1.
</event>
<event>
 8    1  0.6524083E-011  0.9118800E+02  0.7816164E-02  0.1184000E+00
        -11   -1    0    0    0    0  0.00000000000E+00  0.00000000000E+00  0.45593999997E+02  0.45594000000E+02  0.51100000000E-03 0. -1.
         11   -1    0    0    0    0 -0.00000000000E+00 -0.00000000000E+00 -0.45593999997E+02  0.45594000000E+02  0.51100000000E-03 0.  1.
         23    2    1    2    0    0  0.00000000000E+00  0.00000000000E+00 -0.17763568394E-14  0.91188000000E+02  0.91188000000E+02 0.  0.
    9900012    2    3    3    0    0  0.20607380684E+02 -0.35382566304E+02 -0.14388645910E+02  0.47787271112E+02  0.20000000307E+02 0.  0.
         12    1    3    3    0    0 -0.20607380684E+02  0.35382566304E+02  0.14388645910E+02  0.43400728888E+02  0.00000000000E+00 0. -1.
         11    1    4    4    0    0  0.17962000372E+02 -0.16199858675E+02 -0.12076011319E+02  0.27035142465E+02  0.51100000000E-03 0.  1.
        -11    1    4    4    0    0  0.22233551547E+01 -0.67909986888E+01  0.23248032649E+01  0.75143650308E+01  0.51100000000E-03 0. -1.
        -12    1    4    4    0    0  0.42202515711E+00 -0.12391708940E+02 -0.46374378559E+01  0.13237763616E+02  0.00000000000E+00 0.  1.
</event>
<event>
 8    1  0.6524083E-011  0.9118800E+02  0.7816164E-02  0.1184000E+00
        -11   -1    0    0    0    0  0.00000000000E+00  0.00000000000E+00  0.45593999997E+02  0.45594000000E+02  0.51100000000E-03 0. -1.
         11   -1    0    0    0    0 -0.00000000000E+00 -0.00000000000E+00 -0.45593999997E+02  0.45594000000E+02  0.51100000000E-03 0.  1.
         23    2    1    2    0    0 -0.22204460493E-15  0.17763568394E-14  0.00000000000E+00  0.91188000000E+02  0.91188000000E+02 0.  0.
    9900012    2    3    3    0    0 -0.18769787680E+01  0.72531501404E+01 -0.42749204171E+02  0.47787243169E+02  0.19999872903E+02 0.  0.
         12    1    3    3    0    0  0.18769787680E+01 -0.72531501404E+01  0.42749204171E+02  0.43400756831E+02  0.00000000000E+00 0. -1.
         11    1    4    4    0    0  0.59057462651E+01 -0.38861133851E+00 -0.42262829089E+01  0.72725734927E+01  0.51100000000E-03 0. -1.
        -11    1    4    4    0    0 -0.23499689033E+01  0.55682164516E+01 -0.26208305280E+02  0.26896145713E+02  0.51100000000E-03 0.  1.
        -12    1    4    4    0    0 -0.54327561298E+01  0.20735450273E+01 -0.12314615982E+02  0.13618523963E+02  0.00000000000E+00 0.  1.
</event>
<event>
 8    1  0.6524083E-011  0.9118800E+02  0.7816164E-02  0.1184000E+00
        -11   -1    0    0    0    0  0.00000000000E+00  0.00000000000E+00  0.45593999997E+02  0.45594000000E+02  0.51100000000E-03 0.  1.
         11   -1    0    0    0    0 -0.00000000000E+00 -0.00000000000E+00 -0.45593999997E+02  0.45594000000E+02  0.51100000000E-03 0. -1.
         23    2    1    2    0    0  0.00000000000E+00  0.00000000000E+00  0.17763568394E-14  0.91188000000E+02  0.91188000000E+02 0.  0.
    9900012    2    3    3    0    0 -0.39794569459E+02 -0.10044893262E+02  0.14110829535E+02  0.47787272480E+02  0.20000006544E+02 0.  0.
        -12    1    3    3    0    0  0.39794569459E+02  0.10044893262E+02 -0.14110829535E+02  0.43400727520E+02  0.00000000000E+00 0.  1.
         11    1    4    4    0    0 -0.32049155746E+02 -0.43711983859E+01  0.88988309745E+01  0.33547651965E+02  0.51100000000E-03 0. -1.
        -11    1    4    4    0    0 -0.86386198182E+01 -0.71883649161E+01  0.54053320894E+01  0.12470603746E+02  0.51100000000E-03 0.  1.
         12    1    4    4    0    0  0.89320610521E+00  0.15146700395E+01 -0.19333352885E+00  0.17690167688E+01  0.00000000000E+00 0. -1.
</event>
<event>
 8    1  0.6524083E-011  0.9118800E+02  0.7816164E-02  0.1184000E+00
        -11   -1    0    0    0    0  0.00000000000E+00  0.00000000000E+00  0.45593999997E+02  0.45594000000E+02  0.51100000000E-03 0. -1.
         11   -1    0    0    0    0 -0.00000000000E+00 -0.00000000000E+00 -0.45593999997E+02  0.45594000000E+02  0.51100000000E-03 0.  1.
         23    2    1    2    0    0  0.00000000000E+00  0.71054273576E-14 -0.44408920985E-15  0.91188000000E+02  0.91188000000E+02 0.  0.
    9900012    2    3    3    0    0 -0.11272078589E+02  0.41893099324E+02  0.12376149353E+01  0.47787271695E+02  0.20000002967E+02 0.  0.
        -12    1    3    3    0    0  0.11272078589E+02 -0.41893099324E+02 -0.12376149353E+01  0.43400728305E+02  0.00000000000E+00 0.  1.
         11    1    4    4    0    0  0.18673446072E+01  0.16565760733E+02 -0.29031300315E+01  0.16921571108E+02  0.51100000000E-03 0. -1.
        -11    1    4    4    0    0 -0.95195908236E+00  0.98082981554E+01 -0.22801255340E+01  0.10114737343E+02  0.51100000000E-03 0.  1.
         12    1    4    4    0    0 -0.12187464114E+02  0.15519040436E+02  0.64208705008E+01  0.20750963244E+02  0.00000000000E+00 0. -1.
</event>
<event>
 8    1  0.6524083E-011  0.9118800E+02  0.7816164E-02  0.1184000E+00
        -11   -1    0    0    0    0  0.00000000000E+00  0.00000000000E+00  0.45593999997E+02  0.45594000000E+02  0.51100000000E-03 0. -1.
         11   -1    0    0    0    0 -0.00000000000E+00 -0.00000000000E+00 -0.45593999997E+02  0.45594000000E+02  0.51100000000E-03 0.  1.
         23    2    1    2    0    0  0.00000000000E+00  0.17763568394E-14 -0.71054273576E-14  0.91188000000E+02  0.91188000000E+02 0.  0.
    9900012    2    3    3    0    0  0.24367529907E+02  0.12327231143E+02  0.33732569081E+02  0.47787270073E+02  0.19999995571E+02 0.  0.
        -12    1    3    3    0    0 -0.24367529907E+02 -0.12327231143E+02 -0.33732569081E+02  0.43400729927E+02  0.00000000000E+00 0.  1.
         11    1    4    4    0    0  0.78128290030E+01  0.87017778650E+01  0.15972888794E+02  0.19796323187E+02  0.51100000000E-03 0. -1.
        -11    1    4    4    0    0 -0.17029605578E+01  0.12518900301E+01  0.54450117585E+01  0.58408438277E+01  0.51100000000E-03 0.  1.
        -12    1    4    4    0    0  0.18257661461E+02  0.23735632482E+01  0.12314668528E+02  0.22150103058E+02  0.00000000000E+00 0.  1.
</event>
<event>
 8    1  0.6524083E-011  0.9118800E+02  0.7816164E-02  0.1184000E+00
        -11   -1    0    0    0    0  0.00000000000E+00  0.00000000000E+00  0.45593999997E+02  0.45594000000E+02  0.51100000000E-03 0. -1.
         11   -1    0    0    0    0 -0.00000000000E+00 -0.00000000000E+00 -0.45593999997E+02  0.45594000000E+02  0.51100000000E-03 0.  1.
         23    2    1    2    0    0  0.00000000000E+00  0.00000000000E+00  0.00000000000E+00  0.91188000000E+02  0.91188000000E+02 0.  0.
    9900012    2    3    3    0    0  0.14856449324E+02  0.17102552649E+02  0.37019070525E+02  0.47787274474E+02  0.20000015637E+02 0.  0.
        -12    1    3    3    0    0 -0.14856449324E+02 -0.17102552649E+02 -0.37019070525E+02  0.43400725526E+02  0.00000000000E+00 0.  1.
         11    1    4    4    0    0  0.74525956899E+01  0.96704651782E+00  0.23352768910E+02  0.24532186562E+02  0.51100000000E-03 0. -1.
        -11    1    4    4    0    0 -0.50982548269E+00  0.36245360631E+00  0.20122034136E+01  0.21071918466E+01  0.51100000000E-03 0.  1.
        -12    1    4    4    0    0  0.79136791163E+01  0.15773052525E+02  0.11654098202E+02  0.21147896066E+02  0.00000000000E+00 0.  1.
</event>
<event>
 8    1  0.6524083E-011  0.9118800E+02  0.7816164E-02  0.1184000E+00
        -11   -1    0    0    0    0  0.00000000000E+00  0.00000000000E+00  0.45593999997E+02  0.45594000000E+02  0.51100000000E-03 0.  1.
         11   -1    0    0    0    0 -0.00000000000E+00 -0.00000000000E+00 -0.45593999997E+02  0.45594000000E+02  0.51100000000E-03 0. -1.
         23    2    1    2    0    0  0.00000000000E+00  0.00000000000E+00  0.35527136788E-14  0.91188000000E+02  0.91188000000E+02 0.  0.
    9900012    2    3    3    0    0  0.25631568726E+01  0.36739641855E+02  0.22961982007E+02  0.47787266429E+02  0.19999978957E+02 0.  0.
        -12    1    3    3    0    0 -0.25631568726E+01 -0.36739641855E+02 -0.22961982007E+02  0.43400733571E+02  0.00000000000E+00 0.  1.
         11    1    4    4    0    0 -0.18602508856E+01  0.13665571368E+02  0.30477501959E+01  0.14124346204E+02  0.51100000000E-03 0. -1.
        -11    1    4    4    0    0  0.60091081792E+01  0.25726225977E+01  0.40242464815E+01  0.76760880757E+01  0.51100000000E-03 0.  1.
         12    1    4    4    0    0 -0.15857004210E+01  0.20501447890E+02  0.15889985329E+02  0.25986832149E+02  0.00000000000E+00 0. -1.
</event>
<event>
 8    1  0.6524083E-011  0.9118800E+02  0.7816164E-02  0.1184000E+00
        -11   -1    0    0    0    0  0.00000000000E+00  0.00000000000E+00  0.45593999997E+02  0.45594000000E+02  0.51100000000E-03 0. -1.
         11   -1    0    0    0    0 -0.00000000000E+00 -0.00000000000E+00 -0.45593999997E+02  0.45594000000E+02  0.51100000000E-03 0.  1.
         23    2    1    2    0    0 -0.17763568394E-14  0.00000000000E+00  0.00000000000E+00  0.91188000000E+02  0.91188000000E+02 0.  0.
    9900012    2    3    3    0    0 -0.12710363201E+02 -0.16435791769E+02  0.38104259317E+02  0.47787272335E+02  0.20000005884E+02 0.  0.
        -12    1    3    3    0    0  0.12710363201E+02  0.16435791769E+02 -0.38104259317E+02  0.43400727665E+02  0.00000000000E+00 0.  1.
         11    1    4    4    0    0 -0.92061019749E+01 -0.13972699357E+02  0.36109835357E+02  0.39798352361E+02  0.51100000000E-03 0. -1.
        -11    1    4    4    0    0 -0.51988345643E+01 -0.29346668130E+01  0.16826529358E+01  0.62025374883E+01  0.51100000000E-03 0.  1.
        -12    1    4    4    0    0  0.16945733383E+01  0.47157440122E+00  0.31177102438E+00  0.17863824860E+01  0.00000000000E+00 0.  1.
</event>
<event>
 8    1  0.6524083E-011  0.9118800E+02  0.7816164E-02  0.1184000E+00
        -11   -1    0    0    0    0  0.00000000000E+00  0.00000000000E+00  0.45593999997E+02  0.45594000000E+02  0.51100000000E-03 0.  1.
         11   -1    0    0    0    0 -0.00000000000E+00 -0.00000000000E+00 -0.45593999997E+02  0.45594000000E+02  0.51100000000E-03 0. -1.
         23    2    1    2    0    0  0.00000000000E+00  0.00000000000E+00  0.00000000000E+00  0.91188000000E+02  0.91188000000E+02 0.  0.
    9900012    2    3    3    0    0  0.83318509771E+01  0.36264468044E+02  0.22340374393E+02  0.47787266006E+02  0.19999977028E+02 0.  0.
        -12    1    3    3    0    0 -0.83318509771E+01 -0.36264468044E+02 -0.22340374393E+02  0.43400733994E+02  0.00000000000E+00 0.  1.
         11    1    4    4    0    0  0.71828978922E+01  0.11760820823E+02  0.64146315849E+01  0.15200606146E+02  0.51100000000E-03 0. -1.
        -11    1    4    4    0    0  0.73383120903E+01  0.17978001674E+02  0.11418600700E+02  0.22526513506E+02  0.51100000000E-03 0.  1.
        -12    1    4    4    0    0 -0.61893590053E+01  0.65256455463E+01  0.45071421077E+01  0.10060146354E+02  0.00000000000E+00 0.  1.
</event>
<event>
 8    1  0.6524083E-011  0.9118800E+02  0.7816164E-02  0.1184000E+00
        -11   -1    0    0    0    0  0.00000000000E+00  0.00000000000E+00  0.45593999997E+02  0.45594000000E+02  0.51100000000E-03 0. -1.
         11   -1    0    0    0    0 -0.00000000000E+00 -0.00000000000E+00 -0.45593999997E+02  0.45594000000E+02  0.51100000000E-03 0.  1.
         23    2    1    2    0    0 -0.88817841970E-15  0.00000000000E+00  0.00000000000E+00  0.91188000000E+02  0.91188000000E+02 0.  0.
    9900012    2    3    3    0    0 -0.76304491059E+01 -0.29278125973E+02 -0.31115777214E+02  0.47787262614E+02  0.19999961562E+02 0.  0.
         12    1    3    3    0    0  0.76304491059E+01  0.29278125973E+02  0.31115777214E+02  0.43400737386E+02  0.00000000000E+00 0. -1.
         11    1    4    4    0    0 -0.58535240472E+01 -0.10602444368E+02 -0.93532867257E+01  0.15302272484E+02  0.51100000000E-03 0. -1.
        -11    1    4    4    0    0  0.32627453360E+01 -0.13650364101E+02 -0.21094275495E+02  0.25336661306E+02  0.51100000000E-03 0.  1.
        -12    1    4    4    0    0 -0.50396703947E+01 -0.50253175030E+01 -0.66821499349E+00  0.71483288237E+01  0.00000000000E+00 0.  1.
</event>
<event>
 8    1  0.6524083E-011  0.9118800E+02  0.7816164E-02  0.1184000E+00
        -11   -1    0    0    0    0  0.00000000000E+00  0.00000000000E+00  0.45593999997E+02  0.45594000000E+02  0.51100000000E-03 0. -1.
         11   -1    0    0    0    0 -0.00000000000E+00 -0.00000000000E+00 -0.45593999997E+02  0.45594000000E+02  0.51100000000E-03 0.  1.
         23    2    1    2    0    0  0.00000000000E+00  0.17763568394E-14  0.88817841970E-15  0.91188000000E+02  0.91188000000E+02 0.  0.
    9900012    2    3    3    0    0 -0.39643676182E+02 -0.15980681196E+02 -0.75246453282E+01  0.47787268209E+02  0.19999987071E+02 0.  0.
         12    1    3    3    0    0  0.39643676182E+02  0.15980681196E+02  0.75246453282E+01  0.43400731791E+02  0.00000000000E+00 0. -1.
         11    1    4    4    0    0 -0.12220161200E+02  0.16688713558E+01 -0.91524967153E+00  0.12367503935E+02  0.51100000000E-03 0. -1.
        -11    1    4    4    0    0 -0.13465609664E+02 -0.92966838050E+01 -0.94669520461E+01  0.18904342218E+02  0.51100000000E-03 0.  1.
         12    1    4    4    0    0 -0.13957905318E+02 -0.83528687468E+01  0.28575563894E+01  0.16515422056E+02  0.00000000000E+00 0. -1.
</event>
<event>
 8    1  0.6524083E-011  0.9118800E+02  0.7816164E-02  0.1184000E+00
        -11   -1    0    0    0    0  0.00000000000E+00  0.00000000000E+00  0.45593999997E+02  0.45594000000E+02  0.51100000000E-03 0. -1.
         11   -1    0    0    0    0 -0.00000000000E+00 -0.00000000000E+00 -0.45593999997E+02  0.45594000000E+02  0.51100000000E-03 0.  1.
         23    2    1    2    0    0 -0.35527136788E-14  0.00000000000E+00  0.00000000000E+00  0.91188000000E+02  0.91188000000E+02 0.  0.
    9900012    2    3    3    0    0  0.29122518267E+02 -0.15117577620E+02  0.28407056586E+02  0.47787273196E+02  0.20000009808E+02 0.  0.
        -12    1    3    3    0    0 -0.29122518267E+02  0.15117577620E+02 -0.28407056586E+02  0.43400726804E+02  0.00000000000E+00 0.  1.
         11    1    4    4    0    0  0.93391363125E+01  0.36422067995E+00  0.95598685526E+01  0.13369488052E+02  0.51100000000E-03 0. -1.
        -11    1    4    4    0    0  0.30994394491E+01  0.16784418084E+01  0.67167985662E+01  0.75854515385E+01  0.51100000000E-03 0.  1.
        -12    1    4    4    0    0  0.16683942505E+02 -0.17160240108E+02  0.12130389467E+02  0.26832333605E+02  0.00000000000E+00 0.  1.
</event>
<event>
 8    1  0.6524083E-011  0.9118800E+02  0.7816164E-02  0.1184000E+00
        -11   -1    0    0    0    0  0.00000000000E+00  0.00000000000E+00  0.45593999997E+02  0.45594000000E+02  0.51100000000E-03 0. -1.
         11   -1    0    0    0    0 -0.00000000000E+00 -0.00000000000E+00 -0.45593999997E+02  0.45594000000E+02  0.51100000000E-03 0.  1.
         23    2    1    2    0    0  0.00000000000E+00 -0.35527136788E-14  0.00000000000E+00  0.91188000000E+02  0.91188000000E+02 0.  0.
    9900012    2    3    3    0    0 -0.26029177014E+02 -0.20711343473E+02  0.27877317118E+02  0.47787278644E+02  0.20000034649E+02 0.  0.
        -12    1    3    3    0    0  0.26029177014E+02  0.20711343473E+02 -0.27877317118E+02  0.43400721356E+02  0.00000000000E+00 0.  1.
         11    1    4    4    0    0 -0.61786625257E+01 -0.23166072045E+01  0.43373150551E+01  0.78965081963E+01  0.51100000000E-03 0. -1.
        -11    1    4    4    0    0 -0.15679072399E+02 -0.19734246258E+02  0.12751679778E+02  0.28246754222E+02  0.51100000000E-03 0.  1.
         12    1    4    4    0    0 -0.41714420901E+01  0.13395099896E+01  0.10788322286E+02  0.11644016226E+02  0.00000000000E+00 0. -1.
</event>
<event>
 8    1  0.6524083E-011  0.9118800E+02  0.7816164E-02  0.1184000E+00
        -11   -1    0    0    0    0  0.00000000000E+00  0.00000000000E+00  0.45593999997E+02  0.45594000000E+02  0.51100000000E-03 0. -1.
         11   -1    0    0    0    0 -0.00000000000E+00 -0.00000000000E+00 -0.45593999997E+02  0.45594000000E+02  0.51100000000E-03 0.  1.
         23    2    1    2    0    0  0.35527136788E-14  0.17763568394E-14  0.00000000000E+00  0.91188000000E+02  0.91188000000E+02 0.  0.
    9900012    2    3    3    0    0 -0.21405312816E+02 -0.14411106676E+02  0.34896353622E+02  0.47787275254E+02  0.20000019191E+02 0.  0.
        -12    1    3    3    0    0  0.21405312816E+02  0.14411106676E+02 -0.34896353622E+02  0.43400724746E+02  0.00000000000E+00 0.  1.
         11    1    4    4    0    0 -0.37130672147E+01  0.28637158766E+00  0.15012348906E+01  0.40152936736E+01  0.51100000000E-03 0. -1.
        -11    1    4    4    0    0 -0.11132434734E+02 -0.12273424992E+02  0.32806732846E+02  0.36753908424E+02  0.51100000000E-03 0.  1.
        -12    1    4    4    0    0 -0.65598108675E+01 -0.24240532709E+01  0.58838588636E+00  0.70180731564E+01  0.00000000000E+00 0.  1.
</event>
<event>
 8    1  0.6524083E-011  0.9118800E+02  0.7816164E-02  0.1184000E+00
        -11   -1    0    0    0    0  0.00000000000E+00  0.00000000000E+00  0.45593999997E+02  0.45594000000E+02  0.51100000000E-03 0. -1.
         11   -1    0    0    0    0 -0.00000000000E+00 -0.00000000000E+00 -0.45593999997E+02  0.45594000000E+02  0.51100000000E-03 0.  1.
         23    2    1    2    0    0  0.00000000000E+00  0.00000000000E+00  0.71054273576E-14  0.91188000000E+02  0.91188000000E+02 0.  0.
    9900012    2    3    3    0    0 -0.15267454629E+01 -0.82891552744E+01 -0.42574431638E+02  0.47787271018E+02  0.19999999881E+02 0.  0.
         12    1    3    3    0    0  0.15267454629E+01  0.82891552744E+01  0.42574431638E+02  0.43400728982E+02  0.00000000000E+00 0. -1.
         11    1    4    4    0    0 -0.97039844367E+01 -0.38760771298E+01 -0.19968884609E+02  0.22537693774E+02  0.51100000000E-03 0. -1.
        -11    1    4    4    0    0  0.35270378559E+01  0.10929061083E+00 -0.14201596695E+02  0.14633430542E+02  0.51100000000E-03 0.  1.
        -12    1    4    4    0    0  0.46502011179E+01 -0.45223687555E+01 -0.84039503338E+01  0.10616146703E+02  0.00000000000E+00 0.  1.
</event>
<event>
 8    1  0.6524083E-011  0.9118800E+02  0.7816164E-02  0.1184000E+00
        -11   -1    0    0    0    0  0.00000000000E+00  0.00000000000E+00  0.45593999997E+02  0.45594000000E+02  0.51100000000E-03 0. -1.
         11   -1    0    0    0    0 -0.00000000000E+00 -0.00000000000E+00 -0.45593999997E+02  0.45594000000E+02  0.51100000000E-03 0.  1.
         23    2    1    2    0    0  0.00000000000E+00 -0.17763568394E-14  0.71054273576E-14  0.91188000000E+02  0.91188000000E+02 0.  0.
    9900012    2    3    3    0    0  0.39888878890E+01 -0.13837657422E+02  0.40941807445E+02  0.47787267444E+02  0.19999983585E+02 0.  0.
        -12    1    3    3    0    0 -0.39888878890E+01  0.13837657422E+02 -0.40941807445E+02  0.43400732556E+02  0.00000000000E+00 0.  1.
         11    1    4    4    0    0 -0.47824026541E+01 -0.12504222786E+02  0.28646679388E+02  0.31620550325E+02  0.51100000000E-03 0. -1.
        -11    1    4    4    0    0  0.55192818860E+01 -0.35437209168E+01  0.74154924543E+01  0.98999979330E+01  0.51100000000E-03 0.  1.
         12    1    4    4    0    0  0.32520086571E+01  0.22102862802E+01  0.48796356027E+01  0.62667191864E+01  0.00000000000E+00 0. -1.
</event>
<event>
 8    1  0.6524083E-011  0.9118800E+02  0.7816164E-02  0.1184000E+00
        -11   -1    0    0    0    0  0.00000000000E+00  0.00000000000E+00  0.45593999997E+02  0.45594000000E+02  0.51100000000E-03 0. -1.
         11   -1    0    0    0    0 -0.00000000000E+00 -0.00000000000E+00 -0.45593999997E+02  0.45594000000E+02  0.51100000000E-03 0.  1.
         23    2    1    2    0    0 -0.35527136788E-14  0.17763568394E-14 -0.71054273576E-14  0.91188000000E+02  0.91188000000E+02 0.  0.
    9900012    2    3    3    0    0  0.16618324268E+02 -0.10279086920E+02  0.38752997725E+02  0.47787272333E+02  0.20000005874E+02 0.  0.
        -12    1    3    3    0    0 -0.16618324268E+02  0.10279086920E+02 -0.38752997725E+02  0.43400727667E+02  0.00000000000E+00 0.  1.
         11    1    4    4    0    0  0.54141091311E+01 -0.43957296690E+01  0.51769299836E+00  0.69930696628E+01  0.51100000000E-03 0.  1.
        -11    1    4    4    0    0  0.46435082424E+01  0.70162817687E+00  0.16484566689E+02  0.17140460615E+02  0.51100000000E-03 0. -1.
        -12    1    4    4    0    0  0.65607068948E+01 -0.65849854282E+01  0.21750738037E+02  0.23653742055E+02  0.00000000000E+00 0.  1.
</event>
<event>
 8    1  0.6524083E-011  0.9118800E+02  0.7816164E-02  0.1184000E+00
        -11   -1    0    0    0    0  0.00000000000E+00  0.00000000000E+00  0.45593999997E+02  0.45594000000E+02  0.51100000000E-03 0. -1.
         11   -1    0    0    0    0 -0.00000000000E+00 -0.00000000000E+00 -0.45593999997E+02  0.45594000000E+02  0.51100000000E-03 0.  1.
         23    2    1    2    0    0  0.35527136788E-14  0.00000000000E+00  0.00000000000E+00  0.91188000000E+02  0.91188000000E+02 0.  0.
    9900012    2    3    3    0    0  0.19739762329E+02  0.19281145660E+02  0.33499290959E+02  0.47787270864E+02  0.19999999177E+02 0.  0.
        -12    1    3    3    0    0 -0.19739762329E+02 -0.19281145660E+02 -0.33499290959E+02  0.43400729136E+02  0.00000000000E+00 0.  1.
         11    1    4    4    0    0  0.21395312461E+00  0.71161041664E+01  0.47592609375E+01  0.85636020096E+01  0.51100000000E-03 0. -1.
        -11    1    4    4    0    0  0.92287681693E+01 -0.16195166249E+01  0.84155996651E+01  0.12594257184E+02  0.51100000000E-03 0.  1.
         12    1    4    4    0    0  0.10297041035E+02  0.13784558118E+02  0.20324430357E+02  0.26629411671E+02  0.00000000000E+00 0. -1.
</event>
<event>
 8    1  0.6524083E-011  0.9118800E+02  0.7816164E-02  0.1184000E+00
        -11   -1    0    0    0    0  0.00000000000E+00  0.00000000000E+00  0.45593999997E+02  0.45594000000E+02  0.51100000000E-03 0. -1.
         11   -1    0    0    0    0 -0.00000000000E+00 -0.00000000000E+00 -0.45593999997E+02  0.45594000000E+02  0.51100000000E-03 0.  1.
         23    2    1    2    0    0  0.17763568394E-14 -0.17763568394E-14  0.00000000000E+00  0.91188000000E+02  0.91188000000E+02 0.  0.
    9900012    2    3    3    0    0 -0.15230657973E+02  0.14211088188E+02 -0.38074855187E+02  0.47787279185E+02  0.20000037117E+02 0.  0.
         12    1    3    3    0    0  0.15230657973E+02 -0.14211088188E+02  0.38074855187E+02  0.43400720815E+02  0.00000000000E+00 0. -1.
         11    1    4    4    0    0 -0.35575292358E+00 -0.24657237088E+01 -0.61649115083E+01  0.66492471541E+01  0.51100000000E-03 0. -1.
        -11    1    4    4    0    0 -0.83410640314E+01  0.57224162185E+01 -0.48400190794E+01  0.11213615898E+02  0.51100000000E-03 0.  1.
        -12    1    4    4    0    0 -0.65338410179E+01  0.10954395678E+02 -0.27069924599E+02  0.29924416133E+02  0.00000000000E+00 0.  1.
</event>
<event>
 8    1  0.7021464E-011  0.9118800E+02  0.7816164E-02  0.1184000E+00
        -11   -1    0    0    0    0  0.00000000000E+00  0.00000000000E+00  0.45593999997E+02  0.45594000000E+02  0.51100000000E-03 0. -1.
         11   -1    0    0    0    0 -0.00000000000E+00 -0.00000000000E+00 -0.45593999997E+02  0.45594000000E+02  0.51100000000E-03 0.  1.
         23    2    1    2    0    0  0.00000000000E+00  0.44408920985E-15 -0.71054273576E-14  0.91188000000E+02  0.91188000000E+02 0.  0.
    9900012    2    3    3    0    0 -0.41709132789E+01 -0.22212432739E+01 -0.43142705089E+02  0.47787269112E+02  0.19999991188E+02 0.  0.
         12    1    3    3    0    0  0.41709132789E+01  0.22212432739E+01  0.43142705089E+02  0.43400730888E+02  0.00000000000E+00 0. -1.
         11    1    4    4    0    0 -0.17687780680E+01  0.28213540865E+00  0.72208816097E+00  0.19312140782E+01  0.51100000000E-03 0. -1.
        -11    1    4    4    0    0  0.28642824356E+01  0.20920116102E+01 -0.31111565904E+02  0.31313098852E+02  0.51100000000E-03 0.  1.
         12    1    4    4    0    0 -0.52664176466E+01 -0.45953902928E+01 -0.12753227346E+02  0.14542956182E+02  0.00000000000E+00 0. -1.
</event>
<event>
 8    1  0.6524083E-011  0.9118800E+02  0.7816164E-02  0.1184000E+00
        -11   -1    0    0    0    0  0.00000000000E+00  0.00000000000E+00  0.45593999997E+02  0.45594000000E+02  0.51100000000E-03 0.  1.
         11   -1    0    0    0    0 -0.00000000000E+00 -0.00000000000E+00 -0.45593999997E+02  0.45594000000E+02  0.51100000000E-03 0. -1.
         23    2    1    2    0    0  0.00000000000E+00  0.00000000000E+00 -0.17763568394E-14  0.91188000000E+02  0.91188000000E+02 0.  0.
    9900012    2    3    3    0    0  0.16654217284E+02  0.37339429185E+02  0.14561142103E+02  0.47787276681E+02  0.20000025701E+02 0.  0.
         12    1    3    3    0    0 -0.16654217284E+02 -0.37339429185E+02 -0.14561142103E+02  0.43400723319E+02  0.00000000000E+00 0. -1.
         11    1    4    4    0    0 -0.14134026984E+00  0.73551552417E+00 -0.20097380370E+01  0.21447627833E+01  0.51100000000E-03 0. -1.
        -11    1    4    4    0    0  0.77933965408E+01  0.19920670437E+02  0.15936696458E+02  0.26674865221E+02  0.51100000000E-03 0.  1.
         12    1    4    4    0    0  0.90021610130E+01  0.16683243224E+02  0.63418368194E+00  0.18967648677E+02  0.00000000000E+00 0. -1.
</event>
<event>
 8    1  0.6524083E-011  0.9118800E+02  0.7816164E-02  0.1184000E+00
        -11   -1    0    0    0    0  0.00000000000E+00  0.00000000000E+00  0.45593999997E+02  0.45594000000E+02  0.51100000000E-03 0. -1.
         11   -1    0    0    0    0 -0.00000000000E+00 -0.00000000000E+00 -0.45593999997E+02  0.45594000000E+02  0.51100000000E-03 0.  1.
         23    2    1    2    0    0 -0.35527136788E-14  0.00000000000E+00 -0.35527136788E-14  0.91188000000E+02  0.91188000000E+02 0.  0.
    9900012    2    3    3    0    0 -0.27336671276E+02 -0.12770555459E+02 -0.31196850041E+02  0.47787261116E+02  0.19999954731E+02 0.  0.
         12    1    3    3    0    0  0.27336671276E+02  0.12770555459E+02  0.31196850041E+02  0.43400738884E+02  0.00000000000E+00 0. -1.
         11    1    4    4    0    0 -0.22192954472E+02 -0.85923036926E+01 -0.29788246301E+02  0.38127346208E+02  0.51100000000E-03 0.  1.
        -11    1    4    4    0    0 -0.19587464820E+01 -0.55768469631E+01 -0.17506139300E+01  0.61646215799E+01  0.51100000000E-03 0. -1.
        -12    1    4    4    0    0 -0.31849703222E+01  0.13985951966E+01  0.34201018927E+00  0.34952933277E+01  0.00000000000E+00 0.  1.
</event>
<event>
 8    1  0.6524083E-011  0.9118800E+02  0.7816164E-02  0.1184000E+00
        -11   -1    0    0    0    0  0.00000000000E+00  0.00000000000E+00  0.45593999997E+02  0.45594000000E+02  0.51100000000E-03 0.  1.
         11   -1    0    0    0    0 -0.00000000000E+00 -0.00000000000E+00 -0.45593999997E+02  0.45594000000E+02  0.51100000000E-03 0. -1.
         23    2    1    2    0    0  0.71054273576E-14  0.35527136788E-14 -0.88817841970E-15  0.91188000000E+02  0.91188000000E+02 0.  0.
    9900012    2    3    3    0    0 -0.38343288436E+02 -0.19694773748E+02  0.50528836525E+01  0.47787268275E+02  0.19999987372E+02 0.  0.
        -12    1    3    3    0    0  0.38343288436E+02  0.19694773748E+02 -0.50528836525E+01  0.43400731725E+02  0.00000000000E+00 0.  1.
         11    1    4    4    0    0 -0.81335699458E+01 -0.86122271372E+01  0.43051550248E+01  0.12603958758E+02  0.51100000000E-03 0. -1.
        -11    1    4    4    0    0 -0.20445693441E+02 -0.68466096834E+01 -0.62457741911E+01  0.22447987436E+02  0.51100000000E-03 0.  1.
        -12    1    4    4    0    0 -0.97640250496E+01 -0.42359369270E+01  0.69935028187E+01  0.12735322081E+02  0.00000000000E+00 0.  1.
</event>
<event>
 8    1  0.6524083E-011  0.9118800E+02  0.7816164E-02  0.1184000E+00
        -11   -1    0    0    0    0  0.00000000000E+00  0.00000000000E+00  0.45593999997E+02  0.45594000000E+02  0.51100000000E-03 0. -1.
         11   -1    0    0    0    0 -0.00000000000E+00 -0.00000000000E+00 -0.45593999997E+02  0.45594000000E+02  0.51100000000E-03 0.  1.
         23    2    1    2    0    0 -0.35527136788E-14  0.00000000000E+00  0.00000000000E+00  0.91188000000E+02  0.91188000000E+02 0.  0.
    9900012    2    3    3    0    0 -0.22346915650E+02  0.12408182249E+02  0.35075302174E+02  0.47787257513E+02  0.19999938305E+02 0.  0.
        -12    1    3    3    0    0  0.22346915650E+02 -0.12408182249E+02 -0.35075302174E+02  0.43400742487E+02  0.00000000000E+00 0.  1.
         11    1    4    4    0    0 -0.12917317712E+01 -0.26586783746E+00  0.10026449230E+02  0.10112810742E+02  0.51100000000E-03 0. -1.
        -11    1    4    4    0    0 -0.94858113999E+01  0.10908796931E+01  0.26108584812E+01  0.98988493619E+01  0.51100000000E-03 0.  1.
        -12    1    4    4    0    0 -0.11569372479E+02  0.11583170393E+02  0.22437994463E+02  0.27775597409E+02  0.00000000000E+00 0.  1.
</event>
<event>
 8    1  0.6524083E-011  0.9118800E+02  0.7816164E-02  0.1184000E+00
        -11   -1    0    0    0    0  0.00000000000E+00  0.00000000000E+00  0.45593999997E+02  0.45594000000E+02  0.51100000000E-03 0. -1.
         11   -1    0    0    0    0 -0.00000000000E+00 -0.00000000000E+00 -0.45593999997E+02  0.45594000000E+02  0.51100000000E-03 0.  1.
         23    2    1    2    0    0 -0.35527136788E-14 -0.44408920985E-15  0.35527136788E-14  0.91188000000E+02  0.91188000000E+02 0.  0.
    9900012    2    3    3    0    0 -0.30539191854E+02  0.34906048791E+01 -0.30639789820E+02  0.47787270954E+02  0.19999999585E+02 0.  0.
         12    1    3    3    0    0  0.30539191854E+02 -0.34906048791E+01  0.30639789820E+02  0.43400729046E+02  0.00000000000E+00 0. -1.
         11    1    4    4    0    0 -0.28705565327E+00  0.10122806141E+01 -0.39329491187E+00  0.11232961046E+01  0.51100000000E-03 0. -1.
        -11    1    4    4    0    0 -0.17738179995E+02 -0.12534738267E+01 -0.53821221387E+01  0.18579059856E+02  0.51100000000E-03 0.  1.
         12    1    4    4    0    0 -0.12513956207E+02  0.37317980917E+01 -0.24864372770E+02  0.28084914993E+02  0.00000000000E+00 0. -1.
</event>
<event>
 8    1  0.6524083E-011  0.9118800E+02  0.7816164E-02  0.1184000E+00
        -11   -1    0    0    0    0  0.00000000000E+00  0.00000000000E+00  0.45593999997E+02  0.45594000000E+02  0.51100000000E-03 0. -1.
         11   -1    0    0    0    0 -0.00000000000E+00 -0.00000000000E+00 -0.45593999997E+02  0.45594000000E+02  0.51100000000E-03 0.  1.
         23    2    1    2    0    0  0.71054273576E-14  0.00000000000E+00  0.00000000000E+00  0.91188000000E+02  0.91188000000E+02 0.  0.
    9900012    2    3    3    0    0  0.42298796837E+02  0.80428607646E+01 -0.54541553524E+01  0.47787266898E+02  0.19999981096E+02 0.  0.
         12    1    3    3    0    0 -0.42298796837E+02 -0.80428607646E+01  0.54541553524E+01  0.43400733102E+02  0.00000000000E+00 0. -1.
         11    1    4    4    0    0  0.33200749194E+02  0.70811324432E+01  0.22026394038E+01  0.34018874236E+02  0.51100000000E-03 0. -1.
        -11    1    4    4    0    0  0.97717446798E+01 -0.34156094160E+00 -0.56837683595E+01  0.11309680853E+02  0.51100000000E-03 0.  1.
        -12    1    4    4    0    0 -0.67369703606E+00  0.13032892629E+01 -0.19730263967E+01  0.24587118093E+01  0.00000000000E+00 0.  1.
</event>
<event>
 8    1  0.6524083E-011  0.9118800E+02  0.7816164E-02  0.1184000E+00
        -11   -1    0    0    0    0  0.00000000000E+00  0.00000000000E+00  0.45593999997E+02  0.45594000000E+02  0.51100000000E-03 0. -1.
         11   -1    0    0    0    0 -0.00000000000E+00 -0.00000000000E+00 -0.45593999997E+02  0.45594000000E+02  0.51100000000E-03 0.  1.
         23    2    1    2    0    0  0.00000000000E+00 -0.88817841970E-15  0.00000000000E+00  0.91188000000E+02  0.91188000000E+02 0.  0.
    9900012    2    3    3    0    0 -0.59708161618E+01  0.52918520432E+01 -0.42661098038E+02  0.47787266947E+02  0.19999981320E+02 0.  0.
         12    1    3    3    0    0  0.59708161618E+01 -0.52918520432E+01  0.42661098038E+02  0.43400733053E+02  0.00000000000E+00 0. -1.
         11    1    4    4    0    0  0.31678599096E+01 -0.75667463452E+00 -0.19031013601E+02  0.19307702397E+02  0.51100000000E-03 0. -1.
        -11    1    4    4    0    0  0.22888892739E+01  0.27403021000E+01 -0.85941860599E+01  0.93063582566E+01  0.51100000000E-03 0.  1.
        -12    1    4    4    0    0 -0.11427565345E+02  0.33082245777E+01 -0.15035898377E+02  0.19173206294E+02  0.00000000000E+00 0.  1.
</event>
<event>
 8    1  0.6524083E-011  0.9118800E+02  0.7816164E-02  0.1184000E+00
        -11   -1    0    0    0    0  0.00000000000E+00  0.00000000000E+00  0.45593999997E+02  0.45594000000E+02  0.51100000000E-03 0. -1.
         11   -1    0    0    0    0 -0.00000000000E+00 -0.00000000000E+00 -0.45593999997E+02  0.45594000000E+02  0.51100000000E-03 0.  1.
         23    2    1    2    0    0  0.00000000000E+00 -0.22204460493E-15 -0.71054273576E-14  0.91188000000E+02  0.91188000000E+02 0.  0.
    9900012    2    3    3    0    0  0.17315667982E+02  0.10951927067E+01  0.39781796149E+02  0.47787272937E+02  0.20000008629E+02 0.  0.
        -12    1    3    3    0    0 -0.17315667982E+02 -0.10951927067E+01 -0.39781796149E+02  0.43400727063E+02  0.00000000000E+00 0.  1.
         11    1    4    4    0    0  0.12015289360E+02 -0.11059773444E+01  0.20531147103E+02  0.23814247120E+02  0.51100000000E-03 0. -1.
        -11    1    4    4    0    0  0.26009387543E+01 -0.31920744581E+01  0.34878441780E+00  0.41322962842E+01  0.51100000000E-03 0.  1.
         12    1    4    4    0    0  0.26994398678E+01  0.53932445092E+01  0.18901864629E+02  0.19840729532E+02  0.00000000000E+00 0. -1.
</event>
<event>
 8    1  0.6524083E-011  0.9118800E+02  0.7816164E-02  0.1184000E+00
        -11   -1    0    0    0    0  0.00000000000E+00  0.00000000000E+00  0.45593999997E+02  0.45594000000E+02  0.51100000000E-03 0. -1.
         11   -1    0    0    0    0 -0.00000000000E+00 -0.00000000000E+00 -0.45593999997E+02  0.45594000000E+02  0.51100000000E-03 0.  1.
         23    2    1    2    0    0  0.71054273576E-14  0.71054273576E-14 -0.71054273576E-14  0.91188000000E+02  0.91188000000E+02 0.  0.
    9900012    2    3    3    0    0 -0.18678295837E+02 -0.20717380014E+02  0.33249638299E+02  0.47787227921E+02  0.19999803383E+02 0.  0.
        -12    1    3    3    0    0  0.18678295837E+02  0.20717380014E+02 -0.33249638299E+02  0.43400772079E+02  0.00000000000E+00 0.  1.
         11    1    4    4    0    0 -0.83075336191E+01 -0.13048522477E+02  0.28838580397E+02  0.32725262004E+02  0.51100000000E-03 0. -1.
        -11    1    4    4    0    0 -0.86111925956E+01 -0.29490982732E+01  0.41893544551E+01  0.10020005467E+02  0.51100000000E-03 0.  1.
        -12    1    4    4    0    0 -0.17595696224E+01 -0.47197592635E+01  0.22170344686E+00  0.50419604501E+01  0.00000000000E+00 0.  1.
</event>
<event>
 8    1  0.6524083E-011  0.9118800E+02  0.7816164E-02  0.1184000E+00
        -11   -1    0    0    0    0  0.00000000000E+00  0.00000000000E+00  0.45593999997E+02  0.45594000000E+02  0.51100000000E-03 0. -1.
         11   -1    0    0    0    0 -0.00000000000E+00 -0.00000000000E+00 -0.45593999997E+02  0.45594000000E+02  0.51100000000E-03 0.  1.
         23    2    1    2    0    0 -0.17763568394E-14  0.00000000000E+00  0.00000000000E+00  0.91188000000E+02  0.91188000000E+02 0.  0.
    9900012    2    3    3    0    0 -0.11525700035E+02  0.36642158285E+02 -0.20202315956E+02  0.47787273104E+02  0.20000009392E+02 0.  0.
         12    1    3    3    0    0  0.11525700035E+02 -0.36642158285E+02  0.20202315956E+02  0.43400726896E+02  0.00000000000E+00 0. -1.
         11    1    4    4    0    0 -0.31055264822E+01  0.14512238278E+02  0.18828587096E+01  0.14959763091E+02  0.51100000000E-03 0. -1.
        -11    1    4    4    0    0 -0.98599421476E+00  0.95240617464E+01 -0.10034989872E+02  0.13870146313E+02  0.51100000000E-03 0.  1.
        -12    1    4    4    0    0 -0.74341793381E+01  0.12605858261E+02 -0.12050184793E+02  0.18957363701E+02  0.00000000000E+00 0.  1.
</event>
<event>
 8    1  0.6524083E-011  0.9118800E+02  0.7816164E-02  0.1184000E+00
        -11   -1    0    0    0    0  0.00000000000E+00  0.00000000000E+00  0.45593999997E+02  0.45594000000E+02  0.51100000000E-03 0. -1.
         11   -1    0    0    0    0 -0.00000000000E+00 -0.00000000000E+00 -0.45593999997E+02  0.45594000000E+02  0.51100000000E-03 0.  1.
         23    2    1    2    0    0  0.00000000000E+00 -0.71054273576E-14  0.00000000000E+00  0.91188000000E+02  0.91188000000E+02 0.  0.
    9900012    2    3    3    0    0  0.47352868572E+01  0.39415141122E+02  0.17539856339E+02  0.47787275909E+02  0.20000022178E+02 0.  0.
        -12    1    3    3    0    0 -0.47352868572E+01 -0.39415141122E+02 -0.17539856339E+02  0.43400724091E+02  0.00000000000E+00 0.  1.
         11    1    4    4    0    0  0.23992691428E+01  0.62189748519E+01  0.76468749740E+01  0.10144300752E+02  0.51100000000E-03 0.  1.
        -11    1    4    4    0    0 -0.26334256350E+01  0.74035422206E+00  0.30618361876E+01  0.41058368270E+01  0.51100000000E-03 0. -1.
        -12    1    4    4    0    0  0.49694433494E+01  0.32455812048E+02  0.68311451776E+01  0.33537138329E+02  0.00000000000E+00 0.  1.
</event>
<event>
 8    1  0.6524083E-011  0.9118800E+02  0.7816164E-02  0.1184000E+00
        -11   -1    0    0    0    0  0.00000000000E+00  0.00000000000E+00  0.45593999997E+02  0.45594000000E+02  0.51100000000E-03 0. -1.
         11   -1    0    0    0    0 -0.00000000000E+00 -0.00000000000E+00 -0.45593999997E+02  0.45594000000E+02  0.51100000000E-03 0.  1.
         23    2    1    2    0    0  0.00000000000E+00  0.35527136788E-14  0.35527136788E-14  0.91188000000E+02  0.91188000000E+02 0.  0.
    9900012    2    3    3    0    0 -0.27565355429E+02  0.22511427268E+02 -0.24839674333E+02  0.47787278824E+02  0.20000035472E+02 0.  0.
         12    1    3    3    0    0  0.27565355429E+02 -0.22511427268E+02  0.24839674333E+02  0.43400721176E+02  0.00000000000E+00 0. -1.
         11    1    4    4    0    0 -0.11350487327E+02  0.72788107255E+01 -0.60362513741E+01  0.14773319838E+02  0.51100000000E-03 0. -1.
        -11    1    4    4    0    0 -0.18661160290E+02  0.95877119271E+01 -0.14313939469E+02  0.25397873666E+02  0.51100000000E-03 0.  1.
        -12    1    4    4    0    0  0.24462921881E+01  0.56449046159E+01 -0.44894834896E+01  0.76160853196E+01  0.00000000000E+00 0.  1.
</event>
<event>
 8    1  0.6524083E-011  0.9118800E+02  0.7816164E-02  0.1184000E+00
        -11   -1    0    0    0    0  0.00000000000E+00  0.00000000000E+00  0.45593999997E+02  0.45594000000E+02  0.51100000000E-03 0. -1.
         11   -1    0    0    0    0 -0.00000000000E+00 -0.00000000000E+00 -0.45593999997E+02  0.45594000000E+02  0.51100000000E-03 0.  1.
         23    2    1    2    0    0  0.00000000000E+00 -0.35527136788E-14 -0.35527136788E-14  0.91188000000E+02  0.91188000000E+02 0.  0.
    9900012    2    3    3    0    0 -0.21659966742E+02  0.26426724075E+02 -0.26760003837E+02  0.47787266021E+02  0.19999977095E+02 0.  0.
         12    1    3    3    0    0  0.21659966742E+02 -0.26426724075E+02  0.26760003837E+02  0.43400733979E+02  0.00000000000E+00 0. -1.
         11    1    4    4    0    0 -0.99443446261E+01  0.15108981484E+02 -0.11012355551E+02  0.21176479561E+02  0.51100000000E-03 0.  1.
        -11    1    4    4    0    0  0.25120092605E+01  0.43997822344E+01 -0.66534829216E+01  0.83628409936E+01  0.51100000000E-03 0. -1.
        -12    1    4    4    0    0 -0.14227631377E+02  0.69179603558E+01 -0.90941653644E+01  0.18247945466E+02  0.00000000000E+00 0.  1.
</event>
<event>
 8    1  0.6524083E-011  0.9118800E+02  0.7816164E-02  0.1184000E+00
        -11   -1    0    0    0    0  0.00000000000E+00  0.00000000000E+00  0.45593999997E+02  0.45594000000E+02  0.51100000000E-03 0. -1.
         11   -1    0    0    0    0 -0.00000000000E+00 -0.00000000000E+00 -0.45593999997E+02  0.45594000000E+02  0.51100000000E-03 0.  1.
         23    2    1    2    0    0  0.00000000000E+00 -0.35527136788E-14 -0.35527136788E-14  0.91188000000E+02  0.91188000000E+02 0.  0.
    9900012    2    3    3    0    0  0.20786710406E+02 -0.26225159037E+02 -0.27636513174E+02  0.47787272397E+02  0.20000006167E+02 0.  0.
         12    1    3    3    0    0 -0.20786710406E+02  0.26225159037E+02  0.27636513174E+02  0.43400727603E+02  0.00000000000E+00 0. -1.
         11    1    4    4    0    0  0.75341604944E+01 -0.99959506565E+01 -0.44356063507E+01  0.13279955114E+02  0.51100000000E-03 0. -1.
        -11    1    4    4    0    0  0.12133381291E+02 -0.11801408797E+02 -0.81639095269E+01  0.18792062425E+02  0.51100000000E-03 0.  1.
        -12    1    4    4    0    0  0.11191686210E+01 -0.44277995836E+01 -0.15036997296E+02  0.15715254858E+02  0.00000000000E+00 0.  1.
</event>
<event>
 8    1  0.6524083E-011  0.9118800E+02  0.7816164E-02  0.1184000E+00
        -11   -1    0    0    0    0  0.00000000000E+00  0.00000000000E+00  0.45593999997E+02  0.45594000000E+02  0.51100000000E-03 0. -1.
         11   -1    0    0    0    0 -0.00000000000E+00 -0.00000000000E+00 -0.45593999997E+02  0.45594000000E+02  0.51100000000E-03 0.  1.
         23    2    1    2    0    0  0.00000000000E+00 -0.13322676296E-14  0.00000000000E+00  0.91188000000E+02  0.91188000000E+02 0.  0.
    9900012    2    3    3    0    0 -0.14250063077E+02  0.17124801416E+01 -0.40958836689E+02  0.47787272024E+02  0.20000004466E+02 0.  0.
         12    1    3    3    0    0  0.14250063077E+02 -0.17124801416E+01  0.40958836689E+02  0.43400727976E+02  0.00000000000E+00 0. -1.
         11    1    4    4    0    0 -0.66102450477E+01  0.22432816354E+01 -0.84145123949E+01  0.10933054065E+02  0.51100000000E-03 0. -1.
        -11    1    4    4    0    0 -0.12347519504E+01 -0.72802460472E+01 -0.19331608512E+02  0.20693904485E+02  0.51100000000E-03 0.  1.
        -12    1    4    4    0    0 -0.64050660786E+01  0.67494445534E+01 -0.13212715782E+02  0.16160313474E+02  0.00000000000E+00 0.  1.
</event>
<event>
 8    1  0.6524083E-011  0.9118800E+02  0.7816164E-02  0.1184000E+00
        -11   -1    0    0    0    0  0.00000000000E+00  0.00000000000E+00  0.45593999997E+02  0.45594000000E+02  0.51100000000E-03 0. -1.
         11   -1    0    0    0    0 -0.00000000000E+00 -0.00000000000E+00 -0.45593999997E+02  0.45594000000E+02  0.51100000000E-03 0.  1.
         23    2    1    2    0    0  0.17763568394E-14  0.35527136788E-14  0.00000000000E+00  0.91188000000E+02  0.91188000000E+02 0.  0.
    9900012    2    3    3    0    0  0.11471936914E+02 -0.21933172431E+02  0.35650430938E+02  0.47787278629E+02  0.20000034583E+02 0.  0.
        -12    1    3    3    0    0 -0.11471936914E+02  0.21933172431E+02 -0.35650430938E+02  0.43400721371E+02  0.00000000000E+00 0.  1.
         11    1    4    4    0    0  0.12754771524E+02 -0.10422768163E+02  0.25846874327E+02  0.30649293720E+02  0.51100000000E-03 0. -1.
        -11    1    4    4    0    0 -0.28024063221E+01 -0.17542733754E+01  0.53888098409E+01  0.63222012015E+01  0.51100000000E-03 0.  1.
         12    1    4    4    0    0  0.15195717128E+01 -0.97561308920E+01  0.44147467695E+01  0.10815783708E+02  0.00000000000E+00 0. -1.
</event>
<event>
 8    1  0.6524083E-011  0.9118800E+02  0.7816164E-02  0.1184000E+00
        -11   -1    0    0    0    0  0.00000000000E+00  0.00000000000E+00  0.45593999997E+02  0.45594000000E+02  0.51100000000E-03 0. -1.
         11   -1    0    0    0    0 -0.00000000000E+00 -0.00000000000E+00 -0.45593999997E+02  0.45594000000E+02  0.51100000000E-03 0.  1.
         23    2    1    2    0    0 -0.13322676296E-14  0.00000000000E+00 -0.71054273576E-14  0.91188000000E+02  0.91188000000E+02 0.  0.
    9900012    2    3    3    0    0  0.25452810720E+01 -0.84501419752E+01  0.42493999037E+02  0.47787270636E+02  0.19999998139E+02 0.  0.
        -12    1    3    3    0    0 -0.25452810720E+01  0.84501419752E+01 -0.42493999037E+02  0.43400729364E+02  0.00000000000E+00 0.  1.
         11    1    4    4    0    0  0.27523049404E+01 -0.55779582416E+01  0.17366755511E+02  0.18447032224E+02  0.51100000000E-03 0. -1.
        -11    1    4    4    0    0  0.51078778658E+01 -0.51887516115E+01  0.20991838295E+02  0.22218704616E+02  0.51100000000E-03 0.  1.
        -12    1    4    4    0    0 -0.53149017342E+01  0.23165678779E+01  0.41354052313E+01  0.71215337957E+01  0.00000000000E+00 0.  1.
</event>
<event>
 8    1  0.6524083E-011  0.9118800E+02  0.7816164E-02  0.1184000E+00
        -11   -1    0    0    0    0  0.00000000000E+00  0.00000000000E+00  0.45593999997E+02  0.45594000000E+02  0.51100000000E-03 0. -1.
         11   -1    0    0    0    0 -0.00000000000E+00 -0.00000000000E+00 -0.45593999997E+02  0.45594000000E+02  0.51100000000E-03 0.  1.
         23    2    1    2    0    0  0.00000000000E+00  0.00000000000E+00  0.88817841970E-15  0.91188000000E+02  0.91188000000E+02 0.  0.
    9900012    2    3    3    0    0 -0.41698949988E+02 -0.94640269638E+01 -0.74331818392E+01  0.47787280781E+02  0.20000044393E+02 0.  0.
         12    1    3    3    0    0  0.41698949988E+02  0.94640269638E+01  0.74331818392E+01  0.43400719219E+02  0.00000000000E+00 0. -1.
         11    1    4    4    0    0 -0.12990136974E+02 -0.17702596182E+01 -0.77758202713E+01  0.15242731345E+02  0.51100000000E-03 0. -1.
        -11    1    4    4    0    0  0.10299349231E+01 -0.72294884279E+00 -0.14833772503E+01  0.19452067507E+01  0.51100000000E-03 0.  1.
        -12    1    4    4    0    0 -0.29738747937E+02 -0.69708185029E+01  0.18260156825E+01  0.30599342685E+02  0.00000000000E+00 0.  1.
</event>
<event>
 8    1  0.6524083E-011  0.9118800E+02  0.7816164E-02  0.1184000E+00
        -11   -1    0    0    0    0  0.00000000000E+00  0.00000000000E+00  0.45593999997E+02  0.45594000000E+02  0.51100000000E-03 0.  1.
         11   -1    0    0    0    0 -0.00000000000E+00 -0.00000000000E+00 -0.45593999997E+02  0.45594000000E+02  0.51100000000E-03 0. -1.
         23    2    1    2    0    0  0.00000000000E+00  0.00000000000E+00 -0.35527136788E-14  0.91188000000E+02  0.91188000000E+02 0.  0.
    9900012    2    3    3    0    0  0.20830517903E+02  0.22848614843E+02  0.30457414958E+02  0.47787264957E+02  0.19999972246E+02 0.  0.
        -12    1    3    3    0    0 -0.20830517903E+02 -0.22848614843E+02 -0.30457414958E+02  0.43400735043E+02  0.00000000000E+00 0.  1.
         11    1    4    4    0    0  0.17628858378E+02  0.14668155302E+02  0.17879368969E+02  0.29079258290E+02  0.51100000000E-03 0. -1.
        -11    1    4    4    0    0  0.84252077861E+00  0.82774325617E+01  0.30020668630E+01  0.88452324326E+01  0.51100000000E-03 0.  1.
        -12    1    4    4    0    0  0.23591387459E+01 -0.96973020844E-01  0.95759791259E+01  0.98627742349E+01  0.00000000000E+00 0.  1.
</event>
<event>
 8    1  0.6524083E-011  0.9118800E+02  0.7816164E-02  0.1184000E+00
        -11   -1    0    0    0    0  0.00000000000E+00  0.00000000000E+00  0.45593999997E+02  0.45594000000E+02  0.51100000000E-03 0. -1.
         11   -1    0    0    0    0 -0.00000000000E+00 -0.00000000000E+00 -0.45593999997E+02  0.45594000000E+02  0.51100000000E-03 0.  1.
         23    2    1    2    0    0  0.17763568394E-14 -0.35527136788E-14  0.00000000000E+00  0.91188000000E+02  0.91188000000E+02 0.  0.
    9900012    2    3    3    0    0  0.12949785016E+02 -0.24096670991E+02 -0.33693916534E+02  0.47787233921E+02  0.19999830741E+02 0.  0.
         12    1    3    3    0    0 -0.12949785016E+02  0.24096670991E+02  0.33693916534E+02  0.43400766079E+02  0.00000000000E+00 0. -1.
         11    1    4    4    0    0  0.11504360461E+02 -0.10826616225E+02 -0.13353954985E+02  0.20685599882E+02  0.51100000000E-03 0. -1.
        -11    1    4    4    0    0  0.28491725567E+01 -0.71712537151E+01 -0.19263378871E+02  0.20751444043E+02  0.51100000000E-03 0.  1.
         12    1    4    4    0    0 -0.14037480016E+01 -0.60988010514E+01 -0.10765826781E+01  0.63501899955E+01  0.00000000000E+00 0. -1.
</event>
<event>
 8    1  0.6524083E-011  0.9118800E+02  0.7816164E-02  0.1184000E+00
        -11   -1    0    0    0    0  0.00000000000E+00  0.00000000000E+00  0.45593999997E+02  0.45594000000E+02  0.51100000000E-03 0.  1.
         11   -1    0    0    0    0 -0.00000000000E+00 -0.00000000000E+00 -0.45593999997E+02  0.45594000000E+02  0.51100000000E-03 0. -1.
         23    2    1    2    0    0 -0.35527136788E-14  0.00000000000E+00  0.00000000000E+00  0.91188000000E+02  0.91188000000E+02 0.  0.
    9900012    2    3    3    0    0  0.31661782023E+02  0.23038100518E+02 -0.18718995812E+02  0.47787270507E+02  0.19999997548E+02 0.  0.
        -12    1    3    3    0    0 -0.31661782023E+02 -0.23038100518E+02  0.18718995812E+02  0.43400729493E+02  0.00000000000E+00 0.  1.
         11    1    4    4    0    0  0.40317708939E+01  0.10990475251E+02 -0.79081238903E+01  0.14127425332E+02  0.51100000000E-03 0. -1.
        -11    1    4    4    0    0  0.78338833867E+01 -0.13816968211E+01 -0.26362392085E+01  0.83802489490E+01  0.51100000000E-03 0.  1.
         12    1    4    4    0    0  0.19796127742E+02  0.13429322088E+02 -0.81746327134E+01  0.25279596226E+02  0.00000000000E+00 0. -1.
</event>
<event>
 8    1  0.6524083E-011  0.9118800E+02  0.7816164E-02  0.1184000E+00
        -11   -1    0    0    0    0  0.00000000000E+00  0.00000000000E+00  0.45593999997E+02  0.45594000000E+02  0.51100000000E-03 0. -1.
         11   -1    0    0    0    0 -0.00000000000E+00 -0.00000000000E+00 -0.45593999997E+02  0.45594000000E+02  0.51100000000E-03 0.  1.
         23    2    1    2    0    0  0.00000000000E+00  0.35527136788E-14  0.00000000000E+00  0.91188000000E+02  0.91188000000E+02 0.  0.
    9900012    2    3    3    0    0  0.34555350653E+01  0.25395549926E+02  0.35024969695E+02  0.47787272117E+02  0.20000004890E+02 0.  0.
        -12    1    3    3    0    0 -0.34555350653E+01 -0.25395549926E+02 -0.35024969695E+02  0.43400727883E+02  0.00000000000E+00 0.  1.
         11    1    4    4    0    0  0.12561373313E+00  0.10883748014E+02  0.27623491879E+02  0.29690554955E+02  0.51100000000E-03 0. -1.
        -11    1    4    4    0    0  0.37207064883E+01  0.10529854532E+02  0.83983501756E+01  0.13973323841E+02  0.51100000000E-03 0.  1.
        -12    1    4    4    0    0 -0.39078515607E+00  0.39819473801E+01 -0.99687236027E+00  0.41233933209E+01  0.00000000000E+00 0.  1.
</event>
<event>
 8    1  0.6524083E-011  0.9118800E+02  0.7816164E-02  0.1184000E+00
        -11   -1    0    0    0    0  0.00000000000E+00  0.00000000000E+00  0.45593999997E+02  0.45594000000E+02  0.51100000000E-03 0. -1.
         11   -1    0    0    0    0 -0.00000000000E+00 -0.00000000000E+00 -0.45593999997E+02  0.45594000000E+02  0.51100000000E-03 0.  1.
         23    2    1    2    0    0  0.17763568394E-14  0.00000000000E+00  0.00000000000E+00  0.91188000000E+02  0.91188000000E+02 0.  0.
    9900012    2    3    3    0    0 -0.15793098146E+02  0.37543343325E+01  0.40250540180E+02  0.47787274659E+02  0.20000016480E+02 0.  0.
        -12    1    3    3    0    0  0.15793098146E+02 -0.37543343325E+01 -0.40250540180E+02  0.43400725341E+02  0.00000000000E+00 0.  1.
         11    1    4    4    0    0 -0.41766900629E+01  0.78864312992E+00  0.45722569503E+01  0.62427743631E+01  0.51100000000E-03 0. -1.
        -11    1    4    4    0    0 -0.25035138498E+00  0.65848035468E+01  0.40330760779E+01  0.77258019957E+01  0.51100000000E-03 0.  1.
         12    1    4    4    0    0 -0.11366056698E+02 -0.36191123442E+01  0.31645207152E+02  0.33818698300E+02  0.00000000000E+00 0. -1.
</event>
<event>
 8    1  0.6524083E-011  0.9118800E+02  0.7816164E-02  0.1184000E+00
        -11   -1    0    0    0    0  0.00000000000E+00  0.00000000000E+00  0.45593999997E+02  0.45594000000E+02  0.51100000000E-03 0. -1.
         11   -1    0    0    0    0 -0.00000000000E+00 -0.00000000000E+00 -0.45593999997E+02  0.45594000000E+02  0.51100000000E-03 0.  1.
         23    2    1    2    0    0  0.00000000000E+00  0.00000000000E+00  0.00000000000E+00  0.91188000000E+02  0.91188000000E+02 0.  0.
    9900012    2    3    3    0    0  0.15450335819E+02  0.74527707352E+01  0.39866868213E+02  0.47787264411E+02  0.19999969756E+02 0.  0.
        -12    1    3    3    0    0 -0.15450335819E+02 -0.74527707352E+01 -0.39866868213E+02  0.43400735589E+02  0.00000000000E+00 0.  1.
         11    1    4    4    0    0  0.25787503689E+01  0.73487168039E+01  0.75093827366E+01  0.10818707015E+02  0.51100000000E-03 0.  1.
        -11    1    4    4    0    0  0.13793153627E+02  0.12599845255E+01  0.32645711966E+02  0.35462390754E+02  0.51100000000E-03 0. -1.
         12    1    4    4    0    0 -0.92156817664E+00 -0.11559305942E+01 -0.28822648991E+00  0.15061666416E+01  0.00000000000E+00 0. -1.
</event>
<event>
 8    1  0.6524083E-011  0.9118800E+02  0.7816164E-02  0.1184000E+00
        -11   -1    0    0    0    0  0.00000000000E+00  0.00000000000E+00  0.45593999997E+02  0.45594000000E+02  0.51100000000E-03 0. -1.
         11   -1    0    0    0    0 -0.00000000000E+00 -0.00000000000E+00 -0.45593999997E+02  0.45594000000E+02  0.51100000000E-03 0.  1.
         23    2    1    2    0    0  0.00000000000E+00  0.17763568394E-14  0.00000000000E+00  0.91188000000E+02  0.91188000000E+02 0.  0.
    9900012    2    3    3    0    0 -0.32144367350E+02 -0.15521060380E+02  0.24687234021E+02  0.47787271996E+02  0.20000004339E+02 0.  0.
        -12    1    3    3    0    0  0.32144367350E+02  0.15521060380E+02 -0.24687234021E+02  0.43400728004E+02  0.00000000000E+00 0.  1.
         11    1    4    4    0    0 -0.13802053784E+02 -0.26904976147E+01  0.12176674570E+02  0.18601259902E+02  0.51100000000E-03 0. -1.
        -11    1    4    4    0    0 -0.43818864137E+01 -0.81870320804E+00 -0.27761368989E+01  0.52514892962E+01  0.51100000000E-03 0.  1.
         12    1    4    4    0    0 -0.13960427152E+02 -0.12011859558E+02  0.15286696349E+02  0.23934522798E+02  0.00000000000E+00 0. -1.
</event>
<event>
 8    1  0.6524083E-011  0.9118800E+02  0.7816164E-02  0.1184000E+00
        -11   -1    0    0    0    0  0.00000000000E+00  0.00000000000E+00  0.45593999997E+02  0.45594000000E+02  0.51100000000E-03 0. -1.
         11   -1    0    0    0    0 -0.00000000000E+00 -0.00000000000E+00 -0.45593999997E+02  0.45594000000E+02  0.51100000000E-03 0.  1.
         23    2    1    2    0    0  0.17763568394E-14  0.00000000000E+00  0.00000000000E+00  0.91188000000E+02  0.91188000000E+02 0.  0.
    9900012    2    3    3    0    0 -0.13477370201E+02  0.12125081024E+02 -0.39433060468E+02  0.47787270107E+02  0.19999995724E+02 0.  0.
         12    1    3    3    0    0  0.13477370201E+02 -0.12125081024E+02  0.39433060468E+02  0.43400729893E+02  0.00000000000E+00 0. -1.
         11    1    4    4    0    0  0.39625050110E+00  0.65363628741E+01 -0.37261860985E+01  0.75342894279E+01  0.51100000000E-03 0. -1.
        -11    1    4    4    0    0 -0.11917475647E+02  0.71411455403E+01 -0.20019440447E+02  0.24368015543E+02  0.51100000000E-03 0.  1.
        -12    1    4    4    0    0 -0.19561450551E+01 -0.15524273906E+01 -0.15687433923E+02  0.15884965136E+02  0.00000000000E+00 0.  1.
</event>
<event>
 8    1  0.6524083E-011  0.9118800E+02  0.7816164E-02  0.1184000E+00
        -11   -1    0    0    0    0  0.00000000000E+00  0.00000000000E+00  0.45593999997E+02  0.45594000000E+02  0.51100000000E-03 0. -1.
         11   -1    0    0    0    0 -0.00000000000E+00 -0.00000000000E+00 -0.45593999997E+02  0.45594000000E+02  0.51100000000E-03 0.  1.
         23    2    1    2    0    0  0.71054273576E-14 -0.66613381478E-15 -0.35527136788E-14  0.91188000000E+02  0.91188000000E+02 0.  0.
    9900012    2    3    3    0    0  0.31366205182E+02 -0.12917671843E+01 -0.29968579468E+02  0.47787271374E+02  0.20000001501E+02 0.  0.
         12    1    3    3    0    0 -0.31366205182E+02  0.12917671843E+01  0.29968579468E+02  0.43400728626E+02  0.00000000000E+00 0. -1.
         11    1    4    4    0    0  0.29906509088E+01 -0.49783189732E+00  0.97191157487E+00  0.31837779173E+01  0.51100000000E-03 0. -1.
        -11    1    4    4    0    0  0.15539341509E+02  0.64127340273E+01 -0.20723797356E+02  0.26684641076E+02  0.51100000000E-03 0.  1.
        -12    1    4    4    0    0  0.12836212765E+02 -0.72066693142E+01 -0.10216693686E+02  0.17918852380E+02  0.00000000000E+00 0.  1.
</event>
<event>
 8    1  0.6524083E-011  0.9118800E+02  0.7816164E-02  0.1184000E+00
        -11   -1    0    0    0    0  0.00000000000E+00  0.00000000000E+00  0.45593999997E+02  0.45594000000E+02  0.51100000000E-03 0. -1.
         11   -1    0    0    0    0 -0.00000000000E+00 -0.00000000000E+00 -0.45593999997E+02  0.45594000000E+02  0.51100000000E-03 0.  1.
         23    2    1    2    0    0  0.35527136788E-14 -0.35527136788E-14  0.00000000000E+00  0.91188000000E+02  0.91188000000E+02 0.  0.
    9900012    2    3    3    0    0 -0.23047569203E+02  0.21161755262E+02  0.30076746974E+02  0.47787296774E+02  0.20000117312E+02 0.  0.
        -12    1    3    3    0    0  0.23047569203E+02 -0.21161755262E+02 -0.30076746974E+02  0.43400703226E+02  0.00000000000E+00 0.  1.
         11    1    4    4    0    0 -0.14868366028E+02  0.71887492203E+01  0.73119286123E+01  0.18061304604E+02  0.51100000000E-03 0. -1.
        -11    1    4    4    0    0 -0.60216805726E+01  0.39761761614E+01  0.37425083256E+01  0.81287749762E+01  0.51100000000E-03 0.  1.
        -12    1    4    4    0    0 -0.21575226031E+01  0.99968298799E+01  0.19022310036E+02  0.21597217195E+02  0.00000000000E+00 0.  1.
</event>
<event>
 8    1  0.6524083E-011  0.9118800E+02  0.7816164E-02  0.1184000E+00
        -11   -1    0    0    0    0  0.00000000000E+00  0.00000000000E+00  0.45593999997E+02  0.45594000000E+02  0.51100000000E-03 0. -1.
         11   -1    0    0    0    0 -0.00000000000E+00 -0.00000000000E+00 -0.45593999997E+02  0.45594000000E+02  0.51100000000E-03 0.  1.
         23    2    1    2    0    0 -0.71054273576E-14 -0.88817841970E-15 -0.35527136788E-14  0.91188000000E+02  0.91188000000E+02 0.  0.
    9900012    2    3    3    0    0  0.39490515293E+02  0.68736959976E+01  0.16639533580E+02  0.47787279124E+02  0.20000036838E+02 0.  0.
        -12    1    3    3    0    0 -0.39490515293E+02 -0.68736959976E+01 -0.16639533580E+02  0.43400720876E+02  0.00000000000E+00 0.  1.
         11    1    4    4    0    0  0.18101515173E+01 -0.25432360571E+00  0.39746711827E+01  0.43748531728E+01  0.51100000000E-03 0. -1.
        -11    1    4    4    0    0  0.21339158551E+02  0.82503453643E+01  0.28451679774E+00  0.22880315478E+02  0.51100000000E-03 0.  1.
        -12    1    4    4    0    0  0.16341205225E+02 -0.11223257610E+01  0.12380345599E+02  0.20532110473E+02  0.00000000000E+00 0.  1.
</event>
<event>
 8    1  0.6524083E-011  0.9118800E+02  0.7816164E-02  0.1184000E+00
        -11   -1    0    0    0    0  0.00000000000E+00  0.00000000000E+00  0.45593999997E+02  0.45594000000E+02  0.51100000000E-03 0. -1.
         11   -1    0    0    0    0 -0.00000000000E+00 -0.00000000000E+00 -0.45593999997E+02  0.45594000000E+02  0.51100000000E-03 0.  1.
         23    2    1    2    0    0  0.00000000000E+00  0.35527136788E-14  0.00000000000E+00  0.91188000000E+02  0.91188000000E+02 0.  0.
    9900012    2    3    3    0    0 -0.40618739852E+01 -0.11545058779E+02  0.41639359247E+02  0.47787269120E+02  0.19999991224E+02 0.  0.
        -12    1    3    3    0    0  0.40618739852E+01  0.11545058779E+02 -0.41639359247E+02  0.43400730880E+02  0.00000000000E+00 0.  1.
         11    1    4    4    0    0 -0.67921585335E+01 -0.72696409135E+01  0.25212418546E+02  0.27104375030E+02  0.51100000000E-03 0. -1.
        -11    1    4    4    0    0  0.48634854915E+01 -0.70382040946E+01  0.14084803128E+02  0.16479426186E+02  0.51100000000E-03 0.  1.
        -12    1    4    4    0    0 -0.21332009433E+01  0.27627862286E+01  0.23421375722E+01  0.42034679036E+01  0.00000000000E+00 0.  1.
</event>
<event>
 8    1  0.6524083E-011  0.9118800E+02  0.7816164E-02  0.1184000E+00
        -11   -1    0    0    0    0  0.00000000000E+00  0.00000000000E+00  0.45593999997E+02  0.45594000000E+02  0.51100000000E-03 0. -1.
         11   -1    0    0    0    0 -0.00000000000E+00 -0.00000000000E+00 -0.45593999997E+02  0.45594000000E+02  0.51100000000E-03 0.  1.
         23    2    1    2    0    0  0.00000000000E+00  0.00000000000E+00 -0.88817841970E-15  0.91188000000E+02  0.91188000000E+02 0.  0.
    9900012    2    3    3    0    0 -0.24589752250E+02  0.34969200409E+02 -0.74914792398E+01  0.47787272424E+02  0.20000006289E+02 0.  0.
         12    1    3    3    0    0  0.24589752250E+02 -0.34969200409E+02  0.74914792398E+01  0.43400727576E+02  0.00000000000E+00 0. -1.
         11    1    4    4    0    0  0.14609216601E+01  0.88072246973E+01  0.49900538322E+00  0.89415046609E+01  0.51100000000E-03 0.  1.
        -11    1    4    4    0    0 -0.83970198261E+01  0.40571161842E+01  0.41276075799E+00  0.93349078944E+01  0.51100000000E-03 0. -1.
        -12    1    4    4    0    0 -0.17653654084E+02  0.22104859527E+02 -0.84032453810E+01  0.29510859868E+02  0.00000000000E+00 0.  1.
</event>
<event>
 8    1  0.6524083E-011  0.9118800E+02  0.7816164E-02  0.1184000E+00
        -11   -1    0    0    0    0  0.00000000000E+00  0.00000000000E+00  0.45593999997E+02  0.45594000000E+02  0.51100000000E-03 0. -1.
         11   -1    0    0    0    0 -0.00000000000E+00 -0.00000000000E+00 -0.45593999997E+02  0.45594000000E+02  0.51100000000E-03 0.  1.
         23    2    1    2    0    0  0.00000000000E+00  0.17763568394E-14  0.71054273576E-14  0.91188000000E+02  0.91188000000E+02 0.  0.
    9900012    2    3    3    0    0 -0.60072771945E+01 -0.11792377085E+02 -0.41333712731E+02  0.47787270228E+02  0.19999996279E+02 0.  0.
         12    1    3    3    0    0  0.60072771945E+01  0.11792377085E+02  0.41333712731E+02  0.43400729772E+02  0.00000000000E+00 0. -1.
         11    1    4    4    0    0 -0.12209010729E+02 -0.91377021776E+01 -0.35627066209E+02  0.38753650035E+02  0.51100000000E-03 0. -1.
        -11    1    4    4    0    0  0.25586132082E+01 -0.16872461917E+01 -0.35535070558E+01  0.46926233513E+01  0.51100000000E-03 0.  1.
         12    1    4    4    0    0  0.36431203258E+01 -0.96742871520E+00 -0.21531394657E+01  0.43409968424E+01  0.00000000000E+00 0. -1.
</event>
<event>
 8    1  0.6524083E-011  0.9118800E+02  0.7816164E-02  0.1184000E+00
        -11   -1    0    0    0    0  0.00000000000E+00  0.00000000000E+00  0.45593999997E+02  0.45594000000E+02  0.51100000000E-03 0. -1.
         11   -1    0    0    0    0 -0.00000000000E+00 -0.00000000000E+00 -0.45593999997E+02  0.45594000000E+02  0.51100000000E-03 0.  1.
         23    2    1    2    0    0 -0.44408920985E-15  0.00000000000E+00  0.71054273576E-14  0.91188000000E+02  0.91188000000E+02 0.  0.
    9900012    2    3    3    0    0 -0.31942308530E+01 -0.22298253445E+02  0.37097277485E+02  0.47787271732E+02  0.20000003134E+02 0.  0.
        -12    1    3    3    0    0  0.31942308530E+01  0.22298253445E+02 -0.37097277485E+02  0.43400728268E+02  0.00000000000E+00 0.  1.
         11    1    4    4    0    0 -0.44636267751E+01 -0.26170716274E+01  0.32702861004E+00  0.51845902310E+01  0.51100000000E-03 0. -1.
        -11    1    4    4    0    0  0.54010791036E+00 -0.43975891130E+01  0.25370721376E+01  0.51056088622E+01  0.51100000000E-03 0.  1.
        -12    1    4    4    0    0  0.72928801173E+00 -0.15283592704E+02  0.34233176737E+02  0.37497072639E+02  0.00000000000E+00 0.  1.
</event>
<event>
 8    1  0.6524083E-011  0.9118800E+02  0.7816164E-02  0.1184000E+00
        -11   -1    0    0    0    0  0.00000000000E+00  0.00000000000E+00  0.45593999997E+02  0.45594000000E+02  0.51100000000E-03 0. -1.
         11   -1    0    0    0    0 -0.00000000000E+00 -0.00000000000E+00 -0.45593999997E+02  0.45594000000E+02  0.51100000000E-03 0.  1.
         23    2    1    2    0    0  0.17763568394E-14  0.35527136788E-14  0.00000000000E+00  0.91188000000E+02  0.91188000000E+02 0.  0.
    9900012    2    3    3    0    0  0.14065708149E+02  0.26136770853E+02 -0.31664622761E+02  0.47787271078E+02  0.20000000154E+02 0.  0.
         12    1    3    3    0    0 -0.14065708149E+02 -0.26136770853E+02  0.31664622761E+02  0.43400728922E+02  0.00000000000E+00 0. -1.
         11    1    4    4    0    0  0.13186811366E+02  0.24429609614E+02 -0.24399775015E+02  0.36960070900E+02  0.51100000000E-03 0. -1.
        -11    1    4    4    0    0  0.21115820129E+01  0.10232085222E+01 -0.85825522278E+01  0.88975242220E+01  0.51100000000E-03 0.  1.
        -12    1    4    4    0    0 -0.12326852294E+01  0.68395271701E+00  0.13177044822E+01  0.19296759563E+01  0.00000000000E+00 0.  1.
</event>
<event>
 8    1  0.6524083E-011  0.9118800E+02  0.7816164E-02  0.1184000E+00
        -11   -1    0    0    0    0  0.00000000000E+00  0.00000000000E+00  0.45593999997E+02  0.45594000000E+02  0.51100000000E-03 0.  1.
         11   -1    0    0    0    0 -0.00000000000E+00 -0.00000000000E+00 -0.45593999997E+02  0.45594000000E+02  0.51100000000E-03 0. -1.
         23    2    1    2    0    0  0.00000000000E+00  0.00000000000E+00 -0.35527136788E-14  0.91188000000E+02  0.91188000000E+02 0.  0.
    9900012    2    3    3    0    0  0.29216803392E+02 -0.19827512154E+02  0.25236313700E+02  0.47787269962E+02  0.19999995065E+02 0.  0.
        -12    1    3    3    0    0 -0.29216803392E+02  0.19827512154E+02 -0.25236313700E+02  0.43400730038E+02  0.00000000000E+00 0.  1.
         11    1    4    4    0    0  0.13672832760E+02 -0.42172248987E+01  0.53259409972E+01  0.15267514182E+02  0.51100000000E-03 0.  1.
        -11    1    4    4    0    0  0.16631785447E+02 -0.96899775309E+01  0.12409021600E+02  0.22901872610E+02  0.51100000000E-03 0. -1.
         12    1    4    4    0    0 -0.10878148152E+01 -0.59203097239E+01  0.75013511029E+01  0.96178831698E+01  0.00000000000E+00 0. -1.
</event>
<event>
 8    1  0.6524083E-011  0.9118800E+02  0.7816164E-02  0.1184000E+00
        -11   -1    0    0    0    0  0.00000000000E+00  0.00000000000E+00  0.45593999997E+02  0.45594000000E+02  0.51100000000E-03 0. -1.
         11   -1    0    0    0    0 -0.00000000000E+00 -0.00000000000E+00 -0.45593999997E+02  0.45594000000E+02  0.51100000000E-03 0.  1.
         23    2    1    2    0    0  0.00000000000E+00  0.00000000000E+00  0.00000000000E+00  0.91188000000E+02  0.91188000000E+02 0.  0.
    9900012    2    3    3    0    0  0.84399335859E+01  0.41586109260E+02 -0.91096446925E+01  0.47787278938E+02  0.20000035990E+02 0.  0.
         12    1    3    3    0    0 -0.84399335859E+01 -0.41586109260E+02  0.91096446925E+01  0.43400721062E+02  0.00000000000E+00 0. -1.
         11    1    4    4    0    0  0.73704894052E+01  0.13123052115E+02 -0.10712634577E+02  0.18474283497E+02  0.51100000000E-03 0. -1.
        -11    1    4    4    0    0  0.35372344372E+01  0.94062308000E+01  0.32484282088E+00  0.10054587433E+02  0.51100000000E-03 0.  1.
         12    1    4    4    0    0 -0.24677902565E+01  0.19056826345E+02  0.12781470641E+01  0.19258408008E+02  0.00000000000E+00 0. -1.
</event>
<event>
 8    1  0.6524083E-011  0.9118800E+02  0.7816164E-02  0.1184000E+00
        -11   -1    0    0    0    0  0.00000000000E+00  0.00000000000E+00  0.45593999997E+02  0.45594000000E+02  0.51100000000E-03 0. -1.
         11   -1    0    0    0    0 -0.00000000000E+00 -0.00000000000E+00 -0.45593999997E+02  0.45594000000E+02  0.51100000000E-03 0.  1.
         23    2    1    2    0    0 -0.17763568394E-14  0.00000000000E+00  0.00000000000E+00  0.91188000000E+02  0.91188000000E+02 0.  0.
    9900012    2    3    3    0    0 -0.13763673199E+02  0.32874891456E+01 -0.41028976574E+02  0.47787271855E+02  0.20000003695E+02 0.  0.
         12    1    3    3    0    0  0.13763673199E+02 -0.32874891456E+01  0.41028976574E+02  0.43400728145E+02  0.00000000000E+00 0. -1.
         11    1    4    4    0    0 -0.53974046847E+01  0.68135343168E+01 -0.11304780861E+02  0.14260234844E+02  0.51100000000E-03 0. -1.
        -11    1    4    4    0    0 -0.11220873413E+02 -0.18647807839E+01 -0.26806737740E+02  0.29120209409E+02  0.51100000000E-03 0.  1.
         12    1    4    4    0    0  0.28546048984E+01 -0.16612643873E+01 -0.29174579733E+01  0.44068276023E+01  0.00000000000E+00 0. -1.
</event>
<event>
 8    1  0.6524083E-011  0.9118800E+02  0.7816164E-02  0.1184000E+00
        -11   -1    0    0    0    0  0.00000000000E+00  0.00000000000E+00  0.45593999997E+02  0.45594000000E+02  0.51100000000E-03 0. -1.
         11   -1    0    0    0    0 -0.00000000000E+00 -0.00000000000E+00 -0.45593999997E+02  0.45594000000E+02  0.51100000000E-03 0.  1.
         23    2    1    2    0    0  0.17763568394E-14  0.17763568394E-14  0.00000000000E+00  0.91188000000E+02  0.91188000000E+02 0.  0.
    9900012    2    3    3    0    0  0.82237019192E+01  0.67889039477E+01  0.42070234010E+02  0.47787273281E+02  0.20000010199E+02 0.  0.
        -12    1    3    3    0    0 -0.82237019192E+01 -0.67889039477E+01 -0.42070234010E+02  0.43400726719E+02  0.00000000000E+00 0.  1.
         11    1    4    4    0    0  0.61462402947E+01  0.18655625207E+01  0.54334047798E+01  0.84129947725E+01  0.51100000000E-03 0. -1.
        -11    1    4    4    0    0  0.49467978798E+00 -0.40699998981E+01  0.19805478915E+02  0.20225394992E+02  0.51100000000E-03 0.  1.
         12    1    4    4    0    0  0.15827818365E+01  0.89933413251E+01  0.16831350315E+02  0.19148883517E+02  0.00000000000E+00 0. -1.
</event>
<event>
 8    1  0.6524083E-011  0.9118800E+02  0.7816164E-02  0.1184000E+00
        -11   -1    0    0    0    0  0.00000000000E+00  0.00000000000E+00  0.45593999997E+02  0.45594000000E+02  0.51100000000E-03 0. -1.
         11   -1    0    0    0    0 -0.00000000000E+00 -0.00000000000E+00 -0.45593999997E+02  0.45594000000E+02  0.51100000000E-03 0.  1.
         23    2    1    2    0    0  0.00000000000E+00 -0.88817841970E-15  0.00000000000E+00  0.91188000000E+02  0.91188000000E+02 0.  0.
    9900012    2    3    3    0    0 -0.34381985669E+02 -0.76178842678E+01 -0.25366715166E+02  0.47787270310E+02  0.19999996651E+02 0.  0.
         12    1    3    3    0    0  0.34381985669E+02  0.76178842678E+01  0.25366715166E+02  0.43400729690E+02  0.00000000000E+00 0. -1.
         11    1    4    4    0    0 -0.33045720345E+01 -0.63990495197E+01 -0.32196592222E+01  0.78888679071E+01  0.51100000000E-03 0. -1.
        -11    1    4    4    0    0 -0.93058062596E+01 -0.48250298302E+01 -0.36377536933E+01  0.11095593504E+02  0.51100000000E-03 0.  1.
        -12    1    4    4    0    0 -0.21771607375E+02  0.36061950821E+01 -0.18509302251E+02  0.28802808899E+02  0.00000000000E+00 0.  1.
</event>
<event>
 8    1  0.6524083E-011  0.9118800E+02  0.7816164E-02  0.1184000E+00
        -11   -1    0    0    0    0  0.00000000000E+00  0.00000000000E+00  0.45593999997E+02  0.45594000000E+02  0.51100000000E-03 0. -1.
         11   -1    0    0    0    0 -0.00000000000E+00 -0.00000000000E+00 -0.45593999997E+02  0.45594000000E+02  0.51100000000E-03 0.  1.
         23    2    1    2    0    0  0.00000000000E+00  0.00000000000E+00  0.00000000000E+00  0.91188000000E+02  0.91188000000E+02 0.  0.
    9900012    2    3    3    0    0 -0.69531505509E+01  0.66655448944E+01  0.42318408749E+02  0.47787268320E+02  0.19999987578E+02 0.  0.
        -12    1    3    3    0    0  0.69531505509E+01 -0.66655448944E+01 -0.42318408749E+02  0.43400731680E+02  0.00000000000E+00 0.  1.
         11    1    4    4    0    0 -0.16956820225E+01 -0.11173476132E+01  0.16300991622E+02  0.16426993984E+02  0.51100000000E-03 0. -1.
        -11    1    4    4    0    0 -0.45292732125E+01  0.45558339476E+01  0.27122080109E+02  0.27872516364E+02  0.51100000000E-03 0.  1.
        -12    1    4    4    0    0 -0.72819531588E+00  0.32270585601E+01 -0.11046629821E+01  0.34877579721E+01  0.00000000000E+00 0.  1.
</event>
<event>
 8    1  0.6524083E-011  0.9118800E+02  0.7816164E-02  0.1184000E+00
        -11   -1    0    0    0    0  0.00000000000E+00  0.00000000000E+00  0.45593999997E+02  0.45594000000E+02  0.51100000000E-03 0. -1.
         11   -1    0    0    0    0 -0.00000000000E+00 -0.00000000000E+00 -0.45593999997E+02  0.45594000000E+02  0.51100000000E-03 0.  1.
         23    2    1    2    0    0 -0.35388358910E-15 -0.17763568394E-14 -0.71054273576E-14  0.91188000000E+02  0.91188000000E+02 0.  0.
    9900012    2    3    3    0    0  0.52884820959E-01  0.12566931993E+02 -0.41541456912E+02  0.47787271677E+02  0.20000002886E+02 0.  0.
         12    1    3    3    0    0 -0.52884820959E-01 -0.12566931993E+02  0.41541456912E+02  0.43400728323E+02  0.00000000000E+00 0. -1.
         11    1    4    4    0    0  0.41913100337E+01  0.13991182413E+02 -0.20859453249E+02  0.25464427251E+02  0.51100000000E-03 0.  1.
        -11    1    4    4    0    0 -0.35783744936E+01  0.20030883906E-01 -0.32868790818E+01  0.48588825477E+01  0.51100000000E-03 0. -1.
        -12    1    4    4    0    0 -0.56005071916E+00 -0.14442813033E+01 -0.17395124582E+02  0.17463961879E+02  0.00000000000E+00 0.  1.
</event>
<event>
 8    1  0.6524083E-011  0.9118800E+02  0.7816164E-02  0.1184000E+00
        -11   -1    0    0    0    0  0.00000000000E+00  0.00000000000E+00  0.45593999997E+02  0.45594000000E+02  0.51100000000E-03 0. -1.
         11   -1    0    0    0    0 -0.00000000000E+00 -0.00000000000E+00 -0.45593999997E+02  0.45594000000E+02  0.51100000000E-03 0.  1.
         23    2    1    2    0    0  0.00000000000E+00  0.00000000000E+00  0.71054273576E-14  0.91188000000E+02  0.91188000000E+02 0.  0.
    9900012    2    3    3    0    0  0.14632318535E+02 -0.61248086310E+01  0.40398083735E+02  0.47787271943E+02  0.20000004096E+02 0.  0.
        -12    1    3    3    0    0 -0.14632318535E+02  0.61248086310E+01 -0.40398083735E+02  0.43400728057E+02  0.00000000000E+00 0.  1.
         11    1    4    4    0    0  0.11052141498E+02 -0.92245082277E+01  0.16586713535E+02  0.21962705887E+02  0.51100000000E-03 0.  1.
        -11    1    4    4    0    0  0.56569804793E+01  0.36506106085E+01  0.22022756344E+02  0.23028898871E+02  0.51100000000E-03 0. -1.
        -12    1    4    4    0    0 -0.20768034426E+01 -0.55091101182E+00  0.17886138551E+01  0.27956671842E+01  0.00000000000E+00 0.  1.
</event>
<event>
 8    1  0.6524083E-011  0.9118800E+02  0.7816164E-02  0.1184000E+00
        -11   -1    0    0    0    0  0.00000000000E+00  0.00000000000E+00  0.45593999997E+02  0.45594000000E+02  0.51100000000E-03 0. -1.
         11   -1    0    0    0    0 -0.00000000000E+00 -0.00000000000E+00 -0.45593999997E+02  0.45594000000E+02  0.51100000000E-03 0.  1.
         23    2    1    2    0    0  0.00000000000E+00  0.33306690739E-15  0.00000000000E+00  0.91188000000E+02  0.91188000000E+02 0.  0.
    9900012    2    3    3    0    0  0.21288461428E+02  0.55037227736E+00  0.37816964695E+02  0.47787259012E+02  0.19999945139E+02 0.  0.
        -12    1    3    3    0    0 -0.21288461428E+02 -0.55037227736E+00 -0.37816964695E+02  0.43400740988E+02  0.00000000000E+00 0.  1.
         11    1    4    4    0    0  0.38257906063E+01  0.63227259327E-02  0.13102870502E+02  0.13649979099E+02  0.51100000000E-03 0. -1.
        -11    1    4    4    0    0  0.14067659311E+02  0.57129324705E+01  0.10011341666E+02  0.18186907326E+02  0.51100000000E-03 0.  1.
        -12    1    4    4    0    0  0.33950115107E+01 -0.51688829191E+01  0.14702752527E+02  0.15950372587E+02  0.00000000000E+00 0.  1.
</event>
<event>
 8    1  0.6524083E-011  0.9118800E+02  0.7816164E-02  0.1184000E+00
        -11   -1    0    0    0    0  0.00000000000E+00  0.00000000000E+00  0.45593999997E+02  0.45594000000E+02  0.51100000000E-03 0. -1.
         11   -1    0    0    0    0 -0.00000000000E+00 -0.00000000000E+00 -0.45593999997E+02  0.45594000000E+02  0.51100000000E-03 0.  1.
         23    2    1    2    0    0  0.88817841970E-15  0.00000000000E+00  0.00000000000E+00  0.91188000000E+02  0.91188000000E+02 0.  0.
    9900012    2    3    3    0    0 -0.72649086002E+01  0.10160821320E+02 -0.41564419687E+02  0.47787283752E+02  0.20000057941E+02 0.  0.
         12    1    3    3    0    0  0.72649086002E+01 -0.10160821320E+02  0.41564419687E+02  0.43400716248E+02  0.00000000000E+00 0. -1.
         11    1    4    4    0    0 -0.22226056585E+01  0.58603134988E+01 -0.32534470821E+01  0.70617397569E+01  0.51100000000E-03 0. -1.
        -11    1    4    4    0    0 -0.69951449772E+01 -0.15668523955E+01 -0.15265415472E+02  0.16864755838E+02  0.51100000000E-03 0.  1.
         12    1    4    4    0    0  0.19528420354E+01  0.58673602162E+01 -0.23045557133E+02  0.23860788157E+02  0.00000000000E+00 0. -1.
</event>
<event>
 8    1  0.6524083E-011  0.9118800E+02  0.7816164E-02  0.1184000E+00
        -11   -1    0    0    0    0  0.00000000000E+00  0.00000000000E+00  0.45593999997E+02  0.45594000000E+02  0.51100000000E-03 0. -1.
         11   -1    0    0    0    0 -0.00000000000E+00 -0.00000000000E+00 -0.45593999997E+02  0.45594000000E+02  0.51100000000E-03 0.  1.
         23    2    1    2    0    0  0.00000000000E+00 -0.35527136788E-14  0.00000000000E+00  0.91188000000E+02  0.91188000000E+02 0.  0.
    9900012    2    3    3    0    0  0.10784813609E+02  0.18133450793E+02  0.37927421465E+02  0.47787267964E+02  0.19999985954E+02 0.  0.
        -12    1    3    3    0    0 -0.10784813609E+02 -0.18133450793E+02 -0.37927421465E+02  0.43400732036E+02  0.00000000000E+00 0.  1.
         11    1    4    4    0    0  0.41006722920E+01  0.63498143189E+01  0.22309183758E+02  0.23554942907E+02  0.51100000000E-03 0. -1.
        -11    1    4    4    0    0  0.50464262511E+01  0.42815660219E+01  0.15158059623E+02  0.16539800401E+02  0.51100000000E-03 0.  1.
        -12    1    4    4    0    0  0.16377150659E+01  0.75020704525E+01  0.46017808410E+00  0.76925246559E+01  0.00000000000E+00 0.  1.
</event>
<event>
 8    1  0.6524083E-011  0.9118800E+02  0.7816164E-02  0.1184000E+00
        -11   -1    0    0    0    0  0.00000000000E+00  0.00000000000E+00  0.45593999997E+02  0.45594000000E+02  0.51100000000E-03 0. -1.
         11   -1    0    0    0    0 -0.00000000000E+00 -0.00000000000E+00 -0.45593999997E+02  0.45594000000E+02  0.51100000000E-03 0.  1.
         23    2    1    2    0    0  0.00000000000E+00 -0.44408920985E-15  0.00000000000E+00  0.91188000000E+02  0.91188000000E+02 0.  0.
    9900012    2    3    3    0    0 -0.14557186902E+02  0.15270070594E+01  0.40858042624E+02  0.47787273184E+02  0.20000009755E+02 0.  0.
        -12    1    3    3    0    0  0.14557186902E+02 -0.15270070594E+01 -0.40858042624E+02  0.43400726816E+02  0.00000000000E+00 0.  1.
         11    1    4    4    0    0 -0.71337134732E+01 -0.20500031955E+01  0.17633564184E+02  0.19132040328E+02  0.51100000000E-03 0. -1.
        -11    1    4    4    0    0 -0.92083694529E+01  0.54893413405E+01  0.84480581104E+01  0.13649052071E+02  0.51100000000E-03 0.  1.
         12    1    4    4    0    0  0.17848960236E+01 -0.19123310856E+01  0.14776420330E+02  0.15006180786E+02  0.00000000000E+00 0. -1.
</event>
<event>
 8    1  0.6524083E-011  0.9118800E+02  0.7816164E-02  0.1184000E+00
        -11   -1    0    0    0    0  0.00000000000E+00  0.00000000000E+00  0.45593999997E+02  0.45594000000E+02  0.51100000000E-03 0. -1.
         11   -1    0    0    0    0 -0.00000000000E+00 -0.00000000000E+00 -0.45593999997E+02  0.45594000000E+02  0.51100000000E-03 0.  1.
         23    2    1    2    0    0  0.00000000000E+00  0.00000000000E+00  0.00000000000E+00  0.91188000000E+02  0.91188000000E+02 0.  0.
    9900012    2    3    3    0    0 -0.81482629770E+01 -0.24022312093E+02 -0.35215873533E+02  0.47787269401E+02  0.19999992508E+02 0.  0.
         12    1    3    3    0    0  0.81482629770E+01  0.24022312093E+02  0.35215873533E+02  0.43400730599E+02  0.00000000000E+00 0. -1.
         11    1    4    4    0    0 -0.44777431487E+01 -0.16314457160E+02 -0.20249979667E+02  0.26386992494E+02  0.51100000000E-03 0.  1.
        -11    1    4    4    0    0  0.51512571590E+00 -0.59574079529E+01 -0.23249284736E+00  0.59841555131E+01  0.51100000000E-03 0. -1.
         12    1    4    4    0    0 -0.41856455442E+01 -0.17504469801E+01 -0.14733401019E+02  0.15416121394E+02  0.00000000000E+00 0. -1.
</event>
<event>
 8    1  0.6524083E-011  0.9118800E+02  0.7816164E-02  0.1184000E+00
        -11   -1    0    0    0    0  0.00000000000E+00  0.00000000000E+00  0.45593999997E+02  0.45594000000E+02  0.51100000000E-03 0. -1.
         11   -1    0    0    0    0 -0.00000000000E+00 -0.00000000000E+00 -0.45593999997E+02  0.45594000000E+02  0.51100000000E-03 0.  1.
         23    2    1    2    0    0  0.00000000000E+00  0.00000000000E+00  0.00000000000E+00  0.91188000000E+02  0.91188000000E+02 0.  0.
    9900012    2    3    3    0    0 -0.21151393270E+02 -0.29811398029E+02  0.23399195176E+02  0.47787271612E+02  0.20000002587E+02 0.  0.
        -12    1    3    3    0    0  0.21151393270E+02  0.29811398029E+02 -0.23399195176E+02  0.43400728388E+02  0.00000000000E+00 0.  1.
         11    1    4    4    0    0 -0.84739950727E+01 -0.95671536402E+01  0.15289215330E+02  0.19927346209E+02  0.51100000000E-03 0. -1.
        -11    1    4    4    0    0 -0.87637679449E+01 -0.20914026810E+02  0.71256300317E+01  0.23769197496E+02  0.51100000000E-03 0.  1.
         12    1    4    4    0    0 -0.39136302524E+01  0.66978242115E+00  0.98434981415E+00  0.40907279060E+01  0.00000000000E+00 0. -1.
</event>
<event>
 8    1  0.6524083E-011  0.9118800E+02  0.7816164E-02  0.1184000E+00
        -11   -1    0    0    0    0  0.00000000000E+00  0.00000000000E+00  0.45593999997E+02  0.45594000000E+02  0.51100000000E-03 0. -1.
         11   -1    0    0    0    0 -0.00000000000E+00 -0.00000000000E+00 -0.45593999997E+02  0.45594000000E+02  0.51100000000E-03 0.  1.
         23    2    1    2    0    0  0.88817841970E-15  0.00000000000E+00  0.00000000000E+00  0.91188000000E+02  0.91188000000E+02 0.  0.
    9900012    2    3    3    0    0  0.64539047538E+01 -0.34420859814E+02  0.25635450032E+02  0.47787253748E+02  0.19999921138E+02 0.  0.
        -12    1    3    3    0    0 -0.64539047538E+01  0.34420859814E+02 -0.25635450032E+02  0.43400746252E+02  0.00000000000E+00 0.  1.
         11    1    4    4    0    0  0.94631094039E+01 -0.21795558821E+02  0.13741338732E+02  0.27448519347E+02  0.51100000000E-03 0. -1.
        -11    1    4    4    0    0  0.13074519659E+00  0.11765793785E+01  0.39151152941E+01  0.40901786474E+01  0.51100000000E-03 0.  1.
        -12    1    4    4    0    0 -0.31399498467E+01 -0.13801880371E+02  0.79789960066E+01  0.16248555754E+02  0.00000000000E+00 0.  1.
</event>
<event>
 8    1  0.6524083E-011  0.9118800E+02  0.7816164E-02  0.1184000E+00
        -11   -1    0    0    0    0  0.00000000000E+00  0.00000000000E+00  0.45593999997E+02  0.45594000000E+02  0.51100000000E-03 0. -1.
         11   -1    0    0    0    0 -0.00000000000E+00 -0.00000000000E+00 -0.45593999997E+02  0.45594000000E+02  0.51100000000E-03 0.  1.
         23    2    1    2    0    0 -0.44408920985E-15  0.35527136788E-14  0.00000000000E+00  0.91188000000E+02  0.91188000000E+02 0.  0.
    9900012    2    3    3    0    0 -0.10401903841E+01  0.20342387155E+02 -0.38323988550E+02  0.47787276393E+02  0.20000024386E+02 0.  0.
         12    1    3    3    0    0  0.10401903841E+01 -0.20342387155E+02  0.38323988550E+02  0.43400723607E+02  0.00000000000E+00 0. -1.
         11    1    4    4    0    0 -0.35043743080E+01 -0.22294032280E+01 -0.70012658147E+01  0.81405528874E+01  0.51100000000E-03 0. -1.
        -11    1    4    4    0    0 -0.27960395998E+01  0.13768655302E+02 -0.17963130566E+02  0.22804994328E+02  0.51100000000E-03 0.  1.
        -12    1    4    4    0    0  0.52602235237E+01  0.88031350808E+01 -0.13359592169E+02  0.16841729178E+02  0.00000000000E+00 0.  1.
</event>
<event>
 8    1  0.6524083E-011  0.9118800E+02  0.7816164E-02  0.1184000E+00
        -11   -1    0    0    0    0  0.00000000000E+00  0.00000000000E+00  0.45593999997E+02  0.45594000000E+02  0.51100000000E-03 0. -1.
         11   -1    0    0    0    0 -0.00000000000E+00 -0.00000000000E+00 -0.45593999997E+02  0.45594000000E+02  0.51100000000E-03 0.  1.
         23    2    1    2    0    0  0.00000000000E+00  0.35527136788E-14 -0.71054273576E-14  0.91188000000E+02  0.91188000000E+02 0.  0.
    9900012    2    3    3    0    0  0.86153578407E+01 -0.22935611326E+02  0.35823962413E+02  0.47787274884E+02  0.20000017507E+02 0.  0.
        -12    1    3    3    0    0 -0.86153578407E+01  0.22935611326E+02 -0.35823962413E+02  0.43400725116E+02  0.00000000000E+00 0.  1.
         11    1    4    4    0    0  0.77230559260E+01 -0.40571000058E+01  0.56731903799E+01  0.10406283806E+02  0.51100000000E-03 0. -1.
        -11    1    4    4    0    0  0.58290500544E+01 -0.63925297184E+01  0.12580146593E+02  0.15267689717E+02  0.51100000000E-03 0.  1.
        -12    1    4    4    0    0 -0.49367481398E+01 -0.12485981601E+02  0.17570625440E+02  0.22113301361E+02  0.00000000000E+00 0.  1.
</event>
<event>
 8    1  0.6524083E-011  0.9118800E+02  0.7816164E-02  0.1184000E+00
        -11   -1    0    0    0    0  0.00000000000E+00  0.00000000000E+00  0.45593999997E+02  0.45594000000E+02  0.51100000000E-03 0. -1.
         11   -1    0    0    0    0 -0.00000000000E+00 -0.00000000000E+00 -0.45593999997E+02  0.45594000000E+02  0.51100000000E-03 0.  1.
         23    2    1    2    0    0 -0.71054273576E-14 -0.26645352591E-14  0.35527136788E-14  0.91188000000E+02  0.91188000000E+02 0.  0.
    9900012    2    3    3    0    0 -0.31318500383E+02 -0.45302593640E+01  0.29702706596E+02  0.47787280014E+02  0.20000040898E+02 0.  0.
        -12    1    3    3    0    0  0.31318500383E+02  0.45302593640E+01 -0.29702706596E+02  0.43400719986E+02  0.00000000000E+00 0.  1.
         11    1    4    4    0    0 -0.87558342186E+01  0.23610680243E+01  0.61786700687E+01  0.10973387770E+02  0.51100000000E-03 0. -1.
        -11    1    4    4    0    0 -0.18389280878E+02 -0.11415250706E+02  0.15143076057E+02  0.26415645982E+02  0.51100000000E-03 0.  1.
        -12    1    4    4    0    0 -0.41733852862E+01  0.45239233178E+01  0.83809604704E+01  0.10398246263E+02  0.00000000000E+00 0.  1.
</event>
<event>
 8    1  0.6524083E-011  0.9118800E+02  0.7816164E-02  0.1184000E+00
        -11   -1    0    0    0    0  0.00000000000E+00  0.00000000000E+00  0.45593999997E+02  0.45594000000E+02  0.51100000000E-03 0.  1.
         11   -1    0    0    0    0 -0.00000000000E+00 -0.00000000000E+00 -0.45593999997E+02  0.45594000000E+02  0.51100000000E-03 0. -1.
         23    2    1    2    0    0  0.00000000000E+00 -0.17763568394E-14 -0.35527136788E-14  0.91188000000E+02  0.91188000000E+02 0.  0.
    9900012    2    3    3    0    0 -0.29705543342E+02 -0.10000692066E+02 -0.30019825107E+02  0.47787273664E+02  0.20000011944E+02 0.  0.
         12    1    3    3    0    0  0.29705543342E+02  0.10000692066E+02  0.30019825107E+02  0.43400726336E+02  0.00000000000E+00 0. -1.
         11    1    4    4    0    0 -0.38589750822E+01  0.42011611539E+01 -0.16677301674E+01  0.59432960467E+01  0.51100000000E-03 0. -1.
        -11    1    4    4    0    0 -0.74023885300E+01 -0.89119855745E+01 -0.10469772221E+02  0.15615216087E+02  0.51100000000E-03 0.  1.
        -12    1    4    4    0    0 -0.18444179730E+02 -0.52898676449E+01 -0.17882322718E+02  0.26228761530E+02  0.00000000000E+00 0.  1.
</event>
<event>
 8    1  0.6524083E-011  0.9118800E+02  0.7816164E-02  0.1184000E+00
        -11   -1    0    0    0    0  0.00000000000E+00  0.00000000000E+00  0.45593999997E+02  0.45594000000E+02  0.51100000000E-03 0. -1.
         11   -1    0    0    0    0 -0.00000000000E+00 -0.00000000000E+00 -0.45593999997E+02  0.45594000000E+02  0.51100000000E-03 0.  1.
         23    2    1    2    0    0  0.00000000000E+00 -0.88817841970E-15  0.00000000000E+00  0.91188000000E+02  0.91188000000E+02 0.  0.
    9900012    2    3    3    0    0 -0.33988906988E+02 -0.78146595363E+01  0.25832297341E+02  0.47787282404E+02  0.20000051794E+02 0.  0.
        -12    1    3    3    0    0  0.33988906988E+02  0.78146595363E+01 -0.25832297341E+02  0.43400717596E+02  0.00000000000E+00 0.  1.
         11    1    4    4    0    0 -0.12031149164E+02 -0.36213939438E+00  0.18698487453E+02  0.22237651145E+02  0.51100000000E-03 0. -1.
        -11    1    4    4    0    0 -0.21104285357E+01  0.58865357985E+00 -0.12847355524E+01  0.25398754580E+01  0.51100000000E-03 0.  1.
        -12    1    4    4    0    0 -0.19847329289E+02 -0.80411737218E+01  0.84185454402E+01  0.23009755802E+02  0.00000000000E+00 0.  1.
</event>
<event>
 8    1  0.6524083E-011  0.9118800E+02  0.7816164E-02  0.1184000E+00
        -11   -1    0    0    0    0  0.00000000000E+00  0.00000000000E+00  0.45593999997E+02  0.45594000000E+02  0.51100000000E-03 0. -1.
         11   -1    0    0    0    0 -0.00000000000E+00 -0.00000000000E+00 -0.45593999997E+02  0.45594000000E+02  0.51100000000E-03 0.  1.
         23    2    1    2    0    0  0.00000000000E+00 -0.71054273576E-14 -0.35527136788E-14  0.91188000000E+02  0.91188000000E+02 0.  0.
    9900012    2    3    3    0    0  0.72930057745E+01 -0.37086336573E+02 -0.21331657114E+02  0.47787263960E+02  0.19999967698E+02 0.  0.
         12    1    3    3    0    0 -0.72930057745E+01  0.37086336573E+02  0.21331657114E+02  0.43400736040E+02  0.00000000000E+00 0. -1.
         11    1    4    4    0    0  0.51606325358E+01 -0.98857059789E+01 -0.41234527073E+01  0.11889582556E+02  0.51100000000E-03 0.  1.
        -11    1    4    4    0    0 -0.49079470372E+01 -0.22391192144E+02 -0.11583560729E+02  0.25683307987E+02  0.51100000000E-03 0. -1.
         12    1    4    4    0    0  0.70403202760E+01 -0.48094384500E+01 -0.56246436770E+01  0.10214373416E+02  0.00000000000E+00 0. -1.
</event>
<event>
 8    1  0.6524083E-011  0.9118800E+02  0.7816164E-02  0.1184000E+00
        -11   -1    0    0    0    0  0.00000000000E+00  0.00000000000E+00  0.45593999997E+02  0.45594000000E+02  0.51100000000E-03 0. -1.
         11   -1    0    0    0    0 -0.00000000000E+00 -0.00000000000E+00 -0.45593999997E+02  0.45594000000E+02  0.51100000000E-03 0.  1.
         23    2    1    2    0    0 -0.17763568394E-14  0.00000000000E+00 -0.71054273576E-14  0.91188000000E+02  0.91188000000E+02 0.  0.
    9900012    2    3    3    0    0  0.12149225177E+02 -0.16277742184E+02  0.38354361174E+02  0.47787244429E+02  0.19999878651E+02 0.  0.
        -12    1    3    3    0    0 -0.12149225177E+02  0.16277742184E+02 -0.38354361174E+02  0.43400755571E+02  0.00000000000E+00 0.  1.
         11    1    4    4    0    0  0.10662854109E+02 -0.14549084233E+02  0.36883845497E+02  0.41058377570E+02  0.51100000000E-03 0. -1.
        -11    1    4    4    0    0 -0.11106633118E+01 -0.33173004095E+01  0.10697652931E+01  0.36582035267E+01  0.51100000000E-03 0.  1.
        -12    1    4    4    0    0  0.25970343802E+01  0.15886424586E+01  0.40075038412E+00  0.30706633328E+01  0.00000000000E+00 0.  1.
</event>
<event>
 8    1  0.6524083E-011  0.9118800E+02  0.7816164E-02  0.1184000E+00
        -11   -1    0    0    0    0  0.00000000000E+00  0.00000000000E+00  0.45593999997E+02  0.45594000000E+02  0.51100000000E-03 0. -1.
         11   -1    0    0    0    0 -0.00000000000E+00 -0.00000000000E+00 -0.45593999997E+02  0.45594000000E+02  0.51100000000E-03 0.  1.
         23    2    1    2    0    0  0.88817841970E-15  0.17763568394E-14  0.71054273576E-14  0.91188000000E+02  0.91188000000E+02 0.  0.
    9900012    2    3    3    0    0 -0.53464141710E+01  0.11761839505E+02  0.41433058971E+02  0.47787269722E+02  0.19999993969E+02 0.  0.
        -12    1    3    3    0    0  0.53464141710E+01 -0.11761839505E+02 -0.41433058971E+02  0.43400730278E+02  0.00000000000E+00 0.  1.
         11    1    4    4    0    0 -0.90847746865E+00  0.97621645657E+00  0.12650435964E+02  0.12720529086E+02  0.51100000000E-03 0. -1.
        -11    1    4    4    0    0 -0.41622386215E+01  0.13455610562E+02  0.13362660852E+02  0.19414901268E+02  0.51100000000E-03 0.  1.
        -12    1    4    4    0    0 -0.27569808090E+00 -0.26699875131E+01  0.15419962155E+02  0.15651839368E+02  0.00000000000E+00 0.  1.
</event>
<event>
 8    1  0.6524083E-011  0.9118800E+02  0.7816164E-02  0.1184000E+00
        -11   -1    0    0    0    0  0.00000000000E+00  0.00000000000E+00  0.45593999997E+02  0.45594000000E+02  0.51100000000E-03 0.  1.
         11   -1    0    0    0    0 -0.00000000000E+00 -0.00000000000E+00 -0.45593999997E+02  0.45594000000E+02  0.51100000000E-03 0. -1.
         23    2    1    2    0    0  0.00000000000E+00  0.00000000000E+00 -0.35527136788E-14  0.91188000000E+02  0.91188000000E+02 0.  0.
    9900012    2    3    3    0    0  0.32865582552E+02  0.19540815546E+02  0.20533625426E+02  0.47787311506E+02  0.20000184479E+02 0.  0.
        -12    1    3    3    0    0 -0.32865582552E+02 -0.19540815546E+02 -0.20533625426E+02  0.43400688494E+02  0.00000000000E+00 0.  1.
         11    1    4    4    0    0  0.27296816355E+02  0.13513994319E+02  0.12053228872E+02  0.32757053471E+02  0.51100000000E-03 0. -1.
        -11    1    4    4    0    0  0.28100694366E+01  0.79567028033E+01  0.37745233779E+01  0.92440595373E+01  0.51100000000E-03 0.  1.
        -12    1    4    4    0    0  0.27586967603E+01 -0.19298815766E+01  0.47058731754E+01  0.57861984979E+01  0.00000000000E+00 0.  1.
</event>
<event>
 8    1  0.6524083E-011  0.9118800E+02  0.7816164E-02  0.1184000E+00
        -11   -1    0    0    0    0  0.00000000000E+00  0.00000000000E+00  0.45593999997E+02  0.45594000000E+02  0.51100000000E-03 0. -1.
         11   -1    0    0    0    0 -0.00000000000E+00 -0.00000000000E+00 -0.45593999997E+02  0.45594000000E+02  0.51100000000E-03 0.  1.
         23    2    1    2    0    0  0.66613381478E-15  0.00000000000E+00  0.71054273576E-14  0.91188000000E+02  0.91188000000E+02 0.  0.
    9900012    2    3    3    0    0  0.16650965441E+01  0.25421558902E+01 -0.43294206750E+02  0.47787269117E+02  0.19999991213E+02 0.  0.
         12    1    3    3    0    0 -0.16650965441E+01 -0.25421558902E+01  0.43294206750E+02  0.43400730883E+02  0.00000000000E+00 0. -1.
         11    1    4    4    0    0  0.80159441993E+01  0.29996878035E+01 -0.30342078935E+02  0.31526104147E+02  0.51100000000E-03 0. -1.
        -11    1    4    4    0    0 -0.60193961153E+01 -0.43554779950E+00 -0.13955323450E+02  0.15204403452E+02  0.51100000000E-03 0.  1.
        -12    1    4    4    0    0 -0.33145153987E+00 -0.21984113804E-01  0.10031956351E+01  0.10567615184E+01  0.00000000000E+00 0.  1.
</event>
<event>
 8    1  0.6524083E-011  0.9118800E+02  0.7816164E-02  0.1184000E+00
        -11   -1    0    0    0    0  0.00000000000E+00  0.00000000000E+00  0.45593999997E+02  0.45594000000E+02  0.51100000000E-03 0. -1.
         11   -1    0    0    0    0 -0.00000000000E+00 -0.00000000000E+00 -0.45593999997E+02  0.45594000000E+02  0.51100000000E-03 0.  1.
         23    2    1    2    0    0  0.00000000000E+00  0.00000000000E+00  0.00000000000E+00  0.91188000000E+02  0.91188000000E+02 0.  0.
    9900012    2    3    3    0    0  0.35818962400E+02 -0.20175480256E+02 -0.13913138895E+02  0.47787268383E+02  0.19999987865E+02 0.  0.
         12    1    3    3    0    0 -0.35818962400E+02  0.20175480256E+02  0.13913138895E+02  0.43400731617E+02  0.00000000000E+00 0. -1.
         11    1    4    4    0    0  0.12331505629E+01  0.14209136079E+01 -0.12601164971E+01  0.22644093356E+01  0.51100000000E-03 0. -1.
        -11    1    4    4    0    0  0.34699957930E+02 -0.16218552669E+02 -0.11778332962E+02  0.40073153840E+02  0.51100000000E-03 0.  1.
         12    1    4    4    0    0 -0.11414609257E+00 -0.53778411942E+01 -0.87468943629E+00  0.54497052076E+01  0.00000000000E+00 0. -1.
</event>
<event>
 8    1  0.7078727E-011  0.9118800E+02  0.7816164E-02  0.1184000E+00
        -11   -1    0    0    0    0  0.00000000000E+00  0.00000000000E+00  0.45593999997E+02  0.45594000000E+02  0.51100000000E-03 0.  1.
         11   -1    0    0    0    0 -0.00000000000E+00 -0.00000000000E+00 -0.45593999997E+02  0.45594000000E+02  0.51100000000E-03 0. -1.
         23    2    1    2    0    0  0.17763568394E-14 -0.71054273576E-14  0.00000000000E+00  0.91188000000E+02  0.91188000000E+02 0.  0.
    9900012    2    3    3    0    0  0.10006279088E+02 -0.33661107568E+02 -0.25503479393E+02  0.47787271376E+02  0.20000001514E+02 0.  0.
         12    1    3    3    0    0 -0.10006279088E+02  0.33661107568E+02  0.25503479393E+02  0.43400728624E+02  0.00000000000E+00 0. -1.
         11    1    4    4    0    0 -0.73512744201E+00  0.32456090192E+00 -0.29660393653E+01  0.30729695594E+01  0.51100000000E-03 0. -1.
        -11    1    4    4    0    0  0.25275518079E+00 -0.11256737539E+02 -0.14633218577E+02  0.18463724201E+02  0.51100000000E-03 0.  1.
         12    1    4    4    0    0  0.10488651350E+02 -0.22728930931E+02 -0.79042214503E+01  0.26250577616E+02  0.00000000000E+00 0. -1.
</event>
<event>
 8    1  0.6524083E-011  0.9118800E+02  0.7816164E-02  0.1184000E+00
        -11   -1    0    0    0    0  0.00000000000E+00  0.00000000000E+00  0.45593999997E+02  0.45594000000E+02  0.51100000000E-03 0. -1.
         11   -1    0    0    0    0 -0.00000000000E+00 -0.00000000000E+00 -0.45593999997E+02  0.45594000000E+02  0.51100000000E-03 0.  1.
         23    2    1    2    0    0 -0.35527136788E-14  0.00000000000E+00  0.00000000000E+00  0.91188000000E+02  0.91188000000E+02 0.  0.
    9900012    2    3    3    0    0  0.24272167899E+02 -0.19990403691E+02  0.29914351504E+02  0.47787276502E+02  0.20000024882E+02 0.  0.
        -12    1    3    3    0    0 -0.24272167899E+02  0.19990403691E+02 -0.29914351504E+02  0.43400723498E+02  0.00000000000E+00 0.  1.
         11    1    4    4    0    0  0.79405855059E+01 -0.45082808228E+01  0.25575846868E+01  0.94825489108E+01  0.51100000000E-03 0.  1.
        -11    1    4    4    0    0  0.13432470420E+02 -0.96748084113E+01  0.27164599174E+02  0.31811139997E+02  0.51100000000E-03 0. -1.
         12    1    4    4    0    0  0.28991119732E+01 -0.58073144568E+01  0.19216764352E+00  0.64935875936E+01  0.00000000000E+00 0. -1.
</event>
<event>
 8    1  0.7099598E-011  0.9118800E+02  0.7816164E-02  0.1184000E+00
        -11   -1    0    0    0    0  0.00000000000E+00  0.00000000000E+00  0.45593999997E+02  0.45594000000E+02  0.51100000000E-03 0. -1.
         11   -1    0    0    0    0 -0.00000000000E+00 -0.00000000000E+00 -0.45593999997E+02  0.45594000000E+02  0.51100000000E-03 0.  1.
         23    2    1    2    0    0  0.00000000000E+00  0.00000000000E+00  0.00000000000E+00  0.91188000000E+02  0.91188000000E+02 0.  0.
    9900012    2    3    3    0    0 -0.35676110407E+02  0.11310451349E+02 -0.21975261639E+02  0.47787270886E+02  0.19999999277E+02 0.  0.
         12    1    3    3    0    0  0.35676110407E+02 -0.11310451349E+02  0.21975261639E+02  0.43400729114E+02  0.00000000000E+00 0. -1.
         11    1    4    4    0    0 -0.47105551686E+01  0.83192129047E+01 -0.53254239132E+01  0.10943435177E+02  0.51100000000E-03 0. -1.
        -11    1    4    4    0    0 -0.25696709971E+02  0.65382616374E+01 -0.13478699532E+02  0.29744665235E+02  0.51100000000E-03 0.  1.
         12    1    4    4    0    0 -0.52688452677E+01 -0.35470231926E+01 -0.31711381936E+01  0.70991704746E+01  0.00000000000E+00 0. -1.
</event>
<event>
 8    1 -0.6524083E-011  0.9118800E+02  0.7816164E-02  0.1184000E+00
        -11   -1    0    0    0    0  0.00000000000E+00  0.00000000000E+00  0.45593999997E+02  0.45594000000E+02  0.51100000000E-03 0. -1.
         11   -1    0    0    0    0 -0.00000000000E+00 -0.00000000000E+00 -0.45593999997E+02  0.45594000000E+02  0.51100000000E-03 0.  1.
         23    2    1    2    0    0 -0.35527136788E-14  0.00000000000E+00 -0.35527136788E-14  0.91188000000E+02  0.91188000000E+02 0.  0.
    9900012    2    3    3    0    0  0.11140145080E+02 -0.34652736143E+02  0.23636997876E+02  0.47787278540E+02  0.20000034177E+02 0.  0.
        -12    1    3    3    0    0 -0.11140145080E+02  0.34652736143E+02 -0.23636997876E+02  0.43400721460E+02  0.00000000000E+00 0.  1.
         11    1    4    4    0    0  0.13127505928E+02 -0.16226613503E+02  0.13188689832E+02  0.24689591682E+02  0.51100000000E-03 0. -1.
        -11    1    4    4    0    0 -0.10823892846E+01  0.40850185107E-02 -0.92330380030E+00  0.14226993427E+01  0.51100000000E-03 0.  1.
         12    1    4    4    0    0 -0.90497156322E+00 -0.18430207659E+02  0.11371611845E+02  0.21674987516E+02  0.00000000000E+00 0. -1.
</event>
<event>
 8    1  0.6524083E-011  0.9118800E+02  0.7816164E-02  0.1184000E+00
        -11   -1    0    0    0    0  0.00000000000E+00  0.00000000000E+00  0.45593999997E+02  0.45594000000E+02  0.51100000000E-03 0. -1.
         11   -1    0    0    0    0 -0.00000000000E+00 -0.00000000000E+00 -0.45593999997E+02  0.45594000000E+02  0.51100000000E-03 0.  1.
         23    2    1    2    0    0  0.00000000000E+00 -0.88817841970E-15  0.35527136788E-14  0.91188000000E+02  0.91188000000E+02 0.  0.
    9900012    2    3    3    0    0 -0.32821623781E+02 -0.21783463821E+01 -0.28312864917E+02  0.47787279956E+02  0.20000040631E+02 0.  0.
         12    1    3    3    0    0  0.32821623781E+02  0.21783463821E+01  0.28312864917E+02  0.43400720044E+02  0.00000000000E+00 0. -1.
         11    1    4    4    0    0 -0.28815595964E+00  0.22523208786E+01 -0.26838837878E+01  0.35155676135E+01  0.51100000000E-03 0. -1.
        -11    1    4    4    0    0 -0.72008360214E+01  0.49784732790E+01 -0.89279794087E+01  0.12503841497E+02  0.51100000000E-03 0.  1.
        -12    1    4    4    0    0 -0.25332631800E+02 -0.94091405397E+01 -0.16701001720E+02  0.31767870845E+02  0.00000000000E+00 0.  1.
</event>
<event>
 8    1  0.6524083E-011  0.9118800E+02  0.7816164E-02  0.1184000E+00
        -11   -1    0    0    0    0  0.00000000000E+00  0.00000000000E+00  0.45593999997E+02  0.45594000000E+02  0.51100000000E-03 0. -1.
         11   -1    0    0    0    0 -0.00000000000E+00 -0.00000000000E+00 -0.45593999997E+02  0.45594000000E+02  0.51100000000E-03 0.  1.
         23    2    1    2    0    0  0.35527136788E-14  0.44408920985E-15  0.00000000000E+00  0.91188000000E+02  0.91188000000E+02 0.  0.
    9900012    2    3    3    0    0  0.24189318542E+02  0.32618666272E+01 -0.35886837877E+02  0.47787216156E+02  0.19999749742E+02 0.  0.
         12    1    3    3    0    0 -0.24189318542E+02 -0.32618666272E+01  0.35886837877E+02  0.43400783844E+02  0.00000000000E+00 0. -1.
         11    1    4    4    0    0 -0.95210745376E+00  0.45511697671E+01 -0.10945824307E+01  0.47767945121E+01  0.51100000000E-03 0. -1.
        -11    1    4    4    0    0  0.99255634149E+01 -0.29978299514E-01 -0.15533212829E+02  0.18433621697E+02  0.51100000000E-03 0.  1.
         12    1    4    4    0    0  0.15215862581E+02 -0.12593248404E+01 -0.19259042617E+02  0.24576799947E+02  0.00000000000E+00 0. -1.
</event>
<event>
 8    1  0.6524083E-011  0.9118800E+02  0.7816164E-02  0.1184000E+00
        -11   -1    0    0    0    0  0.00000000000E+00  0.00000000000E+00  0.45593999997E+02  0.45594000000E+02  0.51100000000E-03 0. -1.
         11   -1    0    0    0    0 -0.00000000000E+00 -0.00000000000E+00 -0.45593999997E+02  0.45594000000E+02  0.51100000000E-03 0.  1.
         23    2    1    2    0    0  0.00000000000E+00  0.00000000000E+00  0.00000000000E+00  0.91188000000E+02  0.91188000000E+02 0.  0.
    9900012    2    3    3    0    0  0.42277842611E+01 -0.24464114684E+02 -0.35598540836E+02  0.47787272164E+02  0.20000005106E+02 0.  0.
         12    1    3    3    0    0 -0.42277842611E+01  0.24464114684E+02  0.35598540836E+02  0.43400727836E+02  0.00000000000E+00 0. -1.
         11    1    4    4    0    0 -0.87872299162E+00  0.75808641238E+00 -0.55211016686E+01  0.56417561983E+01  0.51100000000E-03 0. -1.
        -11    1    4    4    0    0  0.99669800404E+01 -0.19637840653E+02 -0.20978053002E+02  0.30414867823E+02  0.51100000000E-03 0.  1.
         12    1    4    4    0    0 -0.48604727878E+01 -0.55843604426E+01 -0.90993861653E+01  0.11730648143E+02  0.00000000000E+00 0. -1.
</event>
<event>
 8    1  0.6524083E-011  0.9118800E+02  0.7816164E-02  0.1184000E+00
        -11   -1    0    0    0    0  0.00000000000E+00  0.00000000000E+00  0.45593999997E+02  0.45594000000E+02  0.51100000000E-03 0. -1.
         11   -1    0    0    0    0 -0.00000000000E+00 -0.00000000000E+00 -0.45593999997E+02  0.45594000000E+02  0.51100000000E-03 0.  1.
         23    2    1    2    0    0  0.17763568394E-14 -0.17763568394E-14  0.00000000000E+00  0.91188000000E+02  0.91188000000E+02 0.  0.
    9900012    2    3    3    0    0  0.15297000711E+02 -0.87246299794E+01 -0.39667437699E+02  0.47787274055E+02  0.20000013725E+02 0.  0.
         12    1    3    3    0    0 -0.15297000711E+02  0.87246299794E+01  0.39667437699E+02  0.43400725945E+02  0.00000000000E+00 0. -1.
         11    1    4    4    0    0  0.32268694964E+01  0.51593340053E+01 -0.66600096647E+01  0.90214823128E+01  0.51100000000E-03 0. -1.
        -11    1    4    4    0    0  0.34588067035E+01 -0.56587243744E+01 -0.20276051133E+02  0.21333137490E+02  0.51100000000E-03 0.  1.
        -12    1    4    4    0    0  0.86113245108E+01 -0.82252396103E+01 -0.12731376901E+02  0.17432654252E+02  0.00000000000E+00 0.  1.
</event>
<event>
 8    1  0.6524083E-011  0.9118800E+02  0.7816164E-02  0.1184000E+00
        -11   -1    0    0    0    0  0.00000000000E+00  0.00000000000E+00  0.45593999997E+02  0.45594000000E+02  0.51100000000E-03 0. -1.
         11   -1    0    0    0    0 -0.00000000000E+00 -0.00000000000E+00 -0.45593999997E+02  0.45594000000E+02  0.51100000000E-03 0.  1.
         23    2    1    2    0    0  0.00000000000E+00  0.00000000000E+00  0.00000000000E+00  0.91188000000E+02  0.91188000000E+02 0.  0.
    9900012    2    3    3    0    0 -0.60224560930E+01  0.28653555243E+02  0.32036337848E+02  0.47787272492E+02  0.20000006600E+02 0.  0.
        -12    1    3    3    0    0  0.60224560930E+01 -0.28653555243E+02 -0.32036337848E+02  0.43400727508E+02  0.00000000000E+00 0.  1.
         11    1    4    4    0    0 -0.17848615360E+01  0.10533338023E+02  0.14060267037E+02  0.17658653687E+02  0.51100000000E-03 0. -1.
        -11    1    4    4    0    0 -0.59388872666E+01  0.74257413285E+01  0.16709977363E+02  0.19225903359E+02  0.51100000000E-03 0.  1.
        -12    1    4    4    0    0  0.17012927096E+01  0.10694475892E+02  0.12660934485E+01  0.10902715446E+02  0.00000000000E+00 0.  1.
</event>
<event>
 8    1  0.6524083E-011  0.9118800E+02  0.7816164E-02  0.1184000E+00
        -11   -1    0    0    0    0  0.00000000000E+00  0.00000000000E+00  0.45593999997E+02  0.45594000000E+02  0.51100000000E-03 0. -1.
         11   -1    0    0    0    0 -0.00000000000E+00 -0.00000000000E+00 -0.45593999997E+02  0.45594000000E+02  0.51100000000E-03 0.  1.
         23    2    1    2    0    0 -0.44408920985E-15 -0.17763568394E-14  0.00000000000E+00  0.91188000000E+02  0.91188000000E+02 0.  0.
    9900012    2    3    3    0    0  0.25580391822E+01 -0.98955227318E+01 -0.42180068168E+02  0.47787273217E+02  0.20000009908E+02 0.  0.
         12    1    3    3    0    0 -0.25580391822E+01  0.98955227318E+01  0.42180068168E+02  0.43400726783E+02  0.00000000000E+00 0. -1.
         11    1    4    4    0    0  0.68131913317E+00  0.10634315353E+01 -0.18421115484E+01  0.22334855293E+01  0.51100000000E-03 0. -1.
        -11    1    4    4    0    0  0.36293023039E+01 -0.15618381027E+02 -0.28295013780E+02  0.32522507071E+02  0.51100000000E-03 0.  1.
        -12    1    4    4    0    0 -0.17525822549E+01  0.46594267595E+01 -0.12042942839E+02  0.13031280617E+02  0.00000000000E+00 0.  1.
</event>
<event>
 8    1  0.6524083E-011  0.9118800E+02  0.7816164E-02  0.1184000E+00
        -11   -1    0    0    0    0  0.00000000000E+00  0.00000000000E+00  0.45593999997E+02  0.45594000000E+02  0.51100000000E-03 0. -1.
         11   -1    0    0    0    0 -0.00000000000E+00 -0.00000000000E+00 -0.45593999997E+02  0.45594000000E+02  0.51100000000E-03 0.  1.
         23    2    1    2    0    0 -0.88817841970E-15  0.17763568394E-14  0.00000000000E+00  0.91188000000E+02  0.91188000000E+02 0.  0.
    9900012    2    3    3    0    0 -0.19345417640E+01  0.12072547620E+02  0.41642938135E+02  0.47787272421E+02  0.20000006274E+02 0.  0.
        -12    1    3    3    0    0  0.19345417640E+01 -0.12072547620E+02 -0.41642938135E+02  0.43400727579E+02  0.00000000000E+00 0.  1.
         11    1    4    4    0    0 -0.57849040910E+01  0.58560671890E+01  0.16293131989E+02  0.18254445720E+02  0.51100000000E-03 0. -1.
        -11    1    4    4    0    0 -0.11473030778E+01  0.73069502441E+01  0.60171106532E+01  0.95348543301E+01  0.51100000000E-03 0.  1.
         12    1    4    4    0    0  0.49976654048E+01 -0.10904698126E+01  0.19332695493E+02  0.19997972371E+02  0.00000000000E+00 0. -1.
</event>
<event>
 8    1  0.6524083E-011  0.9118800E+02  0.7816164E-02  0.1184000E+00
        -11   -1    0    0    0    0  0.00000000000E+00  0.00000000000E+00  0.45593999997E+02  0.45594000000E+02  0.51100000000E-03 0. -1.
         11   -1    0    0    0    0 -0.00000000000E+00 -0.00000000000E+00 -0.45593999997E+02  0.45594000000E+02  0.51100000000E-03 0.  1.
         23    2    1    2    0    0  0.00000000000E+00  0.17763568394E-14  0.71054273576E-14  0.91188000000E+02  0.91188000000E+02 0.  0.
    9900012    2    3    3    0    0  0.14538002071E+02  0.87496340767E+01  0.39946390071E+02  0.47787266362E+02  0.19999978649E+02 0.  0.
        -12    1    3    3    0    0 -0.14538002071E+02 -0.87496340767E+01 -0.39946390071E+02  0.43400733638E+02  0.00000000000E+00 0.  1.
         11    1    4    4    0    0  0.16428385808E+02  0.33432037749E+01  0.26968133799E+02  0.31754513263E+02  0.51100000000E-03 0. -1.
        -11    1    4    4    0    0 -0.74250755999E+00  0.21647265149E+01  0.12320797813E+02  0.12531536912E+02  0.51100000000E-03 0.  1.
        -12    1    4    4    0    0 -0.11478761772E+01  0.32417037868E+01  0.65745845891E+00  0.35012161865E+01  0.00000000000E+00 0.  1.
</event>
<event>
 8    1  0.6524083E-011  0.9118800E+02  0.7816164E-02  0.1184000E+00
        -11   -1    0    0    0    0  0.00000000000E+00  0.00000000000E+00  0.45593999997E+02  0.45594000000E+02  0.51100000000E-03 0. -1.
         11   -1    0    0    0    0 -0.00000000000E+00 -0.00000000000E+00 -0.45593999997E+02  0.45594000000E+02  0.51100000000E-03 0.  1.
         23    2    1    2    0    0  0.00000000000E+00  0.35527136788E-14 -0.53290705182E-14  0.91188000000E+02  0.91188000000E+02 0.  0.
    9900012    2    3    3    0    0 -0.33850464630E+02 -0.22546630891E+02  0.15146578814E+02  0.47787269937E+02  0.19999994952E+02 0.  0.
        -12    1    3    3    0    0  0.33850464630E+02  0.22546630891E+02 -0.15146578814E+02  0.43400730063E+02  0.00000000000E+00 0.  1.
         11    1    4    4    0    0 -0.37588167862E+01  0.14804248603E+00 -0.16052321434E+01  0.40899132883E+01  0.51100000000E-03 0. -1.
        -11    1    4    4    0    0 -0.22748125946E+02 -0.13300111122E+02  0.17687288553E+02  0.31736577738E+02  0.51100000000E-03 0.  1.
         12    1    4    4    0    0 -0.73435218974E+01 -0.93945622547E+01 -0.93547759556E+00  0.11960778911E+02  0.00000000000E+00 0. -1.
</event>
<event>
 8    1  0.6524083E-011  0.9118800E+02  0.7816164E-02  0.1184000E+00
        -11   -1    0    0    0    0  0.00000000000E+00  0.00000000000E+00  0.45593999997E+02  0.45594000000E+02  0.51100000000E-03 0. -1.
         11   -1    0    0    0    0 -0.00000000000E+00 -0.00000000000E+00 -0.45593999997E+02  0.45594000000E+02  0.51100000000E-03 0.  1.
         23    2    1    2    0    0 -0.17763568394E-14  0.35527136788E-14  0.00000000000E+00  0.91188000000E+02  0.91188000000E+02 0.  0.
    9900012    2    3    3    0    0 -0.97880433023E+01 -0.29306579275E+02  0.30478553562E+02  0.47787267198E+02  0.19999982463E+02 0.  0.
        -12    1    3    3    0    0  0.97880433023E+01  0.29306579275E+02 -0.30478553562E+02  0.43400732802E+02  0.00000000000E+00 0.  1.
         11    1    4    4    0    0  0.74861994593E+00 -0.15766520767E+02  0.13587112285E+02  0.20826743131E+02  0.51100000000E-03 0. -1.
        -11    1    4    4    0    0 -0.16052298597E+01 -0.10650342219E+02  0.51808423581E+01  0.11951890230E+02  0.51100000000E-03 0.  1.
         12    1    4    4    0    0 -0.89314333884E+01 -0.28897162891E+01  0.11710598919E+02  0.15008633837E+02  0.00000000000E+00 0. -1.
</event>
<event>
 8    1  0.6524083E-011  0.9118800E+02  0.7816164E-02  0.1184000E+00
        -11   -1    0    0    0    0  0.00000000000E+00  0.00000000000E+00  0.45593999997E+02  0.45594000000E+02  0.51100000000E-03 0. -1.
         11   -1    0    0    0    0 -0.00000000000E+00 -0.00000000000E+00 -0.45593999997E+02  0.45594000000E+02  0.51100000000E-03 0.  1.
         23    2    1    2    0    0  0.17763568394E-14  0.00000000000E+00  0.00000000000E+00  0.91188000000E+02  0.91188000000E+02 0.  0.
    9900012    2    3    3    0    0 -0.13588384343E+02  0.19474171815E+02  0.36328180274E+02  0.47787259926E+02  0.19999949306E+02 0.  0.
        -12    1    3    3    0    0  0.13588384343E+02 -0.19474171815E+02 -0.36328180274E+02  0.43400740074E+02  0.00000000000E+00 0.  1.
         11    1    4    4    0    0 -0.93458653691E+01  0.49396060790E+01  0.10321285831E+02  0.14774093853E+02  0.51100000000E-03 0. -1.
        -11    1    4    4    0    0 -0.48170991683E+01 -0.50733053337E+00  0.36677067432E+01  0.60756811702E+01  0.51100000000E-03 0.  1.
         12    1    4    4    0    0  0.57458019413E+00  0.15041896269E+02  0.22339187700E+02  0.26937484902E+02  0.00000000000E+00 0. -1.
</event>
<event>
 8    1  0.6524083E-011  0.9118800E+02  0.7816164E-02  0.1184000E+00
        -11   -1    0    0    0    0  0.00000000000E+00  0.00000000000E+00  0.45593999997E+02  0.45594000000E+02  0.51100000000E-03 0. -1.
         11   -1    0    0    0    0 -0.00000000000E+00 -0.00000000000E+00 -0.45593999997E+02  0.45594000000E+02  0.51100000000E-03 0.  1.
         23    2    1    2    0    0  0.71054273576E-14  0.00000000000E+00  0.17763568394E-14  0.91188000000E+02  0.91188000000E+02 0.  0.
    9900012    2    3    3    0    0  0.40179545806E+02 -0.11269366333E+02  0.11925972946E+02  0.47787270174E+02  0.19999996032E+02 0.  0.
        -12    1    3    3    0    0 -0.40179545806E+02  0.11269366333E+02 -0.11925972946E+02  0.43400729826E+02  0.00000000000E+00 0.  1.
         11    1    4    4    0    0  0.28858947415E+02 -0.30724386758E+01  0.15274121238E+02  0.32795998310E+02  0.51100000000E-03 0. -1.
        -11    1    4    4    0    0  0.17319326131E+01 -0.40873309625E+00 -0.18176953188E+01  0.25437511383E+01  0.51100000000E-03 0.  1.
         12    1    4    4    0    0  0.95886657781E+01 -0.77881945606E+01 -0.15304529731E+01  0.12447520726E+02  0.00000000000E+00 0. -1.
</event>
<event>
 8    1  0.6524083E-011  0.9118800E+02  0.7816164E-02  0.1184000E+00
        -11   -1    0    0    0    0  0.00000000000E+00  0.00000000000E+00  0.45593999997E+02  0.45594000000E+02  0.51100000000E-03 0.  1.
         11   -1    0    0    0    0 -0.00000000000E+00 -0.00000000000E+00 -0.45593999997E+02  0.45594000000E+02  0.51100000000E-03 0. -1.
         23    2    1    2    0    0  0.71054273576E-14  0.66613381478E-15  0.00000000000E+00  0.91188000000E+02  0.91188000000E+02 0.  0.
    9900012    2    3    3    0    0  0.42553123937E+02 -0.17022694741E+01 -0.83640511435E+01  0.47787269249E+02  0.19999991814E+02 0.  0.
        -12    1    3    3    0    0 -0.42553123937E+02  0.17022694741E+01  0.83640511435E+01  0.43400730751E+02  0.00000000000E+00 0.  1.
         11    1    4    4    0    0  0.13956659368E+01 -0.19777820526E+01 -0.26029636580E+01  0.35545640127E+01  0.51100000000E-03 0. -1.
        -11    1    4    4    0    0  0.29016564956E+02  0.60314046814E+01 -0.77917253957E+01  0.30643920591E+02  0.51100000000E-03 0.  1.
        -12    1    4    4    0    0  0.12140893044E+02 -0.57558921029E+01  0.20306379101E+01  0.13588784645E+02  0.00000000000E+00 0.  1.
</event>
<event>
 8    1  0.6524083E-011  0.9118800E+02  0.7816164E-02  0.1184000E+00
        -11   -1    0    0    0    0  0.00000000000E+00  0.00000000000E+00  0.45593999997E+02  0.45594000000E+02  0.51100000000E-03 0. -1.
         11   -1    0    0    0    0 -0.00000000000E+00 -0.00000000000E+00 -0.45593999997E+02  0.45594000000E+02  0.51100000000E-03 0.  1.
         23    2    1    2    0    0 -0.88817841970E-15  0.00000000000E+00  0.00000000000E+00  0.91188000000E+02  0.91188000000E+02 0.  0.
    9900012    2    3    3    0    0 -0.78137961223E+01 -0.12184312428E+02 -0.40915893238E+02  0.47787271911E+02  0.20000003951E+02 0.  0.
         12    1    3    3    0    0  0.78137961223E+01  0.12184312428E+02  0.40915893238E+02  0.43400728089E+02  0.00000000000E+00 0. -1.
         11    1    4    4    0    0 -0.44939201141E+01  0.16377141568E+01 -0.10113110260E+01  0.48887806152E+01  0.51100000000E-03 0. -1.
        -11    1    4    4    0    0 -0.22603915511E+01 -0.27587796499E+01 -0.17839254128E+02  0.18192284717E+02  0.51100000000E-03 0.  1.
         12    1    4    4    0    0 -0.10594844571E+01 -0.11063246934E+02 -0.22065328084E+02  0.24706206579E+02  0.00000000000E+00 0. -1.
</event>
<event>
 8    1  0.6524083E-011  0.9118800E+02  0.7816164E-02  0.1184000E+00
        -11   -1    0    0    0    0  0.00000000000E+00  0.00000000000E+00  0.45593999997E+02  0.45594000000E+02  0.51100000000E-03 0. -1.
         11   -1    0    0    0    0 -0.00000000000E+00 -0.00000000000E+00 -0.45593999997E+02  0.45594000000E+02  0.51100000000E-03 0.  1.
         23    2    1    2    0    0 -0.35527136788E-14  0.00000000000E+00  0.00000000000E+00  0.91188000000E+02  0.91188000000E+02 0.  0.
    9900012    2    3    3    0    0  0.21889554080E+02  0.12270842703E+02 -0.35410406913E+02  0.47787273322E+02  0.20000010383E+02 0.  0.
         12    1    3    3    0    0 -0.21889554080E+02 -0.12270842703E+02  0.35410406913E+02  0.43400726678E+02  0.00000000000E+00 0. -1.
         11    1    4    4    0    0  0.58607328081E+01  0.70623458089E+01 -0.21863073039E+02  0.23711155188E+02  0.51100000000E-03 0. -1.
        -11    1    4    4    0    0  0.11049145816E+02  0.84792164328E+01 -0.99468406052E+01  0.17114916677E+02  0.51100000000E-03 0.  1.
         12    1    4    4    0    0  0.49796754559E+01 -0.32707195382E+01 -0.36004932687E+01  0.69612014568E+01  0.00000000000E+00 0. -1.
</event>
<event>
 8    1  0.6524083E-011  0.9118800E+02  0.7816164E-02  0.1184000E+00
        -11   -1    0    0    0    0  0.00000000000E+00  0.00000000000E+00  0.45593999997E+02  0.45594000000E+02  0.51100000000E-03 0. -1.
         11   -1    0    0    0    0 -0.00000000000E+00 -0.00000000000E+00 -0.45593999997E+02  0.45594000000E+02  0.51100000000E-03 0.  1.
         23    2    1    2    0    0 -0.66613381478E-15  0.00000000000E+00  0.00000000000E+00  0.91188000000E+02  0.91188000000E+02 0.  0.
    9900012    2    3    3    0    0 -0.11345232122E+01  0.84036527648E+01  0.42564239779E+02  0.47787273846E+02  0.20000012773E+02 0.  0.
        -12    1    3    3    0    0  0.11345232122E+01 -0.84036527648E+01 -0.42564239779E+02  0.43400726154E+02  0.00000000000E+00 0.  1.
         11    1    4    4    0    0 -0.50693157544E+01  0.52962178609E+01  0.25294832628E+02  0.26335839531E+02  0.51100000000E-03 0. -1.
        -11    1    4    4    0    0  0.19694211143E+01  0.69273352832E+01  0.59416789830E+01  0.93364952230E+01  0.51100000000E-03 0.  1.
        -12    1    4    4    0    0  0.19653714279E+01 -0.38199003792E+01  0.11327728168E+02  0.12114939092E+02  0.00000000000E+00 0.  1.
</event>
<event>
 8    1  0.6524083E-011  0.9118800E+02  0.7816164E-02  0.1184000E+00
        -11   -1    0    0    0    0  0.00000000000E+00  0.00000000000E+00  0.45593999997E+02  0.45594000000E+02  0.51100000000E-03 0. -1.
         11   -1    0    0    0    0 -0.00000000000E+00 -0.00000000000E+00 -0.45593999997E+02  0.45594000000E+02  0.51100000000E-03 0.  1.
         23    2    1    2    0    0  0.88817841970E-15  0.71054273576E-14  0.00000000000E+00  0.91188000000E+02  0.91188000000E+02 0.  0.
    9900012    2    3    3    0    0  0.55858701033E+01  0.22960823432E+02  0.36403612919E+02  0.47787258175E+02  0.19999941321E+02 0.  0.
        -12    1    3    3    0    0 -0.55858701033E+01 -0.22960823432E+02 -0.36403612919E+02  0.43400741825E+02  0.00000000000E+00 0.  1.
         11    1    4    4    0    0  0.11504362583E+02  0.16769446505E+02  0.25548833063E+02  0.32654365185E+02  0.51100000000E-03 0. -1.
        -11    1    4    4    0    0 -0.33487755703E+01  0.62089377908E+01  0.10331787458E+02  0.12510437188E+02  0.51100000000E-03 0.  1.
         12    1    4    4    0    0 -0.25697169095E+01 -0.17560863607E-01  0.52299239781E+00  0.26224558008E+01  0.00000000000E+00 0. -1.
</event>
<event>
 8    1  0.6524083E-011  0.9118800E+02  0.7816164E-02  0.1184000E+00
        -11   -1    0    0    0    0  0.00000000000E+00  0.00000000000E+00  0.45593999997E+02  0.45594000000E+02  0.51100000000E-03 0. -1.
         11   -1    0    0    0    0 -0.00000000000E+00 -0.00000000000E+00 -0.45593999997E+02  0.45594000000E+02  0.51100000000E-03 0.  1.
         23    2    1    2    0    0  0.35527136788E-14 -0.17763568394E-14  0.00000000000E+00  0.91188000000E+02  0.91188000000E+02 0.  0.
    9900012    2    3    3    0    0  0.14160959720E+02 -0.13925335647E+02 -0.38589828811E+02  0.47787278338E+02  0.20000033255E+02 0.  0.
         12    1    3    3    0    0 -0.14160959720E+02  0.13925335647E+02  0.38589828811E+02  0.43400721662E+02  0.00000000000E+00 0. -1.
         11    1    4    4    0    0  0.66041456203E+01 -0.69406473110E+01 -0.90106402865E+01  0.13152146711E+02  0.51100000000E-03 0. -1.
        -11    1    4    4    0    0  0.57776682270E+01 -0.24259919729E+01 -0.19308430907E+01  0.65570605072E+01  0.51100000000E-03 0.  1.
        -12    1    4    4    0    0  0.17791458728E+01 -0.45586963630E+01 -0.27648345434E+02  0.28078071120E+02  0.00000000000E+00 0.  1.
</event>
<event>
 8    1  0.6524083E-011  0.9118800E+02  0.7816164E-02  0.1184000E+00
        -11   -1    0    0    0    0  0.00000000000E+00  0.00000000000E+00  0.45593999997E+02  0.45594000000E+02  0.51100000000E-03 0. -1.
         11   -1    0    0    0    0 -0.00000000000E+00 -0.00000000000E+00 -0.45593999997E+02  0.45594000000E+02  0.51100000000E-03 0.  1.
         23    2    1    2    0    0  0.00000000000E+00  0.00000000000E+00 -0.17763568394E-14  0.91188000000E+02  0.91188000000E+02 0.  0.
    9900012    2    3    3    0    0  0.16064109225E+02  0.39765395660E+02 -0.66543936663E+01  0.47787271294E+02  0.20000001136E+02 0.  0.
         12    1    3    3    0    0 -0.16064109225E+02 -0.39765395660E+02  0.66543936663E+01  0.43400728706E+02  0.00000000000E+00 0. -1.
         11    1    4    4    0    0  0.31487746986E+01  0.13260385651E+02  0.53961991773E+00  0.13639787375E+02  0.51100000000E-03 0. -1.
        -11    1    4    4    0    0  0.60323699952E+01  0.82338221614E+01 -0.10156588246E+02  0.14399361104E+02  0.51100000000E-03 0.  1.
        -12    1    4    4    0    0  0.68829645314E+01  0.18271187847E+02  0.29625746615E+01  0.19748122815E+02  0.00000000000E+00 0.  1.
</event>
<event>
 8    1  0.6524083E-011  0.9118800E+02  0.7816164E-02  0.1184000E+00
        -11   -1    0    0    0    0  0.00000000000E+00  0.00000000000E+00  0.45593999997E+02  0.45594000000E+02  0.51100000000E-03 0. -1.
         11   -1    0    0    0    0 -0.00000000000E+00 -0.00000000000E+00 -0.45593999997E+02  0.45594000000E+02  0.51100000000E-03 0.  1.
         23    2    1    2    0    0  0.00000000000E+00  0.17763568394E-14  0.00000000000E+00  0.91188000000E+02  0.91188000000E+02 0.  0.
    9900012    2    3    3    0    0  0.26500200049E+02  0.80135496864E+01  0.33423732914E+02  0.47787268404E+02  0.19999987961E+02 0.  0.
        -12    1    3    3    0    0 -0.26500200049E+02 -0.80135496864E+01 -0.33423732914E+02  0.43400731596E+02  0.00000000000E+00 0.  1.
         11    1    4    4    0    0 -0.25790047235E+00  0.37771699678E+01  0.25746187322E+01  0.45784481538E+01  0.51100000000E-03 0. -1.
        -11    1    4    4    0    0  0.21841296767E+02  0.22779583185E+01  0.15248121724E+02  0.26734557317E+02  0.51100000000E-03 0.  1.
         12    1    4    4    0    0  0.49168037540E+01  0.19584214001E+01  0.15600992457E+02  0.16474262933E+02  0.00000000000E+00 0. -1.
</event>
<event>
 8    1  0.6524083E-011  0.9118800E+02  0.7816164E-02  0.1184000E+00
        -11   -1    0    0    0    0  0.00000000000E+00  0.00000000000E+00  0.45593999997E+02  0.45594000000E+02  0.51100000000E-03 0. -1.
         11   -1    0    0    0    0 -0.00000000000E+00 -0.00000000000E+00 -0.45593999997E+02  0.45594000000E+02  0.51100000000E-03 0.  1.
         23    2    1    2    0    0 -0.17763568394E-14  0.17763568394E-14  0.00000000000E+00  0.91188000000E+02  0.91188000000E+02 0.  0.
    9900012    2    3    3    0    0  0.11951455528E+02  0.10899230729E+02  0.40273969697E+02  0.47787272415E+02  0.20000006251E+02 0.  0.
        -12    1    3    3    0    0 -0.11951455528E+02 -0.10899230729E+02 -0.40273969697E+02  0.43400727585E+02  0.00000000000E+00 0.  1.
         11    1    4    4    0    0  0.64586091196E+01 -0.24013402947E+01  0.35175774294E+01  0.77364990922E+01  0.51100000000E-03 0. -1.
        -11    1    4    4    0    0 -0.63805079636E+00  0.20822092418E+01  0.11918613805E+02  0.12115942367E+02  0.51100000000E-03 0.  1.
         12    1    4    4    0    0  0.61308972043E+01  0.11218361782E+02  0.24837778463E+02  0.27934830956E+02  0.00000000000E+00 0. -1.
</event>
<event>
 8    1  0.6524083E-011  0.9118800E+02  0.7816164E-02  0.1184000E+00
        -11   -1    0    0    0    0  0.00000000000E+00  0.00000000000E+00  0.45593999997E+02  0.45594000000E+02  0.51100000000E-03 0. -1.
         11   -1    0    0    0    0 -0.00000000000E+00 -0.00000000000E+00 -0.45593999997E+02  0.45594000000E+02  0.51100000000E-03 0.  1.
         23    2    1    2    0    0  0.00000000000E+00  0.35527136788E-14  0.00000000000E+00  0.91188000000E+02  0.91188000000E+02 0.  0.
    9900012    2    3    3    0    0  0.35041708974E+02 -0.23659005592E+02  0.97955709150E+01  0.47787272783E+02  0.20000007927E+02 0.  0.
        -12    1    3    3    0    0 -0.35041708974E+02  0.23659005592E+02 -0.97955709150E+01  0.43400727217E+02  0.00000000000E+00 0.  1.
         11    1    4    4    0    0  0.15909410959E+02 -0.46491159327E+01  0.77489892622E+01  0.18296733885E+02  0.51100000000E-03 0. -1.
        -11    1    4    4    0    0  0.30793156292E+01  0.13862631348E+01  0.96549834965E+00  0.35122781136E+01  0.51100000000E-03 0.  1.
         12    1    4    4    0    0  0.16052982386E+02 -0.20396152794E+02  0.10810833032E+01  0.25978260784E+02  0.00000000000E+00 0. -1.
</event>
<event>
 8    1  0.6524083E-011  0.9118800E+02  0.7816164E-02  0.1184000E+00
        -11   -1    0    0    0    0  0.00000000000E+00  0.00000000000E+00  0.45593999997E+02  0.45594000000E+02  0.51100000000E-03 0.  1.
         11   -1    0    0    0    0 -0.00000000000E+00 -0.00000000000E+00 -0.45593999997E+02  0.45594000000E+02  0.51100000000E-03 0. -1.
         23    2    1    2    0    0  0.00000000000E+00  0.00000000000E+00  0.00000000000E+00  0.91188000000E+02  0.91188000000E+02 0.  0.
    9900012    2    3    3    0    0  0.40923728349E+02  0.13619537015E+02  0.48352754380E+01  0.47787271676E+02  0.20000002880E+02 0.  0.
         12    1    3    3    0    0 -0.40923728349E+02 -0.13619537015E+02 -0.48352754380E+01  0.43400728324E+02  0.00000000000E+00 0. -1.
         11    1    4    4    0    0  0.91169952635E+01 -0.69157323309E+00  0.44677696899E+01  0.10176386512E+02  0.51100000000E-03 0. -1.
        -11    1    4    4    0    0  0.32482132761E+02  0.11800054241E+02  0.18665181768E+01  0.34609451298E+02  0.51100000000E-03 0.  1.
         12    1    4    4    0    0 -0.67539967555E+00  0.25110560071E+01 -0.14990124287E+01  0.30014338663E+01  0.00000000000E+00 0. -1.
</event>
<event>
 8    1  0.6524083E-011  0.9118800E+02  0.7816164E-02  0.1184000E+00
        -11   -1    0    0    0    0  0.00000000000E+00  0.00000000000E+00  0.45593999997E+02  0.45594000000E+02  0.51100000000E-03 0. -1.
         11   -1    0    0    0    0 -0.00000000000E+00 -0.00000000000E+00 -0.45593999997E+02  0.45594000000E+02  0.51100000000E-03 0.  1.
         23    2    1    2    0    0  0.44408920985E-15  0.35527136788E-14  0.00000000000E+00  0.91188000000E+02  0.91188000000E+02 0.  0.
    9900012    2    3    3    0    0  0.35145273382E+01 -0.31004685811E+02 -0.30165881577E+02  0.47787275859E+02  0.20000021953E+02 0.  0.
         12    1    3    3    0    0 -0.35145273382E+01  0.31004685811E+02  0.30165881577E+02  0.43400724141E+02  0.00000000000E+00 0. -1.
         11    1    4    4    0    0 -0.39064176649E+01 -0.33107704394E+01 -0.57129948821E+01  0.76720017374E+01  0.51100000000E-03 0. -1.
        -11    1    4    4    0    0  0.81055307975E+01 -0.76634290833E+01 -0.12609717413E+02  0.16835461037E+02  0.51100000000E-03 0.  1.
        -12    1    4    4    0    0 -0.68458579437E+00 -0.20030486288E+02 -0.11843169281E+02  0.23279813085E+02  0.00000000000E+00 0.  1.
</event>
<event>
 8    1  0.6524083E-011  0.9118800E+02  0.7816164E-02  0.1184000E+00
        -11   -1    0    0    0    0  0.00000000000E+00  0.00000000000E+00  0.45593999997E+02  0.45594000000E+02  0.51100000000E-03 0.  1.
         11   -1    0    0    0    0 -0.00000000000E+00 -0.00000000000E+00 -0.45593999997E+02  0.45594000000E+02  0.51100000000E-03 0. -1.
         23    2    1    2    0    0  0.17763568394E-14 -0.71054273576E-14  0.17763568394E-14  0.91188000000E+02  0.91188000000E+02 0.  0.
    9900012    2    3    3    0    0  0.15326704669E+02  0.37903893869E+02  0.14560569308E+02  0.47787271608E+02  0.20000002568E+02 0.  0.
        -12    1    3    3    0    0 -0.15326704669E+02 -0.37903893869E+02 -0.14560569308E+02  0.43400728392E+02  0.00000000000E+00 0.  1.
         11    1    4    4    0    0  0.46861190892E+01  0.26247703196E+02  0.93225220143E+01  0.28245549245E+02  0.51100000000E-03 0. -1.
        -11    1    4    4    0    0  0.44374369434E+01  0.65033266562E+01 -0.26047516207E+01  0.82926977210E+01  0.51100000000E-03 0.  1.
         12    1    4    4    0    0  0.62031486365E+01  0.51528640162E+01  0.78427989141E+01  0.11249024641E+02  0.00000000000E+00 0. -1.
</event>
<event>
 8    1  0.6524083E-011  0.9118800E+02  0.7816164E-02  0.1184000E+00
        -11   -1    0    0    0    0  0.00000000000E+00  0.00000000000E+00  0.45593999997E+02  0.45594000000E+02  0.51100000000E-03 0. -1.
         11   -1    0    0    0    0 -0.00000000000E+00 -0.00000000000E+00 -0.45593999997E+02  0.45594000000E+02  0.51100000000E-03 0.  1.
         23    2    1    2    0    0  0.35527136788E-14 -0.10658141036E-13  0.00000000000E+00  0.91188000000E+02  0.91188000000E+02 0.  0.
    9900012    2    3    3    0    0 -0.12250269407E+02  0.28689820387E+02 -0.30173635346E+02  0.47787272306E+02  0.20000005750E+02 0.  0.
         12    1    3    3    0    0  0.12250269407E+02 -0.28689820387E+02  0.30173635346E+02  0.43400727694E+02  0.00000000000E+00 0. -1.
         11    1    4    4    0    0 -0.43117566343E+01  0.10520647379E+02 -0.19222402095E+01  0.11531273748E+02  0.51100000000E-03 0. -1.
        -11    1    4    4    0    0 -0.10090194768E+02  0.17548615147E+02 -0.23590235067E+02  0.31084805208E+02  0.51100000000E-03 0.  1.
         12    1    4    4    0    0  0.21516819956E+01  0.62055786042E+00 -0.46611600693E+01  0.51711933497E+01  0.00000000000E+00 0. -1.
</event>
<event>
 8    1  0.6524083E-011  0.9118800E+02  0.7816164E-02  0.1184000E+00
        -11   -1    0    0    0    0  0.00000000000E+00  0.00000000000E+00  0.45593999997E+02  0.45594000000E+02  0.51100000000E-03 0. -1.
         11   -1    0    0    0    0 -0.00000000000E+00 -0.00000000000E+00 -0.45593999997E+02  0.45594000000E+02  0.51100000000E-03 0.  1.
         23    2    1    2    0    0 -0.35527136788E-14  0.00000000000E+00 -0.71054273576E-14  0.91188000000E+02  0.91188000000E+02 0.  0.
    9900012    2    3    3    0    0 -0.19595371957E+02 -0.71574286891E+01 -0.38058060071E+02  0.47787270467E+02  0.19999997369E+02 0.  0.
         12    1    3    3    0    0  0.19595371957E+02  0.71574286891E+01  0.38058060071E+02  0.43400729533E+02  0.00000000000E+00 0. -1.
         11    1    4    4    0    0 -0.45957350027E+01  0.49292492214E+00 -0.36312663873E+01  0.58779121319E+01  0.51100000000E-03 0. -1.
        -11    1    4    4    0    0 -0.10776562122E+02  0.23736602116E+01 -0.89515180119E+01  0.14209089659E+02  0.51100000000E-03 0.  1.
         12    1    4    4    0    0 -0.42230748326E+01 -0.10024013823E+02 -0.25475275672E+02  0.27700268676E+02  0.00000000000E+00 0. -1.
</event>
<event>
 8    1  0.6524083E-011  0.9118800E+02  0.7816164E-02  0.1184000E+00
        -11   -1    0    0    0    0  0.00000000000E+00  0.00000000000E+00  0.45593999997E+02  0.45594000000E+02  0.51100000000E-03 0.  1.
         11   -1    0    0    0    0 -0.00000000000E+00 -0.00000000000E+00 -0.45593999997E+02  0.45594000000E+02  0.51100000000E-03 0. -1.
         23    2    1    2    0    0  0.00000000000E+00  0.35527136788E-14  0.44408920985E-15  0.91188000000E+02  0.91188000000E+02 0.  0.
    9900012    2    3    3    0    0 -0.39713389968E+02 -0.17263125488E+02 -0.29076251800E+01  0.47787272718E+02  0.20000007632E+02 0.  0.
         12    1    3    3    0    0  0.39713389968E+02  0.17263125488E+02  0.29076251800E+01  0.43400727282E+02  0.00000000000E+00 0. -1.
         11    1    4    4    0    0 -0.79692717064E+01 -0.90361079901E+01 -0.14556116332E+01  0.12135870164E+02  0.51100000000E-03 0. -1.
        -11    1    4    4    0    0 -0.47266274457E+01  0.80255363352E+00  0.44711919448E+01  0.65556583967E+01  0.51100000000E-03 0.  1.
         12    1    4    4    0    0 -0.27017490816E+02 -0.90295711315E+01 -0.59232054916E+01  0.29095744158E+02  0.00000000000E+00 0. -1.
</event>
<event>
 8    1  0.6524083E-011  0.9118800E+02  0.7816164E-02  0.1184000E+00
        -11   -1    0    0    0    0  0.00000000000E+00  0.00000000000E+00  0.45593999997E+02  0.45594000000E+02  0.51100000000E-03 0. -1.
         11   -1    0    0    0    0 -0.00000000000E+00 -0.00000000000E+00 -0.45593999997E+02  0.45594000000E+02  0.51100000000E-03 0.  1.
         23    2    1    2    0    0  0.00000000000E+00  0.00000000000E+00  0.00000000000E+00  0.91188000000E+02  0.91188000000E+02 0.  0.
    9900012    2    3    3    0    0 -0.58417880539E+01  0.31317739430E+02  0.29473648286E+02  0.47787271505E+02  0.20000002098E+02 0.  0.
        -12    1    3    3    0    0  0.58417880539E+01 -0.31317739430E+02 -0.29473648286E+02  0.43400728495E+02  0.00000000000E+00 0.  1.
         11    1    4    4    0    0  0.36826685399E+01  0.23095828408E+02  0.22832009970E+02  0.32684553186E+02  0.51100000000E-03 0. -1.
        -11    1    4    4    0    0 -0.20049966413E+01  0.17494728390E+01 -0.71039856447E+00  0.27541483489E+01  0.51100000000E-03 0.  1.
        -12    1    4    4    0    0 -0.75194599525E+01  0.64724381822E+01  0.73520368803E+01  0.12348569969E+02  0.00000000000E+00 0.  1.
</event>
<event>
 8    1  0.6524083E-011  0.9118800E+02  0.7816164E-02  0.1184000E+00
        -11   -1    0    0    0    0  0.00000000000E+00  0.00000000000E+00  0.45593999997E+02  0.45594000000E+02  0.51100000000E-03 0.  1.
         11   -1    0    0    0    0 -0.00000000000E+00 -0.00000000000E+00 -0.45593999997E+02  0.45594000000E+02  0.51100000000E-03 0. -1.
         23    2    1    2    0    0  0.00000000000E+00  0.71054273576E-14  0.00000000000E+00  0.91188000000E+02  0.91188000000E+02 0.  0.
    9900012    2    3    3    0    0  0.12526278184E+02 -0.41217297036E+02  0.52773103777E+01  0.47787271608E+02  0.20000002571E+02 0.  0.
        -12    1    3    3    0    0 -0.12526278184E+02  0.41217297036E+02 -0.52773103777E+01  0.43400728392E+02  0.00000000000E+00 0.  1.
         11    1    4    4    0    0  0.60867083898E+01 -0.18383799110E+02  0.19239715359E+00  0.19366184592E+02  0.51100000000E-03 0. -1.
        -11    1    4    4    0    0  0.41177977633E+01 -0.15413064229E+02  0.10362738883E+02  0.19023805212E+02  0.51100000000E-03 0.  1.
         12    1    4    4    0    0  0.23217720311E+01 -0.74204336973E+01 -0.52778256585E+01  0.93972818039E+01  0.00000000000E+00 0. -1.
</event>
<event>
 8    1  0.6524083E-011  0.9118800E+02  0.7816164E-02  0.1184000E+00
        -11   -1    0    0    0    0  0.00000000000E+00  0.00000000000E+00  0.45593999997E+02  0.45594000000E+02  0.51100000000E-03 0. -1.
         11   -1    0    0    0    0 -0.00000000000E+00 -0.00000000000E+00 -0.45593999997E+02  0.45594000000E+02  0.51100000000E-03 0.  1.
         23    2    1    2    0    0  0.17763568394E-14  0.00000000000E+00  0.00000000000E+00  0.91188000000E+02  0.91188000000E+02 0.  0.
    9900012    2    3    3    0    0 -0.19495280560E+00  0.23348162024E+01 -0.43337445173E+02  0.47787268124E+02  0.19999986684E+02 0.  0.
         12    1    3    3    0    0  0.19495280560E+00 -0.23348162024E+01  0.43337445173E+02  0.43400731876E+02  0.00000000000E+00 0. -1.
         11    1    4    4    0    0 -0.24319898238E+01  0.25823185553E+01 -0.39010130235E+01  0.52726508034E+01  0.51100000000E-03 0. -1.
        -11    1    4    4    0    0  0.80410991305E+01 -0.39889789853E+01 -0.22533800287E+02  0.24255790735E+02  0.51100000000E-03 0.  1.
        -12    1    4    4    0    0 -0.58040621123E+01  0.37414766325E+01 -0.16902631862E+02  0.18258826585E+02  0.00000000000E+00 0.  1.
</event>
<event>
 8    1  0.6524083E-011  0.9118800E+02  0.7816164E-02  0.1184000E+00
        -11   -1    0    0    0    0  0.00000000000E+00  0.00000000000E+00  0.45593999997E+02  0.45594000000E+02  0.51100000000E-03 0. -1.
         11   -1    0    0    0    0 -0.00000000000E+00 -0.00000000000E+00 -0.45593999997E+02  0.45594000000E+02  0.51100000000E-03 0.  1.
         23    2    1    2    0    0  0.17763568394E-14  0.00000000000E+00  0.71054273576E-14  0.91188000000E+02  0.91188000000E+02 0.  0.
    9900012    2    3    3    0    0 -0.12703689695E+02  0.82201855674E+01 -0.40677610620E+02  0.47787272030E+02  0.20000004493E+02 0.  0.
         12    1    3    3    0    0  0.12703689695E+02 -0.82201855674E+01  0.40677610620E+02  0.43400727970E+02  0.00000000000E+00 0. -1.
         11    1    4    4    0    0 -0.39616191047E+01  0.16688672202E+01 -0.33819019210E+02  0.34091136741E+02  0.51100000000E-03 0. -1.
        -11    1    4    4    0    0 -0.40897957390E+01  0.45696229909E+01 -0.59763769606E+01  0.85629997840E+01  0.51100000000E-03 0.  1.
         12    1    4    4    0    0 -0.46522748510E+01  0.19816953563E+01 -0.88221444904E+00  0.51331355046E+01  0.00000000000E+00 0. -1.
</event>
<event>
 8    1  0.6524083E-011  0.9118800E+02  0.7816164E-02  0.1184000E+00
        -11   -1    0    0    0    0  0.00000000000E+00  0.00000000000E+00  0.45593999997E+02  0.45594000000E+02  0.51100000000E-03 0. -1.
         11   -1    0    0    0    0 -0.00000000000E+00 -0.00000000000E+00 -0.45593999997E+02  0.45594000000E+02  0.51100000000E-03 0.  1.
         23    2    1    2    0    0  0.00000000000E+00  0.00000000000E+00  0.00000000000E+00  0.91188000000E+02  0.91188000000E+02 0.  0.
    9900012    2    3    3    0    0 -0.37225588547E+02  0.13898877239E+02 -0.17455647643E+02  0.47787275745E+02  0.20000021434E+02 0.  0.
         12    1    3    3    0    0  0.37225588547E+02 -0.13898877239E+02  0.17455647643E+02  0.43400724255E+02  0.00000000000E+00 0. -1.
         11    1    4    4    0    0  0.14991680052E+00 -0.13798658401E+01 -0.18617091121E+01  0.23221683537E+01  0.51100000000E-03 0. -1.
        -11    1    4    4    0    0 -0.15939704182E+02  0.11103905788E+02 -0.15222428037E+01  0.19485587406E+02  0.51100000000E-03 0.  1.
         12    1    4    4    0    0 -0.21435801166E+02  0.41748372908E+01 -0.14071695728E+02  0.25979519985E+02  0.00000000000E+00 0. -1.
</event>
<event>
 8    1  0.6524083E-011  0.9118800E+02  0.7816164E-02  0.1184000E+00
        -11   -1    0    0    0    0  0.00000000000E+00  0.00000000000E+00  0.45593999997E+02  0.45594000000E+02  0.51100000000E-03 0. -1.
         11   -1    0    0    0    0 -0.00000000000E+00 -0.00000000000E+00 -0.45593999997E+02  0.45594000000E+02  0.51100000000E-03 0.  1.
         23    2    1    2    0    0  0.00000000000E+00 -0.44408920985E-15  0.35527136788E-14  0.91188000000E+02  0.91188000000E+02 0.  0.
    9900012    2    3    3    0    0 -0.33301440167E+02  0.24163558349E+01  0.27727266095E+02  0.47787239893E+02  0.19999857970E+02 0.  0.
        -12    1    3    3    0    0  0.33301440167E+02 -0.24163558349E+01 -0.27727266095E+02  0.43400760107E+02  0.00000000000E+00 0.  1.
         11    1    4    4    0    0 -0.20572491654E+02  0.43166238041E+01  0.13777837066E+02  0.25133432881E+02  0.51100000000E-03 0. -1.
        -11    1    4    4    0    0 -0.91963626242E+01 -0.53938436282E+01  0.37378148782E+01  0.11297694231E+02  0.51100000000E-03 0.  1.
         12    1    4    4    0    0 -0.35325858888E+01  0.34935756590E+01  0.10211614151E+02  0.11356112782E+02  0.00000000000E+00 0. -1.
</event>
<event>
 8    1  0.6524083E-011  0.9118800E+02  0.7816164E-02  0.1184000E+00
        -11   -1    0    0    0    0  0.00000000000E+00  0.00000000000E+00  0.45593999997E+02  0.45594000000E+02  0.51100000000E-03 0. -1.
         11   -1    0    0    0    0 -0.00000000000E+00 -0.00000000000E+00 -0.45593999997E+02  0.45594000000E+02  0.51100000000E-03 0.  1.
         23    2    1    2    0    0  0.00000000000E+00 -0.44408920985E-15  0.00000000000E+00  0.91188000000E+02  0.91188000000E+02 0.  0.
    9900012    2    3    3    0    0  0.90724022085E+01  0.30072615175E+01 -0.42335226452E+02  0.47787268411E+02  0.19999987994E+02 0.  0.
         12    1    3    3    0    0 -0.90724022085E+01 -0.30072615175E+01  0.42335226452E+02  0.43400731589E+02  0.00000000000E+00 0. -1.
         11    1    4    4    0    0  0.10879979664E+02 -0.11467143664E+01 -0.29728743443E+02  0.31677864484E+02  0.51100000000E-03 0.  1.
        -11    1    4    4    0    0 -0.12231166805E+01 -0.26102411076E+01 -0.19726213328E+01  0.34929369072E+01  0.51100000000E-03 0. -1.
        -12    1    4    4    0    0 -0.58446077493E+00  0.67642169915E+01 -0.10633861676E+02  0.12616467020E+02  0.00000000000E+00 0.  1.
</event>
<event>
 8    1  0.6524083E-011  0.9118800E+02  0.7816164E-02  0.1184000E+00
        -11   -1    0    0    0    0  0.00000000000E+00  0.00000000000E+00  0.45593999997E+02  0.45594000000E+02  0.51100000000E-03 0. -1.
         11   -1    0    0    0    0 -0.00000000000E+00 -0.00000000000E+00 -0.45593999997E+02  0.45594000000E+02  0.51100000000E-03 0.  1.
         23    2    1    2    0    0  0.00000000000E+00 -0.71054273576E-14  0.00000000000E+00  0.91188000000E+02  0.91188000000E+02 0.  0.
    9900012    2    3    3    0    0 -0.12594495211E+02 -0.38746153815E+02 -0.14957858270E+02  0.47787271099E+02  0.20000000249E+02 0.  0.
         12    1    3    3    0    0  0.12594495211E+02  0.38746153815E+02  0.14957858270E+02  0.43400728901E+02  0.00000000000E+00 0. -1.
         11    1    4    4    0    0 -0.36072579864E+01 -0.12883481686E+02 -0.57493481110E+01  0.14561985252E+02  0.51100000000E-03 0. -1.
        -11    1    4    4    0    0 -0.76625381697E+01 -0.27271945610E+02 -0.52371856053E+01  0.28808013154E+02  0.51100000000E-03 0.  1.
         12    1    4    4    0    0 -0.13246990545E+01  0.14092734805E+01 -0.39713245539E+01  0.44172726926E+01  0.00000000000E+00 0. -1.
</event>
<event>
 8    1  0.6524083E-011  0.9118800E+02  0.7816164E-02  0.1184000E+00
        -11   -1    0    0    0    0  0.00000000000E+00  0.00000000000E+00  0.45593999997E+02  0.45594000000E+02  0.51100000000E-03 0. -1.
         11   -1    0    0    0    0 -0.00000000000E+00 -0.00000000000E+00 -0.45593999997E+02  0.45594000000E+02  0.51100000000E-03 0.  1.
         23    2    1    2    0    0  0.00000000000E+00  0.00000000000E+00  0.00000000000E+00  0.91188000000E+02  0.91188000000E+02 0.  0.
    9900012    2    3    3    0    0  0.69994075754E+01  0.43808763070E+00 -0.42830355608E+02  0.47787274330E+02  0.20000014981E+02 0.  0.
         12    1    3    3    0    0 -0.69994075754E+01 -0.43808763070E+00  0.42830355608E+02  0.43400725670E+02  0.00000000000E+00 0. -1.
         11    1    4    4    0    0 -0.19653090622E+01  0.43669768549E+01 -0.17132870906E+02  0.17789552898E+02  0.51100000000E-03 0. -1.
        -11    1    4    4    0    0 -0.63685063071E+00 -0.44050505092E+01 -0.30535055457E+01  0.53975869695E+01  0.51100000000E-03 0.  1.
        -12    1    4    4    0    0  0.96015672683E+01  0.47616128492E+00 -0.22643979156E+02  0.24600134463E+02  0.00000000000E+00 0.  1.
</event>
<event>
 8    1  0.6524083E-011  0.9118800E+02  0.7816164E-02  0.1184000E+00
        -11   -1    0    0    0    0  0.00000000000E+00  0.00000000000E+00  0.45593999997E+02  0.45594000000E+02  0.51100000000E-03 0. -1.
         11   -1    0    0    0    0 -0.00000000000E+00 -0.00000000000E+00 -0.45593999997E+02  0.45594000000E+02  0.51100000000E-03 0.  1.
         23    2    1    2    0    0  0.00000000000E+00  0.00000000000E+00  0.00000000000E+00  0.91188000000E+02  0.91188000000E+02 0.  0.
    9900012    2    3    3    0    0  0.24925345994E+02 -0.26344853554E+02 -0.23839025278E+02  0.47787270653E+02  0.19999998214E+02 0.  0.
         12    1    3    3    0    0 -0.24925345994E+02  0.26344853554E+02  0.23839025278E+02  0.43400729347E+02  0.00000000000E+00 0. -1.
         11    1    4    4    0    0  0.89845481727E+01 -0.12374313438E+02 -0.15582402821E+01  0.15371202034E+02  0.51100000000E-03 0. -1.
        -11    1    4    4    0    0  0.86214421781E+01 -0.10043688878E+02 -0.68790624883E+01  0.14917320553E+02  0.51100000000E-03 0.  1.
         12    1    4    4    0    0  0.73193556431E+01 -0.39268512380E+01 -0.15401722507E+02  0.17498748066E+02  0.00000000000E+00 0. -1.
</event>
<event>
 8    1  0.6524083E-011  0.9118800E+02  0.7816164E-02  0.1184000E+00
        -11   -1    0    0    0    0  0.00000000000E+00  0.00000000000E+00  0.45593999997E+02  0.45594000000E+02  0.51100000000E-03 0. -1.
         11   -1    0    0    0    0 -0.00000000000E+00 -0.00000000000E+00 -0.45593999997E+02  0.45594000000E+02  0.51100000000E-03 0.  1.
         23    2    1    2    0    0  0.00000000000E+00  0.00000000000E+00  0.71054273576E-14  0.91188000000E+02  0.91188000000E+02 0.  0.
    9900012    2    3    3    0    0 -0.25547614324E+02  0.16427037375E+01  0.35046308915E+02  0.47787276022E+02  0.20000022696E+02 0.  0.
        -12    1    3    3    0    0  0.25547614324E+02 -0.16427037375E+01 -0.35046308915E+02  0.43400723978E+02  0.00000000000E+00 0.  1.
         11    1    4    4    0    0 -0.56451768248E+01  0.17201080598E+01  0.27161264480E+01  0.64964710623E+01  0.51100000000E-03 0. -1.
        -11    1    4    4    0    0 -0.13416569763E+02 -0.19117206684E+01  0.73493260281E+01  0.15416601877E+02  0.51100000000E-03 0.  1.
        -12    1    4    4    0    0 -0.64858677366E+01  0.18343163461E+01  0.24980856439E+02  0.25874203083E+02  0.00000000000E+00 0.  1.
</event>
<event>
 8    1  0.6524083E-011  0.9118800E+02  0.7816164E-02  0.1184000E+00
        -11   -1    0    0    0    0  0.00000000000E+00  0.00000000000E+00  0.45593999997E+02  0.45594000000E+02  0.51100000000E-03 0.  1.
         11   -1    0    0    0    0 -0.00000000000E+00 -0.00000000000E+00 -0.45593999997E+02  0.45594000000E+02  0.51100000000E-03 0. -1.
         23    2    1    2    0    0  0.00000000000E+00  0.00000000000E+00  0.88817841970E-15  0.91188000000E+02  0.91188000000E+02 0.  0.
    9900012    2    3    3    0    0  0.63539343159E+01  0.42662352251E+02 -0.48140156678E+01  0.47787268120E+02  0.19999986665E+02 0.  0.
         12    1    3    3    0    0 -0.63539343159E+01 -0.42662352251E+02  0.48140156678E+01  0.43400731880E+02  0.00000000000E+00 0. -1.
         11    1    4    4    0    0  0.77055848840E+01  0.65575713096E+01 -0.33124069812E+01  0.10646587254E+02  0.51100000000E-03 0. -1.
        -11    1    4    4    0    0  0.10870117636E+00  0.12930841073E+02  0.34822001047E+01  0.13391944767E+02  0.51100000000E-03 0.  1.
        -12    1    4    4    0    0 -0.14603517444E+01  0.23173939869E+02 -0.49838087912E+01  0.23748736099E+02  0.00000000000E+00 0.  1.
</event>
<event>
 8    1  0.6524083E-011  0.9118800E+02  0.7816164E-02  0.1184000E+00
        -11   -1    0    0    0    0  0.00000000000E+00  0.00000000000E+00  0.45593999997E+02  0.45594000000E+02  0.51100000000E-03 0. -1.
         11   -1    0    0    0    0 -0.00000000000E+00 -0.00000000000E+00 -0.45593999997E+02  0.45594000000E+02  0.51100000000E-03 0.  1.
         23    2    1    2    0    0  0.17763568394E-14  0.00000000000E+00  0.00000000000E+00  0.91188000000E+02  0.91188000000E+02 0.  0.
    9900012    2    3    3    0    0 -0.12230123842E+02 -0.47971846867E+01  0.41364668796E+02  0.47787254215E+02  0.19999923266E+02 0.  0.
        -12    1    3    3    0    0  0.12230123842E+02  0.47971846867E+01 -0.41364668796E+02  0.43400745785E+02  0.00000000000E+00 0.  1.
         11    1    4    4    0    0 -0.27467880068E+01 -0.49183051347E+01  0.31561203914E+01  0.64572181269E+01  0.51100000000E-03 0. -1.
        -11    1    4    4    0    0  0.23856254875E+01  0.26750695160E+01  0.98554402658E+01  0.10486987603E+02  0.51100000000E-03 0.  1.
         12    1    4    4    0    0 -0.11868961323E+02 -0.25539490680E+01  0.28353108139E+02  0.30843048485E+02  0.00000000000E+00 0. -1.
</event>
<event>
 8    1  0.6524083E-011  0.9118800E+02  0.7816164E-02  0.1184000E+00
        -11   -1    0    0    0    0  0.00000000000E+00  0.00000000000E+00  0.45593999997E+02  0.45594000000E+02  0.51100000000E-03 0. -1.
         11   -1    0    0    0    0 -0.00000000000E+00 -0.00000000000E+00 -0.45593999997E+02  0.45594000000E+02  0.51100000000E-03 0.  1.
         23    2    1    2    0    0  0.00000000000E+00  0.44408920985E-15  0.00000000000E+00  0.91188000000E+02  0.91188000000E+02 0.  0.
    9900012    2    3    3    0    0  0.80837994518E+01  0.26409460338E+01 -0.42559381074E+02  0.47787270433E+02  0.19999997211E+02 0.  0.
         12    1    3    3    0    0 -0.80837994518E+01 -0.26409460338E+01  0.42559381074E+02  0.43400729567E+02  0.00000000000E+00 0. -1.
         11    1    4    4    0    0 -0.19554295171E+00 -0.22275296186E+01  0.12702358008E+01  0.25716968131E+01  0.51100000000E-03 0. -1.
        -11    1    4    4    0    0  0.31862656217E+01  0.82092530705E-01 -0.23564174713E+02  0.23778758546E+02  0.51100000000E-03 0.  1.
        -12    1    4    4    0    0  0.50930767818E+01  0.47863831218E+01 -0.20265442162E+02  0.21436815074E+02  0.00000000000E+00 0.  1.
</event>
<event>
 8    1  0.6524083E-011  0.9118800E+02  0.7816164E-02  0.1184000E+00
        -11   -1    0    0    0    0  0.00000000000E+00  0.00000000000E+00  0.45593999997E+02  0.45594000000E+02  0.51100000000E-03 0. -1.
         11   -1    0    0    0    0 -0.00000000000E+00 -0.00000000000E+00 -0.45593999997E+02  0.45594000000E+02  0.51100000000E-03 0.  1.
         23    2    1    2    0    0  0.88817841970E-15  0.17763568394E-14  0.00000000000E+00  0.91188000000E+02  0.91188000000E+02 0.  0.
    9900012    2    3    3    0    0 -0.47451149348E+01 -0.99866796183E+01 -0.41968724224E+02  0.47787266152E+02  0.19999977695E+02 0.  0.
         12    1    3    3    0    0  0.47451149348E+01  0.99866796183E+01  0.41968724224E+02  0.43400733848E+02  0.00000000000E+00 0. -1.
         11    1    4    4    0    0 -0.59334667569E+01 -0.66954207645E+00 -0.30526653768E+01  0.67061971721E+01  0.51100000000E-03 0. -1.
        -11    1    4    4    0    0  0.37847144556E+01 -0.41642065067E+01 -0.90054087139E+01  0.10618948428E+02  0.51100000000E-03 0.  1.
        -12    1    4    4    0    0 -0.25963626334E+01 -0.51529310352E+01 -0.29910650133E+02  0.30462120553E+02  0.00000000000E+00 0.  1.
</event>
<event>
 8    1  0.6524083E-011  0.9118800E+02  0.7816164E-02  0.1184000E+00
        -11   -1    0    0    0    0  0.00000000000E+00  0.00000000000E+00  0.45593999997E+02  0.45594000000E+02  0.51100000000E-03 0.  1.
         11   -1    0    0    0    0 -0.00000000000E+00 -0.00000000000E+00 -0.45593999997E+02  0.45594000000E+02  0.51100000000E-03 0. -1.
         23    2    1    2    0    0 -0.17763568394E-14  0.00000000000E+00  0.00000000000E+00  0.91188000000E+02  0.91188000000E+02 0.  0.
    9900012    2    3    3    0    0  0.12976595856E+02 -0.17964561078E+02  0.37316291535E+02  0.47787272948E+02  0.20000008677E+02 0.  0.
        -12    1    3    3    0    0 -0.12976595856E+02  0.17964561078E+02 -0.37316291535E+02  0.43400727052E+02  0.00000000000E+00 0.  1.
         11    1    4    4    0    0  0.50054027899E+01 -0.50723463614E+01  0.84037878718E+01  0.11018457494E+02  0.51100000000E-03 0. -1.
        -11    1    4    4    0    0 -0.16566476414E+01  0.18557290075E+01 -0.45113685323E+00  0.25281883392E+01  0.51100000000E-03 0.  1.
        -12    1    4    4    0    0  0.96278407071E+01 -0.14747943724E+02  0.29363640517E+02  0.34240627114E+02  0.00000000000E+00 0.  1.
</event>
<event>
 8    1  0.6524083E-011  0.9118800E+02  0.7816164E-02  0.1184000E+00
        -11   -1    0    0    0    0  0.00000000000E+00  0.00000000000E+00  0.45593999997E+02  0.45594000000E+02  0.51100000000E-03 0. -1.
         11   -1    0    0    0    0 -0.00000000000E+00 -0.00000000000E+00 -0.45593999997E+02  0.45594000000E+02  0.51100000000E-03 0.  1.
         23    2    1    2    0    0  0.88817841970E-15  0.35527136788E-14  0.00000000000E+00  0.91188000000E+02  0.91188000000E+02 0.  0.
    9900012    2    3    3    0    0  0.73236381298E+01  0.18270185184E+02 -0.38680584136E+02  0.47787274992E+02  0.20000017997E+02 0.  0.
         12    1    3    3    0    0 -0.73236381298E+01 -0.18270185184E+02  0.38680584136E+02  0.43400725008E+02  0.00000000000E+00 0. -1.
         11    1    4    4    0    0 -0.90072931989E+00  0.98359352854E+01 -0.54557591909E+01  0.11283715915E+02  0.51100000000E-03 0. -1.
        -11    1    4    4    0    0 -0.12326926132E+01  0.51422024761E+00 -0.33560726257E+00  0.13771659441E+01  0.51100000000E-03 0.  1.
        -12    1    4    4    0    0  0.94570600629E+01  0.79200296514E+01 -0.32889217683E+02  0.35126393132E+02  0.00000000000E+00 0.  1.
</event>
<event>
 8    1  0.6524083E-011  0.9118800E+02  0.7816164E-02  0.1184000E+00
        -11   -1    0    0    0    0  0.00000000000E+00  0.00000000000E+00  0.45593999997E+02  0.45594000000E+02  0.51100000000E-03 0. -1.
         11   -1    0    0    0    0 -0.00000000000E+00 -0.00000000000E+00 -0.45593999997E+02  0.45594000000E+02  0.51100000000E-03 0.  1.
         23    2    1    2    0    0  0.00000000000E+00  0.00000000000E+00  0.35527136788E-14  0.91188000000E+02  0.91188000000E+02 0.  0.
    9900012    2    3    3    0    0 -0.29553819564E+02 -0.20501046160E+02  0.24287904073E+02  0.47787269260E+02  0.19999991863E+02 0.  0.
        -12    1    3    3    0    0  0.29553819564E+02  0.20501046160E+02 -0.24287904073E+02  0.43400730740E+02  0.00000000000E+00 0.  1.
         11    1    4    4    0    0 -0.21864598482E+02 -0.12141236318E+02  0.12536392798E+02  0.27975550589E+02  0.51100000000E-03 0. -1.
        -11    1    4    4    0    0 -0.88951030311E+00  0.27267803722E+01  0.14124236284E+01  0.31971081534E+01  0.51100000000E-03 0.  1.
        -12    1    4    4    0    0 -0.67997107794E+01 -0.11086590215E+02  0.10339087647E+02  0.16614610518E+02  0.00000000000E+00 0.  1.
</event>
<event>
 8    1  0.6524083E-011  0.9118800E+02  0.7816164E-02  0.1184000E+00
        -11   -1    0    0    0    0  0.00000000000E+00  0.00000000000E+00  0.45593999997E+02  0.45594000000E+02  0.51100000000E-03 0. -1.
         11   -1    0    0    0    0 -0.00000000000E+00 -0.00000000000E+00 -0.45593999997E+02  0.45594000000E+02  0.51100000000E-03 0.  1.
         23    2    1    2    0    0 -0.88817841970E-15 -0.35527136788E-14 -0.35527136788E-14  0.91188000000E+02  0.91188000000E+02 0.  0.
    9900012    2    3    3    0    0 -0.77070124525E+01 -0.28543555089E+02 -0.31772483820E+02  0.47787270673E+02  0.19999998305E+02 0.  0.
         12    1    3    3    0    0  0.77070124525E+01  0.28543555089E+02  0.31772483820E+02  0.43400729327E+02  0.00000000000E+00 0. -1.
         11    1    4    4    0    0  0.73571432857E+00 -0.70900861439E+01 -0.21646871202E+01  0.74495951360E+01  0.51100000000E-03 0.  1.
        -11    1    4    4    0    0 -0.43027758619E+01 -0.70370516656E+01 -0.13668505190E+01  0.83607569552E+01  0.51100000000E-03 0. -1.
         12    1    4    4    0    0 -0.41399509191E+01 -0.14416417280E+02 -0.28240946181E+02  0.31976918581E+02  0.00000000000E+00 0. -1.
</event>
<event>
 8    1  0.6524083E-011  0.9118800E+02  0.7816164E-02  0.1184000E+00
        -11   -1    0    0    0    0  0.00000000000E+00  0.00000000000E+00  0.45593999997E+02  0.45594000000E+02  0.51100000000E-03 0. -1.
         11   -1    0    0    0    0 -0.00000000000E+00 -0.00000000000E+00 -0.45593999997E+02  0.45594000000E+02  0.51100000000E-03 0.  1.
         23    2    1    2    0    0  0.17763568394E-14  0.00000000000E+00 -0.35527136788E-14  0.91188000000E+02  0.91188000000E+02 0.  0.
    9900012    2    3    3    0    0 -0.14270129926E+02  0.30684793572E+02 -0.27174069945E+02  0.47787271412E+02  0.20000001674E+02 0.  0.
         12    1    3    3    0    0  0.14270129926E+02 -0.30684793572E+02  0.27174069945E+02  0.43400728588E+02  0.00000000000E+00 0. -1.
         11    1    4    4    0    0 -0.41731373664E+00  0.47653360872E+01 -0.28815773447E+01  0.55844486776E+01  0.51100000000E-03 0. -1.
        -11    1    4    4    0    0  0.37106616254E+01  0.43542876914E+01 -0.84207255471E+01  0.10180248032E+02  0.51100000000E-03 0.  1.
         12    1    4    4    0    0 -0.17563477814E+02  0.21565169793E+02 -0.15871767053E+02  0.32022574702E+02  0.00000000000E+00 0. -1.
</event>
<event>
 8    1  0.6524083E-011  0.9118800E+02  0.7816164E-02  0.1184000E+00
        -11   -1    0    0    0    0  0.00000000000E+00  0.00000000000E+00  0.45593999997E+02  0.45594000000E+02  0.51100000000E-03 0. -1.
         11   -1    0    0    0    0 -0.00000000000E+00 -0.00000000000E+00 -0.45593999997E+02  0.45594000000E+02  0.51100000000E-03 0.  1.
         23    2    1    2    0    0  0.00000000000E+00  0.00000000000E+00  0.00000000000E+00  0.91188000000E+02  0.91188000000E+02 0.  0.
    9900012    2    3    3    0    0  0.16908248325E+02  0.39487877931E+01 -0.39776144035E+02  0.47787269352E+02  0.19999992286E+02 0.  0.
         12    1    3    3    0    0 -0.16908248325E+02 -0.39487877931E+01  0.39776144035E+02  0.43400730648E+02  0.00000000000E+00 0. -1.
         11    1    4    4    0    0  0.62754383352E+01 -0.38368012057E+00 -0.16345395314E+02  0.17512860559E+02  0.51100000000E-03 0. -1.
        -11    1    4    4    0    0  0.55145396857E+01 -0.17337155285E+01 -0.21280050297E+02  0.22051223512E+02  0.51100000000E-03 0.  1.
        -12    1    4    4    0    0  0.51182703041E+01  0.60661834422E+01 -0.21506984242E+01  0.82231852814E+01  0.00000000000E+00 0.  1.
</event>
<event>
 8    1  0.6524083E-011  0.9118800E+02  0.7816164E-02  0.1184000E+00
        -11   -1    0    0    0    0  0.00000000000E+00  0.00000000000E+00  0.45593999997E+02  0.45594000000E+02  0.51100000000E-03 0. -1.
         11   -1    0    0    0    0 -0.00000000000E+00 -0.00000000000E+00 -0.45593999997E+02  0.45594000000E+02  0.51100000000E-03 0.  1.
         23    2    1    2    0    0  0.71054273576E-14  0.00000000000E+00  0.00000000000E+00  0.91188000000E+02  0.91188000000E+02 0.  0.
    9900012    2    3    3    0    0 -0.36024220925E+02 -0.49617814854E+00 -0.24199862817E+02  0.47787262145E+02  0.19999959423E+02 0.  0.
         12    1    3    3    0    0  0.36024220925E+02  0.49617814854E+00  0.24199862817E+02  0.43400737855E+02  0.00000000000E+00 0. -1.
         11    1    4    4    0    0 -0.12475345218E+02  0.22189539768E+01 -0.28919995116E+01  0.12996986439E+02  0.51100000000E-03 0. -1.
        -11    1    4    4    0    0 -0.48117651936E+01  0.24661965852E+01 -0.12154399189E+02  0.13302805335E+02  0.51100000000E-03 0.  1.
        -12    1    4    4    0    0 -0.18737110513E+02 -0.51813287105E+01 -0.91534641165E+01  0.21487470370E+02  0.00000000000E+00 0.  1.
</event>
<event>
 8    1  0.6524083E-011  0.9118800E+02  0.7816164E-02  0.1184000E+00
        -11   -1    0    0    0    0  0.00000000000E+00  0.00000000000E+00  0.45593999997E+02  0.45594000000E+02  0.51100000000E-03 0. -1.
         11   -1    0    0    0    0 -0.00000000000E+00 -0.00000000000E+00 -0.45593999997E+02  0.45594000000E+02  0.51100000000E-03 0.  1.
         23    2    1    2    0    0 -0.17763568394E-14  0.00000000000E+00  0.71054273576E-14  0.91188000000E+02  0.91188000000E+02 0.  0.
    9900012    2    3    3    0    0 -0.14797298212E+02  0.13261175092E+02  0.38585030998E+02  0.47787269403E+02  0.19999992517E+02 0.  0.
        -12    1    3    3    0    0  0.14797298212E+02 -0.13261175092E+02 -0.38585030998E+02  0.43400730597E+02  0.00000000000E+00 0.  1.
         11    1    4    4    0    0 -0.75008639483E+01 -0.10646459272E+01  0.10035683823E+02  0.12574234807E+02  0.51100000000E-03 0. -1.
        -11    1    4    4    0    0 -0.47543425380E+01 -0.44225138264E+00  0.31425760170E+01  0.57162175901E+01  0.51100000000E-03 0.  1.
        -12    1    4    4    0    0 -0.25420917255E+01  0.14768072402E+02  0.25406771158E+02  0.29496817006E+02  0.00000000000E+00 0.  1.
</event>
<event>
 8    1  0.6524083E-011  0.9118800E+02  0.7816164E-02  0.1184000E+00
        -11   -1    0    0    0    0  0.00000000000E+00  0.00000000000E+00  0.45593999997E+02  0.45594000000E+02  0.51100000000E-03 0.  1.
         11   -1    0    0    0    0 -0.00000000000E+00 -0.00000000000E+00 -0.45593999997E+02  0.45594000000E+02  0.51100000000E-03 0. -1.
         23    2    1    2    0    0  0.88817841970E-15  0.00000000000E+00  0.00000000000E+00  0.91188000000E+02  0.91188000000E+02 0.  0.
    9900012    2    3    3    0    0  0.37130050585E+01 -0.33616219298E+02  0.27199021852E+02  0.47787269636E+02  0.19999993578E+02 0.  0.
        -12    1    3    3    0    0 -0.37130050585E+01  0.33616219298E+02 -0.27199021852E+02  0.43400730364E+02  0.00000000000E+00 0.  1.
         11    1    4    4    0    0 -0.19959210802E+01 -0.20159151643E+02  0.99661563129E+01  0.22576522492E+02  0.51100000000E-03 0. -1.
        -11    1    4    4    0    0 -0.97405383209E+00  0.13878574770E+01  0.30116428860E+00  0.17221002973E+01  0.51100000000E-03 0.  1.
         12    1    4    4    0    0  0.66829799708E+01 -0.14844925132E+02  0.16931701250E+02  0.23488646847E+02  0.00000000000E+00 0. -1.
</event>
<event>
 8    1  0.6524083E-011  0.9118800E+02  0.7816164E-02  0.1184000E+00
        -11   -1    0    0    0    0  0.00000000000E+00  0.00000000000E+00  0.45593999997E+02  0.45594000000E+02  0.51100000000E-03 0. -1.
         11   -1    0    0    0    0 -0.00000000000E+00 -0.00000000000E+00 -0.45593999997E+02  0.45594000000E+02  0.51100000000E-03 0.  1.
         23    2    1    2    0    0  0.00000000000E+00 -0.88817841970E-15  0.00000000000E+00  0.91188000000E+02  0.91188000000E+02 0.  0.
    9900012    2    3    3    0    0 -0.16441113141E+02 -0.58958190677E+01  0.39731007685E+02  0.47787264344E+02  0.19999969452E+02 0.  0.
        -12    1    3    3    0    0  0.16441113141E+02  0.58958190677E+01 -0.39731007685E+02  0.43400735656E+02  0.00000000000E+00 0.  1.
         11    1    4    4    0    0 -0.54920686660E+01 -0.35142654992E+01  0.13327055501E+02  0.14836552457E+02  0.51100000000E-03 0. -1.
        -11    1    4    4    0    0  0.35502462380E+01 -0.11050268134E+00  0.11347762956E+01  0.37288304728E+01  0.51100000000E-03 0.  1.
         12    1    4    4    0    0 -0.14499290713E+02 -0.22710508872E+01  0.25269175888E+02  0.29221881414E+02  0.00000000000E+00 0. -1.
</event>
<event>
 8    1  0.6524083E-011  0.9118800E+02  0.7816164E-02  0.1184000E+00
        -11   -1    0    0    0    0  0.00000000000E+00  0.00000000000E+00  0.45593999997E+02  0.45594000000E+02  0.51100000000E-03 0. -1.
         11   -1    0    0    0    0 -0.00000000000E+00 -0.00000000000E+00 -0.45593999997E+02  0.45594000000E+02  0.51100000000E-03 0.  1.
         23    2    1    2    0    0  0.00000000000E+00  0.00000000000E+00  0.00000000000E+00  0.91188000000E+02  0.91188000000E+02 0.  0.
    9900012    2    3    3    0    0 -0.22599252544E+02  0.11506081749E+02 -0.35220834818E+02  0.47787270305E+02  0.19999996630E+02 0.  0.
         12    1    3    3    0    0  0.22599252544E+02 -0.11506081749E+02  0.35220834818E+02  0.43400729695E+02  0.00000000000E+00 0. -1.
         11    1    4    4    0    0 -0.62199010430E+01  0.10298940148E+01 -0.76250154710E+01  0.98938724401E+01  0.51100000000E-03 0. -1.
        -11    1    4    4    0    0 -0.10750588740E+02  0.36293055000E+01 -0.26667843552E+02  0.28981388797E+02  0.51100000000E-03 0.  1.
         12    1    4    4    0    0 -0.56287627614E+01  0.68468822342E+01 -0.92797579544E+00  0.89120090681E+01  0.00000000000E+00 0. -1.
</event>
<event>
 8    1  0.6524083E-011  0.9118800E+02  0.7816164E-02  0.1184000E+00
        -11   -1    0    0    0    0  0.00000000000E+00  0.00000000000E+00  0.45593999997E+02  0.45594000000E+02  0.51100000000E-03 0. -1.
         11   -1    0    0    0    0 -0.00000000000E+00 -0.00000000000E+00 -0.45593999997E+02  0.45594000000E+02  0.51100000000E-03 0.  1.
         23    2    1    2    0    0  0.00000000000E+00  0.88817841970E-15  0.71054273576E-14  0.91188000000E+02  0.91188000000E+02 0.  0.
    9900012    2    3    3    0    0  0.28264076700E+01  0.51976796126E+01  0.42995550012E+02  0.47787288318E+02  0.20000078757E+02 0.  0.
        -12    1    3    3    0    0 -0.28264076700E+01 -0.51976796126E+01 -0.42995550012E+02  0.43400711682E+02  0.00000000000E+00 0.  1.
         11    1    4    4    0    0  0.15238385824E+01  0.10876999761E+02  0.30215223927E+02  0.32149509561E+02  0.51100000000E-03 0. -1.
        -11    1    4    4    0    0  0.41033233305E+00 -0.37343553508E+01  0.12956994336E+02  0.13490644350E+02  0.51100000000E-03 0.  1.
        -12    1    4    4    0    0  0.89223675460E+00 -0.19449647974E+01 -0.17666825032E+00  0.21471344066E+01  0.00000000000E+00 0.  1.
</event>
<event>
 8    1  0.6524083E-011  0.9118800E+02  0.7816164E-02  0.1184000E+00
        -11   -1    0    0    0    0  0.00000000000E+00  0.00000000000E+00  0.45593999997E+02  0.45594000000E+02  0.51100000000E-03 0. -1.
         11   -1    0    0    0    0 -0.00000000000E+00 -0.00000000000E+00 -0.45593999997E+02  0.45594000000E+02  0.51100000000E-03 0.  1.
         23    2    1    2    0    0 -0.88817841970E-15 -0.22204460493E-15  0.00000000000E+00  0.91188000000E+02  0.91188000000E+02 0.  0.
    9900012    2    3    3    0    0 -0.65562550254E+01 -0.97909023835E+00 -0.42891501093E+02  0.47787263098E+02  0.19999963770E+02 0.  0.
         12    1    3    3    0    0  0.65562550254E+01  0.97909023835E+00  0.42891501093E+02  0.43400736902E+02  0.00000000000E+00 0. -1.
         11    1    4    4    0    0  0.56224667820E+01 -0.25639798497E+00 -0.22194419913E+02  0.22896946263E+02  0.51100000000E-03 0. -1.
        -11    1    4    4    0    0 -0.27202627009E+01  0.21079851818E+01 -0.27435750061E+01  0.44012083300E+01  0.51100000000E-03 0.  1.
         12    1    4    4    0    0 -0.94584591065E+01 -0.28306774352E+01 -0.17953506173E+02  0.20489108505E+02  0.00000000000E+00 0. -1.
</event>
<event>
 8    1  0.6524083E-011  0.9118800E+02  0.7816164E-02  0.1184000E+00
        -11   -1    0    0    0    0  0.00000000000E+00  0.00000000000E+00  0.45593999997E+02  0.45594000000E+02  0.51100000000E-03 0. -1.
         11   -1    0    0    0    0 -0.00000000000E+00 -0.00000000000E+00 -0.45593999997E+02  0.45594000000E+02  0.51100000000E-03 0.  1.
         23    2    1    2    0    0  0.00000000000E+00  0.00000000000E+00  0.00000000000E+00  0.91188000000E+02  0.91188000000E+02 0.  0.
    9900012    2    3    3    0    0  0.21054007579E+02 -0.18373350767E+02 -0.33208016148E+02  0.47787267402E+02  0.19999983394E+02 0.  0.
         12    1    3    3    0    0 -0.21054007579E+02  0.18373350767E+02  0.33208016148E+02  0.43400732598E+02  0.00000000000E+00 0. -1.
         11    1    4    4    0    0  0.88597994005E+01 -0.43671836079E+01 -0.49144662022E+01  0.11032693071E+02  0.51100000000E-03 0. -1.
        -11    1    4    4    0    0 -0.15868523158E+01 -0.77385611987E+01 -0.13156524641E+02  0.15345930098E+02  0.51100000000E-03 0.  1.
         12    1    4    4    0    0  0.13781060494E+02 -0.62676059601E+01 -0.15137025305E+02  0.21408644233E+02  0.00000000000E+00 0. -1.
</event>
<event>
 8    1  0.6524083E-011  0.9118800E+02  0.7816164E-02  0.1184000E+00
        -11   -1    0    0    0    0  0.00000000000E+00  0.00000000000E+00  0.45593999997E+02  0.45594000000E+02  0.51100000000E-03 0. -1.
         11   -1    0    0    0    0 -0.00000000000E+00 -0.00000000000E+00 -0.45593999997E+02  0.45594000000E+02  0.51100000000E-03 0.  1.
         23    2    1    2    0    0  0.00000000000E+00  0.00000000000E+00  0.00000000000E+00  0.91188000000E+02  0.91188000000E+02 0.  0.
    9900012    2    3    3    0    0  0.53091864496E+01 -0.24564705979E+02 -0.35383780662E+02  0.47787260668E+02  0.19999952691E+02 0.  0.
         12    1    3    3    0    0 -0.53091864496E+01  0.24564705979E+02  0.35383780662E+02  0.43400739332E+02  0.00000000000E+00 0. -1.
         11    1    4    4    0    0 -0.11033785173E+01 -0.75428544156E+01 -0.15114226648E+02  0.16927845235E+02  0.51100000000E-03 0. -1.
        -11    1    4    4    0    0  0.82683266225E+00 -0.17393626100E+02 -0.13251064552E+02  0.21881786792E+02  0.51100000000E-03 0.  1.
         12    1    4    4    0    0  0.55857323047E+01  0.37177453725E+00 -0.70184894628E+01  0.89776286416E+01  0.00000000000E+00 0. -1.
</event>
<event>
 8    1  0.6524083E-011  0.9118800E+02  0.7816164E-02  0.1184000E+00
        -11   -1    0    0    0    0  0.00000000000E+00  0.00000000000E+00  0.45593999997E+02  0.45594000000E+02  0.51100000000E-03 0. -1.
         11   -1    0    0    0    0 -0.00000000000E+00 -0.00000000000E+00 -0.45593999997E+02  0.45594000000E+02  0.51100000000E-03 0.  1.
         23    2    1    2    0    0 -0.35527136788E-14  0.00000000000E+00 -0.35527136788E-14  0.91188000000E+02  0.91188000000E+02 0.  0.
    9900012    2    3    3    0    0 -0.28211962124E+02  0.28567339282E+02  0.16480784112E+02  0.47787263537E+02  0.19999965771E+02 0.  0.
        -12    1    3    3    0    0  0.28211962124E+02 -0.28567339282E+02 -0.16480784112E+02  0.43400736463E+02  0.00000000000E+00 0.  1.
         11    1    4    4    0    0 -0.80190000640E+01  0.41206368970E+01  0.74740935974E+01  0.11710938725E+02  0.51100000000E-03 0. -1.
        -11    1    4    4    0    0 -0.37904531076E+01  0.13835532217E+01  0.65181684930E+01  0.76660468981E+01  0.51100000000E-03 0.  1.
        -12    1    4    4    0    0 -0.16402508952E+02  0.23063149164E+02  0.24885220215E+01  0.28410277914E+02  0.00000000000E+00 0.  1.
</event>
<event>
 8    1  0.6524083E-011  0.9118800E+02  0.7816164E-02  0.1184000E+00
        -11   -1    0    0    0    0  0.00000000000E+00  0.00000000000E+00  0.45593999997E+02  0.45594000000E+02  0.51100000000E-03 0. -1.
         11   -1    0    0    0    0 -0.00000000000E+00 -0.00000000000E+00 -0.45593999997E+02  0.45594000000E+02  0.51100000000E-03 0.  1.
         23    2    1    2    0    0  0.00000000000E+00  0.00000000000E+00  0.00000000000E+00  0.91188000000E+02  0.91188000000E+02 0.  0.
    9900012    2    3    3    0    0  0.40513661812E+02  0.77983048436E+01 -0.13470515044E+02  0.47787249691E+02  0.19999902639E+02 0.  0.
         12    1    3    3    0    0 -0.40513661812E+02 -0.77983048436E+01  0.13470515044E+02  0.43400750309E+02  0.00000000000E+00 0. -1.
         11    1    4    4    0    0  0.12307805721E+02 -0.28955833939E+01 -0.29005708790E+01  0.12972270292E+02  0.51100000000E-03 0. -1.
        -11    1    4    4    0    0  0.15719597976E+02  0.97111811188E+00  0.62382678478E-01  0.15749689609E+02  0.51100000000E-03 0.  1.
        -12    1    4    4    0    0  0.12486258115E+02  0.97227701256E+01 -0.10632326844E+02  0.19065289789E+02  0.00000000000E+00 0.  1.
</event>
<event>
 8    1  0.6524083E-011  0.9118800E+02  0.7816164E-02  0.1184000E+00
        -11   -1    0    0    0    0  0.00000000000E+00  0.00000000000E+00  0.45593999997E+02  0.45594000000E+02  0.51100000000E-03 0. -1.
         11   -1    0    0    0    0 -0.00000000000E+00 -0.00000000000E+00 -0.45593999997E+02  0.45594000000E+02  0.51100000000E-03 0.  1.
         23    2    1    2    0    0 -0.71054273576E-14 -0.11102230246E-15 -0.71054273576E-14  0.91188000000E+02  0.91188000000E+02 0.  0.
    9900012    2    3    3    0    0 -0.32642117575E+02  0.56376796890E+00 -0.28597184863E+02  0.47787255120E+02  0.19999927393E+02 0.  0.
         12    1    3    3    0    0  0.32642117575E+02 -0.56376796890E+00  0.28597184863E+02  0.43400744880E+02  0.00000000000E+00 0. -1.
         11    1    4    4    0    0 -0.43728466001E+01  0.28285953155E+01 -0.11943584811E+02  0.13029656835E+02  0.51100000000E-03 0. -1.
        -11    1    4    4    0    0 -0.24657570492E+02 -0.10178072628E+01 -0.18170744696E+02  0.30646495351E+02  0.51100000000E-03 0.  1.
        -12    1    4    4    0    0 -0.36117004824E+01 -0.12470200838E+01  0.15171446442E+01  0.41111029342E+01  0.00000000000E+00 0.  1.
</event>
<event>
 8    1  0.6524083E-011  0.9118800E+02  0.7816164E-02  0.1184000E+00
        -11   -1    0    0    0    0  0.00000000000E+00  0.00000000000E+00  0.45593999997E+02  0.45594000000E+02  0.51100000000E-03 0. -1.
         11   -1    0    0    0    0 -0.00000000000E+00 -0.00000000000E+00 -0.45593999997E+02  0.45594000000E+02  0.51100000000E-03 0.  1.
         23    2    1    2    0    0  0.00000000000E+00  0.00000000000E+00  0.00000000000E+00  0.91188000000E+02  0.91188000000E+02 0.  0.
    9900012    2    3    3    0    0  0.36021178153E+01 -0.27786752038E+02  0.33144300137E+02  0.47787268749E+02  0.19999989534E+02 0.  0.
        -12    1    3    3    0    0 -0.36021178153E+01  0.27786752038E+02 -0.33144300137E+02  0.43400731251E+02  0.00000000000E+00 0.  1.
         11    1    4    4    0    0  0.66175394856E+01 -0.10298001725E+02  0.12010755083E+02  0.17149312123E+02  0.51100000000E-03 0. -1.
        -11    1    4    4    0    0  0.28453744795E+01 -0.11791447663E+01  0.89178769635E+01  0.94347797063E+01  0.51100000000E-03 0.  1.
        -12    1    4    4    0    0 -0.58607961498E+01 -0.16309605547E+02  0.12215668090E+02  0.21203176920E+02  0.00000000000E+00 0.  1.
</event>
<event>
 8    1  0.6524083E-011  0.9118800E+02  0.7816164E-02  0.1184000E+00
        -11   -1    0    0    0    0  0.00000000000E+00  0.00000000000E+00  0.45593999997E+02  0.45594000000E+02  0.51100000000E-03 0. -1.
         11   -1    0    0    0    0 -0.00000000000E+00 -0.00000000000E+00 -0.45593999997E+02  0.45594000000E+02  0.51100000000E-03 0.  1.
         23    2    1    2    0    0  0.17763568394E-14 -0.17763568394E-14 -0.71054273576E-14  0.91188000000E+02  0.91188000000E+02 0.  0.
    9900012    2    3    3    0    0 -0.93662233395E+01  0.72288076163E+01  0.41756930314E+02  0.47787273872E+02  0.20000012892E+02 0.  0.
        -12    1    3    3    0    0  0.93662233395E+01 -0.72288076163E+01 -0.41756930314E+02  0.43400726128E+02  0.00000000000E+00 0.  1.
         11    1    4    4    0    0 -0.35618822633E+01  0.90256776706E+01  0.38019915818E+02  0.39238550709E+02  0.51100000000E-03 0. -1.
        -11    1    4    4    0    0 -0.14033955728E+01 -0.22113474177E+01  0.31388333928E+01  0.40880131928E+01  0.51100000000E-03 0.  1.
         12    1    4    4    0    0 -0.44009455034E+01  0.41447736346E+00  0.59818110317E+00  0.44607099705E+01  0.00000000000E+00 0. -1.
</event>
<event>
 8    1  0.6524083E-011  0.9118800E+02  0.7816164E-02  0.1184000E+00
        -11   -1    0    0    0    0  0.00000000000E+00  0.00000000000E+00  0.45593999997E+02  0.45594000000E+02  0.51100000000E-03 0. -1.
         11   -1    0    0    0    0 -0.00000000000E+00 -0.00000000000E+00 -0.45593999997E+02  0.45594000000E+02  0.51100000000E-03 0.  1.
         23    2    1    2    0    0  0.00000000000E+00  0.00000000000E+00  0.35527136788E-14  0.91188000000E+02  0.91188000000E+02 0.  0.
    9900012    2    3    3    0    0  0.52418826891E+01  0.34250458956E+02  0.26135265108E+02  0.47787270109E+02  0.19999995734E+02 0.  0.
        -12    1    3    3    0    0 -0.52418826891E+01 -0.34250458956E+02 -0.26135265108E+02  0.43400729891E+02  0.00000000000E+00 0.  1.
         11    1    4    4    0    0  0.35946433373E+01  0.19119221596E+02  0.17300160448E+02  0.26033855783E+02  0.51100000000E-03 0. -1.
        -11    1    4    4    0    0 -0.96580025133E+00 -0.20707197771E+01  0.20767796543E+01  0.30876632773E+01  0.51100000000E-03 0.  1.
        -12    1    4    4    0    0  0.26130396031E+01  0.17201957137E+02  0.67583250056E+01  0.18665751048E+02  0.00000000000E+00 0.  1.
</event>
<event>
 8    1  0.6524083E-011  0.9118800E+02  0.7816164E-02  0.1184000E+00
        -11   -1    0    0    0    0  0.00000000000E+00  0.00000000000E+00  0.45593999997E+02  0.45594000000E+02  0.51100000000E-03 0. -1.
         11   -1    0    0    0    0 -0.00000000000E+00 -0.00000000000E+00 -0.45593999997E+02  0.45594000000E+02  0.51100000000E-03 0.  1.
         23    2    1    2    0    0  0.00000000000E+00 -0.66613381478E-15  0.71054273576E-14  0.91188000000E+02  0.91188000000E+02 0.  0.
    9900012    2    3    3    0    0 -0.70497861629E+01 -0.15608227476E+01 -0.42795884546E+02  0.47787269745E+02  0.19999994074E+02 0.  0.
         12    1    3    3    0    0  0.70497861629E+01  0.15608227476E+01  0.42795884546E+02  0.43400730255E+02  0.00000000000E+00 0. -1.
         11    1    4    4    0    0  0.26205540405E+00  0.31604844992E+01 -0.34123845835E+01  0.46585087862E+01  0.51100000000E-03 0. -1.
        -11    1    4    4    0    0 -0.57415516081E+01  0.90778262966E+00 -0.35271337199E+01  0.67992761902E+01  0.51100000000E-03 0.  1.
        -12    1    4    4    0    0 -0.15702899589E+01 -0.56290898764E+01 -0.35856366243E+02  0.36329484768E+02  0.00000000000E+00 0.  1.
</event>
<event>
 8    1  0.6524083E-011  0.9118800E+02  0.7816164E-02  0.1184000E+00
        -11   -1    0    0    0    0  0.00000000000E+00  0.00000000000E+00  0.45593999997E+02  0.45594000000E+02  0.51100000000E-03 0. -1.
         11   -1    0    0    0    0 -0.00000000000E+00 -0.00000000000E+00 -0.45593999997E+02  0.45594000000E+02  0.51100000000E-03 0.  1.
         23    2    1    2    0    0  0.17763568394E-14 -0.17763568394E-14  0.71054273576E-14  0.91188000000E+02  0.91188000000E+02 0.  0.
    9900012    2    3    3    0    0  0.13862341056E+02 -0.97282423044E+01  0.39960230879E+02  0.47787271321E+02  0.20000001263E+02 0.  0.
        -12    1    3    3    0    0 -0.13862341056E+02  0.97282423044E+01 -0.39960230879E+02  0.43400728679E+02  0.00000000000E+00 0.  1.
         11    1    4    4    0    0  0.44993616188E+00 -0.56905925021E+01  0.11896995830E+02  0.13195597585E+02  0.51100000000E-03 0. -1.
        -11    1    4    4    0    0  0.52771434307E+01  0.55385855624E+01  0.11131732738E+02  0.13507022131E+02  0.51100000000E-03 0.  1.
        -12    1    4    4    0    0  0.81352614636E+01 -0.95762353647E+01  0.16931502311E+02  0.21084651606E+02  0.00000000000E+00 0.  1.
</event>
<event>
 8    1  0.6524083E-011  0.9118800E+02  0.7816164E-02  0.1184000E+00
        -11   -1    0    0    0    0  0.00000000000E+00  0.00000000000E+00  0.45593999997E+02  0.45594000000E+02  0.51100000000E-03 0. -1.
         11   -1    0    0    0    0 -0.00000000000E+00 -0.00000000000E+00 -0.45593999997E+02  0.45594000000E+02  0.51100000000E-03 0.  1.
         23    2    1    2    0    0 -0.17763568394E-14  0.00000000000E+00  0.00000000000E+00  0.91188000000E+02  0.91188000000E+02 0.  0.
    9900012    2    3    3    0    0 -0.14383371865E+02 -0.32524421195E+02  0.24877784710E+02  0.47787268066E+02  0.19999986422E+02 0.  0.
        -12    1    3    3    0    0  0.14383371865E+02  0.32524421195E+02 -0.24877784710E+02  0.43400731934E+02  0.00000000000E+00 0.  1.
         11    1    4    4    0    0 -0.11649131030E+02 -0.28734401394E+02  0.13890372392E+02  0.33975145661E+02  0.51100000000E-03 0. -1.
        -11    1    4    4    0    0 -0.36553817043E+01 -0.14611685153E+00  0.22354413830E+01  0.42872326711E+01  0.51100000000E-03 0.  1.
         12    1    4    4    0    0  0.92114086918E+00 -0.36439029499E+01  0.87519709349E+01  0.95248897345E+01  0.00000000000E+00 0. -1.
</event>
<event>
 8    1  0.1142402E-010  0.9118800E+02  0.7816164E-02  0.1184000E+00
        -11   -1    0    0    0    0  0.00000000000E+00  0.00000000000E+00  0.45593999997E+02  0.45594000000E+02  0.51100000000E-03 0. -1.
         11   -1    0    0    0    0 -0.00000000000E+00 -0.00000000000E+00 -0.45593999997E+02  0.45594000000E+02  0.51100000000E-03 0.  1.
         23    2    1    2    0    0  0.00000000000E+00  0.00000000000E+00  0.00000000000E+00  0.91188000000E+02  0.91188000000E+02 0.  0.
    9900012    2    3    3    0    0  0.34153358914E+02 -0.12642462103E+02 -0.23608036439E+02  0.47787272384E+02  0.20000006107E+02 0.  0.
         12    1    3    3    0    0 -0.34153358914E+02  0.12642462103E+02  0.23608036439E+02  0.43400727616E+02  0.00000000000E+00 0. -1.
         11    1    4    4    0    0  0.20135797907E+01 -0.29104281410E+01 -0.85768771928E+01  0.92783575152E+01  0.51100000000E-03 0. -1.
        -11    1    4    4    0    0  0.24752699512E+02 -0.74186016447E+01 -0.16459547433E+02  0.30637370734E+02  0.51100000000E-03 0.  1.
         12    1    4    4    0    0  0.73870796104E+01 -0.23134323169E+01  0.14283881865E+01  0.78715441348E+01  0.00000000000E+00 0. -1.
</event>
<event>
 8    1  0.6524083E-011  0.9118800E+02  0.7816164E-02  0.1184000E+00
        -11   -1    0    0    0    0  0.00000000000E+00  0.00000000000E+00  0.45593999997E+02  0.45594000000E+02  0.51100000000E-03 0. -1.
         11   -1    0    0    0    0 -0.00000000000E+00 -0.00000000000E+00 -0.45593999997E+02  0.45594000000E+02  0.51100000000E-03 0.  1.
         23    2    1    2    0    0  0.00000000000E+00  0.35527136788E-14 -0.35527136788E-14  0.91188000000E+02  0.91188000000E+02 0.  0.
    9900012    2    3    3    0    0 -0.21909048831E+02  0.23010819078E+02 -0.29565504541E+02  0.47787271042E+02  0.19999999989E+02 0.  0.
         12    1    3    3    0    0  0.21909048831E+02 -0.23010819078E+02  0.29565504541E+02  0.43400728958E+02  0.00000000000E+00 0. -1.
         11    1    4    4    0    0 -0.18154103420E+02  0.17097638994E+02 -0.14344846211E+02  0.28769347285E+02  0.51100000000E-03 0.  1.
        -11    1    4    4    0    0  0.22141155099E+01  0.16569144619E+01 -0.86314273199E+00  0.28970137490E+01  0.51100000000E-03 0. -1.
        -12    1    4    4    0    0 -0.59690609210E+01  0.42562656226E+01 -0.14357515598E+02  0.16120910008E+02  0.00000000000E+00 0.  1.
</event>
<event>
 8    1  0.6524083E-011  0.9118800E+02  0.7816164E-02  0.1184000E+00
        -11   -1    0    0    0    0  0.00000000000E+00  0.00000000000E+00  0.45593999997E+02  0.45594000000E+02  0.51100000000E-03 0. -1.
         11   -1    0    0    0    0 -0.00000000000E+00 -0.00000000000E+00 -0.45593999997E+02  0.45594000000E+02  0.51100000000E-03 0.  1.
         23    2    1    2    0    0 -0.49960036108E-15  0.00000000000E+00  0.00000000000E+00  0.91188000000E+02  0.91188000000E+02 0.  0.
    9900012    2    3    3    0    0 -0.38117619703E+00  0.42926154195E+02  0.63893206695E+01  0.47787269270E+02  0.19999991909E+02 0.  0.
        -12    1    3    3    0    0  0.38117619703E+00 -0.42926154195E+02 -0.63893206695E+01  0.43400730730E+02  0.00000000000E+00 0.  1.
         11    1    4    4    0    0  0.56660744687E+01  0.15092475562E+02  0.44452335807E+01  0.16722658890E+02  0.51100000000E-03 0. -1.
        -11    1    4    4    0    0 -0.48719772316E+01  0.85696816359E+01 -0.43353000587E+01  0.10768956883E+02  0.51100000000E-03 0.  1.
         12    1    4    4    0    0 -0.11752734341E+01  0.19263996997E+02  0.62793871474E+01  0.20295653497E+02  0.00000000000E+00 0. -1.
</event>
<event>
 8    1  0.6524083E-011  0.9118800E+02  0.7816164E-02  0.1184000E+00
        -11   -1    0    0    0    0  0.00000000000E+00  0.00000000000E+00  0.45593999997E+02  0.45594000000E+02  0.51100000000E-03 0. -1.
         11   -1    0    0    0    0 -0.00000000000E+00 -0.00000000000E+00 -0.45593999997E+02  0.45594000000E+02  0.51100000000E-03 0.  1.
         23    2    1    2    0    0  0.00000000000E+00  0.00000000000E+00  0.00000000000E+00  0.91188000000E+02  0.91188000000E+02 0.  0.
    9900012    2    3    3    0    0  0.18198655873E+02  0.14797278069E+01  0.39373118307E+02  0.47787272873E+02  0.20000008338E+02 0.  0.
        -12    1    3    3    0    0 -0.18198655873E+02 -0.14797278069E+01 -0.39373118307E+02  0.43400727127E+02  0.00000000000E+00 0.  1.
         11    1    4    4    0    0  0.60495253080E+01 -0.54805912424E+01  0.16370238843E+02  0.18292576551E+02  0.51100000000E-03 0. -1.
        -11    1    4    4    0    0  0.41373014208E+01  0.19656715083E+01 -0.52820288674E-01  0.45808206436E+01  0.51100000000E-03 0.  1.
         12    1    4    4    0    0  0.80118291438E+01  0.49946475410E+01  0.23055699752E+02  0.24913875679E+02  0.00000000000E+00 0. -1.
</event>
<event>
 8    1  0.6524083E-011  0.9118800E+02  0.7816164E-02  0.1184000E+00
        -11   -1    0    0    0    0  0.00000000000E+00  0.00000000000E+00  0.45593999997E+02  0.45594000000E+02  0.51100000000E-03 0. -1.
         11   -1    0    0    0    0 -0.00000000000E+00 -0.00000000000E+00 -0.45593999997E+02  0.45594000000E+02  0.51100000000E-03 0.  1.
         23    2    1    2    0    0  0.00000000000E+00 -0.38857805862E-15  0.00000000000E+00  0.91188000000E+02  0.91188000000E+02 0.  0.
    9900012    2    3    3    0    0 -0.34766553352E+02  0.49049928678E+00  0.25974387274E+02  0.47787278626E+02  0.20000034568E+02 0.  0.
        -12    1    3    3    0    0  0.34766553352E+02 -0.49049928678E+00 -0.25974387274E+02  0.43400721374E+02  0.00000000000E+00 0.  1.
         11    1    4    4    0    0 -0.15834943800E+02 -0.32291884539E+01  0.14011829463E+02  0.21389354090E+02  0.51100000000E-03 0. -1.
        -11    1    4    4    0    0 -0.39961568951E+01 -0.32835774834E+01 -0.11819361520E+01  0.53054805954E+01  0.51100000000E-03 0.  1.
         12    1    4    4    0    0 -0.14935452657E+02  0.70032652240E+01  0.13144493963E+02  0.21092443941E+02  0.00000000000E+00 0. -1.
</event>
<event>
 8    1  0.1099636E-010  0.9118800E+02  0.7816164E-02  0.1184000E+00
        -11   -1    0    0    0    0  0.00000000000E+00  0.00000000000E+00  0.45593999997E+02  0.45594000000E+02  0.51100000000E-03 0. -1.
         11   -1    0    0    0    0 -0.00000000000E+00 -0.00000000000E+00 -0.45593999997E+02  0.45594000000E+02  0.51100000000E-03 0.  1.
         23    2    1    2    0    0  0.71054273576E-14 -0.35527136788E-14  0.00000000000E+00  0.91188000000E+02  0.91188000000E+02 0.  0.
    9900012    2    3    3    0    0 -0.29672039134E+02  0.16229967533E+02 -0.27198926295E+02  0.47787270236E+02  0.19999996314E+02 0.  0.
         12    1    3    3    0    0  0.29672039134E+02 -0.16229967533E+02  0.27198926295E+02  0.43400729764E+02  0.00000000000E+00 0. -1.
         11    1    4    4    0    0  0.42567705278E+00  0.80811482238E+00  0.13890540427E+01  0.16624445597E+01  0.51100000000E-03 0. -1.
        -11    1    4    4    0    0 -0.25126458153E+02  0.14315269249E+02 -0.17192262078E+02  0.33642825515E+02  0.51100000000E-03 0.  1.
         12    1    4    4    0    0 -0.49712580330E+01  0.11065834621E+01 -0.11395718259E+02  0.12482000162E+02  0.00000000000E+00 0. -1.
</event>
<event>
 8    1  0.6524083E-011  0.9118800E+02  0.7816164E-02  0.1184000E+00
        -11   -1    0    0    0    0  0.00000000000E+00  0.00000000000E+00  0.45593999997E+02  0.45594000000E+02  0.51100000000E-03 0. -1.
         11   -1    0    0    0    0 -0.00000000000E+00 -0.00000000000E+00 -0.45593999997E+02  0.45594000000E+02  0.51100000000E-03 0.  1.
         23    2    1    2    0    0  0.17763568394E-14  0.00000000000E+00  0.00000000000E+00  0.91188000000E+02  0.91188000000E+02 0.  0.
    9900012    2    3    3    0    0  0.14327605008E+02  0.12841162177E+02 -0.38903056456E+02  0.47787268290E+02  0.19999987442E+02 0.  0.
         12    1    3    3    0    0 -0.14327605008E+02 -0.12841162177E+02  0.38903056456E+02  0.43400731710E+02  0.00000000000E+00 0. -1.
         11    1    4    4    0    0  0.38416311395E+01  0.72203058037E+01 -0.10994708402E+02  0.13703085741E+02  0.51100000000E-03 0. -1.
        -11    1    4    4    0    0  0.24392620747E+01 -0.23901881800E+01  0.53632949535E+00  0.34569710143E+01  0.51100000000E-03 0.  1.
        -12    1    4    4    0    0  0.80467117934E+01  0.80110445531E+01 -0.28444677549E+02  0.30627211535E+02  0.00000000000E+00 0.  1.
</event>
<event>
 8    1  0.6524083E-011  0.9118800E+02  0.7816164E-02  0.1184000E+00
        -11   -1    0    0    0    0  0.00000000000E+00  0.00000000000E+00  0.45593999997E+02  0.45594000000E+02  0.51100000000E-03 0. -1.
         11   -1    0    0    0    0 -0.00000000000E+00 -0.00000000000E+00 -0.45593999997E+02  0.45594000000E+02  0.51100000000E-03 0.  1.
         23    2    1    2    0    0  0.00000000000E+00  0.00000000000E+00  0.00000000000E+00  0.91188000000E+02  0.91188000000E+02 0.  0.
    9900012    2    3    3    0    0  0.10462684152E+02 -0.17784404859E+02 -0.38182071656E+02  0.47787269456E+02  0.19999992756E+02 0.  0.
         12    1    3    3    0    0 -0.10462684152E+02  0.17784404859E+02  0.38182071656E+02  0.43400730544E+02  0.00000000000E+00 0. -1.
         11    1    4    4    0    0  0.39980243110E+01 -0.58329958987E+01 -0.36444930758E+01  0.79555244695E+01  0.51100000000E-03 0. -1.
        -11    1    4    4    0    0  0.24285428127E+01 -0.14014708137E+02 -0.30911561732E+02  0.34026967442E+02  0.51100000000E-03 0.  1.
         12    1    4    4    0    0  0.40361170281E+01  0.20632991758E+01 -0.36260168483E+01  0.58047775442E+01  0.00000000000E+00 0. -1.
</event>
<event>
 8    1  0.6524083E-011  0.9118800E+02  0.7816164E-02  0.1184000E+00
        -11   -1    0    0    0    0  0.00000000000E+00  0.00000000000E+00  0.45593999997E+02  0.45594000000E+02  0.51100000000E-03 0. -1.
         11   -1    0    0    0    0 -0.00000000000E+00 -0.00000000000E+00 -0.45593999997E+02  0.45594000000E+02  0.51100000000E-03 0.  1.
         23    2    1    2    0    0  0.00000000000E+00 -0.35527136788E-14  0.00000000000E+00  0.91188000000E+02  0.91188000000E+02 0.  0.
    9900012    2    3    3    0    0  0.15782073617E+02 -0.26134638711E+02 -0.30846875321E+02  0.47787275291E+02  0.20000019360E+02 0.  0.
         12    1    3    3    0    0 -0.15782073617E+02  0.26134638711E+02  0.30846875321E+02  0.43400724709E+02  0.00000000000E+00 0. -1.
         11    1    4    4    0    0  0.11390834178E+02 -0.10498145372E+02 -0.23869395928E+02  0.28455407601E+02  0.51100000000E-03 0. -1.
        -11    1    4    4    0    0  0.64226094580E+01 -0.91272301128E+01 -0.36325225579E+01  0.11736756885E+02  0.51100000000E-03 0.  1.
         12    1    4    4    0    0 -0.20313700190E+01 -0.65092632257E+01 -0.33449568355E+01  0.75951108041E+01  0.00000000000E+00 0. -1.
</event>
<event>
 8    1  0.6524083E-011  0.9118800E+02  0.7816164E-02  0.1184000E+00
        -11   -1    0    0    0    0  0.00000000000E+00  0.00000000000E+00  0.45593999997E+02  0.45594000000E+02  0.51100000000E-03 0. -1.
         11   -1    0    0    0    0 -0.00000000000E+00 -0.00000000000E+00 -0.45593999997E+02  0.45594000000E+02  0.51100000000E-03 0.  1.
         23    2    1    2    0    0  0.00000000000E+00 -0.69388939039E-16  0.00000000000E+00  0.91188000000E+02  0.91188000000E+02 0.  0.
    9900012    2    3    3    0    0 -0.34788473836E+02  0.12091313450E+00 -0.25949387396E+02  0.47787271457E+02  0.20000001882E+02 0.  0.
         12    1    3    3    0    0  0.34788473836E+02 -0.12091313450E+00  0.25949387396E+02  0.43400728543E+02  0.00000000000E+00 0. -1.
         11    1    4    4    0    0 -0.29374167273E+01  0.37510602964E+01  0.38450047470E+00  0.47798233496E+01  0.51100000000E-03 0. -1.
        -11    1    4    4    0    0  0.75564731050E+00  0.79074116478E+00 -0.73817159208E+00  0.13195347695E+01  0.51100000000E-03 0.  1.
        -12    1    4    4    0    0 -0.32606704419E+02 -0.44208883267E+01 -0.25595716278E+02  0.41687913338E+02  0.00000000000E+00 0.  1.
</event>
<event>
 8    1  0.6524083E-011  0.9118800E+02  0.7816164E-02  0.1184000E+00
        -11   -1    0    0    0    0  0.00000000000E+00  0.00000000000E+00  0.45593999997E+02  0.45594000000E+02  0.51100000000E-03 0. -1.
         11   -1    0    0    0    0 -0.00000000000E+00 -0.00000000000E+00 -0.45593999997E+02  0.45594000000E+02  0.51100000000E-03 0.  1.
         23    2    1    2    0    0 -0.35527136788E-14  0.00000000000E+00  0.71054273576E-14  0.91188000000E+02  0.91188000000E+02 0.  0.
    9900012    2    3    3    0    0 -0.25153122141E+02  0.86632090348E+01  0.34291283546E+02  0.47787275681E+02  0.20000021139E+02 0.  0.
        -12    1    3    3    0    0  0.25153122141E+02 -0.86632090348E+01 -0.34291283546E+02  0.43400724319E+02  0.00000000000E+00 0.  1.
         11    1    4    4    0    0 -0.44888576804E+01 -0.33502882763E-01 -0.17003873953E+01  0.48002378350E+01  0.51100000000E-03 0.  1.
        -11    1    4    4    0    0 -0.14159682034E+02  0.37768230668E+01  0.17840219837E+02  0.23087538454E+02  0.51100000000E-03 0. -1.
        -12    1    4    4    0    0 -0.65045824264E+01  0.49198888507E+01  0.18151451104E+02  0.19899499391E+02  0.00000000000E+00 0.  1.
</event>
<event>
 8    1  0.6524083E-011  0.9118800E+02  0.7816164E-02  0.1184000E+00
        -11   -1    0    0    0    0  0.00000000000E+00  0.00000000000E+00  0.45593999997E+02  0.45594000000E+02  0.51100000000E-03 0. -1.
         11   -1    0    0    0    0 -0.00000000000E+00 -0.00000000000E+00 -0.45593999997E+02  0.45594000000E+02  0.51100000000E-03 0.  1.
         23    2    1    2    0    0  0.88817841970E-15  0.35527136788E-14  0.00000000000E+00  0.91188000000E+02  0.91188000000E+02 0.  0.
    9900012    2    3    3    0    0 -0.54755872771E+01  0.24987474202E+02  0.35060909265E+02  0.47787270956E+02  0.19999999597E+02 0.  0.
        -12    1    3    3    0    0  0.54755872771E+01 -0.24987474202E+02 -0.35060909265E+02  0.43400729044E+02  0.00000000000E+00 0.  1.
         11    1    4    4    0    0  0.63230246939E+00  0.16731157931E+02  0.10816178997E+02  0.19932917008E+02  0.51100000000E-03 0. -1.
        -11    1    4    4    0    0  0.15101933460E-01  0.68197260465E+01  0.16656751010E+02  0.17998784567E+02  0.51100000000E-03 0.  1.
        -12    1    4    4    0    0 -0.61229916799E+01  0.14365902251E+01  0.75879792588E+01  0.98555693808E+01  0.00000000000E+00 0.  1.
</event>
<event>
 8    1  0.6524083E-011  0.9118800E+02  0.7816164E-02  0.1184000E+00
        -11   -1    0    0    0    0  0.00000000000E+00  0.00000000000E+00  0.45593999997E+02  0.45594000000E+02  0.51100000000E-03 0. -1.
         11   -1    0    0    0    0 -0.00000000000E+00 -0.00000000000E+00 -0.45593999997E+02  0.45594000000E+02  0.51100000000E-03 0.  1.
         23    2    1    2    0    0  0.00000000000E+00  0.00000000000E+00  0.44408920985E-15  0.91188000000E+02  0.91188000000E+02 0.  0.
    9900012    2    3    3    0    0  0.41925265599E+02  0.10710859083E+02 -0.33425965781E+01  0.47787270171E+02  0.19999996017E+02 0.  0.
        -12    1    3    3    0    0 -0.41925265599E+02 -0.10710859083E+02  0.33425965781E+01  0.43400729829E+02  0.00000000000E+00 0.  1.
         11    1    4    4    0    0  0.27682134906E+02  0.43068063278E+01 -0.25453020391E+01  0.28130548100E+02  0.51100000000E-03 0. -1.
        -11    1    4    4    0    0  0.82941870977E+01 -0.23002964132E+01 -0.25319450947E+01  0.89719367711E+01  0.51100000000E-03 0.  1.
         12    1    4    4    0    0  0.59489435949E+01  0.87043491686E+01  0.17346505558E+01  0.10684785299E+02  0.00000000000E+00 0. -1.
</event>
<event>
 8    1  0.6524083E-011  0.9118800E+02  0.7816164E-02  0.1184000E+00
        -11   -1    0    0    0    0  0.00000000000E+00  0.00000000000E+00  0.45593999997E+02  0.45594000000E+02  0.51100000000E-03 0.  1.
         11   -1    0    0    0    0 -0.00000000000E+00 -0.00000000000E+00 -0.45593999997E+02  0.45594000000E+02  0.51100000000E-03 0. -1.
         23    2    1    2    0    0 -0.22204460493E-15  0.00000000000E+00  0.00000000000E+00  0.91188000000E+02  0.91188000000E+02 0.  0.
    9900012    2    3    3    0    0 -0.18262699439E+01  0.43308389436E+02 -0.21613955245E+01  0.47787268577E+02  0.19999988749E+02 0.  0.
         12    1    3    3    0    0  0.18262699439E+01 -0.43308389436E+02  0.21613955245E+01  0.43400731423E+02  0.00000000000E+00 0. -1.
         11    1    4    4    0    0 -0.32206617701E+01  0.11867485846E+02 -0.89726041524E+01  0.15222270136E+02  0.51100000000E-03 0. -1.
        -11    1    4    4    0    0  0.29191306738E+01  0.12235961635E+02  0.26872467545E+01  0.12863179094E+02  0.51100000000E-03 0.  1.
        -12    1    4    4    0    0 -0.15247388476E+01  0.19204941955E+02  0.41239618734E+01  0.19701819347E+02  0.00000000000E+00 0.  1.
</event>
<event>
 8    1  0.6524083E-011  0.9118800E+02  0.7816164E-02  0.1184000E+00
        -11   -1    0    0    0    0  0.00000000000E+00  0.00000000000E+00  0.45593999997E+02  0.45594000000E+02  0.51100000000E-03 0. -1.
         11   -1    0    0    0    0 -0.00000000000E+00 -0.00000000000E+00 -0.45593999997E+02  0.45594000000E+02  0.51100000000E-03 0.  1.
         23    2    1    2    0    0  0.00000000000E+00  0.00000000000E+00  0.71054273576E-14  0.91188000000E+02  0.91188000000E+02 0.  0.
    9900012    2    3    3    0    0 -0.34078814371E+01  0.85404816888E+00 -0.43258297890E+02  0.47787269701E+02  0.19999993876E+02 0.  0.
         12    1    3    3    0    0  0.34078814371E+01 -0.85404816888E+00  0.43258297890E+02  0.43400730299E+02  0.00000000000E+00 0. -1.
         11    1    4    4    0    0  0.57842918736E+01 -0.10025440291E+01 -0.56289072885E+01  0.81331251394E+01  0.51100000000E-03 0. -1.
        -11    1    4    4    0    0 -0.14220459236E+01 -0.52751538346E+00 -0.21868150282E+02  0.21920686215E+02  0.51100000000E-03 0.  1.
        -12    1    4    4    0    0 -0.77701273870E+01  0.23841075815E+01 -0.15761240319E+02  0.17733458347E+02  0.00000000000E+00 0.  1.
</event>
<event>
 8    1  0.6524083E-011  0.9118800E+02  0.7816164E-02  0.1184000E+00
        -11   -1    0    0    0    0  0.00000000000E+00  0.00000000000E+00  0.45593999997E+02  0.45594000000E+02  0.51100000000E-03 0. -1.
         11   -1    0    0    0    0 -0.00000000000E+00 -0.00000000000E+00 -0.45593999997E+02  0.45594000000E+02  0.51100000000E-03 0.  1.
         23    2    1    2    0    0  0.00000000000E+00  0.00000000000E+00  0.71054273576E-14  0.91188000000E+02  0.91188000000E+02 0.  0.
    9900012    2    3    3    0    0 -0.82514636756E+01 -0.98159433766E+01  0.41463046732E+02  0.47787266809E+02  0.19999980690E+02 0.  0.
        -12    1    3    3    0    0  0.82514636756E+01  0.98159433766E+01 -0.41463046732E+02  0.43400733191E+02  0.00000000000E+00 0.  1.
         11    1    4    4    0    0  0.47747848275E+00 -0.85241393143E+00  0.81735741511E+00  0.12738401066E+01  0.51100000000E-03 0. -1.
        -11    1    4    4    0    0  0.32041821842E+01 -0.21996744473E+01  0.26594908561E+02  0.26877397805E+02  0.51100000000E-03 0.  1.
         12    1    4    4    0    0 -0.11933124343E+02 -0.67638549979E+01  0.14050780756E+02  0.19636028898E+02  0.00000000000E+00 0. -1.
</event>
<event>
 8    1  0.6524083E-011  0.9118800E+02  0.7816164E-02  0.1184000E+00
        -11   -1    0    0    0    0  0.00000000000E+00  0.00000000000E+00  0.45593999997E+02  0.45594000000E+02  0.51100000000E-03 0. -1.
         11   -1    0    0    0    0 -0.00000000000E+00 -0.00000000000E+00 -0.45593999997E+02  0.45594000000E+02  0.51100000000E-03 0.  1.
         23    2    1    2    0    0  0.71054273576E-14  0.00000000000E+00  0.00000000000E+00  0.91188000000E+02  0.91188000000E+02 0.  0.
    9900012    2    3    3    0    0 -0.33285495204E+02  0.25303859767E+02  0.11636746060E+02  0.47787269949E+02  0.19999995005E+02 0.  0.
        -12    1    3    3    0    0  0.33285495204E+02 -0.25303859767E+02 -0.11636746060E+02  0.43400730051E+02  0.00000000000E+00 0.  1.
         11    1    4    4    0    0 -0.16731866551E+02  0.58277489041E+01  0.49004423909E+01  0.18382936421E+02  0.51100000000E-03 0. -1.
        -11    1    4    4    0    0 -0.13021833358E+02  0.17485858688E+02  0.10202058689E+02  0.24070841277E+02  0.51100000000E-03 0.  1.
         12    1    4    4    0    0 -0.35317952950E+01  0.19902521755E+01 -0.34657550196E+01  0.53334922503E+01  0.00000000000E+00 0. -1.
</event>
<event>
 8    1  0.6524083E-011  0.9118800E+02  0.7816164E-02  0.1184000E+00
        -11   -1    0    0    0    0  0.00000000000E+00  0.00000000000E+00  0.45593999997E+02  0.45594000000E+02  0.51100000000E-03 0.  1.
         11   -1    0    0    0    0 -0.00000000000E+00 -0.00000000000E+00 -0.45593999997E+02  0.45594000000E+02  0.51100000000E-03 0. -1.
         23    2    1    2    0    0  0.00000000000E+00  0.00000000000E+00  0.00000000000E+00  0.91188000000E+02  0.91188000000E+02 0.  0.
    9900012    2    3    3    0    0  0.20260144206E+02  0.32568926312E+02 -0.20308029716E+02  0.47787257203E+02  0.19999936893E+02 0.  0.
         12    1    3    3    0    0 -0.20260144206E+02 -0.32568926312E+02  0.20308029716E+02  0.43400742797E+02  0.00000000000E+00 0. -1.
         11    1    4    4    0    0  0.11632247840E+02  0.17759170200E+02 -0.12704152971E+02  0.24740509675E+02  0.51100000000E-03 0. -1.
        -11    1    4    4    0    0  0.72834121777E+01  0.10309582064E+02  0.15901029462E+01  0.12722578470E+02  0.51100000000E-03 0.  1.
         12    1    4    4    0    0  0.13444841883E+01  0.45001740481E+01 -0.91939796909E+01  0.10324169059E+02  0.00000000000E+00 0. -1.
</event>
<event>
 8    1  0.1536275E-010  0.9118800E+02  0.7816164E-02  0.1184000E+00
        -11   -1    0    0    0    0  0.00000000000E+00  0.00000000000E+00  0.45593999997E+02  0.45594000000E+02  0.51100000000E-03 0.  1.
         11   -1    0    0    0    0 -0.00000000000E+00 -0.00000000000E+00 -0.45593999997E+02  0.45594000000E+02  0.51100000000E-03 0. -1.
         23    2    1    2    0    0  0.00000000000E+00  0.00000000000E+00  0.00000000000E+00  0.91188000000E+02  0.91188000000E+02 0.  0.
    9900012    2    3    3    0    0  0.18988427852E+02  0.33170308309E+02 -0.20561944217E+02  0.47787270795E+02  0.19999998862E+02 0.  0.
         12    1    3    3    0    0 -0.18988427852E+02 -0.33170308309E+02  0.20561944217E+02  0.43400729205E+02  0.00000000000E+00 0. -1.
         11    1    4    4    0    0  0.40375553812E+01  0.42819219105E+01 -0.12356557582E+02  0.13686534413E+02  0.51100000000E-03 0. -1.
        -11    1    4    4    0    0  0.76535675946E+01  0.14769717578E+02 -0.73453178249E+01  0.18184480979E+02  0.51100000000E-03 0.  1.
         12    1    4    4    0    0  0.72973048758E+01  0.14118668820E+02 -0.86006881012E+00  0.15916255403E+02  0.00000000000E+00 0. -1.
</event>
<event>
 8    1  0.6524083E-011  0.9118800E+02  0.7816164E-02  0.1184000E+00
        -11   -1    0    0    0    0  0.00000000000E+00  0.00000000000E+00  0.45593999997E+02  0.45594000000E+02  0.51100000000E-03 0. -1.
         11   -1    0    0    0    0 -0.00000000000E+00 -0.00000000000E+00 -0.45593999997E+02  0.45594000000E+02  0.51100000000E-03 0.  1.
         23    2    1    2    0    0  0.00000000000E+00  0.00000000000E+00  0.35527136788E-14  0.91188000000E+02  0.91188000000E+02 0.  0.
    9900012    2    3    3    0    0 -0.65261384152E+01 -0.31181005894E+02  0.29475038922E+02  0.47787268087E+02  0.19999986514E+02 0.  0.
        -12    1    3    3    0    0  0.65261384152E+01  0.31181005894E+02 -0.29475038922E+02  0.43400731913E+02  0.00000000000E+00 0.  1.
         11    1    4    4    0    0 -0.46816307354E+01 -0.18371650947E+01  0.46597680592E+01  0.68561126416E+01  0.51100000000E-03 0. -1.
        -11    1    4    4    0    0 -0.54868642445E+01 -0.59959286156E+01  0.26942192830E+01  0.85624562485E+01  0.51100000000E-03 0.  1.
        -12    1    4    4    0    0  0.36423565648E+01 -0.23347912184E+02  0.22121051579E+02  0.32368699197E+02  0.00000000000E+00 0.  1.
</event>
<event>
 8    1  0.6524083E-011  0.9118800E+02  0.7816164E-02  0.1184000E+00
        -11   -1    0    0    0    0  0.00000000000E+00  0.00000000000E+00  0.45593999997E+02  0.45594000000E+02  0.51100000000E-03 0. -1.
         11   -1    0    0    0    0 -0.00000000000E+00 -0.00000000000E+00 -0.45593999997E+02  0.45594000000E+02  0.51100000000E-03 0.  1.
         23    2    1    2    0    0  0.00000000000E+00  0.35527136788E-14  0.00000000000E+00  0.91188000000E+02  0.91188000000E+02 0.  0.
    9900012    2    3    3    0    0 -0.23564626225E+02  0.16188721193E+02 -0.32653587020E+02  0.47787273643E+02  0.20000011850E+02 0.  0.
         12    1    3    3    0    0  0.23564626225E+02 -0.16188721193E+02  0.32653587020E+02  0.43400726357E+02  0.00000000000E+00 0. -1.
         11    1    4    4    0    0 -0.98471640054E+01  0.13222794965E+02 -0.20035473669E+02  0.25946659728E+02  0.51100000000E-03 0. -1.
        -11    1    4    4    0    0 -0.50577782972E+01  0.58894882906E+01 -0.93064104414E+01  0.12119260258E+02  0.51100000000E-03 0.  1.
        -12    1    4    4    0    0 -0.86596839229E+01 -0.29235620622E+01 -0.33117029090E+01  0.97213536575E+01  0.00000000000E+00 0.  1.
</event>
<event>
 8    1  0.6524083E-011  0.9118800E+02  0.7816164E-02  0.1184000E+00
        -11   -1    0    0    0    0  0.00000000000E+00  0.00000000000E+00  0.45593999997E+02  0.45594000000E+02  0.51100000000E-03 0. -1.
         11   -1    0    0    0    0 -0.00000000000E+00 -0.00000000000E+00 -0.45593999997E+02  0.45594000000E+02  0.51100000000E-03 0.  1.
         23    2    1    2    0    0 -0.35527136788E-14  0.00000000000E+00 -0.71054273576E-14  0.91188000000E+02  0.91188000000E+02 0.  0.
    9900012    2    3    3    0    0 -0.18940354925E+02 -0.79788576365E+01 -0.38225947718E+02  0.47787282347E+02  0.20000051533E+02 0.  0.
         12    1    3    3    0    0  0.18940354925E+02  0.79788576365E+01  0.38225947718E+02  0.43400717653E+02  0.00000000000E+00 0. -1.
         11    1    4    4    0    0 -0.12263438759E+02 -0.65209388505E+01 -0.27371242956E+02  0.30693639649E+02  0.51100000000E-03 0. -1.
        -11    1    4    4    0    0 -0.95578061672E+01 -0.15879762024E+01 -0.58511892827E+01  0.11318557480E+02  0.51100000000E-03 0.  1.
         12    1    4    4    0    0  0.28808900005E+01  0.13005741644E+00 -0.50035154791E+01  0.57750852181E+01  0.00000000000E+00 0. -1.
</event>
<event>
 8    1  0.6524083E-011  0.9118800E+02  0.7816164E-02  0.1184000E+00
        -11   -1    0    0    0    0  0.00000000000E+00  0.00000000000E+00  0.45593999997E+02  0.45594000000E+02  0.51100000000E-03 0. -1.
         11   -1    0    0    0    0 -0.00000000000E+00 -0.00000000000E+00 -0.45593999997E+02  0.45594000000E+02  0.51100000000E-03 0.  1.
         23    2    1    2    0    0 -0.88817841970E-15  0.44408920985E-15 -0.71054273576E-14  0.91188000000E+02  0.91188000000E+02 0.  0.
    9900012    2    3    3    0    0 -0.32443317090E+01  0.19772248767E+01 -0.43234106336E+02  0.47787273541E+02  0.20000011385E+02 0.  0.
         12    1    3    3    0    0  0.32443317090E+01 -0.19772248767E+01  0.43234106336E+02  0.43400726459E+02  0.00000000000E+00 0. -1.
         11    1    4    4    0    0 -0.39179008763E+01  0.11067468678E+01 -0.19273756954E+01  0.45043993205E+01  0.51100000000E-03 0. -1.
        -11    1    4    4    0    0 -0.60534646421E+01  0.10410223049E+01 -0.21757831163E+02  0.22608214852E+02  0.51100000000E-03 0.  1.
         12    1    4    4    0    0  0.67270338094E+01 -0.17054429604E+00 -0.19548899478E+02  0.20674659369E+02  0.00000000000E+00 0. -1.
</event>
<event>
 8    1  0.6524083E-011  0.9118800E+02  0.7816164E-02  0.1184000E+00
        -11   -1    0    0    0    0  0.00000000000E+00  0.00000000000E+00  0.45593999997E+02  0.45594000000E+02  0.51100000000E-03 0.  1.
         11   -1    0    0    0    0 -0.00000000000E+00 -0.00000000000E+00 -0.45593999997E+02  0.45594000000E+02  0.51100000000E-03 0. -1.
         23    2    1    2    0    0  0.00000000000E+00  0.00000000000E+00  0.00000000000E+00  0.91188000000E+02  0.91188000000E+02 0.  0.
    9900012    2    3    3    0    0  0.40412462784E+02 -0.10449937763E+02 -0.11885082228E+02  0.47787268127E+02  0.19999986699E+02 0.  0.
        -12    1    3    3    0    0 -0.40412462784E+02  0.10449937763E+02  0.11885082228E+02  0.43400731873E+02  0.00000000000E+00 0.  1.
         11    1    4    4    0    0  0.23791160423E+02 -0.26864823910E+01 -0.52671702830E+01  0.24514884967E+02  0.51100000000E-03 0. -1.
        -11    1    4    4    0    0  0.15405929344E+01 -0.70828448424E+00  0.34298056769E+01  0.38260502797E+01  0.51100000000E-03 0.  1.
         12    1    4    4    0    0  0.15080709427E+02 -0.70551708877E+01 -0.10047717622E+02  0.19446332880E+02  0.00000000000E+00 0. -1.
</event>
<event>
 8    1  0.6524083E-011  0.9118800E+02  0.7816164E-02  0.1184000E+00
        -11   -1    0    0    0    0  0.00000000000E+00  0.00000000000E+00  0.45593999997E+02  0.45594000000E+02  0.51100000000E-03 0.  1.
         11   -1    0    0    0    0 -0.00000000000E+00 -0.00000000000E+00 -0.45593999997E+02  0.45594000000E+02  0.51100000000E-03 0. -1.
         23    2    1    2    0    0 -0.71054273576E-14  0.00000000000E+00  0.00000000000E+00  0.91188000000E+02  0.91188000000E+02 0.  0.
    9900012    2    3    3    0    0 -0.39078224253E+02 -0.98387680104E+01 -0.16115642535E+02  0.47787275340E+02  0.20000019584E+02 0.  0.
         12    1    3    3    0    0  0.39078224253E+02  0.98387680104E+01  0.16115642535E+02  0.43400724660E+02  0.00000000000E+00 0. -1.
         11    1    4    4    0    0 -0.13828851445E+01  0.14255552887E+01  0.20013726443E+01  0.28195871908E+01  0.51100000000E-03 0.  1.
        -11    1    4    4    0    0 -0.28252105912E+02 -0.11037573439E+02 -0.85283773534E+01  0.31507820243E+02  0.51100000000E-03 0. -1.
         12    1    4    4    0    0 -0.94432331959E+01 -0.22674985956E+00 -0.95886378259E+01  0.13459867906E+02  0.00000000000E+00 0. -1.
</event>
<event>
 8    1  0.6524083E-011  0.9118800E+02  0.7816164E-02  0.1184000E+00
        -11   -1    0    0    0    0  0.00000000000E+00  0.00000000000E+00  0.45593999997E+02  0.45594000000E+02  0.51100000000E-03 0.  1.
         11   -1    0    0    0    0 -0.00000000000E+00 -0.00000000000E+00 -0.45593999997E+02  0.45594000000E+02  0.51100000000E-03 0. -1.
         23    2    1    2    0    0  0.00000000000E+00  0.00000000000E+00  0.00000000000E+00  0.91188000000E+02  0.91188000000E+02 0.  0.
    9900012    2    3    3    0    0 -0.33017969547E+02  0.15870922056E+02 -0.23271235555E+02  0.47787275534E+02  0.20000020468E+02 0.  0.
        -12    1    3    3    0    0  0.33017969547E+02 -0.15870922056E+02  0.23271235555E+02  0.43400724466E+02  0.00000000000E+00 0.  1.
         11    1    4    4    0    0 -0.84811586599E+01 -0.18885902393E+01 -0.28814824628E+01  0.91542212531E+01  0.51100000000E-03 0. -1.
        -11    1    4    4    0    0 -0.17243422530E+02  0.13368453861E+02 -0.72788879660E+01  0.23000725847E+02  0.51100000000E-03 0.  1.
         12    1    4    4    0    0 -0.72933883573E+01  0.43910584341E+01 -0.13110865127E+02  0.15632328434E+02  0.00000000000E+00 0. -1.
</event>
<event>
 8    1  0.6524083E-011  0.9118800E+02  0.7816164E-02  0.1184000E+00
        -11   -1    0    0    0    0  0.00000000000E+00  0.00000000000E+00  0.45593999997E+02  0.45594000000E+02  0.51100000000E-03 0. -1.
         11   -1    0    0    0    0 -0.00000000000E+00 -0.00000000000E+00 -0.45593999997E+02  0.45594000000E+02  0.51100000000E-03 0.  1.
         23    2    1    2    0    0  0.00000000000E+00  0.44408920985E-15  0.00000000000E+00  0.91188000000E+02  0.91188000000E+02 0.  0.
    9900012    2    3    3    0    0  0.17238035900E+02 -0.26266697431E+01 -0.39743855858E+02  0.47787270120E+02  0.19999995786E+02 0.  0.
         12    1    3    3    0    0 -0.17238035900E+02  0.26266697431E+01  0.39743855858E+02  0.43400729880E+02  0.00000000000E+00 0. -1.
         11    1    4    4    0    0  0.53903687801E+01  0.52769597951E+01 -0.16415074056E+02  0.18065354599E+02  0.51100000000E-03 0.  1.
        -11    1    4    4    0    0 -0.17197256688E+01 -0.31411368197E+01 -0.23317333533E+01  0.42733099101E+01  0.51100000000E-03 0. -1.
        -12    1    4    4    0    0  0.13567392789E+02 -0.47624927185E+01 -0.20997048449E+02  0.25448605611E+02  0.00000000000E+00 0.  1.
</event>
<event>
 8    1  0.6524083E-011  0.9118800E+02  0.7816164E-02  0.1184000E+00
        -11   -1    0    0    0    0  0.00000000000E+00  0.00000000000E+00  0.45593999997E+02  0.45594000000E+02  0.51100000000E-03 0. -1.
         11   -1    0    0    0    0 -0.00000000000E+00 -0.00000000000E+00 -0.45593999997E+02  0.45594000000E+02  0.51100000000E-03 0.  1.
         23    2    1    2    0    0 -0.17763568394E-14  0.00000000000E+00  0.00000000000E+00  0.91188000000E+02  0.91188000000E+02 0.  0.
    9900012    2    3    3    0    0 -0.14367453142E+02 -0.22987647696E+02  0.33893473570E+02  0.47787271815E+02  0.20000003512E+02 0.  0.
        -12    1    3    3    0    0  0.14367453142E+02  0.22987647696E+02 -0.33893473570E+02  0.43400728185E+02  0.00000000000E+00 0.  1.
         11    1    4    4    0    0  0.47176838869E+01 -0.30674244551E+01  0.56012381164E+01  0.79397419821E+01  0.51100000000E-03 0. -1.
        -11    1    4    4    0    0 -0.62304819217E+01 -0.10155677605E+02  0.12297526580E+02  0.17122670728E+02  0.51100000000E-03 0.  1.
         12    1    4    4    0    0 -0.12854655107E+02 -0.97645456359E+01  0.15994708873E+02  0.22724859105E+02  0.00000000000E+00 0. -1.
</event>
<event>
 8    1  0.6524083E-011  0.9118800E+02  0.7816164E-02  0.1184000E+00
        -11   -1    0    0    0    0  0.00000000000E+00  0.00000000000E+00  0.45593999997E+02  0.45594000000E+02  0.51100000000E-03 0. -1.
         11   -1    0    0    0    0 -0.00000000000E+00 -0.00000000000E+00 -0.45593999997E+02  0.45594000000E+02  0.51100000000E-03 0.  1.
         23    2    1    2    0    0  0.00000000000E+00 -0.44408920985E-15  0.00000000000E+00  0.91188000000E+02  0.91188000000E+02 0.  0.
    9900012    2    3    3    0    0  0.33672919045E+02 -0.38086347512E+01  0.27115516350E+02  0.47787281082E+02  0.20000045764E+02 0.  0.
        -12    1    3    3    0    0 -0.33672919045E+02  0.38086347512E+01 -0.27115516350E+02  0.43400718918E+02  0.00000000000E+00 0.  1.
         11    1    4    4    0    0  0.35092420938E+01  0.22852025749E+01  0.85145171718E+01  0.94886212808E+01  0.51100000000E-03 0.  1.
        -11    1    4    4    0    0  0.18040554630E+02 -0.38762627139E+00  0.40024073607E+01  0.18483266227E+02  0.51100000000E-03 0. -1.
         12    1    4    4    0    0  0.12123122322E+02 -0.57062110547E+01  0.14598591817E+02  0.19815393574E+02  0.00000000000E+00 0. -1.
</event>
<event>
 8    1  0.6524083E-011  0.9118800E+02  0.7816164E-02  0.1184000E+00
        -11   -1    0    0    0    0  0.00000000000E+00  0.00000000000E+00  0.45593999997E+02  0.45594000000E+02  0.51100000000E-03 0. -1.
         11   -1    0    0    0    0 -0.00000000000E+00 -0.00000000000E+00 -0.45593999997E+02  0.45594000000E+02  0.51100000000E-03 0.  1.
         23    2    1    2    0    0  0.00000000000E+00  0.44408920985E-15  0.00000000000E+00  0.91188000000E+02  0.91188000000E+02 0.  0.
    9900012    2    3    3    0    0 -0.66706014346E+01  0.31625728369E+01  0.42768254746E+02  0.47787281061E+02  0.20000045668E+02 0.  0.
        -12    1    3    3    0    0  0.66706014346E+01 -0.31625728369E+01 -0.42768254746E+02  0.43400718939E+02  0.00000000000E+00 0.  1.
         11    1    4    4    0    0 -0.12642905084E+01  0.38637803042E+01  0.67381974833E+00  0.41208326880E+01  0.51100000000E-03 0. -1.
        -11    1    4    4    0    0 -0.74790130392E+01 -0.24574576393E+01  0.21545081301E+02  0.22938292496E+02  0.51100000000E-03 0.  1.
         12    1    4    4    0    0  0.20727021129E+01  0.17562501721E+01  0.20549353697E+02  0.20728155877E+02  0.00000000000E+00 0. -1.
</event>
<event>
 8    1  0.6524083E-011  0.9118800E+02  0.7816164E-02  0.1184000E+00
        -11   -1    0    0    0    0  0.00000000000E+00  0.00000000000E+00  0.45593999997E+02  0.45594000000E+02  0.51100000000E-03 0. -1.
         11   -1    0    0    0    0 -0.00000000000E+00 -0.00000000000E+00 -0.45593999997E+02  0.45594000000E+02  0.51100000000E-03 0.  1.
         23    2    1    2    0    0 -0.22204460493E-15  0.00000000000E+00  0.00000000000E+00  0.91188000000E+02  0.91188000000E+02 0.  0.
    9900012    2    3    3    0    0 -0.18954725737E+01 -0.11555799831E+02 -0.41791078283E+02  0.47787267863E+02  0.19999985494E+02 0.  0.
         12    1    3    3    0    0  0.18954725737E+01  0.11555799831E+02  0.41791078283E+02  0.43400732137E+02  0.00000000000E+00 0. -1.
         11    1    4    4    0    0  0.44192845509E+01 -0.13285224009E+01 -0.61122191088E+01  0.76586076023E+01  0.51100000000E-03 0. -1.
        -11    1    4    4    0    0  0.35534032545E+01  0.54707144403E+00 -0.51145928740E+01  0.62518015309E+01  0.51100000000E-03 0.  1.
         12    1    4    4    0    0 -0.98681603792E+01 -0.10774348874E+02 -0.30564266300E+02  0.33876858730E+02  0.00000000000E+00 0. -1.
</event>
<event>
 8    1  0.6524083E-011  0.9118800E+02  0.7816164E-02  0.1184000E+00
        -11   -1    0    0    0    0  0.00000000000E+00  0.00000000000E+00  0.45593999997E+02  0.45594000000E+02  0.51100000000E-03 0. -1.
         11   -1    0    0    0    0 -0.00000000000E+00 -0.00000000000E+00 -0.45593999997E+02  0.45594000000E+02  0.51100000000E-03 0.  1.
         23    2    1    2    0    0 -0.71054273576E-14  0.00000000000E+00  0.00000000000E+00  0.91188000000E+02  0.91188000000E+02 0.  0.
    9900012    2    3    3    0    0  0.36005639995E+02 -0.10244753723E+02 -0.21960471117E+02  0.47787269799E+02  0.19999994321E+02 0.  0.
         12    1    3    3    0    0 -0.36005639995E+02  0.10244753723E+02  0.21960471117E+02  0.43400730201E+02  0.00000000000E+00 0. -1.
         11    1    4    4    0    0  0.90195994864E+01  0.21180251571E+01 -0.11208278151E+02  0.14541826049E+02  0.51100000000E-03 0. -1.
        -11    1    4    4    0    0  0.49682070626E+01  0.11774434552E+01 -0.41181526686E+01  0.65596216484E+01  0.51100000000E-03 0.  1.
         12    1    4    4    0    0  0.22017833446E+02 -0.13540222335E+02 -0.66340402969E+01  0.26685822101E+02  0.00000000000E+00 0. -1.
</event>
<event>
 8    1  0.6524083E-011  0.9118800E+02  0.7816164E-02  0.1184000E+00
        -11   -1    0    0    0    0  0.00000000000E+00  0.00000000000E+00  0.45593999997E+02  0.45594000000E+02  0.51100000000E-03 0. -1.
         11   -1    0    0    0    0 -0.00000000000E+00 -0.00000000000E+00 -0.45593999997E+02  0.45594000000E+02  0.51100000000E-03 0.  1.
         23    2    1    2    0    0  0.44408920985E-15  0.00000000000E+00 -0.71054273576E-14  0.91188000000E+02  0.91188000000E+02 0.  0.
    9900012    2    3    3    0    0  0.37025091616E+01  0.18420003401E+02  0.39123118373E+02  0.47787268548E+02  0.19999988616E+02 0.  0.
        -12    1    3    3    0    0 -0.37025091616E+01 -0.18420003401E+02 -0.39123118373E+02  0.43400731452E+02  0.00000000000E+00 0.  1.
         11    1    4    4    0    0  0.26697878362E+01  0.36158134326E+01  0.22409828172E+02  0.22856121123E+02  0.51100000000E-03 0.  1.
        -11    1    4    4    0    0 -0.45578276820E+01  0.30694222049E+01  0.46787624578E+01  0.72170606377E+01  0.51100000000E-03 0. -1.
         12    1    4    4    0    0  0.55905490074E+01  0.11734767763E+02  0.12034527744E+02  0.17714086786E+02  0.00000000000E+00 0. -1.
</event>
<event>
 8    1  0.6524083E-011  0.9118800E+02  0.7816164E-02  0.1184000E+00
        -11   -1    0    0    0    0  0.00000000000E+00  0.00000000000E+00  0.45593999997E+02  0.45594000000E+02  0.51100000000E-03 0. -1.
         11   -1    0    0    0    0 -0.00000000000E+00 -0.00000000000E+00 -0.45593999997E+02  0.45594000000E+02  0.51100000000E-03 0.  1.
         23    2    1    2    0    0  0.00000000000E+00  0.00000000000E+00  0.00000000000E+00  0.91188000000E+02  0.91188000000E+02 0.  0.
    9900012    2    3    3    0    0  0.23643682833E+02 -0.27656655322E+02  0.23658179050E+02  0.47787265473E+02  0.19999974598E+02 0.  0.
        -12    1    3    3    0    0 -0.23643682833E+02  0.27656655322E+02 -0.23658179050E+02  0.43400734527E+02  0.00000000000E+00 0.  1.
         11    1    4    4    0    0  0.12804705748E+02 -0.47344972447E+01  0.82540079775E+01  0.15953200350E+02  0.51100000000E-03 0. -1.
        -11    1    4    4    0    0  0.62738310242E+01 -0.16483044937E+02  0.42019229632E+01  0.18130302892E+02  0.51100000000E-03 0.  1.
         12    1    4    4    0    0  0.45651460609E+01 -0.64391131410E+01  0.11202248109E+02  0.13703762231E+02  0.00000000000E+00 0. -1.
</event>
<event>
 8    1  0.6524083E-011  0.9118800E+02  0.7816164E-02  0.1184000E+00
        -11   -1    0    0    0    0  0.00000000000E+00  0.00000000000E+00  0.45593999997E+02  0.45594000000E+02  0.51100000000E-03 0. -1.
         11   -1    0    0    0    0 -0.00000000000E+00 -0.00000000000E+00 -0.45593999997E+02  0.45594000000E+02  0.51100000000E-03 0.  1.
         23    2    1    2    0    0  0.00000000000E+00  0.00000000000E+00  0.00000000000E+00  0.91188000000E+02  0.91188000000E+02 0.  0.
    9900012    2    3    3    0    0  0.16126246254E+02 -0.31951447956E+02  0.24549397990E+02  0.47787265140E+02  0.19999973079E+02 0.  0.
        -12    1    3    3    0    0 -0.16126246254E+02  0.31951447956E+02 -0.24549397990E+02  0.43400734860E+02  0.00000000000E+00 0.  1.
         11    1    4    4    0    0  0.45579510625E+01 -0.17948771375E+02  0.11703274568E+02  0.21906618809E+02  0.51100000000E-03 0. -1.
        -11    1    4    4    0    0  0.79600602635E+01 -0.41873993933E+01  0.12522897458E+02  0.15418165717E+02  0.51100000000E-03 0.  1.
         12    1    4    4    0    0  0.36082349281E+01 -0.98152771873E+01  0.32322596366E+00  0.10462480613E+02  0.00000000000E+00 0. -1.
</event>
<event>
 8    1  0.6524083E-011  0.9118800E+02  0.7816164E-02  0.1184000E+00
        -11   -1    0    0    0    0  0.00000000000E+00  0.00000000000E+00  0.45593999997E+02  0.45594000000E+02  0.51100000000E-03 0. -1.
         11   -1    0    0    0    0 -0.00000000000E+00 -0.00000000000E+00 -0.45593999997E+02  0.45594000000E+02  0.51100000000E-03 0.  1.
         23    2    1    2    0    0  0.00000000000E+00  0.00000000000E+00  0.71054273576E-14  0.91188000000E+02  0.91188000000E+02 0.  0.
    9900012    2    3    3    0    0  0.16725319577E+02  0.17523808503E+02  0.36011146307E+02  0.47787276069E+02  0.20000022908E+02 0.  0.
        -12    1    3    3    0    0 -0.16725319577E+02 -0.17523808503E+02 -0.36011146307E+02  0.43400723931E+02  0.00000000000E+00 0.  1.
         11    1    4    4    0    0  0.54852654139E+01  0.36248838832E+01  0.22536905782E+01  0.69503267054E+01  0.51100000000E-03 0.  1.
        -11    1    4    4    0    0 -0.18059444758E+01 -0.15583410720E+01  0.16902798430E+01  0.29235096297E+01  0.51100000000E-03 0. -1.
         12    1    4    4    0    0  0.13045998639E+02  0.15457265692E+02  0.32067175886E+02  0.37913439734E+02  0.00000000000E+00 0. -1.
</event>
<event>
 8    1  0.6524083E-011  0.9118800E+02  0.7816164E-02  0.1184000E+00
        -11   -1    0    0    0    0  0.00000000000E+00  0.00000000000E+00  0.45593999997E+02  0.45594000000E+02  0.51100000000E-03 0. -1.
         11   -1    0    0    0    0 -0.00000000000E+00 -0.00000000000E+00 -0.45593999997E+02  0.45594000000E+02  0.51100000000E-03 0.  1.
         23    2    1    2    0    0  0.00000000000E+00  0.00000000000E+00  0.00000000000E+00  0.91188000000E+02  0.91188000000E+02 0.  0.
    9900012    2    3    3    0    0  0.88463609459E+01 -0.83723855222E+01  0.41656554889E+02  0.47787268364E+02  0.19999987781E+02 0.  0.
        -12    1    3    3    0    0 -0.88463609459E+01  0.83723855222E+01 -0.41656554889E+02  0.43400731636E+02  0.00000000000E+00 0.  1.
         11    1    4    4    0    0  0.49472655094E+01  0.37124881021E+01  0.11047552140E+02  0.12661216864E+02  0.51100000000E-03 0. -1.
        -11    1    4    4    0    0 -0.41340946341E+01 -0.36627429944E+01  0.84221786574E+01  0.10071718735E+02  0.51100000000E-03 0.  1.
        -12    1    4    4    0    0  0.80331900706E+01 -0.84221306299E+01  0.22186824091E+02  0.25054332765E+02  0.00000000000E+00 0.  1.
</event>
<event>
 8    1  0.6524083E-011  0.9118800E+02  0.7816164E-02  0.1184000E+00
        -11   -1    0    0    0    0  0.00000000000E+00  0.00000000000E+00  0.45593999997E+02  0.45594000000E+02  0.51100000000E-03 0. -1.
         11   -1    0    0    0    0 -0.00000000000E+00 -0.00000000000E+00 -0.45593999997E+02  0.45594000000E+02  0.51100000000E-03 0.  1.
         23    2    1    2    0    0 -0.35527136788E-14  0.71054273576E-14  0.00000000000E+00  0.91188000000E+02  0.91188000000E+02 0.  0.
    9900012    2    3    3    0    0  0.22297535124E+02 -0.36058692854E+02 -0.92851452097E+01  0.47787270462E+02  0.19999997343E+02 0.  0.
         12    1    3    3    0    0 -0.22297535124E+02  0.36058692854E+02  0.92851452097E+01  0.43400729538E+02  0.00000000000E+00 0. -1.
         11    1    4    4    0    0  0.35463574946E+01  0.39476683218E+00  0.16505481927E+01  0.39315139487E+01  0.51100000000E-03 0. -1.
        -11    1    4    4    0    0  0.22309764785E+00 -0.13192779828E+01 -0.30910891629E+01  0.33682487186E+01  0.51100000000E-03 0.  1.
        -12    1    4    4    0    0  0.18528079981E+02 -0.35134181703E+02 -0.78446042395E+01  0.40487507794E+02  0.00000000000E+00 0.  1.
</event>
<event>
 8    1  0.6524083E-011  0.9118800E+02  0.7816164E-02  0.1184000E+00
        -11   -1    0    0    0    0  0.00000000000E+00  0.00000000000E+00  0.45593999997E+02  0.45594000000E+02  0.51100000000E-03 0. -1.
         11   -1    0    0    0    0 -0.00000000000E+00 -0.00000000000E+00 -0.45593999997E+02  0.45594000000E+02  0.51100000000E-03 0.  1.
         23    2    1    2    0    0 -0.44408920985E-15 -0.35527136788E-14  0.00000000000E+00  0.91188000000E+02  0.91188000000E+02 0.  0.
    9900012    2    3    3    0    0 -0.33702609691E+01 -0.16036896199E+02 -0.40188093104E+02  0.47787268140E+02  0.19999986756E+02 0.  0.
         12    1    3    3    0    0  0.33702609691E+01  0.16036896199E+02  0.40188093104E+02  0.43400731860E+02  0.00000000000E+00 0. -1.
         11    1    4    4    0    0  0.15886052068E+01 -0.73996438769E+01 -0.51993897710E+01  0.91821593462E+01  0.51100000000E-03 0. -1.
        -11    1    4    4    0    0 -0.21062588279E+01  0.16779897891E+01 -0.84356165644E+00  0.28219802465E+01  0.51100000000E-03 0.  1.
        -12    1    4    4    0    0 -0.28526073480E+01 -0.10315242111E+02 -0.34145141677E+02  0.35783128547E+02  0.00000000000E+00 0.  1.
</event>
<event>
 8    1  0.6524083E-011  0.9118800E+02  0.7816164E-02  0.1184000E+00
        -11   -1    0    0    0    0  0.00000000000E+00  0.00000000000E+00  0.45593999997E+02  0.45594000000E+02  0.51100000000E-03 0. -1.
         11   -1    0    0    0    0 -0.00000000000E+00 -0.00000000000E+00 -0.45593999997E+02  0.45594000000E+02  0.51100000000E-03 0.  1.
         23    2    1    2    0    0  0.00000000000E+00  0.00000000000E+00 -0.35527136788E-14  0.91188000000E+02  0.91188000000E+02 0.  0.
    9900012    2    3    3    0    0 -0.63885601379E+01  0.29306942597E+02  0.31367380728E+02  0.47787272371E+02  0.20000006047E+02 0.  0.
        -12    1    3    3    0    0  0.63885601379E+01 -0.29306942597E+02 -0.31367380728E+02  0.43400727629E+02  0.00000000000E+00 0.  1.
         11    1    4    4    0    0 -0.44227977850E+01  0.10217519062E+02  0.12116044659E+02  0.16454706757E+02  0.51100000000E-03 0. -1.
        -11    1    4    4    0    0 -0.24608243645E+01  0.61403803204E+00 -0.19552371630E+01  0.32024446728E+01  0.51100000000E-03 0.  1.
        -12    1    4    4    0    0  0.49506201152E+00  0.18475385503E+02  0.21206573232E+02  0.28130120941E+02  0.00000000000E+00 0.  1.
</event>
<event>
 8    1  0.6524083E-011  0.9118800E+02  0.7816164E-02  0.1184000E+00
        -11   -1    0    0    0    0  0.00000000000E+00  0.00000000000E+00  0.45593999997E+02  0.45594000000E+02  0.51100000000E-03 0. -1.
         11   -1    0    0    0    0 -0.00000000000E+00 -0.00000000000E+00 -0.45593999997E+02  0.45594000000E+02  0.51100000000E-03 0.  1.
         23    2    1    2    0    0  0.11102230246E-15  0.00000000000E+00  0.17763568394E-14  0.91188000000E+02  0.91188000000E+02 0.  0.
    9900012    2    3    3    0    0 -0.73732687990E+00 -0.42941133426E+02 -0.62560879329E+01  0.47787271584E+02  0.20000002459E+02 0.  0.
         12    1    3    3    0    0  0.73732687990E+00  0.42941133426E+02  0.62560879329E+01  0.43400728416E+02  0.00000000000E+00 0. -1.
         11    1    4    4    0    0 -0.21618195622E+01 -0.63559265276E+01  0.48903401175E+00  0.67313015361E+01  0.51100000000E-03 0. -1.
        -11    1    4    4    0    0 -0.44449352826E+01 -0.21355640313E+02  0.30429133345E+01  0.22024535062E+02  0.51100000000E-03 0.  1.
         12    1    4    4    0    0  0.58694279649E+01 -0.15229566585E+02 -0.97880352792E+01  0.19031434986E+02  0.00000000000E+00 0. -1.
</event>
<event>
 8    1  0.6524083E-011  0.9118800E+02  0.7816164E-02  0.1184000E+00
        -11   -1    0    0    0    0  0.00000000000E+00  0.00000000000E+00  0.45593999997E+02  0.45594000000E+02  0.51100000000E-03 0.  1.
         11   -1    0    0    0    0 -0.00000000000E+00 -0.00000000000E+00 -0.45593999997E+02  0.45594000000E+02  0.51100000000E-03 0. -1.
         23    2    1    2    0    0  0.35527136788E-14  0.71054273576E-14  0.35527136788E-14  0.91188000000E+02  0.91188000000E+02 0.  0.
    9900012    2    3    3    0    0  0.17481297891E+02  0.29424131003E+02  0.26687971598E+02  0.47787273171E+02  0.20000009697E+02 0.  0.
        -12    1    3    3    0    0 -0.17481297891E+02 -0.29424131003E+02 -0.26687971598E+02  0.43400726829E+02  0.00000000000E+00 0.  1.
         11    1    4    4    0    0  0.18808137179E+00  0.13848908462E+02  0.58694731967E+01  0.15042551514E+02  0.51100000000E-03 0. -1.
        -11    1    4    4    0    0  0.46693050360E+01  0.22324371914E+01  0.10426922613E+02  0.11640743137E+02  0.51100000000E-03 0.  1.
         12    1    4    4    0    0  0.12623911484E+02  0.13342785350E+02  0.10391575788E+02  0.21103978521E+02  0.00000000000E+00 0. -1.
</event>
<event>
 8    1  0.6524083E-011  0.9118800E+02  0.7816164E-02  0.1184000E+00
        -11   -1    0    0    0    0  0.00000000000E+00  0.00000000000E+00  0.45593999997E+02  0.45594000000E+02  0.51100000000E-03 0. -1.
         11   -1    0    0    0    0 -0.00000000000E+00 -0.00000000000E+00 -0.45593999997E+02  0.45594000000E+02  0.51100000000E-03 0.  1.
         23    2    1    2    0    0  0.00000000000E+00  0.00000000000E+00  0.00000000000E+00  0.91188000000E+02  0.91188000000E+02 0.  0.
    9900012    2    3    3    0    0 -0.28361600629E+02 -0.26255417613E+02  0.19745795062E+02  0.47787265364E+02  0.19999974102E+02 0.  0.
        -12    1    3    3    0    0  0.28361600629E+02  0.26255417613E+02 -0.19745795062E+02  0.43400734636E+02  0.00000000000E+00 0.  1.
         11    1    4    4    0    0 -0.11996544430E+02 -0.53024998520E+01  0.10236091705E+02  0.16637642759E+02  0.51100000000E-03 0. -1.
        -11    1    4    4    0    0 -0.58483322658E+00 -0.41693649852E+00 -0.25005274380E+01  0.26016348084E+01  0.51100000000E-03 0.  1.
         12    1    4    4    0    0 -0.15780222972E+02 -0.20535981263E+02  0.12010230796E+02  0.28547987797E+02  0.00000000000E+00 0. -1.
</event>
<event>
 8    1  0.6524083E-011  0.9118800E+02  0.7816164E-02  0.1184000E+00
        -11   -1    0    0    0    0  0.00000000000E+00  0.00000000000E+00  0.45593999997E+02  0.45594000000E+02  0.51100000000E-03 0. -1.
         11   -1    0    0    0    0 -0.00000000000E+00 -0.00000000000E+00 -0.45593999997E+02  0.45594000000E+02  0.51100000000E-03 0.  1.
         23    2    1    2    0    0 -0.17763568394E-14  0.00000000000E+00  0.00000000000E+00  0.91188000000E+02  0.91188000000E+02 0.  0.
    9900012    2    3    3    0    0  0.10726996456E+02 -0.24933491484E+02  0.33865546875E+02  0.47787277475E+02  0.20000029321E+02 0.  0.
        -12    1    3    3    0    0 -0.10726996456E+02  0.24933491484E+02 -0.33865546875E+02  0.43400722525E+02  0.00000000000E+00 0.  1.
         11    1    4    4    0    0 -0.14367966020E+01  0.26116454978E+01  0.14388147284E+01  0.33098738292E+01  0.51100000000E-03 0.  1.
        -11    1    4    4    0    0  0.43808085784E+01 -0.10714201228E+02  0.15691540592E+02  0.19498975311E+02  0.51100000000E-03 0. -1.
        -12    1    4    4    0    0  0.77829844799E+01 -0.16830935753E+02  0.16735191554E+02  0.24978428335E+02  0.00000000000E+00 0.  1.
</event>
<event>
 8    1  0.6524083E-011  0.9118800E+02  0.7816164E-02  0.1184000E+00
        -11   -1    0    0    0    0  0.00000000000E+00  0.00000000000E+00  0.45593999997E+02  0.45594000000E+02  0.51100000000E-03 0. -1.
         11   -1    0    0    0    0 -0.00000000000E+00 -0.00000000000E+00 -0.45593999997E+02  0.45594000000E+02  0.51100000000E-03 0.  1.
         23    2    1    2    0    0  0.00000000000E+00  0.00000000000E+00  0.00000000000E+00  0.91188000000E+02  0.91188000000E+02 0.  0.
    9900012    2    3    3    0    0 -0.93352979066E+01 -0.37245615517E+02  0.20229674486E+02  0.47787269683E+02  0.19999993792E+02 0.  0.
        -12    1    3    3    0    0  0.93352979066E+01  0.37245615517E+02 -0.20229674486E+02  0.43400730317E+02  0.00000000000E+00 0.  1.
         11    1    4    4    0    0 -0.60354231043E+01 -0.39217470677E+01 -0.31333044027E-01  0.71977367367E+01  0.51100000000E-03 0. -1.
        -11    1    4    4    0    0 -0.91440278637E+00 -0.18316557313E+02  0.49007474017E+01  0.18982879908E+02  0.51100000000E-03 0.  1.
         12    1    4    4    0    0 -0.23854720160E+01 -0.15007311137E+02  0.15360260128E+02  0.21606653038E+02  0.00000000000E+00 0. -1.
</event>
<event>
 8    1  0.6524083E-011  0.9118800E+02  0.7816164E-02  0.1184000E+00
        -11   -1    0    0    0    0  0.00000000000E+00  0.00000000000E+00  0.45593999997E+02  0.45594000000E+02  0.51100000000E-03 0. -1.
         11   -1    0    0    0    0 -0.00000000000E+00 -0.00000000000E+00 -0.45593999997E+02  0.45594000000E+02  0.51100000000E-03 0.  1.
         23    2    1    2    0    0  0.00000000000E+00 -0.17763568394E-14  0.00000000000E+00  0.91188000000E+02  0.91188000000E+02 0.  0.
    9900012    2    3    3    0    0  0.18508490539E+02  0.12767065926E+02  0.37122230006E+02  0.47787283934E+02  0.20000058769E+02 0.  0.
        -12    1    3    3    0    0 -0.18508490539E+02 -0.12767065926E+02 -0.37122230006E+02  0.43400716066E+02  0.00000000000E+00 0.  1.
         11    1    4    4    0    0  0.36656933700E+00  0.65407451072E+01  0.11811681687E+02  0.13506722184E+02  0.51100000000E-03 0. -1.
        -11    1    4    4    0    0  0.32275177290E+01 -0.37031598031E+01  0.33873166026E+01  0.59669235997E+01  0.51100000000E-03 0.  1.
         12    1    4    4    0    0  0.14914403473E+02  0.99294806217E+01  0.21923231717E+02  0.28313638150E+02  0.00000000000E+00 0. -1.
</event>
<event>
 8    1  0.6524083E-011  0.9118800E+02  0.7816164E-02  0.1184000E+00
        -11   -1    0    0    0    0  0.00000000000E+00  0.00000000000E+00  0.45593999997E+02  0.45594000000E+02  0.51100000000E-03 0. -1.
         11   -1    0    0    0    0 -0.00000000000E+00 -0.00000000000E+00 -0.45593999997E+02  0.45594000000E+02  0.51100000000E-03 0.  1.
         23    2    1    2    0    0  0.00000000000E+00  0.00000000000E+00  0.00000000000E+00  0.91188000000E+02  0.91188000000E+02 0.  0.
    9900012    2    3    3    0    0 -0.11662321006E+02  0.16308479620E+01 -0.41772651067E+02  0.47787265289E+02  0.19999973758E+02 0.  0.
         12    1    3    3    0    0  0.11662321006E+02 -0.16308479620E+01  0.41772651067E+02  0.43400734711E+02  0.00000000000E+00 0. -1.
         11    1    4    4    0    0  0.25205393887E+01 -0.16665549686E+00  0.17230017531E+00  0.25319124148E+01  0.51100000000E-03 0. -1.
        -11    1    4    4    0    0 -0.66309098920E+01 -0.37175731762E+01 -0.20301073987E+02  0.21677705635E+02  0.51100000000E-03 0.  1.
        -12    1    4    4    0    0 -0.75519505025E+01  0.55150766351E+01 -0.21643877255E+02  0.23577647239E+02  0.00000000000E+00 0.  1.
</event>
<event>
 8    1  0.6524083E-011  0.9118800E+02  0.7816164E-02  0.1184000E+00
        -11   -1    0    0    0    0  0.00000000000E+00  0.00000000000E+00  0.45593999997E+02  0.45594000000E+02  0.51100000000E-03 0. -1.
         11   -1    0    0    0    0 -0.00000000000E+00 -0.00000000000E+00 -0.45593999997E+02  0.45594000000E+02  0.51100000000E-03 0.  1.
         23    2    1    2    0    0  0.00000000000E+00 -0.35527136788E-14 -0.35527136788E-14  0.91188000000E+02  0.91188000000E+02 0.  0.
    9900012    2    3    3    0    0 -0.16673959906E+02 -0.29154283613E+02 -0.27488731309E+02  0.47787267968E+02  0.19999985973E+02 0.  0.
         12    1    3    3    0    0  0.16673959906E+02  0.29154283613E+02  0.27488731309E+02  0.43400732032E+02  0.00000000000E+00 0. -1.
         11    1    4    4    0    0 -0.50218438479E+01 -0.59548834029E+01 -0.69989265519E+01  0.10472083132E+02  0.51100000000E-03 0.  1.
        -11    1    4    4    0    0 -0.83621489936E+01 -0.23442296420E+02 -0.22415711589E+02  0.33495237326E+02  0.51100000000E-03 0. -1.
         12    1    4    4    0    0 -0.32899670644E+01  0.24289620953E+00  0.19259068322E+01  0.38199475101E+01  0.00000000000E+00 0. -1.
</event>
<event>
 8    1  0.6524083E-011  0.9118800E+02  0.7816164E-02  0.1184000E+00
        -11   -1    0    0    0    0  0.00000000000E+00  0.00000000000E+00  0.45593999997E+02  0.45594000000E+02  0.51100000000E-03 0. -1.
         11   -1    0    0    0    0 -0.00000000000E+00 -0.00000000000E+00 -0.45593999997E+02  0.45594000000E+02  0.51100000000E-03 0.  1.
         23    2    1    2    0    0  0.00000000000E+00  0.00000000000E+00  0.71054273576E-14  0.91188000000E+02  0.91188000000E+02 0.  0.
    9900012    2    3    3    0    0 -0.17058324783E+02  0.38698314235E+01 -0.39719784546E+02  0.47787270467E+02  0.19999997367E+02 0.  0.
         12    1    3    3    0    0  0.17058324783E+02 -0.38698314235E+01  0.39719784546E+02  0.43400729533E+02  0.00000000000E+00 0. -1.
         11    1    4    4    0    0 -0.54562738465E+01  0.19840562439E+01 -0.31704030816E+01  0.66150479536E+01  0.51100000000E-03 0. -1.
        -11    1    4    4    0    0 -0.12856827298E+02 -0.13832027789E+01 -0.35057196440E+02  0.37366004344E+02  0.51100000000E-03 0.  1.
        -12    1    4    4    0    0  0.12547763611E+01  0.32689779585E+01 -0.14921850238E+01  0.38062181697E+01  0.00000000000E+00 0.  1.
</event>
<event>
 8    1 -0.6524083E-011  0.9118800E+02  0.7816164E-02  0.1184000E+00
        -11   -1    0    0    0    0  0.00000000000E+00  0.00000000000E+00  0.45593999997E+02  0.45594000000E+02  0.51100000000E-03 0. -1.
         11   -1    0    0    0    0 -0.00000000000E+00 -0.00000000000E+00 -0.45593999997E+02  0.45594000000E+02  0.51100000000E-03 0.  1.
         23    2    1    2    0    0  0.00000000000E+00  0.00000000000E+00  0.00000000000E+00  0.91188000000E+02  0.91188000000E+02 0.  0.
    9900012    2    3    3    0    0  0.37619247420E+02  0.94118028999E+01  0.19489324534E+02  0.47787267506E+02  0.19999983865E+02 0.  0.
        -12    1    3    3    0    0 -0.37619247420E+02 -0.94118028999E+01 -0.19489324534E+02  0.43400732494E+02  0.00000000000E+00 0.  1.
         11    1    4    4    0    0  0.52185534810E+01  0.46847145489E+00  0.81876198059E+01  0.97205907375E+01  0.51100000000E-03 0. -1.
        -11    1    4    4    0    0  0.96906256466E+01  0.88012779880E+01  0.10002933052E+01  0.13129025349E+02  0.51100000000E-03 0.  1.
        -12    1    4    4    0    0  0.22710068292E+02  0.14205345700E+00  0.10301411423E+02  0.24937651420E+02  0.00000000000E+00 0.  1.
</event>
<event>
 8    1  0.6524083E-011  0.9118800E+02  0.7816164E-02  0.1184000E+00
        -11   -1    0    0    0    0  0.00000000000E+00  0.00000000000E+00  0.45593999997E+02  0.45594000000E+02  0.51100000000E-03 0. -1.
         11   -1    0    0    0    0 -0.00000000000E+00 -0.00000000000E+00 -0.45593999997E+02  0.45594000000E+02  0.51100000000E-03 0.  1.
         23    2    1    2    0    0  0.00000000000E+00  0.00000000000E+00 -0.35527136788E-14  0.91188000000E+02  0.91188000000E+02 0.  0.
    9900012    2    3    3    0    0  0.26441269364E+02 -0.18544675136E+02 -0.28992724692E+02  0.47787265138E+02  0.19999973070E+02 0.  0.
         12    1    3    3    0    0 -0.26441269364E+02  0.18544675136E+02  0.28992724692E+02  0.43400734862E+02  0.00000000000E+00 0. -1.
         11    1    4    4    0    0 -0.27444546039E+01 -0.31602383501E+01 -0.14095513130E+01  0.44165566528E+01  0.51100000000E-03 0. -1.
        -11    1    4    4    0    0  0.13819967581E+02 -0.77424234793E+01 -0.96480019597E+01  0.18547791441E+02  0.51100000000E-03 0.  1.
         12    1    4    4    0    0  0.15365756387E+02 -0.76420133068E+01 -0.17935171420E+02  0.24822917044E+02  0.00000000000E+00 0. -1.
</event>
<event>
 8    1  0.6524083E-011  0.9118800E+02  0.7816164E-02  0.1184000E+00
        -11   -1    0    0    0    0  0.00000000000E+00  0.00000000000E+00  0.45593999997E+02  0.45594000000E+02  0.51100000000E-03 0. -1.
         11   -1    0    0    0    0 -0.00000000000E+00 -0.00000000000E+00 -0.45593999997E+02  0.45594000000E+02  0.51100000000E-03 0.  1.
         23    2    1    2    0    0  0.88817841970E-15  0.35527136788E-14  0.00000000000E+00  0.91188000000E+02  0.91188000000E+02 0.  0.
    9900012    2    3    3    0    0 -0.68321632593E+01 -0.24232090649E+02 -0.35351811427E+02  0.47787271398E+02  0.20000001611E+02 0.  0.
         12    1    3    3    0    0  0.68321632593E+01  0.24232090649E+02  0.35351811427E+02  0.43400728602E+02  0.00000000000E+00 0. -1.
         11    1    4    4    0    0 -0.42836975248E+01 -0.17750502069E+02 -0.36385690396E+02  0.40710549665E+02  0.51100000000E-03 0. -1.
        -11    1    4    4    0    0 -0.73437654130E+00 -0.27869535231E+01  0.52314348226E+00  0.29291804670E+01  0.51100000000E-03 0.  1.
         12    1    4    4    0    0 -0.18140891932E+01 -0.36946350579E+01  0.51073548709E+00  0.41475412656E+01  0.00000000000E+00 0. -1.
</event>
<event>
 8    1  0.6524083E-011  0.9118800E+02  0.7816164E-02  0.1184000E+00
        -11   -1    0    0    0    0  0.00000000000E+00  0.00000000000E+00  0.45593999997E+02  0.45594000000E+02  0.51100000000E-03 0. -1.
         11   -1    0    0    0    0 -0.00000000000E+00 -0.00000000000E+00 -0.45593999997E+02  0.45594000000E+02  0.51100000000E-03 0.  1.
         23    2    1    2    0    0  0.35527136788E-14  0.17763568394E-14  0.00000000000E+00  0.91188000000E+02  0.91188000000E+02 0.  0.
    9900012    2    3    3    0    0  0.22723580446E+02  0.11905504398E+02 -0.35007506525E+02  0.47787220556E+02  0.19999769801E+02 0.  0.
         12    1    3    3    0    0 -0.22723580446E+02 -0.11905504398E+02  0.35007506525E+02  0.43400779444E+02  0.00000000000E+00 0. -1.
         11    1    4    4    0    0  0.12431239070E+02  0.39761592430E+01 -0.18981809009E+02  0.23035941932E+02  0.51100000000E-03 0. -1.
        -11    1    4    4    0    0  0.84868088851E+01  0.66193513139E+01 -0.25087431519E+01  0.11051494439E+02  0.51100000000E-03 0.  1.
         12    1    4    4    0    0  0.18055324901E+01  0.13099938414E+01 -0.13516954364E+02  0.13699784185E+02  0.00000000000E+00 0. -1.
</event>
<event>
 8    1  0.6524083E-011  0.9118800E+02  0.7816164E-02  0.1184000E+00
        -11   -1    0    0    0    0  0.00000000000E+00  0.00000000000E+00  0.45593999997E+02  0.45594000000E+02  0.51100000000E-03 0. -1.
         11   -1    0    0    0    0 -0.00000000000E+00 -0.00000000000E+00 -0.45593999997E+02  0.45594000000E+02  0.51100000000E-03 0.  1.
         23    2    1    2    0    0 -0.35527136788E-14  0.00000000000E+00 -0.71054273576E-14  0.91188000000E+02  0.91188000000E+02 0.  0.
    9900012    2    3    3    0    0 -0.13869946684E+02  0.16333451498E+02 -0.37742102088E+02  0.47787270410E+02  0.19999997109E+02 0.  0.
         12    1    3    3    0    0  0.13869946684E+02 -0.16333451498E+02  0.37742102088E+02  0.43400729590E+02  0.00000000000E+00 0. -1.
         11    1    4    4    0    0 -0.10129720489E+02  0.13738706393E+02 -0.12326515068E+02  0.21054839456E+02  0.51100000000E-03 0. -1.
        -11    1    4    4    0    0 -0.55140803222E+01  0.30308513148E+01 -0.17161353494E+02  0.18278489968E+02  0.51100000000E-03 0.  1.
         12    1    4    4    0    0  0.17738541279E+01 -0.43610620967E+00 -0.82542335259E+01  0.84539409859E+01  0.00000000000E+00 0. -1.
</event>
<event>
 8    1  0.6524083E-011  0.9118800E+02  0.7816164E-02  0.1184000E+00
        -11   -1    0    0    0    0  0.00000000000E+00  0.00000000000E+00  0.45593999997E+02  0.45594000000E+02  0.51100000000E-03 0. -1.
         11   -1    0    0    0    0 -0.00000000000E+00 -0.00000000000E+00 -0.45593999997E+02  0.45594000000E+02  0.51100000000E-03 0.  1.
         23    2    1    2    0    0 -0.22204460493E-15 -0.44408920985E-15  0.00000000000E+00  0.91188000000E+02  0.91188000000E+02 0.  0.
    9900012    2    3    3    0    0  0.59700334036E+00  0.30284667301E+01  0.43290822079E+02  0.47787270743E+02  0.19999998628E+02 0.  0.
        -12    1    3    3    0    0 -0.59700334036E+00 -0.30284667301E+01 -0.43290822079E+02  0.43400729257E+02  0.00000000000E+00 0.  1.
         11    1    4    4    0    0  0.14150661617E+01 -0.45242192326E+00 -0.76345879685E+00  0.16703195605E+01  0.51100000000E-03 0. -1.
        -11    1    4    4    0    0  0.17911218905E+00  0.85088029137E+01  0.27172135713E+02  0.28473790890E+02  0.51100000000E-03 0.  1.
         12    1    4    4    0    0 -0.99717501035E+00 -0.50279142603E+01  0.16882145163E+02  0.17643160293E+02  0.00000000000E+00 0. -1.
</event>
<event>
 8    1  0.6524083E-011  0.9118800E+02  0.7816164E-02  0.1184000E+00
        -11   -1    0    0    0    0  0.00000000000E+00  0.00000000000E+00  0.45593999997E+02  0.45594000000E+02  0.51100000000E-03 0. -1.
         11   -1    0    0    0    0 -0.00000000000E+00 -0.00000000000E+00 -0.45593999997E+02  0.45594000000E+02  0.51100000000E-03 0.  1.
         23    2    1    2    0    0  0.00000000000E+00  0.11102230246E-15  0.00000000000E+00  0.91188000000E+02  0.91188000000E+02 0.  0.
    9900012    2    3    3    0    0  0.25091210860E+02  0.18022780473E+00 -0.35412166562E+02  0.47787275523E+02  0.20000020420E+02 0.  0.
         12    1    3    3    0    0 -0.25091210860E+02 -0.18022780473E+00  0.35412166562E+02  0.43400724477E+02  0.00000000000E+00 0. -1.
         11    1    4    4    0    0  0.11301990942E+02  0.10602126379E+01 -0.94791639869E+01  0.14788968870E+02  0.51100000000E-03 0. -1.
        -11    1    4    4    0    0 -0.17406376176E+00 -0.40763226475E+01 -0.93310211222E+00  0.41853774421E+01  0.51100000000E-03 0.  1.
        -12    1    4    4    0    0  0.13963283680E+02  0.31963378143E+01 -0.24999900463E+02  0.28812929211E+02  0.00000000000E+00 0.  1.
</event>
<event>
 8    1  0.6524083E-011  0.9118800E+02  0.7816164E-02  0.1184000E+00
        -11   -1    0    0    0    0  0.00000000000E+00  0.00000000000E+00  0.45593999997E+02  0.45594000000E+02  0.51100000000E-03 0. -1.
         11   -1    0    0    0    0 -0.00000000000E+00 -0.00000000000E+00 -0.45593999997E+02  0.45594000000E+02  0.51100000000E-03 0.  1.
         23    2    1    2    0    0  0.35527136788E-14  0.00000000000E+00  0.00000000000E+00  0.91188000000E+02  0.91188000000E+02 0.  0.
    9900012    2    3    3    0    0 -0.25249120352E+02 -0.26254666081E+02  0.23596560366E+02  0.47787271542E+02  0.20000002267E+02 0.  0.
        -12    1    3    3    0    0  0.25249120352E+02  0.26254666081E+02 -0.23596560366E+02  0.43400728458E+02  0.00000000000E+00 0.  1.
         11    1    4    4    0    0 -0.15056572755E+02 -0.16565489875E+02  0.20091103281E+02  0.30079366171E+02  0.51100000000E-03 0. -1.
        -11    1    4    4    0    0  0.19586018127E+01 -0.53621128857E+00 -0.22888620124E+00  0.20435343797E+01  0.51100000000E-03 0.  1.
        -12    1    4    4    0    0 -0.12151149410E+02 -0.91529649182E+01  0.37343432860E+01  0.15664370991E+02  0.00000000000E+00 0.  1.
</event>
<event>
 8    1  0.6524083E-011  0.9118800E+02  0.7816164E-02  0.1184000E+00
        -11   -1    0    0    0    0  0.00000000000E+00  0.00000000000E+00  0.45593999997E+02  0.45594000000E+02  0.51100000000E-03 0. -1.
         11   -1    0    0    0    0 -0.00000000000E+00 -0.00000000000E+00 -0.45593999997E+02  0.45594000000E+02  0.51100000000E-03 0.  1.
         23    2    1    2    0    0  0.35527136788E-14 -0.17763568394E-14  0.00000000000E+00  0.91188000000E+02  0.91188000000E+02 0.  0.
    9900012    2    3    3    0    0  0.25581188042E+02 -0.11328486845E+02 -0.33179684718E+02  0.47787271045E+02  0.20000000003E+02 0.  0.
         12    1    3    3    0    0 -0.25581188042E+02  0.11328486845E+02  0.33179684718E+02  0.43400728955E+02  0.00000000000E+00 0. -1.
         11    1    4    4    0    0  0.15283434360E+01 -0.45531312305E+01 -0.31008309119E+01  0.57168164450E+01  0.51100000000E-03 0. -1.
        -11    1    4    4    0    0  0.52345391353E+01 -0.30304634840E+01  0.39265330083E+00  0.60612115754E+01  0.51100000000E-03 0.  1.
        -12    1    4    4    0    0  0.18818305471E+02 -0.37448921308E+01 -0.30471507107E+02  0.36009243025E+02  0.00000000000E+00 0.  1.
</event>
<event>
 8    1  0.6524083E-011  0.9118800E+02  0.7816164E-02  0.1184000E+00
        -11   -1    0    0    0    0  0.00000000000E+00  0.00000000000E+00  0.45593999997E+02  0.45594000000E+02  0.51100000000E-03 0.  1.
         11   -1    0    0    0    0 -0.00000000000E+00 -0.00000000000E+00 -0.45593999997E+02  0.45594000000E+02  0.51100000000E-03 0. -1.
         23    2    1    2    0    0 -0.35527136788E-14  0.71054273576E-14  0.44408920985E-15  0.91188000000E+02  0.91188000000E+02 0.  0.
    9900012    2    3    3    0    0  0.27949589943E+02 -0.33057705293E+02 -0.31035129752E+01  0.47787271320E+02  0.20000001255E+02 0.  0.
        -12    1    3    3    0    0 -0.27949589943E+02  0.33057705293E+02  0.31035129752E+01  0.43400728680E+02  0.00000000000E+00 0.  1.
         11    1    4    4    0    0  0.72952715312E+00 -0.62576539065E+00 -0.24519892734E+01  0.26336370003E+01  0.51100000000E-03 0. -1.
        -11    1    4    4    0    0  0.25853999385E+02 -0.34216015255E+02 -0.88427024753E+00  0.42894602437E+02  0.51100000000E-03 0.  1.
        -12    1    4    4    0    0  0.13660634046E+01  0.17840753528E+01  0.23274654582E+00  0.22590318821E+01  0.00000000000E+00 0.  1.
</event>
<event>
 8    1  0.6524083E-011  0.9118800E+02  0.7816164E-02  0.1184000E+00
        -11   -1    0    0    0    0  0.00000000000E+00  0.00000000000E+00  0.45593999997E+02  0.45594000000E+02  0.51100000000E-03 0.  1.
         11   -1    0    0    0    0 -0.00000000000E+00 -0.00000000000E+00 -0.45593999997E+02  0.45594000000E+02  0.51100000000E-03 0. -1.
         23    2    1    2    0    0  0.44408920985E-15 -0.35527136788E-14  0.00000000000E+00  0.91188000000E+02  0.91188000000E+02 0.  0.
    9900012    2    3    3    0    0 -0.36288672547E+01 -0.26070097267E+02 -0.34508038326E+02  0.47787270073E+02  0.19999995572E+02 0.  0.
         12    1    3    3    0    0  0.36288672547E+01  0.26070097267E+02  0.34508038326E+02  0.43400729927E+02  0.00000000000E+00 0. -1.
         11    1    4    4    0    0  0.19250276429E+01  0.27532414267E+01 -0.25392231532E+01  0.42111428690E+01  0.51100000000E-03 0. -1.
        -11    1    4    4    0    0 -0.42687662659E-01 -0.99582240645E+01 -0.10700718263E+02  0.14617572314E+02  0.51100000000E-03 0.  1.
         12    1    4    4    0    0 -0.55112072349E+01 -0.18865114630E+02 -0.21268096910E+02  0.28958554890E+02  0.00000000000E+00 0. -1.
</event>
<event>
 8    1  0.6524083E-011  0.9118800E+02  0.7816164E-02  0.1184000E+00
        -11   -1    0    0    0    0  0.00000000000E+00  0.00000000000E+00  0.45593999997E+02  0.45594000000E+02  0.51100000000E-03 0. -1.
         11   -1    0    0    0    0 -0.00000000000E+00 -0.00000000000E+00 -0.45593999997E+02  0.45594000000E+02  0.51100000000E-03 0.  1.
         23    2    1    2    0    0 -0.17763568394E-14  0.17763568394E-14  0.00000000000E+00  0.91188000000E+02  0.91188000000E+02 0.  0.
    9900012    2    3    3    0    0 -0.82096542130E+01  0.11675659111E+02 -0.40986626856E+02  0.47787273981E+02  0.20000013387E+02 0.  0.
         12    1    3    3    0    0  0.82096542130E+01 -0.11675659111E+02  0.40986626856E+02  0.43400726019E+02  0.00000000000E+00 0. -1.
         11    1    4    4    0    0  0.18588354956E+01  0.11688167897E+02 -0.20339599529E+02  0.23532272467E+02  0.51100000000E-03 0. -1.
        -11    1    4    4    0    0 -0.39271870687E+01  0.15552472587E+01 -0.22271301959E+01  0.47751127189E+01  0.51100000000E-03 0.  1.
        -12    1    4    4    0    0 -0.61413026399E+01 -0.15677560451E+01 -0.18419897131E+02  0.19479888795E+02  0.00000000000E+00 0.  1.
</event>
<event>
 8    1  0.6524083E-011  0.9118800E+02  0.7816164E-02  0.1184000E+00
        -11   -1    0    0    0    0  0.00000000000E+00  0.00000000000E+00  0.45593999997E+02  0.45594000000E+02  0.51100000000E-03 0. -1.
         11   -1    0    0    0    0 -0.00000000000E+00 -0.00000000000E+00 -0.45593999997E+02  0.45594000000E+02  0.51100000000E-03 0.  1.
         23    2    1    2    0    0  0.00000000000E+00  0.35527136788E-14  0.00000000000E+00  0.91188000000E+02  0.91188000000E+02 0.  0.
    9900012    2    3    3    0    0 -0.35181204185E+02  0.22180656226E+02 -0.12406640528E+02  0.47787269963E+02  0.19999995071E+02 0.  0.
         12    1    3    3    0    0  0.35181204185E+02 -0.22180656226E+02  0.12406640528E+02  0.43400730037E+02  0.00000000000E+00 0. -1.
         11    1    4    4    0    0 -0.48645979434E+01  0.44368493325E+01 -0.30938806877E+01  0.72747538186E+01  0.51100000000E-03 0. -1.
        -11    1    4    4    0    0 -0.11096509959E+02  0.16843782501E+02 -0.53436650916E+01  0.20866247844E+02  0.51100000000E-03 0.  1.
         12    1    4    4    0    0 -0.19220096283E+02  0.90002439184E+00 -0.39690947483E+01  0.19646268301E+02  0.00000000000E+00 0. -1.
</event>
<event>
 8    1  0.6524083E-011  0.9118800E+02  0.7816164E-02  0.1184000E+00
        -11   -1    0    0    0    0  0.00000000000E+00  0.00000000000E+00  0.45593999997E+02  0.45594000000E+02  0.51100000000E-03 0. -1.
         11   -1    0    0    0    0 -0.00000000000E+00 -0.00000000000E+00 -0.45593999997E+02  0.45594000000E+02  0.51100000000E-03 0.  1.
         23    2    1    2    0    0  0.00000000000E+00  0.00000000000E+00  0.00000000000E+00  0.91188000000E+02  0.91188000000E+02 0.  0.
    9900012    2    3    3    0    0 -0.10387438397E+02 -0.17247838162E+02 -0.38447848901E+02  0.47787264029E+02  0.19999968013E+02 0.  0.
         12    1    3    3    0    0  0.10387438397E+02  0.17247838162E+02  0.38447848901E+02  0.43400735971E+02  0.00000000000E+00 0. -1.
         11    1    4    4    0    0  0.51294022170E+01 -0.17947566208E+01 -0.49271741550E+01  0.73354593480E+01  0.51100000000E-03 0. -1.
        -11    1    4    4    0    0 -0.59279439307E+01 -0.22907561204E+01 -0.97186312273E+01  0.11612057356E+02  0.51100000000E-03 0.  1.
         12    1    4    4    0    0 -0.95888966832E+01 -0.13162325421E+02 -0.23802043519E+02  0.28839747325E+02  0.00000000000E+00 0. -1.
</event>
<event>
 8    1  0.6524083E-011  0.9118800E+02  0.7816164E-02  0.1184000E+00
        -11   -1    0    0    0    0  0.00000000000E+00  0.00000000000E+00  0.45593999997E+02  0.45594000000E+02  0.51100000000E-03 0. -1.
         11   -1    0    0    0    0 -0.00000000000E+00 -0.00000000000E+00 -0.45593999997E+02  0.45594000000E+02  0.51100000000E-03 0.  1.
         23    2    1    2    0    0 -0.88817841970E-15  0.00000000000E+00  0.00000000000E+00  0.91188000000E+02  0.91188000000E+02 0.  0.
    9900012    2    3    3    0    0 -0.40409706457E+01  0.18063983598E+02 -0.39255408296E+02  0.47787262360E+02  0.19999960406E+02 0.  0.
         12    1    3    3    0    0  0.40409706457E+01 -0.18063983598E+02  0.39255408296E+02  0.43400737640E+02  0.00000000000E+00 0. -1.
         11    1    4    4    0    0  0.21522042759E+01  0.65862466287E+01 -0.12594484791E+02  0.14374688703E+02  0.51100000000E-03 0. -1.
        -11    1    4    4    0    0 -0.44363514629E+01 -0.31176459142E+01 -0.77921649766E+01  0.94930904152E+01  0.51100000000E-03 0.  1.
        -12    1    4    4    0    0 -0.17568234587E+01  0.14595382883E+02 -0.18868758528E+02  0.23919483242E+02  0.00000000000E+00 0.  1.
</event>
<event>
 8    1  0.6524083E-011  0.9118800E+02  0.7816164E-02  0.1184000E+00
        -11   -1    0    0    0    0  0.00000000000E+00  0.00000000000E+00  0.45593999997E+02  0.45594000000E+02  0.51100000000E-03 0. -1.
         11   -1    0    0    0    0 -0.00000000000E+00 -0.00000000000E+00 -0.45593999997E+02  0.45594000000E+02  0.51100000000E-03 0.  1.
         23    2    1    2    0    0  0.35527136788E-14  0.00000000000E+00  0.00000000000E+00  0.91188000000E+02  0.91188000000E+02 0.  0.
    9900012    2    3    3    0    0  0.23036324418E+02 -0.16819941779E+02 -0.32711471889E+02  0.47787273309E+02  0.20000010324E+02 0.  0.
         12    1    3    3    0    0 -0.23036324418E+02  0.16819941779E+02  0.32711471889E+02  0.43400726691E+02  0.00000000000E+00 0. -1.
         11    1    4    4    0    0  0.91547322552E+01 -0.36415987580E+01 -0.14272495708E+02  0.17342851500E+02  0.51100000000E-03 0. -1.
        -11    1    4    4    0    0  0.64063606767E+01 -0.60704997845E+01 -0.18084627355E+02  0.20123274375E+02  0.51100000000E-03 0.  1.
         12    1    4    4    0    0  0.74752314862E+01 -0.71078432369E+01 -0.35434882699E+00  0.10321147433E+02  0.00000000000E+00 0. -1.
</event>
<event>
 8    1  0.6524083E-011  0.9118800E+02  0.7816164E-02  0.1184000E+00
        -11   -1    0    0    0    0  0.00000000000E+00  0.00000000000E+00  0.45593999997E+02  0.45594000000E+02  0.51100000000E-03 0. -1.
         11   -1    0    0    0    0 -0.00000000000E+00 -0.00000000000E+00 -0.45593999997E+02  0.45594000000E+02  0.51100000000E-03 0.  1.
         23    2    1    2    0    0 -0.35527136788E-14  0.88817841970E-15  0.00000000000E+00  0.91188000000E+02  0.91188000000E+02 0.  0.
    9900012    2    3    3    0    0 -0.14324115337E+02  0.50386684518E+01  0.40657777918E+02  0.47787269992E+02  0.19999995202E+02 0.  0.
        -12    1    3    3    0    0  0.14324115337E+02 -0.50386684518E+01 -0.40657777918E+02  0.43400730008E+02  0.00000000000E+00 0.  1.
         11    1    4    4    0    0 -0.10630212020E+02  0.33385873035E+01  0.16724602944E+02  0.20096266237E+02  0.51100000000E-03 0.  1.
        -11    1    4    4    0    0 -0.34678345325E+01 -0.55107767490E+01  0.90206654305E+01  0.11125059182E+02  0.51100000000E-03 0. -1.
         12    1    4    4    0    0 -0.22606878417E+00  0.72108578973E+01  0.14912509544E+02  0.16565944573E+02  0.00000000000E+00 0. -1.
</event>
<event>
 8    1  0.6524083E-011  0.9118800E+02  0.7816164E-02  0.1184000E+00
        -11   -1    0    0    0    0  0.00000000000E+00  0.00000000000E+00  0.45593999997E+02  0.45594000000E+02  0.51100000000E-03 0. -1.
         11   -1    0    0    0    0 -0.00000000000E+00 -0.00000000000E+00 -0.45593999997E+02  0.45594000000E+02  0.51100000000E-03 0.  1.
         23    2    1    2    0    0  0.00000000000E+00  0.00000000000E+00  0.00000000000E+00  0.91188000000E+02  0.91188000000E+02 0.  0.
    9900012    2    3    3    0    0  0.40433358515E+02  0.10091402889E+02  0.12121495993E+02  0.47787267769E+02  0.19999985068E+02 0.  0.
        -12    1    3    3    0    0 -0.40433358515E+02 -0.10091402889E+02 -0.12121495993E+02  0.43400732231E+02  0.00000000000E+00 0.  1.
         11    1    4    4    0    0  0.13765418315E+02 -0.12302661020E+01  0.89510598481E+01  0.16465775680E+02  0.51100000000E-03 0. -1.
        -11    1    4    4    0    0  0.14907854678E+02  0.14937275395E+01 -0.20687857025E+01  0.15124656281E+02  0.51100000000E-03 0.  1.
        -12    1    4    4    0    0  0.11760085521E+02  0.98279414518E+01  0.52392218476E+01  0.16196835809E+02  0.00000000000E+00 0.  1.
</event>
<event>
 8    1  0.6524083E-011  0.9118800E+02  0.7816164E-02  0.1184000E+00
        -11   -1    0    0    0    0  0.00000000000E+00  0.00000000000E+00  0.45593999997E+02  0.45594000000E+02  0.51100000000E-03 0. -1.
         11   -1    0    0    0    0 -0.00000000000E+00 -0.00000000000E+00 -0.45593999997E+02  0.45594000000E+02  0.51100000000E-03 0.  1.
         23    2    1    2    0    0  0.00000000000E+00  0.00000000000E+00  0.00000000000E+00  0.91188000000E+02  0.91188000000E+02 0.  0.
    9900012    2    3    3    0    0 -0.22447675025E+02  0.31770207463E+02 -0.19245200766E+02  0.47787286311E+02  0.20000069604E+02 0.  0.
         12    1    3    3    0    0  0.22447675025E+02 -0.31770207463E+02  0.19245200766E+02  0.43400713689E+02  0.00000000000E+00 0. -1.
         11    1    4    4    0    0 -0.14896283670E+02  0.30179447482E+02 -0.13932703390E+02  0.36425520470E+02  0.51100000000E-03 0. -1.
        -11    1    4    4    0    0 -0.39846864191E+01  0.39412087112E+01 -0.19798204521E+01  0.59439499702E+01  0.51100000000E-03 0.  1.
         12    1    4    4    0    0 -0.35667049351E+01 -0.23504487301E+01 -0.33326769244E+01  0.54178158708E+01  0.00000000000E+00 0. -1.
</event>
<event>
 8    1  0.6524083E-011  0.9118800E+02  0.7816164E-02  0.1184000E+00
        -11   -1    0    0    0    0  0.00000000000E+00  0.00000000000E+00  0.45593999997E+02  0.45594000000E+02  0.51100000000E-03 0. -1.
         11   -1    0    0    0    0 -0.00000000000E+00 -0.00000000000E+00 -0.45593999997E+02  0.45594000000E+02  0.51100000000E-03 0.  1.
         23    2    1    2    0    0  0.00000000000E+00 -0.35527136788E-14  0.00000000000E+00  0.91188000000E+02  0.91188000000E+02 0.  0.
    9900012    2    3    3    0    0  0.20321420313E+02 -0.31386584597E+02  0.22035111021E+02  0.47787263440E+02  0.19999965329E+02 0.  0.
        -12    1    3    3    0    0 -0.20321420313E+02  0.31386584597E+02 -0.22035111021E+02  0.43400736560E+02  0.00000000000E+00 0.  1.
         11    1    4    4    0    0  0.64137194407E+01 -0.96511016915E+00  0.95068357729E+00  0.65552295329E+01  0.51100000000E-03 0.  1.
        -11    1    4    4    0    0  0.15798852220E+02 -0.24294673559E+02  0.16479890013E+02  0.33337991390E+02  0.51100000000E-03 0. -1.
         12    1    4    4    0    0 -0.18911513479E+01 -0.61268008691E+01  0.46045374308E+01  0.78940425171E+01  0.00000000000E+00 0. -1.
</event>
<event>
 8    1  0.6524083E-011  0.9118800E+02  0.7816164E-02  0.1184000E+00
        -11   -1    0    0    0    0  0.00000000000E+00  0.00000000000E+00  0.45593999997E+02  0.45594000000E+02  0.51100000000E-03 0. -1.
         11   -1    0    0    0    0 -0.00000000000E+00 -0.00000000000E+00 -0.45593999997E+02  0.45594000000E+02  0.51100000000E-03 0.  1.
         23    2    1    2    0    0  0.00000000000E+00  0.22204460493E-15  0.00000000000E+00  0.91188000000E+02  0.91188000000E+02 0.  0.
    9900012    2    3    3    0    0  0.27367243671E+02  0.28835117429E+00  0.33683434880E+02  0.47787274685E+02  0.20000016600E+02 0.  0.
        -12    1    3    3    0    0 -0.27367243671E+02 -0.28835117429E+00 -0.33683434880E+02  0.43400725315E+02  0.00000000000E+00 0.  1.
         11    1    4    4    0    0  0.95746761671E+01  0.71477703353E+01  0.16087667950E+02  0.20039413784E+02  0.51100000000E-03 0. -1.
        -11    1    4    4    0    0 -0.35648006562E+00 -0.28230192450E+01  0.19660470604E+01  0.34585917654E+01  0.51100000000E-03 0.  1.
        -12    1    4    4    0    0  0.18149047569E+02 -0.40363999160E+01  0.15629719870E+02  0.24289269136E+02  0.00000000000E+00 0.  1.
</event>
<event>
 8    1  0.6524083E-011  0.9118800E+02  0.7816164E-02  0.1184000E+00
        -11   -1    0    0    0    0  0.00000000000E+00  0.00000000000E+00  0.45593999997E+02  0.45594000000E+02  0.51100000000E-03 0.  1.
         11   -1    0    0    0    0 -0.00000000000E+00 -0.00000000000E+00 -0.45593999997E+02  0.45594000000E+02  0.51100000000E-03 0. -1.
         23    2    1    2    0    0  0.00000000000E+00  0.00000000000E+00  0.00000000000E+00  0.91188000000E+02  0.91188000000E+02 0.  0.
    9900012    2    3    3    0    0 -0.27268812802E+02 -0.21797459542E+02  0.25785750385E+02  0.47787282068E+02  0.20000050260E+02 0.  0.
        -12    1    3    3    0    0  0.27268812802E+02  0.21797459542E+02 -0.25785750385E+02  0.43400717932E+02  0.00000000000E+00 0.  1.
         11    1    4    4    0    0 -0.83144768521E+01  0.18410834890E+01  0.80408109142E+01  0.11712162659E+02  0.51100000000E-03 0. -1.
        -11    1    4    4    0    0 -0.74442558966E+01 -0.79912536823E+01  0.20726259507E+01  0.11116333022E+02  0.51100000000E-03 0.  1.
         12    1    4    4    0    0 -0.11510080053E+02 -0.15647289349E+02  0.15672313521E+02  0.24958786386E+02  0.00000000000E+00 0. -1.
</event>
<event>
 8    1  0.6524083E-011  0.9118800E+02  0.7816164E-02  0.1184000E+00
        -11   -1    0    0    0    0  0.00000000000E+00  0.00000000000E+00  0.45593999997E+02  0.45594000000E+02  0.51100000000E-03 0. -1.
         11   -1    0    0    0    0 -0.00000000000E+00 -0.00000000000E+00 -0.45593999997E+02  0.45594000000E+02  0.51100000000E-03 0.  1.
         23    2    1    2    0    0  0.00000000000E+00 -0.17763568394E-14  0.00000000000E+00  0.91188000000E+02  0.91188000000E+02 0.  0.
    9900012    2    3    3    0    0 -0.69834277532E+01  0.12128651409E+02  0.41082245833E+02  0.47787269927E+02  0.19999994904E+02 0.  0.
        -12    1    3    3    0    0  0.69834277532E+01 -0.12128651409E+02 -0.41082245833E+02  0.43400730073E+02  0.00000000000E+00 0.  1.
         11    1    4    4    0    0  0.34480849717E+00 -0.40821895724E+01  0.44512070644E+01  0.60494966068E+01  0.51100000000E-03 0.  1.
        -11    1    4    4    0    0 -0.45684433131E+01  0.87625604286E+01  0.10468106619E+02  0.14395638090E+02  0.51100000000E-03 0. -1.
        -12    1    4    4    0    0 -0.27597929373E+01  0.74482805528E+01  0.26162932150E+02  0.27342135230E+02  0.00000000000E+00 0.  1.
</event>
<event>
 8    1  0.6524083E-011  0.9118800E+02  0.7816164E-02  0.1184000E+00
        -11   -1    0    0    0    0  0.00000000000E+00  0.00000000000E+00  0.45593999997E+02  0.45594000000E+02  0.51100000000E-03 0. -1.
         11   -1    0    0    0    0 -0.00000000000E+00 -0.00000000000E+00 -0.45593999997E+02  0.45594000000E+02  0.51100000000E-03 0.  1.
         23    2    1    2    0    0  0.00000000000E+00  0.00000000000E+00  0.71054273576E-14  0.91188000000E+02  0.91188000000E+02 0.  0.
    9900012    2    3    3    0    0 -0.14683116242E+02 -0.19693717922E+02  0.35779698672E+02  0.47787271144E+02  0.20000000454E+02 0.  0.
        -12    1    3    3    0    0  0.14683116242E+02  0.19693717922E+02 -0.35779698672E+02  0.43400728856E+02  0.00000000000E+00 0.  1.
         11    1    4    4    0    0 -0.35724166627E+01 -0.16227773850E+02  0.28258796828E+02  0.32782043917E+02  0.51100000000E-03 0. -1.
        -11    1    4    4    0    0 -0.47595431938E+01  0.47189397724E+00  0.54492168083E+01  0.72505102871E+01  0.51100000000E-03 0.  1.
         12    1    4    4    0    0 -0.63511563851E+01 -0.39378380499E+01  0.20716850356E+01  0.77547169401E+01  0.00000000000E+00 0. -1.
</event>
<event>
 8    1  0.6524083E-011  0.9118800E+02  0.7816164E-02  0.1184000E+00
        -11   -1    0    0    0    0  0.00000000000E+00  0.00000000000E+00  0.45593999997E+02  0.45594000000E+02  0.51100000000E-03 0. -1.
         11   -1    0    0    0    0 -0.00000000000E+00 -0.00000000000E+00 -0.45593999997E+02  0.45594000000E+02  0.51100000000E-03 0.  1.
         23    2    1    2    0    0 -0.88817841970E-15 -0.35527136788E-14  0.00000000000E+00  0.91188000000E+02  0.91188000000E+02 0.  0.
    9900012    2    3    3    0    0 -0.46588755057E+01  0.12405360122E+02  0.41328256292E+02  0.47787275940E+02  0.20000022323E+02 0.  0.
        -12    1    3    3    0    0  0.46588755057E+01 -0.12405360122E+02 -0.41328256292E+02  0.43400724060E+02  0.00000000000E+00 0.  1.
         11    1    4    4    0    0 -0.65704293302E+01  0.91921245689E+01  0.18187349424E+02  0.21411337535E+02  0.51100000000E-03 0.  1.
        -11    1    4    4    0    0 -0.47259336794E+01 -0.89721078819E-01  0.55721888988E+01  0.73069684822E+01  0.51100000000E-03 0. -1.
        -12    1    4    4    0    0  0.66374875039E+01  0.33029566318E+01  0.17568717969E+02  0.19068969924E+02  0.00000000000E+00 0.  1.
</event>
<event>
 8    1  0.6524083E-011  0.9118800E+02  0.7816164E-02  0.1184000E+00
        -11   -1    0    0    0    0  0.00000000000E+00  0.00000000000E+00  0.45593999997E+02  0.45594000000E+02  0.51100000000E-03 0.  1.
         11   -1    0    0    0    0 -0.00000000000E+00 -0.00000000000E+00 -0.45593999997E+02  0.45594000000E+02  0.51100000000E-03 0. -1.
         23    2    1    2    0    0 -0.35527136788E-14  0.00000000000E+00 -0.11796119637E-15  0.91188000000E+02  0.91188000000E+02 0.  0.
    9900012    2    3    3    0    0  0.26952000805E+02 -0.34017807270E+02 -0.44262719436E-01  0.47787268232E+02  0.19999987178E+02 0.  0.
        -12    1    3    3    0    0 -0.26952000805E+02  0.34017807270E+02  0.44262719436E-01  0.43400731768E+02  0.00000000000E+00 0.  1.
         11    1    4    4    0    0  0.72915539585E+01 -0.83007685459E+01 -0.14925318480E+00  0.11049515571E+02  0.51100000000E-03 0. -1.
        -11    1    4    4    0    0  0.10221566105E+02 -0.39108742134E+01 -0.56107680288E+01  0.12298620609E+02  0.51100000000E-03 0.  1.
        -12    1    4    4    0    0  0.94388807410E+01 -0.21806164510E+02  0.57157584941E+01  0.24439132052E+02  0.00000000000E+00 0.  1.
</event>
<event>
 8    1  0.6524083E-011  0.9118800E+02  0.7816164E-02  0.1184000E+00
        -11   -1    0    0    0    0  0.00000000000E+00  0.00000000000E+00  0.45593999997E+02  0.45594000000E+02  0.51100000000E-03 0. -1.
         11   -1    0    0    0    0 -0.00000000000E+00 -0.00000000000E+00 -0.45593999997E+02  0.45594000000E+02  0.51100000000E-03 0.  1.
         23    2    1    2    0    0  0.00000000000E+00 -0.35527136788E-14  0.66613381478E-15  0.91188000000E+02  0.91188000000E+02 0.  0.
    9900012    2    3    3    0    0  0.35994326797E+02  0.24204865670E+02 -0.14684263661E+01  0.47787270056E+02  0.19999995494E+02 0.  0.
         12    1    3    3    0    0 -0.35994326797E+02 -0.24204865670E+02  0.14684263661E+01  0.43400729944E+02  0.00000000000E+00 0. -1.
         11    1    4    4    0    0  0.52617210541E+00  0.53374010014E+01 -0.12370797953E+01  0.55040960398E+01  0.51100000000E-03 0. -1.
        -11    1    4    4    0    0  0.47006166791E+01  0.67560957973E+01  0.36253172039E+01  0.89935283774E+01  0.51100000000E-03 0.  1.
        -12    1    4    4    0    0  0.30767538013E+02  0.12111368871E+02 -0.38566637747E+01  0.33289645639E+02  0.00000000000E+00 0.  1.
</event>
<event>
 8    1  0.6524083E-011  0.9118800E+02  0.7816164E-02  0.1184000E+00
        -11   -1    0    0    0    0  0.00000000000E+00  0.00000000000E+00  0.45593999997E+02  0.45594000000E+02  0.51100000000E-03 0. -1.
         11   -1    0    0    0    0 -0.00000000000E+00 -0.00000000000E+00 -0.45593999997E+02  0.45594000000E+02  0.51100000000E-03 0.  1.
         23    2    1    2    0    0  0.00000000000E+00  0.00000000000E+00 -0.71054273576E-14  0.91188000000E+02  0.91188000000E+02 0.  0.
    9900012    2    3    3    0    0  0.21089377007E+02 -0.13452251818E+02  0.35466851562E+02  0.47787280407E+02  0.20000042685E+02 0.  0.
        -12    1    3    3    0    0 -0.21089377007E+02  0.13452251818E+02 -0.35466851562E+02  0.43400719593E+02  0.00000000000E+00 0.  1.
         11    1    4    4    0    0  0.16387591619E+01 -0.12866702736E+01  0.48186515672E+01  0.52498052507E+01  0.51100000000E-03 0. -1.
        -11    1    4    4    0    0  0.17081755255E+02 -0.54099287538E+01  0.96475782852E+01  0.20350170976E+02  0.51100000000E-03 0.  1.
        -12    1    4    4    0    0  0.23688625905E+01 -0.67556527903E+01  0.21000621710E+02  0.22187304180E+02  0.00000000000E+00 0.  1.
</event>
<event>
 8    1  0.6524083E-011  0.9118800E+02  0.7816164E-02  0.1184000E+00
        -11   -1    0    0    0    0  0.00000000000E+00  0.00000000000E+00  0.45593999997E+02  0.45594000000E+02  0.51100000000E-03 0. -1.
         11   -1    0    0    0    0 -0.00000000000E+00 -0.00000000000E+00 -0.45593999997E+02  0.45594000000E+02  0.51100000000E-03 0.  1.
         23    2    1    2    0    0  0.00000000000E+00  0.17763568394E-14  0.00000000000E+00  0.91188000000E+02  0.91188000000E+02 0.  0.
    9900012    2    3    3    0    0  0.61033562299E+01 -0.11748277725E+02  0.41332192419E+02  0.47787272852E+02  0.20000008242E+02 0.  0.
        -12    1    3    3    0    0 -0.61033562299E+01  0.11748277725E+02 -0.41332192419E+02  0.43400727148E+02  0.00000000000E+00 0.  1.
         11    1    4    4    0    0 -0.75693115051E+00 -0.28869192851E+01  0.40999544302E+01  0.50711807615E+01  0.51100000000E-03 0. -1.
        -11    1    4    4    0    0  0.86642384772E+01 -0.12312336919E+02  0.19909021928E+02  0.24960605425E+02  0.51100000000E-03 0.  1.
         12    1    4    4    0    0 -0.18039510968E+01  0.34509784792E+01  0.17323216062E+02  0.17755486666E+02  0.00000000000E+00 0. -1.
</event>
<event>
 8    1  0.6524083E-011  0.9118800E+02  0.7816164E-02  0.1184000E+00
        -11   -1    0    0    0    0  0.00000000000E+00  0.00000000000E+00  0.45593999997E+02  0.45594000000E+02  0.51100000000E-03 0. -1.
         11   -1    0    0    0    0 -0.00000000000E+00 -0.00000000000E+00 -0.45593999997E+02  0.45594000000E+02  0.51100000000E-03 0.  1.
         23    2    1    2    0    0  0.00000000000E+00  0.00000000000E+00  0.00000000000E+00  0.91188000000E+02  0.91188000000E+02 0.  0.
    9900012    2    3    3    0    0  0.10404185650E+02 -0.18652007975E+02  0.37782000714E+02  0.47787262006E+02  0.19999958789E+02 0.  0.
        -12    1    3    3    0    0 -0.10404185650E+02  0.18652007975E+02 -0.37782000714E+02  0.43400737994E+02  0.00000000000E+00 0.  1.
         11    1    4    4    0    0  0.35556519639E+01 -0.41906786691E+01  0.14485709703E+02  0.15493231892E+02  0.51100000000E-03 0. -1.
        -11    1    4    4    0    0  0.43464034538E+01 -0.11327126032E+02  0.42889224882E+01  0.12868172501E+02  0.51100000000E-03 0.  1.
        -12    1    4    4    0    0  0.25021302328E+01 -0.31342032731E+01  0.19007368522E+02  0.19425857613E+02  0.00000000000E+00 0.  1.
</event>
<event>
 8    1  0.6524083E-011  0.9118800E+02  0.7816164E-02  0.1184000E+00
        -11   -1    0    0    0    0  0.00000000000E+00  0.00000000000E+00  0.45593999997E+02  0.45594000000E+02  0.51100000000E-03 0. -1.
         11   -1    0    0    0    0 -0.00000000000E+00 -0.00000000000E+00 -0.45593999997E+02  0.45594000000E+02  0.51100000000E-03 0.  1.
         23    2    1    2    0    0  0.00000000000E+00  0.00000000000E+00  0.00000000000E+00  0.91188000000E+02  0.91188000000E+02 0.  0.
    9900012    2    3    3    0    0 -0.12689984451E+02  0.83977811157E+01  0.40645598871E+02  0.47787272580E+02  0.20000007001E+02 0.  0.
        -12    1    3    3    0    0  0.12689984451E+02 -0.83977811157E+01 -0.40645598871E+02  0.43400727420E+02  0.00000000000E+00 0.  1.
         11    1    4    4    0    0 -0.12785322526E+01  0.38468107392E+01  0.14686703425E+02  0.15235873961E+02  0.51100000000E-03 0. -1.
        -11    1    4    4    0    0 -0.10537566625E+02  0.79125526080E+01  0.10912740890E+02  0.17109550349E+02  0.51100000000E-03 0.  1.
        -12    1    4    4    0    0 -0.87388557303E+00 -0.33615822314E+01  0.15046154556E+02  0.15441848271E+02  0.00000000000E+00 0.  1.
</event>
<event>
 8    1  0.6524083E-011  0.9118800E+02  0.7816164E-02  0.1184000E+00
        -11   -1    0    0    0    0  0.00000000000E+00  0.00000000000E+00  0.45593999997E+02  0.45594000000E+02  0.51100000000E-03 0. -1.
         11   -1    0    0    0    0 -0.00000000000E+00 -0.00000000000E+00 -0.45593999997E+02  0.45594000000E+02  0.51100000000E-03 0.  1.
         23    2    1    2    0    0  0.00000000000E+00  0.00000000000E+00  0.00000000000E+00  0.91188000000E+02  0.91188000000E+02 0.  0.
    9900012    2    3    3    0    0 -0.18127335673E+02 -0.22456574488E+02 -0.32414892482E+02  0.47787270848E+02  0.19999999103E+02 0.  0.
         12    1    3    3    0    0  0.18127335673E+02  0.22456574488E+02  0.32414892482E+02  0.43400729152E+02  0.00000000000E+00 0. -1.
         11    1    4    4    0    0  0.24702994470E+01 -0.82390172278E+01 -0.10737224324E+02  0.13757607739E+02  0.51100000000E-03 0. -1.
        -11    1    4    4    0    0 -0.74360302718E+01 -0.39179712715E+01 -0.12205254755E+02  0.14819355215E+02  0.51100000000E-03 0.  1.
         12    1    4    4    0    0 -0.13161604849E+02 -0.10299585988E+02 -0.94724134022E+01  0.19210307894E+02  0.00000000000E+00 0. -1.
</event>
<event>
 8    1  0.6524083E-011  0.9118800E+02  0.7816164E-02  0.1184000E+00
        -11   -1    0    0    0    0  0.00000000000E+00  0.00000000000E+00  0.45593999997E+02  0.45594000000E+02  0.51100000000E-03 0.  1.
         11   -1    0    0    0    0 -0.00000000000E+00 -0.00000000000E+00 -0.45593999997E+02  0.45594000000E+02  0.51100000000E-03 0. -1.
         23    2    1    2    0    0  0.17763568394E-14  0.00000000000E+00  0.00000000000E+00  0.91188000000E+02  0.91188000000E+02 0.  0.
    9900012    2    3    3    0    0 -0.96927810828E+01  0.41077752656E+02  0.10113924477E+02  0.47787271472E+02  0.20000001951E+02 0.  0.
         12    1    3    3    0    0  0.96927810828E+01 -0.41077752656E+02 -0.10113924477E+02  0.43400728528E+02  0.00000000000E+00 0. -1.
         11    1    4    4    0    0 -0.11788397147E+02  0.24975017473E+02  0.12154640839E+02  0.30173715370E+02  0.51100000000E-03 0. -1.
        -11    1    4    4    0    0 -0.54090390379E+00  0.12984311787E+02  0.11457868921E+00  0.12996078568E+02  0.51100000000E-03 0.  1.
         12    1    4    4    0    0  0.26365199677E+01  0.31184233968E+01 -0.21552950514E+01  0.46174775343E+01  0.00000000000E+00 0. -1.
</event>
<event>
 8    1  0.6524083E-011  0.9118800E+02  0.7816164E-02  0.1184000E+00
        -11   -1    0    0    0    0  0.00000000000E+00  0.00000000000E+00  0.45593999997E+02  0.45594000000E+02  0.51100000000E-03 0. -1.
         11   -1    0    0    0    0 -0.00000000000E+00 -0.00000000000E+00 -0.45593999997E+02  0.45594000000E+02  0.51100000000E-03 0.  1.
         23    2    1    2    0    0  0.00000000000E+00  0.00000000000E+00  0.00000000000E+00  0.91188000000E+02  0.91188000000E+02 0.  0.
    9900012    2    3    3    0    0 -0.11949920692E+02 -0.34907405638E+02  0.22853789066E+02  0.47787271347E+02  0.20000001380E+02 0.  0.
        -12    1    3    3    0    0  0.11949920692E+02  0.34907405638E+02 -0.22853789066E+02  0.43400728653E+02  0.00000000000E+00 0.  1.
         11    1    4    4    0    0 -0.84690433661E+01 -0.16372715880E+02  0.18528310129E+02  0.26135967503E+02  0.51100000000E-03 0. -1.
        -11    1    4    4    0    0  0.23347480356E+01 -0.10603931316E+02  0.46492280774E+01  0.11811423695E+02  0.51100000000E-03 0.  1.
        -12    1    4    4    0    0 -0.58156253617E+01 -0.79307584428E+01 -0.32374914120E+00  0.98398801482E+01  0.00000000000E+00 0.  1.
</event>
<event>
 8    1  0.6524083E-011  0.9118800E+02  0.7816164E-02  0.1184000E+00
        -11   -1    0    0    0    0  0.00000000000E+00  0.00000000000E+00  0.45593999997E+02  0.45594000000E+02  0.51100000000E-03 0. -1.
         11   -1    0    0    0    0 -0.00000000000E+00 -0.00000000000E+00 -0.45593999997E+02  0.45594000000E+02  0.51100000000E-03 0.  1.
         23    2    1    2    0    0  0.00000000000E+00  0.27755575616E-16  0.00000000000E+00  0.91188000000E+02  0.91188000000E+02 0.  0.
    9900012    2    3    3    0    0 -0.40278900726E+02  0.50828987835E-01  0.16162641575E+02  0.47787269477E+02  0.19999992853E+02 0.  0.
        -12    1    3    3    0    0  0.40278900726E+02 -0.50828987835E-01 -0.16162641575E+02  0.43400730523E+02  0.00000000000E+00 0.  1.
         11    1    4    4    0    0 -0.30427893563E+02 -0.11210880850E+01  0.65427293129E+01  0.31143552339E+02  0.51100000000E-03 0. -1.
        -11    1    4    4    0    0 -0.10519818197E+00  0.60032284458E+00 -0.16348842005E+01  0.17447924763E+01  0.51100000000E-03 0.  1.
         12    1    4    4    0    0 -0.97458089809E+01  0.57159422822E+00  0.11254796463E+02  0.14898924662E+02  0.00000000000E+00 0. -1.
</event>
<event>
 8    1  0.6524083E-011  0.9118800E+02  0.7816164E-02  0.1184000E+00
        -11   -1    0    0    0    0  0.00000000000E+00  0.00000000000E+00  0.45593999997E+02  0.45594000000E+02  0.51100000000E-03 0. -1.
         11   -1    0    0    0    0 -0.00000000000E+00 -0.00000000000E+00 -0.45593999997E+02  0.45594000000E+02  0.51100000000E-03 0.  1.
         23    2    1    2    0    0  0.00000000000E+00  0.00000000000E+00  0.00000000000E+00  0.91188000000E+02  0.91188000000E+02 0.  0.
    9900012    2    3    3    0    0  0.27252838642E+02  0.27646343666E+02  0.19405811530E+02  0.47787273586E+02  0.20000011587E+02 0.  0.
        -12    1    3    3    0    0 -0.27252838642E+02 -0.27646343666E+02 -0.19405811530E+02  0.43400726414E+02  0.00000000000E+00 0.  1.
         11    1    4    4    0    0  0.14238095863E+02  0.16166689910E+02  0.40132901407E+01  0.21913277584E+02  0.51100000000E-03 0. -1.
        -11    1    4    4    0    0 -0.14663559896E+01 -0.81538653366E+00  0.54719883247E+00  0.17647894806E+01  0.51100000000E-03 0.  1.
         12    1    4    4    0    0  0.14481098768E+02  0.12295040290E+02  0.14845322557E+02  0.24109206521E+02  0.00000000000E+00 0. -1.
</event>
<event>
 8    1  0.6524083E-011  0.9118800E+02  0.7816164E-02  0.1184000E+00
        -11   -1    0    0    0    0  0.00000000000E+00  0.00000000000E+00  0.45593999997E+02  0.45594000000E+02  0.51100000000E-03 0. -1.
         11   -1    0    0    0    0 -0.00000000000E+00 -0.00000000000E+00 -0.45593999997E+02  0.45594000000E+02  0.51100000000E-03 0.  1.
         23    2    1    2    0    0  0.00000000000E+00  0.00000000000E+00  0.71054273576E-14  0.91188000000E+02  0.91188000000E+02 0.  0.
    9900012    2    3    3    0    0  0.25806427943E+02 -0.55128654260E+01  0.34456641857E+02  0.47787267558E+02  0.19999984106E+02 0.  0.
        -12    1    3    3    0    0 -0.25806427943E+02  0.55128654260E+01 -0.34456641857E+02  0.43400732442E+02  0.00000000000E+00 0.  1.
         11    1    4    4    0    0  0.81656744085E+01  0.15418810409E+01  0.93897919962E+01  0.12538892682E+02  0.51100000000E-03 0. -1.
        -11    1    4    4    0    0  0.32559537651E+01 -0.72642593175E+01  0.16959527390E+02  0.18734894393E+02  0.51100000000E-03 0.  1.
         12    1    4    4    0    0  0.14384799769E+02  0.20951285059E+00  0.81073224707E+01  0.16513480484E+02  0.00000000000E+00 0. -1.
</event>
<event>
 8    1  0.6524083E-011  0.9118800E+02  0.7816164E-02  0.1184000E+00
        -11   -1    0    0    0    0  0.00000000000E+00  0.00000000000E+00  0.45593999997E+02  0.45594000000E+02  0.51100000000E-03 0.  1.
         11   -1    0    0    0    0 -0.00000000000E+00 -0.00000000000E+00 -0.45593999997E+02  0.45594000000E+02  0.51100000000E-03 0. -1.
         23    2    1    2    0    0  0.00000000000E+00  0.00000000000E+00  0.00000000000E+00  0.91188000000E+02  0.91188000000E+02 0.  0.
    9900012    2    3    3    0    0  0.10418142897E+02  0.42105162836E+02 -0.14969438630E+01  0.47787270976E+02  0.19999999689E+02 0.  0.
         12    1    3    3    0    0 -0.10418142897E+02 -0.42105162836E+02  0.14969438630E+01  0.43400729024E+02  0.00000000000E+00 0. -1.
         11    1    4    4    0    0 -0.11805819404E+01  0.13609111081E+02 -0.49972555269E+01  0.14545591813E+02  0.51100000000E-03 0. -1.
        -11    1    4    4    0    0  0.49904679140E+01  0.32208451905E+01  0.39146660858E+01  0.71135943493E+01  0.51100000000E-03 0.  1.
         12    1    4    4    0    0  0.66082569235E+01  0.25275206564E+02 -0.41435442199E+00  0.26128084814E+02  0.00000000000E+00 0. -1.
</event>
<event>
 8    1  0.6524083E-011  0.9118800E+02  0.7816164E-02  0.1184000E+00
        -11   -1    0    0    0    0  0.00000000000E+00  0.00000000000E+00  0.45593999997E+02  0.45594000000E+02  0.51100000000E-03 0. -1.
         11   -1    0    0    0    0 -0.00000000000E+00 -0.00000000000E+00 -0.45593999997E+02  0.45594000000E+02  0.51100000000E-03 0.  1.
         23    2    1    2    0    0 -0.88817841970E-15  0.00000000000E+00  0.00000000000E+00  0.91188000000E+02  0.91188000000E+02 0.  0.
    9900012    2    3    3    0    0 -0.66742094335E+01 -0.17311560916E+02  0.39235036382E+02  0.47787270826E+02  0.19999999006E+02 0.  0.
        -12    1    3    3    0    0  0.66742094335E+01  0.17311560916E+02 -0.39235036382E+02  0.43400729174E+02  0.00000000000E+00 0.  1.
         11    1    4    4    0    0 -0.20272965846E+01 -0.18650653692E+02  0.24923337169E+02  0.31195024451E+02  0.51100000000E-03 0. -1.
        -11    1    4    4    0    0  0.11926130323E+01  0.20658343171E+01  0.29203144365E+01  0.37707073527E+01  0.51100000000E-03 0.  1.
        -12    1    4    4    0    0 -0.58395258812E+01 -0.72674154065E+00  0.11391384776E+02  0.12821539023E+02  0.00000000000E+00 0.  1.
</event>
<event>
 8    1  0.6524083E-011  0.9118800E+02  0.7816164E-02  0.1184000E+00
        -11   -1    0    0    0    0  0.00000000000E+00  0.00000000000E+00  0.45593999997E+02  0.45594000000E+02  0.51100000000E-03 0. -1.
         11   -1    0    0    0    0 -0.00000000000E+00 -0.00000000000E+00 -0.45593999997E+02  0.45594000000E+02  0.51100000000E-03 0.  1.
         23    2    1    2    0    0  0.00000000000E+00  0.55511151231E-16  0.71054273576E-14  0.91188000000E+02  0.91188000000E+02 0.  0.
    9900012    2    3    3    0    0 -0.17005623154E+02  0.28621161650E+00  0.39929324851E+02  0.47787261308E+02  0.19999955606E+02 0.  0.
        -12    1    3    3    0    0  0.17005623154E+02 -0.28621161650E+00 -0.39929324851E+02  0.43400738692E+02  0.00000000000E+00 0.  1.
         11    1    4    4    0    0 -0.64950080122E+01  0.77517781102E+00  0.20833304088E+02  0.21836038771E+02  0.51100000000E-03 0. -1.
        -11    1    4    4    0    0  0.34451426030E+01  0.85868727750E+00  0.40053102970E+01  0.53524631930E+01  0.51100000000E-03 0.  1.
         12    1    4    4    0    0 -0.13955757745E+02 -0.13476534720E+01  0.15090710466E+02  0.20598759344E+02  0.00000000000E+00 0. -1.
</event>
<event>
 8    1  0.6524083E-011  0.9118800E+02  0.7816164E-02  0.1184000E+00
        -11   -1    0    0    0    0  0.00000000000E+00  0.00000000000E+00  0.45593999997E+02  0.45594000000E+02  0.51100000000E-03 0. -1.
         11   -1    0    0    0    0 -0.00000000000E+00 -0.00000000000E+00 -0.45593999997E+02  0.45594000000E+02  0.51100000000E-03 0.  1.
         23    2    1    2    0    0 -0.35527136788E-14  0.00000000000E+00 -0.71054273576E-14  0.91188000000E+02  0.91188000000E+02 0.  0.
    9900012    2    3    3    0    0  0.22209642995E+02 -0.19112414186E+02  0.32016732100E+02  0.47787265532E+02  0.19999974866E+02 0.  0.
        -12    1    3    3    0    0 -0.22209642995E+02  0.19112414186E+02 -0.32016732100E+02  0.43400734468E+02  0.00000000000E+00 0.  1.
         11    1    4    4    0    0  0.16382706710E+02 -0.67393269144E+01  0.24823947801E+02  0.30496557037E+02  0.51100000000E-03 0. -1.
        -11    1    4    4    0    0  0.12952629153E+01 -0.81140508634E+01  0.74148725737E+01  0.11067784917E+02  0.51100000000E-03 0.  1.
        -12    1    4    4    0    0  0.45316733694E+01 -0.42590364083E+01 -0.22208827388E+00  0.62229235778E+01  0.00000000000E+00 0.  1.
</event>
<event>
 8    1  0.6524083E-011  0.9118800E+02  0.7816164E-02  0.1184000E+00
        -11   -1    0    0    0    0  0.00000000000E+00  0.00000000000E+00  0.45593999997E+02  0.45594000000E+02  0.51100000000E-03 0. -1.
         11   -1    0    0    0    0 -0.00000000000E+00 -0.00000000000E+00 -0.45593999997E+02  0.45594000000E+02  0.51100000000E-03 0.  1.
         23    2    1    2    0    0  0.00000000000E+00  0.17763568394E-14  0.00000000000E+00  0.91188000000E+02  0.91188000000E+02 0.  0.
    9900012    2    3    3    0    0 -0.25135405545E+02  0.14886908237E+02  0.32096956442E+02  0.47787271185E+02  0.20000000643E+02 0.  0.
        -12    1    3    3    0    0  0.25135405545E+02 -0.14886908237E+02 -0.32096956442E+02  0.43400728815E+02  0.00000000000E+00 0.  1.
         11    1    4    4    0    0 -0.20083616050E+02  0.89628169709E+01  0.16323255866E+02  0.27388545124E+02  0.51100000000E-03 0. -1.
        -11    1    4    4    0    0 -0.57837431306E+01  0.15747894478E+01  0.14677089679E+02  0.15853977675E+02  0.51100000000E-03 0.  1.
        -12    1    4    4    0    0  0.73195363564E+00  0.43493018186E+01  0.10966108968E+01  0.45447483861E+01  0.00000000000E+00 0.  1.
</event>
<event>
 8    1  0.6524083E-011  0.9118800E+02  0.7816164E-02  0.1184000E+00
        -11   -1    0    0    0    0  0.00000000000E+00  0.00000000000E+00  0.45593999997E+02  0.45594000000E+02  0.51100000000E-03 0. -1.
         11   -1    0    0    0    0 -0.00000000000E+00 -0.00000000000E+00 -0.45593999997E+02  0.45594000000E+02  0.51100000000E-03 0.  1.
         23    2    1    2    0    0  0.71054273576E-14  0.35527136788E-14  0.17763568394E-14  0.91188000000E+02  0.91188000000E+02 0.  0.
    9900012    2    3    3    0    0 -0.33341325394E+02 -0.26601316542E+02 -0.80218147450E+01  0.47787268064E+02  0.19999986411E+02 0.  0.
         12    1    3    3    0    0  0.33341325394E+02  0.26601316542E+02  0.80218147450E+01  0.43400731936E+02  0.00000000000E+00 0. -1.
         11    1    4    4    0    0 -0.94607950829E+00  0.69255960216E+00  0.86143285906E+00  0.14549130800E+01  0.51100000000E-03 0. -1.
        -11    1    4    4    0    0 -0.32755434222E+02 -0.25563281013E+02 -0.11556819765E+02  0.43127252295E+02  0.51100000000E-03 0.  1.
        -12    1    4    4    0    0  0.36018833666E+00 -0.17305951321E+01  0.26735721605E+01  0.32051026889E+01  0.00000000000E+00 0.  1.
</event>
<event>
 8    1  0.6524083E-011  0.9118800E+02  0.7816164E-02  0.1184000E+00
        -11   -1    0    0    0    0  0.00000000000E+00  0.00000000000E+00  0.45593999997E+02  0.45594000000E+02  0.51100000000E-03 0. -1.
         11   -1    0    0    0    0 -0.00000000000E+00 -0.00000000000E+00 -0.45593999997E+02  0.45594000000E+02  0.51100000000E-03 0.  1.
         23    2    1    2    0    0 -0.35527136788E-14  0.35527136788E-14 -0.71054273576E-14  0.91188000000E+02  0.91188000000E+02 0.  0.
    9900012    2    3    3    0    0  0.21127232225E+02 -0.10081217335E+02  0.36546308108E+02  0.47787268201E+02  0.19999987034E+02 0.  0.
        -12    1    3    3    0    0 -0.21127232225E+02  0.10081217335E+02 -0.36546308108E+02  0.43400731799E+02  0.00000000000E+00 0.  1.
         11    1    4    4    0    0  0.11401921337E+02 -0.40820506104E+01  0.20402248909E+02  0.23725907952E+02  0.51100000000E-03 0. -1.
        -11    1    4    4    0    0  0.97713473131E+01 -0.36280433879E+01  0.32021164742E+01  0.10903920273E+02  0.51100000000E-03 0.  1.
         12    1    4    4    0    0 -0.46036425631E-01 -0.23711233363E+01  0.12941942724E+02  0.13157439976E+02  0.00000000000E+00 0. -1.
</event>
<event>
 8    1  0.6524083E-011  0.9118800E+02  0.7816164E-02  0.1184000E+00
        -11   -1    0    0    0    0  0.00000000000E+00  0.00000000000E+00  0.45593999997E+02  0.45594000000E+02  0.51100000000E-03 0. -1.
         11   -1    0    0    0    0 -0.00000000000E+00 -0.00000000000E+00 -0.45593999997E+02  0.45594000000E+02  0.51100000000E-03 0.  1.
         23    2    1    2    0    0  0.35527136788E-14  0.00000000000E+00 -0.71054273576E-14  0.91188000000E+02  0.91188000000E+02 0.  0.
    9900012    2    3    3    0    0  0.16105273595E+02 -0.22890860786E+02 -0.33170045022E+02  0.47787271528E+02  0.20000002206E+02 0.  0.
         12    1    3    3    0    0 -0.16105273595E+02  0.22890860786E+02  0.33170045022E+02  0.43400728472E+02  0.00000000000E+00 0. -1.
         11    1    4    4    0    0  0.13851477900E+02 -0.94757445864E+01 -0.18999296735E+02  0.25350077952E+02  0.51100000000E-03 0. -1.
        -11    1    4    4    0    0  0.35306402974E+01 -0.32791685201E+01 -0.10550300054E+02  0.11598586060E+02  0.51100000000E-03 0.  1.
         12    1    4    4    0    0 -0.12768446018E+01 -0.10135947679E+02 -0.36204482330E+01  0.10838607517E+02  0.00000000000E+00 0. -1.
</event>
<event>
 8    1  0.6524083E-011  0.9118800E+02  0.7816164E-02  0.1184000E+00
        -11   -1    0    0    0    0  0.00000000000E+00  0.00000000000E+00  0.45593999997E+02  0.45594000000E+02  0.51100000000E-03 0. -1.
         11   -1    0    0    0    0 -0.00000000000E+00 -0.00000000000E+00 -0.45593999997E+02  0.45594000000E+02  0.51100000000E-03 0.  1.
         23    2    1    2    0    0  0.00000000000E+00  0.00000000000E+00  0.00000000000E+00  0.91188000000E+02  0.91188000000E+02 0.  0.
    9900012    2    3    3    0    0 -0.27897669707E+02  0.52487281687E+01 -0.32829773453E+02  0.47787272501E+02  0.20000006642E+02 0.  0.
         12    1    3    3    0    0  0.27897669707E+02 -0.52487281687E+01  0.32829773453E+02  0.43400727499E+02  0.00000000000E+00 0. -1.
         11    1    4    4    0    0 -0.58145853837E+01 -0.51191906462E+01 -0.50067025459E+01  0.92240222626E+01  0.51100000000E-03 0. -1.
        -11    1    4    4    0    0 -0.22964349267E+01  0.30815681355E+01 -0.10800835459E+02  0.11464193056E+02  0.51100000000E-03 0.  1.
        -12    1    4    4    0    0 -0.19786649396E+02  0.72863506794E+01 -0.17022235448E+02  0.27099057183E+02  0.00000000000E+00 0.  1.
</event>
<event>
 8    1  0.6524083E-011  0.9118800E+02  0.7816164E-02  0.1184000E+00
        -11   -1    0    0    0    0  0.00000000000E+00  0.00000000000E+00  0.45593999997E+02  0.45594000000E+02  0.51100000000E-03 0. -1.
         11   -1    0    0    0    0 -0.00000000000E+00 -0.00000000000E+00 -0.45593999997E+02  0.45594000000E+02  0.51100000000E-03 0.  1.
         23    2    1    2    0    0  0.17763568394E-14  0.00000000000E+00  0.35527136788E-14  0.91188000000E+02  0.91188000000E+02 0.  0.
    9900012    2    3    3    0    0 -0.15110514844E+02 -0.25939740700E+02  0.31343671975E+02  0.47787267526E+02  0.19999983959E+02 0.  0.
        -12    1    3    3    0    0  0.15110514844E+02  0.25939740700E+02 -0.31343671975E+02  0.43400732474E+02  0.00000000000E+00 0.  1.
         11    1    4    4    0    0 -0.20211382737E+01 -0.10083611441E+02  0.72774085658E+01  0.12598606879E+02  0.51100000000E-03 0. -1.
        -11    1    4    4    0    0 -0.12540600014E+02 -0.62191066115E+01  0.20654129029E+02  0.24950691012E+02  0.51100000000E-03 0.  1.
        -12    1    4    4    0    0 -0.54877655624E+00 -0.96370226476E+01  0.34121343793E+01  0.10237969635E+02  0.00000000000E+00 0.  1.
</event>
<event>
 8    1  0.6524083E-011  0.9118800E+02  0.7816164E-02  0.1184000E+00
        -11   -1    0    0    0    0  0.00000000000E+00  0.00000000000E+00  0.45593999997E+02  0.45594000000E+02  0.51100000000E-03 0. -1.
         11   -1    0    0    0    0 -0.00000000000E+00 -0.00000000000E+00 -0.45593999997E+02  0.45594000000E+02  0.51100000000E-03 0.  1.
         23    2    1    2    0    0  0.00000000000E+00 -0.88817841970E-15  0.00000000000E+00  0.91188000000E+02  0.91188000000E+02 0.  0.
    9900012    2    3    3    0    0  0.14928034423E+02  0.63891366487E+01 -0.40248677610E+02  0.47787270418E+02  0.19999997145E+02 0.  0.
         12    1    3    3    0    0 -0.14928034423E+02 -0.63891366487E+01  0.40248677610E+02  0.43400729582E+02  0.00000000000E+00 0. -1.
         11    1    4    4    0    0  0.79678147854E+01 -0.28838365735E+00 -0.24901383652E+02  0.26146666052E+02  0.51100000000E-03 0. -1.
        -11    1    4    4    0    0  0.54287072673E+01 -0.23048941875E+01 -0.79796219579E+01  0.99225887077E+01  0.51100000000E-03 0.  1.
        -12    1    4    4    0    0  0.15315123700E+01  0.89824144935E+01 -0.73676720009E+01  0.11718015659E+02  0.00000000000E+00 0.  1.
</event>
<event>
 8    1  0.6524083E-011  0.9118800E+02  0.7816164E-02  0.1184000E+00
        -11   -1    0    0    0    0  0.00000000000E+00  0.00000000000E+00  0.45593999997E+02  0.45594000000E+02  0.51100000000E-03 0. -1.
         11   -1    0    0    0    0 -0.00000000000E+00 -0.00000000000E+00 -0.45593999997E+02  0.45594000000E+02  0.51100000000E-03 0.  1.
         23    2    1    2    0    0  0.35527136788E-14  0.00000000000E+00  0.00000000000E+00  0.91188000000E+02  0.91188000000E+02 0.  0.
    9900012    2    3    3    0    0 -0.16770565034E+02  0.35438902161E+02  0.18613321368E+02  0.47787269933E+02  0.19999994934E+02 0.  0.
        -12    1    3    3    0    0  0.16770565034E+02 -0.35438902161E+02 -0.18613321368E+02  0.43400730067E+02  0.00000000000E+00 0.  1.
         11    1    4    4    0    0 -0.17830256410E+01  0.14150632787E+02  0.98568021546E+01  0.17337131761E+02  0.51100000000E-03 0. -1.
        -11    1    4    4    0    0 -0.25188549406E+01 -0.12094803983E+01 -0.95953099735E+00  0.29543481585E+01  0.51100000000E-03 0.  1.
         12    1    4    4    0    0 -0.12468684453E+02  0.22497749772E+02  0.97160502111E+01  0.27495790014E+02  0.00000000000E+00 0. -1.
</event>
<event>
 8    1  0.6524083E-011  0.9118800E+02  0.7816164E-02  0.1184000E+00
        -11   -1    0    0    0    0  0.00000000000E+00  0.00000000000E+00  0.45593999997E+02  0.45594000000E+02  0.51100000000E-03 0. -1.
         11   -1    0    0    0    0 -0.00000000000E+00 -0.00000000000E+00 -0.45593999997E+02  0.45594000000E+02  0.51100000000E-03 0.  1.
         23    2    1    2    0    0 -0.35527136788E-14  0.00000000000E+00  0.00000000000E+00  0.91188000000E+02  0.91188000000E+02 0.  0.
    9900012    2    3    3    0    0  0.27563277789E+02 -0.19956286807E+02  0.26937617606E+02  0.47787275261E+02  0.20000019224E+02 0.  0.
        -12    1    3    3    0    0 -0.27563277789E+02  0.19956286807E+02 -0.26937617606E+02  0.43400724739E+02  0.00000000000E+00 0.  1.
         11    1    4    4    0    0  0.72517867155E+01 -0.28889307119E+01  0.11306957334E+02  0.13739782227E+02  0.51100000000E-03 0.  1.
        -11    1    4    4    0    0  0.42853743987E+01 -0.45665312482E+01  0.11808336501E+02  0.13366168208E+02  0.51100000000E-03 0. -1.
        -12    1    4    4    0    0  0.16026116675E+02 -0.12500824847E+02  0.38223237701E+01  0.20681324826E+02  0.00000000000E+00 0.  1.
</event>
<event>
 8    1  0.6524083E-011  0.9118800E+02  0.7816164E-02  0.1184000E+00
        -11   -1    0    0    0    0  0.00000000000E+00  0.00000000000E+00  0.45593999997E+02  0.45594000000E+02  0.51100000000E-03 0. -1.
         11   -1    0    0    0    0 -0.00000000000E+00 -0.00000000000E+00 -0.45593999997E+02  0.45594000000E+02  0.51100000000E-03 0.  1.
         23    2    1    2    0    0  0.00000000000E+00  0.71054273576E-14  0.00000000000E+00  0.91188000000E+02  0.91188000000E+02 0.  0.
    9900012    2    3    3    0    0 -0.98454728388E+01  0.24778959064E+02  0.34244611523E+02  0.47787267678E+02  0.19999984652E+02 0.  0.
        -12    1    3    3    0    0  0.98454728388E+01 -0.24778959064E+02 -0.34244611523E+02  0.43400732322E+02  0.00000000000E+00 0.  1.
         11    1    4    4    0    0 -0.59901786749E+01  0.53092982386E+01  0.15419044024E+01  0.81515862132E+01  0.51100000000E-03 0.  1.
        -11    1    4    4    0    0 -0.74047733880E+01  0.11985623385E+02  0.21454052093E+02  0.25666362975E+02  0.51100000000E-03 0. -1.
         12    1    4    4    0    0  0.35494792241E+01  0.74840374400E+01  0.11248655027E+02  0.13969318490E+02  0.00000000000E+00 0. -1.
</event>
<event>
 8    1  0.6524083E-011  0.9118800E+02  0.7816164E-02  0.1184000E+00
        -11   -1    0    0    0    0  0.00000000000E+00  0.00000000000E+00  0.45593999997E+02  0.45594000000E+02  0.51100000000E-03 0. -1.
         11   -1    0    0    0    0 -0.00000000000E+00 -0.00000000000E+00 -0.45593999997E+02  0.45594000000E+02  0.51100000000E-03 0.  1.
         23    2    1    2    0    0  0.35527136788E-14  0.00000000000E+00 -0.35527136788E-14  0.91188000000E+02  0.91188000000E+02 0.  0.
    9900012    2    3    3    0    0 -0.25054923156E+02  0.16209657637E+02  0.31513827008E+02  0.47787268811E+02  0.19999989817E+02 0.  0.
        -12    1    3    3    0    0  0.25054923156E+02 -0.16209657637E+02 -0.31513827008E+02  0.43400731189E+02  0.00000000000E+00 0.  1.
         11    1    4    4    0    0 -0.15172542028E+02  0.72568545769E+01  0.10478164494E+02  0.19815647892E+02  0.51100000000E-03 0. -1.
        -11    1    4    4    0    0 -0.84497134854E+01 -0.57035571534E-01  0.14379714371E+02  0.16678641932E+02  0.51100000000E-03 0.  1.
         12    1    4    4    0    0 -0.14326676431E+01  0.90098386316E+01  0.66559481428E+01  0.11292978988E+02  0.00000000000E+00 0. -1.
</event>
<event>
 8    1  0.6524083E-011  0.9118800E+02  0.7816164E-02  0.1184000E+00
        -11   -1    0    0    0    0  0.00000000000E+00  0.00000000000E+00  0.45593999997E+02  0.45594000000E+02  0.51100000000E-03 0.  1.
         11   -1    0    0    0    0 -0.00000000000E+00 -0.00000000000E+00 -0.45593999997E+02  0.45594000000E+02  0.51100000000E-03 0. -1.
         23    2    1    2    0    0 -0.35527136788E-14 -0.71054273576E-14  0.00000000000E+00  0.91188000000E+02  0.91188000000E+02 0.  0.
    9900012    2    3    3    0    0  0.27799881908E+02  0.32450444751E+02  0.76000371224E+01  0.47787246978E+02  0.19999890270E+02 0.  0.
         12    1    3    3    0    0 -0.27799881908E+02 -0.32450444751E+02 -0.76000371224E+01  0.43400753022E+02  0.00000000000E+00 0. -1.
         11    1    4    4    0    0  0.11466909871E+02  0.47172843965E+01 -0.80725396107E+00  0.12425556458E+02  0.51100000000E-03 0. -1.
        -11    1    4    4    0    0 -0.15111877895E+01  0.53473745503E+01  0.11756784951E+00  0.55580505194E+01  0.51100000000E-03 0.  1.
        -12    1    4    4    0    0  0.17844159827E+02  0.22385785804E+02  0.82897232339E+01  0.29803640001E+02  0.00000000000E+00 0.  1.
</event>
<event>
 8    1  0.6524083E-011  0.9118800E+02  0.7816164E-02  0.1184000E+00
        -11   -1    0    0    0    0  0.00000000000E+00  0.00000000000E+00  0.45593999997E+02  0.45594000000E+02  0.51100000000E-03 0.  1.
         11   -1    0    0    0    0 -0.00000000000E+00 -0.00000000000E+00 -0.45593999997E+02  0.45594000000E+02  0.51100000000E-03 0. -1.
         23    2    1    2    0    0 -0.88817841970E-15  0.00000000000E+00  0.00000000000E+00  0.91188000000E+02  0.91188000000E+02 0.  0.
    9900012    2    3    3    0    0  0.75755486276E+01  0.42703339305E+02  0.16309813047E+01  0.47787260089E+02  0.19999950050E+02 0.  0.
         12    1    3    3    0    0 -0.75755486276E+01 -0.42703339305E+02 -0.16309813047E+01  0.43400739911E+02  0.00000000000E+00 0. -1.
         11    1    4    4    0    0  0.13472305142E+01 -0.23768950913E+00  0.47557637917E+00  0.14483437143E+01  0.51100000000E-03 0. -1.
        -11    1    4    4    0    0 -0.11361062429E+01  0.35101342264E+02 -0.18572536508E+01  0.35168798067E+02  0.51100000000E-03 0.  1.
        -12    1    4    4    0    0  0.73644243564E+01  0.78396865505E+01  0.30126585763E+01  0.11170118308E+02  0.00000000000E+00 0.  1.
</event>
<event>
 8    1  0.6524083E-011  0.9118800E+02  0.7816164E-02  0.1184000E+00
        -11   -1    0    0    0    0  0.00000000000E+00  0.00000000000E+00  0.45593999997E+02  0.45594000000E+02  0.51100000000E-03 0. -1.
         11   -1    0    0    0    0 -0.00000000000E+00 -0.00000000000E+00 -0.45593999997E+02  0.45594000000E+02  0.51100000000E-03 0.  1.
         23    2    1    2    0    0  0.00000000000E+00 -0.44408920985E-15  0.00000000000E+00  0.91188000000E+02  0.91188000000E+02 0.  0.
    9900012    2    3    3    0    0  0.40263967065E+02  0.56651224713E+00 -0.16189945759E+02  0.47787281991E+02  0.20000049912E+02 0.  0.
         12    1    3    3    0    0 -0.40263967065E+02 -0.56651224713E+00  0.16189945759E+02  0.43400718009E+02  0.00000000000E+00 0. -1.
         11    1    4    4    0    0  0.12015026256E+02  0.66941975123E+01 -0.84265889515E+01  0.16130112768E+02  0.51100000000E-03 0. -1.
        -11    1    4    4    0    0  0.15704260763E+02  0.18596363090E+01 -0.42822118048E+01  0.16383509744E+02  0.51100000000E-03 0.  1.
        -12    1    4    4    0    0  0.12544680046E+02 -0.79873215742E+01 -0.34811450027E+01  0.15273659480E+02  0.00000000000E+00 0.  1.
</event>
<event>
 8    1  0.6524083E-011  0.9118800E+02  0.7816164E-02  0.1184000E+00
        -11   -1    0    0    0    0  0.00000000000E+00  0.00000000000E+00  0.45593999997E+02  0.45594000000E+02  0.51100000000E-03 0. -1.
         11   -1    0    0    0    0 -0.00000000000E+00 -0.00000000000E+00 -0.45593999997E+02  0.45594000000E+02  0.51100000000E-03 0.  1.
         23    2    1    2    0    0  0.00000000000E+00  0.00000000000E+00  0.71054273576E-14  0.91188000000E+02  0.91188000000E+02 0.  0.
    9900012    2    3    3    0    0 -0.15041186922E+02  0.22867582708E+01  0.40646740743E+02  0.47787261522E+02  0.19999956583E+02 0.  0.
        -12    1    3    3    0    0  0.15041186922E+02 -0.22867582708E+01 -0.40646740743E+02  0.43400738478E+02  0.00000000000E+00 0.  1.
         11    1    4    4    0    0 -0.83481460463E+00 -0.19699805525E+01  0.21396070485E+02  0.21502780547E+02  0.51100000000E-03 0. -1.
        -11    1    4    4    0    0 -0.47401811529E+01  0.37930480185E+01  0.14422120706E+02  0.15647814434E+02  0.51100000000E-03 0.  1.
        -12    1    4    4    0    0 -0.94661911647E+01  0.46369080477E+00  0.48285495518E+01  0.10636666541E+02  0.00000000000E+00 0.  1.
</event>
<event>
 8    1  0.6524083E-011  0.9118800E+02  0.7816164E-02  0.1184000E+00
        -11   -1    0    0    0    0  0.00000000000E+00  0.00000000000E+00  0.45593999997E+02  0.45594000000E+02  0.51100000000E-03 0. -1.
         11   -1    0    0    0    0 -0.00000000000E+00 -0.00000000000E+00 -0.45593999997E+02  0.45594000000E+02  0.51100000000E-03 0.  1.
         23    2    1    2    0    0  0.00000000000E+00  0.00000000000E+00  0.00000000000E+00  0.91188000000E+02  0.91188000000E+02 0.  0.
    9900012    2    3    3    0    0  0.23705460136E+02  0.62083997938E+01 -0.35820803883E+02  0.47787273519E+02  0.20000011281E+02 0.  0.
         12    1    3    3    0    0 -0.23705460136E+02 -0.62083997938E+01  0.35820803883E+02  0.43400726481E+02  0.00000000000E+00 0. -1.
         11    1    4    4    0    0  0.40487242063E+01 -0.26376259675E+01 -0.95613063386E+00  0.49257917631E+01  0.51100000000E-03 0. -1.
        -11    1    4    4    0    0  0.19964163981E+02  0.69446668450E+01 -0.24672409485E+02  0.32488829328E+02  0.51100000000E-03 0.  1.
         12    1    4    4    0    0 -0.30742805126E+00  0.19013589162E+01 -0.10192263765E+02  0.10372652428E+02  0.00000000000E+00 0. -1.
</event>
<event>
 8    1  0.6524083E-011  0.9118800E+02  0.7816164E-02  0.1184000E+00
        -11   -1    0    0    0    0  0.00000000000E+00  0.00000000000E+00  0.45593999997E+02  0.45594000000E+02  0.51100000000E-03 0. -1.
         11   -1    0    0    0    0 -0.00000000000E+00 -0.00000000000E+00 -0.45593999997E+02  0.45594000000E+02  0.51100000000E-03 0.  1.
         23    2    1    2    0    0  0.35527136788E-14  0.00000000000E+00  0.00000000000E+00  0.91188000000E+02  0.91188000000E+02 0.  0.
    9900012    2    3    3    0    0 -0.31254691819E+02  0.38491144683E+01  0.29865563659E+02  0.47787270334E+02  0.19999996762E+02 0.  0.
        -12    1    3    3    0    0  0.31254691819E+02 -0.38491144683E+01 -0.29865563659E+02  0.43400729666E+02  0.00000000000E+00 0.  1.
         11    1    4    4    0    0 -0.61875139386E+01  0.74320157719E+01  0.69032751460E+01  0.11881725261E+02  0.51100000000E-03 0. -1.
        -11    1    4    4    0    0 -0.15285841457E+02 -0.52742153626E+01  0.82378966986E+01  0.18147651061E+02  0.51100000000E-03 0.  1.
         12    1    4    4    0    0 -0.97813364231E+01  0.16913140589E+01  0.14724391814E+02  0.17757894013E+02  0.00000000000E+00 0. -1.
</event>
<event>
 8    1  0.6524083E-011  0.9118800E+02  0.7816164E-02  0.1184000E+00
        -11   -1    0    0    0    0  0.00000000000E+00  0.00000000000E+00  0.45593999997E+02  0.45594000000E+02  0.51100000000E-03 0.  1.
         11   -1    0    0    0    0 -0.00000000000E+00 -0.00000000000E+00 -0.45593999997E+02  0.45594000000E+02  0.51100000000E-03 0. -1.
         23    2    1    2    0    0  0.00000000000E+00  0.00000000000E+00  0.00000000000E+00  0.91188000000E+02  0.91188000000E+02 0.  0.
    9900012    2    3    3    0    0 -0.15493592129E+02  0.39682633615E+02 -0.82982538130E+01  0.47787264706E+02  0.19999971101E+02 0.  0.
         12    1    3    3    0    0  0.15493592129E+02 -0.39682633615E+02  0.82982538130E+01  0.43400735294E+02  0.00000000000E+00 0. -1.
         11    1    4    4    0    0 -0.49227688117E+01  0.20013428794E+02  0.82945840158E+00  0.20626657178E+02  0.51100000000E-03 0.  1.
        -11    1    4    4    0    0 -0.11515357631E+02  0.20981066928E+02 -0.88671561889E+01  0.25523226480E+02  0.51100000000E-03 0. -1.
         12    1    4    4    0    0  0.94453431350E+00 -0.13118621059E+01 -0.26055602571E+00  0.16373810482E+01  0.00000000000E+00 0. -1.
</event>
<event>
 8    1  0.6524083E-011  0.9118800E+02  0.7816164E-02  0.1184000E+00
        -11   -1    0    0    0    0  0.00000000000E+00  0.00000000000E+00  0.45593999997E+02  0.45594000000E+02  0.51100000000E-03 0. -1.
         11   -1    0    0    0    0 -0.00000000000E+00 -0.00000000000E+00 -0.45593999997E+02  0.45594000000E+02  0.51100000000E-03 0.  1.
         23    2    1    2    0    0  0.00000000000E+00 -0.35527136788E-14  0.00000000000E+00  0.91188000000E+02  0.91188000000E+02 0.  0.
    9900012    2    3    3    0    0 -0.14517455627E+02 -0.26057455880E+02  0.31525797954E+02  0.47787268883E+02  0.19999990146E+02 0.  0.
        -12    1    3    3    0    0  0.14517455627E+02  0.26057455880E+02 -0.31525797954E+02  0.43400731117E+02  0.00000000000E+00 0.  1.
         11    1    4    4    0    0 -0.58734275686E+01 -0.13159175411E+02  0.13195738296E+02  0.19539410389E+02  0.51100000000E-03 0. -1.
        -11    1    4    4    0    0 -0.15944816137E+01 -0.14011712275E+02  0.10052083023E+02  0.17318049135E+02  0.51100000000E-03 0.  1.
         12    1    4    4    0    0 -0.70495464452E+01  0.11134318050E+01  0.82779766350E+01  0.10929809360E+02  0.00000000000E+00 0. -1.
</event>
<event>
 8    1  0.6524083E-011  0.9118800E+02  0.7816164E-02  0.1184000E+00
        -11   -1    0    0    0    0  0.00000000000E+00  0.00000000000E+00  0.45593999997E+02  0.45594000000E+02  0.51100000000E-03 0. -1.
         11   -1    0    0    0    0 -0.00000000000E+00 -0.00000000000E+00 -0.45593999997E+02  0.45594000000E+02  0.51100000000E-03 0.  1.
         23    2    1    2    0    0  0.00000000000E+00 -0.35527136788E-14  0.00000000000E+00  0.91188000000E+02  0.91188000000E+02 0.  0.
    9900012    2    3    3    0    0 -0.59851598751E+01 -0.14864858177E+02  0.40334067580E+02  0.47787272415E+02  0.20000006250E+02 0.  0.
        -12    1    3    3    0    0  0.59851598751E+01  0.14864858177E+02 -0.40334067580E+02  0.43400727585E+02  0.00000000000E+00 0.  1.
         11    1    4    4    0    0 -0.38695504189E+01 -0.11746168177E+02  0.20928343895E+02  0.24309287643E+02  0.51100000000E-03 0. -1.
        -11    1    4    4    0    0  0.51172837829E+01 -0.28928120226E+01  0.72785032277E+01  0.93558304928E+01  0.51100000000E-03 0.  1.
         12    1    4    4    0    0 -0.72328932391E+01 -0.22587797786E+00  0.12127220457E+02  0.14122154279E+02  0.00000000000E+00 0. -1.
</event>
<event>
 8    1  0.6524083E-011  0.9118800E+02  0.7816164E-02  0.1184000E+00
        -11   -1    0    0    0    0  0.00000000000E+00  0.00000000000E+00  0.45593999997E+02  0.45594000000E+02  0.51100000000E-03 0. -1.
         11   -1    0    0    0    0 -0.00000000000E+00 -0.00000000000E+00 -0.45593999997E+02  0.45594000000E+02  0.51100000000E-03 0.  1.
         23    2    1    2    0    0 -0.88817841970E-15  0.00000000000E+00  0.00000000000E+00  0.91188000000E+02  0.91188000000E+02 0.  0.
    9900012    2    3    3    0    0 -0.32098677272E+01 -0.27914955963E+02  0.33076815867E+02  0.47787265384E+02  0.19999974194E+02 0.  0.
        -12    1    3    3    0    0  0.32098677272E+01  0.27914955963E+02 -0.33076815867E+02  0.43400734616E+02  0.00000000000E+00 0.  1.
         11    1    4    4    0    0 -0.40768286173E+01 -0.20474264599E+02  0.19461322732E+02  0.28540482217E+02  0.51100000000E-03 0. -1.
        -11    1    4    4    0    0 -0.40253157166E+01 -0.18539396342E+01  0.90084181513E+00  0.45223638755E+01  0.51100000000E-03 0.  1.
         12    1    4    4    0    0  0.48922766068E+01 -0.55867517298E+01  0.12714651320E+02  0.14724419292E+02  0.00000000000E+00 0. -1.
</event>
<event>
 8    1  0.6524083E-011  0.9118800E+02  0.7816164E-02  0.1184000E+00
        -11   -1    0    0    0    0  0.00000000000E+00  0.00000000000E+00  0.45593999997E+02  0.45594000000E+02  0.51100000000E-03 0. -1.
         11   -1    0    0    0    0 -0.00000000000E+00 -0.00000000000E+00 -0.45593999997E+02  0.45594000000E+02  0.51100000000E-03 0.  1.
         23    2    1    2    0    0  0.00000000000E+00  0.00000000000E+00  0.00000000000E+00  0.91188000000E+02  0.91188000000E+02 0.  0.
    9900012    2    3    3    0    0 -0.17891581072E+02  0.36776734544E+02  0.14525360899E+02  0.47787274359E+02  0.20000015111E+02 0.  0.
        -12    1    3    3    0    0  0.17891581072E+02 -0.36776734544E+02 -0.14525360899E+02  0.43400725641E+02  0.00000000000E+00 0.  1.
         11    1    4    4    0    0  0.11570214193E+01  0.70963937752E+01  0.21632390658E+01  0.75084689980E+01  0.51100000000E-03 0. -1.
        -11    1    4    4    0    0 -0.18285891175E+01  0.16225260986E+02  0.70755915031E+01  0.17795134942E+02  0.51100000000E-03 0.  1.
        -12    1    4    4    0    0 -0.17220013374E+02  0.13455079782E+02  0.52865303299E+01  0.22483670418E+02  0.00000000000E+00 0.  1.
</event>
<event>
 8    1  0.6524083E-011  0.9118800E+02  0.7816164E-02  0.1184000E+00
        -11   -1    0    0    0    0  0.00000000000E+00  0.00000000000E+00  0.45593999997E+02  0.45594000000E+02  0.51100000000E-03 0. -1.
         11   -1    0    0    0    0 -0.00000000000E+00 -0.00000000000E+00 -0.45593999997E+02  0.45594000000E+02  0.51100000000E-03 0.  1.
         23    2    1    2    0    0  0.17763568394E-14  0.71054273576E-14  0.35527136788E-14  0.91188000000E+02  0.91188000000E+02 0.  0.
    9900012    2    3    3    0    0  0.12565563696E+02 -0.35392666550E+02 -0.21750607856E+02  0.47787272142E+02  0.20000005004E+02 0.  0.
         12    1    3    3    0    0 -0.12565563696E+02  0.35392666550E+02  0.21750607856E+02  0.43400727858E+02  0.00000000000E+00 0. -1.
         11    1    4    4    0    0  0.34461415089E+01 -0.19410002401E+00 -0.41989004395E+01  0.54354697387E+01  0.51100000000E-03 0. -1.
        -11    1    4    4    0    0 -0.20139397952E+01 -0.16157762930E+02 -0.96195136021E+01  0.18912014662E+02  0.51100000000E-03 0.  1.
         12    1    4    4    0    0  0.11133361982E+02 -0.19040803596E+02 -0.79321938142E+01  0.23439787741E+02  0.00000000000E+00 0. -1.
</event>
<event>
 8    1  0.6524083E-011  0.9118800E+02  0.7816164E-02  0.1184000E+00
        -11   -1    0    0    0    0  0.00000000000E+00  0.00000000000E+00  0.45593999997E+02  0.45594000000E+02  0.51100000000E-03 0. -1.
         11   -1    0    0    0    0 -0.00000000000E+00 -0.00000000000E+00 -0.45593999997E+02  0.45594000000E+02  0.51100000000E-03 0.  1.
         23    2    1    2    0    0  0.00000000000E+00  0.22204460493E-15 -0.71054273576E-14  0.91188000000E+02  0.91188000000E+02 0.  0.
    9900012    2    3    3    0    0 -0.23065621973E+02  0.78127477180E+00  0.36755811313E+02  0.47787274516E+02  0.20000015829E+02 0.  0.
        -12    1    3    3    0    0  0.23065621973E+02 -0.78127477180E+00 -0.36755811313E+02  0.43400725484E+02  0.00000000000E+00 0.  1.
         11    1    4    4    0    0 -0.14068777710E+02  0.13678399272E+01  0.32731915313E+02  0.35653608129E+02  0.51100000000E-03 0. -1.
        -11    1    4    4    0    0  0.85270841343E+00  0.87379682524E+00 -0.33215997825E+00  0.12652916827E+01  0.51100000000E-03 0.  1.
         12    1    4    4    0    0 -0.98495526756E+01 -0.14603619806E+01  0.43560559782E+01  0.10868374704E+02  0.00000000000E+00 0. -1.
</event>
<event>
 8    1  0.6524083E-011  0.9118800E+02  0.7816164E-02  0.1184000E+00
        -11   -1    0    0    0    0  0.00000000000E+00  0.00000000000E+00  0.45593999997E+02  0.45594000000E+02  0.51100000000E-03 0. -1.
         11   -1    0    0    0    0 -0.00000000000E+00 -0.00000000000E+00 -0.45593999997E+02  0.45594000000E+02  0.51100000000E-03 0.  1.
         23    2    1    2    0    0  0.00000000000E+00 -0.71054273576E-14  0.00000000000E+00  0.91188000000E+02  0.91188000000E+02 0.  0.
    9900012    2    3    3    0    0 -0.65066074767E+01 -0.36140117037E+02 -0.23133922673E+02  0.47787281359E+02  0.20000047028E+02 0.  0.
         12    1    3    3    0    0  0.65066074767E+01  0.36140117037E+02  0.23133922673E+02  0.43400718641E+02  0.00000000000E+00 0. -1.
         11    1    4    4    0    0  0.26872486826E+01 -0.10214190818E+02 -0.13278393148E+02  0.16966635624E+02  0.51100000000E-03 0. -1.
        -11    1    4    4    0    0 -0.40658629285E+00  0.13429508081E+00 -0.22446290793E+01  0.22851055877E+01  0.51100000000E-03 0.  1.
        -12    1    4    4    0    0 -0.87872698664E+01 -0.26060221300E+02 -0.76109004464E+01  0.28535540148E+02  0.00000000000E+00 0.  1.
</event>
<event>
 8    1  0.6524083E-011  0.9118800E+02  0.7816164E-02  0.1184000E+00
        -11   -1    0    0    0    0  0.00000000000E+00  0.00000000000E+00  0.45593999997E+02  0.45594000000E+02  0.51100000000E-03 0.  1.
         11   -1    0    0    0    0 -0.00000000000E+00 -0.00000000000E+00 -0.45593999997E+02  0.45594000000E+02  0.51100000000E-03 0. -1.
         23    2    1    2    0    0  0.00000000000E+00  0.00000000000E+00  0.88817841970E-15  0.91188000000E+02  0.91188000000E+02 0.  0.
    9900012    2    3    3    0    0  0.54217421710E+01  0.42566771203E+02  0.65036955562E+01  0.47787270113E+02  0.19999995754E+02 0.  0.
        -12    1    3    3    0    0 -0.54217421710E+01 -0.42566771203E+02 -0.65036955562E+01  0.43400729887E+02  0.00000000000E+00 0.  1.
         11    1    4    4    0    0  0.21084646129E+01  0.86265358960E+01  0.89998316105E+01  0.12643564128E+02  0.51100000000E-03 0.  1.
        -11    1    4    4    0    0 -0.33044896040E+00  0.85516220574E+01 -0.40087916142E+01  0.94503887113E+01  0.51100000000E-03 0. -1.
        -12    1    4    4    0    0  0.36437265185E+01  0.25388613250E+02  0.15126555599E+01  0.25693317274E+02  0.00000000000E+00 0.  1.
</event>
<event>
 8    1  0.6524083E-011  0.9118800E+02  0.7816164E-02  0.1184000E+00
        -11   -1    0    0    0    0  0.00000000000E+00  0.00000000000E+00  0.45593999997E+02  0.45594000000E+02  0.51100000000E-03 0. -1.
         11   -1    0    0    0    0 -0.00000000000E+00 -0.00000000000E+00 -0.45593999997E+02  0.45594000000E+02  0.51100000000E-03 0.  1.
         23    2    1    2    0    0  0.44408920985E-15  0.00000000000E+00 -0.71054273576E-14  0.91188000000E+02  0.91188000000E+02 0.  0.
    9900012    2    3    3    0    0 -0.13719645609E+01  0.14685808443E+02  0.40817497079E+02  0.47787270465E+02  0.19999997358E+02 0.  0.
        -12    1    3    3    0    0  0.13719645609E+01 -0.14685808443E+02 -0.40817497079E+02  0.43400729535E+02  0.00000000000E+00 0.  1.
         11    1    4    4    0    0  0.30677127794E+01  0.21684504708E+01  0.53004071256E+01  0.64967187948E+01  0.51100000000E-03 0. -1.
        -11    1    4    4    0    0 -0.10471397095E+02  0.81677981211E+01  0.26164586718E+02  0.29341927027E+02  0.51100000000E-03 0.  1.
        -12    1    4    4    0    0  0.60317197544E+01  0.43495598509E+01  0.93525032355E+01  0.11948624643E+02  0.00000000000E+00 0.  1.
</event>
<event>
 8    1  0.6524083E-011  0.9118800E+02  0.7816164E-02  0.1184000E+00
        -11   -1    0    0    0    0  0.00000000000E+00  0.00000000000E+00  0.45593999997E+02  0.45594000000E+02  0.51100000000E-03 0. -1.
         11   -1    0    0    0    0 -0.00000000000E+00 -0.00000000000E+00 -0.45593999997E+02  0.45594000000E+02  0.51100000000E-03 0.  1.
         23    2    1    2    0    0  0.00000000000E+00 -0.88817841970E-15 -0.71054273576E-14  0.91188000000E+02  0.91188000000E+02 0.  0.
    9900012    2    3    3    0    0 -0.46490866988E+01 -0.41239210810E+01 -0.42953491701E+02  0.47787272108E+02  0.20000004850E+02 0.  0.
         12    1    3    3    0    0  0.46490866988E+01  0.41239210810E+01  0.42953491701E+02  0.43400727892E+02  0.00000000000E+00 0. -1.
         11    1    4    4    0    0 -0.27780644675E+00  0.18985217439E+00 -0.47803166824E+01  0.47921444172E+01  0.51100000000E-03 0. -1.
        -11    1    4    4    0    0  0.73818961615E+01 -0.97568037159E+00 -0.16799772304E+02  0.18375981412E+02  0.51100000000E-03 0.  1.
         12    1    4    4    0    0 -0.11753176413E+02 -0.33380928838E+01 -0.21373402715E+02  0.24619146279E+02  0.00000000000E+00 0. -1.
</event>
<event>
 8    1  0.6524083E-011  0.9118800E+02  0.7816164E-02  0.1184000E+00
        -11   -1    0    0    0    0  0.00000000000E+00  0.00000000000E+00  0.45593999997E+02  0.45594000000E+02  0.51100000000E-03 0. -1.
         11   -1    0    0    0    0 -0.00000000000E+00 -0.00000000000E+00 -0.45593999997E+02  0.45594000000E+02  0.51100000000E-03 0.  1.
         23    2    1    2    0    0  0.00000000000E+00  0.00000000000E+00  0.00000000000E+00  0.91188000000E+02  0.91188000000E+02 0.  0.
    9900012    2    3    3    0    0  0.23247449923E+02 -0.32202219690E+02  0.17498477807E+02  0.47787267213E+02  0.19999982532E+02 0.  0.
        -12    1    3    3    0    0 -0.23247449923E+02  0.32202219690E+02 -0.17498477807E+02  0.43400732787E+02  0.00000000000E+00 0.  1.
         11    1    4    4    0    0  0.44245652181E+01 -0.92959191871E+01  0.76011887479E+01  0.12797224759E+02  0.51100000000E-03 0. -1.
        -11    1    4    4    0    0  0.88874853084E+01 -0.12994917327E+02 -0.28873242087E+01  0.16005996151E+02  0.51100000000E-03 0.  1.
        -12    1    4    4    0    0  0.99353993962E+01 -0.99113831759E+01  0.12784613267E+02  0.18984046303E+02  0.00000000000E+00 0.  1.
</event>
<event>
 8    1  0.6524083E-011  0.9118800E+02  0.7816164E-02  0.1184000E+00
        -11   -1    0    0    0    0  0.00000000000E+00  0.00000000000E+00  0.45593999997E+02  0.45594000000E+02  0.51100000000E-03 0. -1.
         11   -1    0    0    0    0 -0.00000000000E+00 -0.00000000000E+00 -0.45593999997E+02  0.45594000000E+02  0.51100000000E-03 0.  1.
         23    2    1    2    0    0  0.00000000000E+00  0.26645352591E-14  0.00000000000E+00  0.91188000000E+02  0.91188000000E+02 0.  0.
    9900012    2    3    3    0    0  0.78806513360E+01 -0.79199251760E+01  0.41937972005E+02  0.47787269866E+02  0.19999994627E+02 0.  0.
        -12    1    3    3    0    0 -0.78806513360E+01  0.79199251760E+01 -0.41937972005E+02  0.43400730134E+02  0.00000000000E+00 0.  1.
         11    1    4    4    0    0 -0.23909099071E+01 -0.11200985049E+02  0.17025964724E+02  0.20519795109E+02  0.51100000000E-03 0.  1.
        -11    1    4    4    0    0  0.34910602902E+01  0.15672888265E+00  0.99592182131E+01  0.10554529529E+02  0.51100000000E-03 0. -1.
        -12    1    4    4    0    0  0.67805009530E+01  0.31243309903E+01  0.14952789068E+02  0.16712945228E+02  0.00000000000E+00 0.  1.
</event>
<event>
 8    1  0.6524083E-011  0.9118800E+02  0.7816164E-02  0.1184000E+00
        -11   -1    0    0    0    0  0.00000000000E+00  0.00000000000E+00  0.45593999997E+02  0.45594000000E+02  0.51100000000E-03 0. -1.
         11   -1    0    0    0    0 -0.00000000000E+00 -0.00000000000E+00 -0.45593999997E+02  0.45594000000E+02  0.51100000000E-03 0.  1.
         23    2    1    2    0    0  0.35527136788E-14 -0.71054273576E-14  0.00000000000E+00  0.91188000000E+02  0.91188000000E+02 0.  0.
    9900012    2    3    3    0    0  0.24954428616E+02 -0.35107902281E+02  0.53230617453E+01  0.47787270784E+02  0.19999998811E+02 0.  0.
         12    1    3    3    0    0 -0.24954428616E+02  0.35107902281E+02 -0.53230617453E+01  0.43400729216E+02  0.00000000000E+00 0. -1.
         11    1    4    4    0    0  0.12953647800E+02 -0.13727438581E+02  0.16025972747E+01  0.18942224779E+02  0.51100000000E-03 0. -1.
        -11    1    4    4    0    0 -0.72132236998E+00 -0.78276456335E+01 -0.38757866081E+01  0.87643633093E+01  0.51100000000E-03 0.  1.
        -12    1    4    4    0    0  0.12722103187E+02 -0.13552818067E+02  0.75962510787E+01  0.20080682695E+02  0.00000000000E+00 0.  1.
</event>
<event>
 8    1  0.6524083E-011  0.9118800E+02  0.7816164E-02  0.1184000E+00
        -11   -1    0    0    0    0  0.00000000000E+00  0.00000000000E+00  0.45593999997E+02  0.45594000000E+02  0.51100000000E-03 0. -1.
         11   -1    0    0    0    0 -0.00000000000E+00 -0.00000000000E+00 -0.45593999997E+02  0.45594000000E+02  0.51100000000E-03 0.  1.
         23    2    1    2    0    0  0.00000000000E+00  0.00000000000E+00  0.00000000000E+00  0.91188000000E+02  0.91188000000E+02 0.  0.
    9900012    2    3    3    0    0  0.26155171891E+02  0.50863798586E+01 -0.34258704539E+02  0.47787272893E+02  0.20000008429E+02 0.  0.
         12    1    3    3    0    0 -0.26155171891E+02 -0.50863798586E+01  0.34258704539E+02  0.43400727107E+02  0.00000000000E+00 0. -1.
         11    1    4    4    0    0  0.38744558271E+01 -0.47919057615E+01 -0.31329082642E+01  0.69129504002E+01  0.51100000000E-03 0. -1.
        -11    1    4    4    0    0  0.15034838471E+02  0.21106370385E+01 -0.22731503334E+02  0.27335369042E+02  0.51100000000E-03 0.  1.
        -12    1    4    4    0    0  0.72458775928E+01  0.77676485815E+01 -0.83942929404E+01  0.13538953451E+02  0.00000000000E+00 0.  1.
</event>
<event>
 8    1  0.6524083E-011  0.9118800E+02  0.7816164E-02  0.1184000E+00
        -11   -1    0    0    0    0  0.00000000000E+00  0.00000000000E+00  0.45593999997E+02  0.45594000000E+02  0.51100000000E-03 0. -1.
         11   -1    0    0    0    0 -0.00000000000E+00 -0.00000000000E+00 -0.45593999997E+02  0.45594000000E+02  0.51100000000E-03 0.  1.
         23    2    1    2    0    0  0.00000000000E+00  0.00000000000E+00  0.71054273576E-14  0.91188000000E+02  0.91188000000E+02 0.  0.
    9900012    2    3    3    0    0  0.19014768049E+02 -0.55560237589E+01  0.38615960167E+02  0.47787272084E+02  0.20000004742E+02 0.  0.
        -12    1    3    3    0    0 -0.19014768049E+02  0.55560237589E+01 -0.38615960167E+02  0.43400727916E+02  0.00000000000E+00 0.  1.
         11    1    4    4    0    0  0.17544717332E+01  0.10694865335E+01 -0.20267997570E+00  0.20647159470E+01  0.51100000000E-03 0. -1.
        -11    1    4    4    0    0  0.59456232102E+01 -0.10511118738E+02  0.21772671626E+02  0.24897455341E+02  0.51100000000E-03 0.  1.
        -12    1    4    4    0    0  0.11314673106E+02  0.38856084458E+01  0.17045968517E+02  0.20825100796E+02  0.00000000000E+00 0.  1.
</event>
<event>
 8    1  0.6524083E-011  0.9118800E+02  0.7816164E-02  0.1184000E+00
        -11   -1    0    0    0    0  0.00000000000E+00  0.00000000000E+00  0.45593999997E+02  0.45594000000E+02  0.51100000000E-03 0. -1.
         11   -1    0    0    0    0 -0.00000000000E+00 -0.00000000000E+00 -0.45593999997E+02  0.45594000000E+02  0.51100000000E-03 0.  1.
         23    2    1    2    0    0  0.00000000000E+00  0.00000000000E+00  0.00000000000E+00  0.91188000000E+02  0.91188000000E+02 0.  0.
    9900012    2    3    3    0    0 -0.35492327215E+02  0.19675323875E+02  0.15388296058E+02  0.47787270556E+02  0.19999997773E+02 0.  0.
        -12    1    3    3    0    0  0.35492327215E+02 -0.19675323875E+02 -0.15388296058E+02  0.43400729444E+02  0.00000000000E+00 0.  1.
         11    1    4    4    0    0 -0.14890776349E+02  0.16771266552E+02  0.11944112989E+02  0.25410085348E+02  0.51100000000E-03 0. -1.
        -11    1    4    4    0    0 -0.34196254667E+01  0.17224471888E+01 -0.19933037597E+01  0.43167027684E+01  0.51100000000E-03 0.  1.
         12    1    4    4    0    0 -0.17181925399E+02  0.11816101339E+01  0.54374868287E+01  0.18060482440E+02  0.00000000000E+00 0. -1.
</event>
<event>
 8    1  0.6524083E-011  0.9118800E+02  0.7816164E-02  0.1184000E+00
        -11   -1    0    0    0    0  0.00000000000E+00  0.00000000000E+00  0.45593999997E+02  0.45594000000E+02  0.51100000000E-03 0. -1.
         11   -1    0    0    0    0 -0.00000000000E+00 -0.00000000000E+00 -0.45593999997E+02  0.45594000000E+02  0.51100000000E-03 0.  1.
         23    2    1    2    0    0  0.00000000000E+00  0.00000000000E+00  0.00000000000E+00  0.91188000000E+02  0.91188000000E+02 0.  0.
    9900012    2    3    3    0    0  0.24730508671E+02  0.19355750525E+02 -0.29956292931E+02  0.47787278535E+02  0.20000034153E+02 0.  0.
         12    1    3    3    0    0 -0.24730508671E+02 -0.19355750525E+02  0.29956292931E+02  0.43400721465E+02  0.00000000000E+00 0. -1.
         11    1    4    4    0    0  0.12251411414E+02  0.17082636191E+02 -0.10071929993E+02  0.23310026060E+02  0.51100000000E-03 0. -1.
        -11    1    4    4    0    0 -0.57031697742E+00 -0.51949514835E+00 -0.21400615201E+01  0.22748626848E+01  0.51100000000E-03 0.  1.
         12    1    4    4    0    0  0.13049414235E+02  0.27926094823E+01 -0.17744301418E+02  0.22202389790E+02  0.00000000000E+00 0. -1.
</event>
<event>
 8    1  0.8654136E-011  0.9118800E+02  0.7816164E-02  0.1184000E+00
        -11   -1    0    0    0    0  0.00000000000E+00  0.00000000000E+00  0.45593999997E+02  0.45594000000E+02  0.51100000000E-03 0. -1.
         11   -1    0    0    0    0 -0.00000000000E+00 -0.00000000000E+00 -0.45593999997E+02  0.45594000000E+02  0.51100000000E-03 0.  1.
         23    2    1    2    0    0 -0.33306690739E-15  0.00000000000E+00  0.00000000000E+00  0.91188000000E+02  0.91188000000E+02 0.  0.
    9900012    2    3    3    0    0  0.54238646640E+00 -0.32488717488E+02 -0.28771727369E+02  0.47787271401E+02  0.20000001628E+02 0.  0.
         12    1    3    3    0    0 -0.54238646640E+00  0.32488717488E+02  0.28771727369E+02  0.43400728599E+02  0.00000000000E+00 0. -1.
         11    1    4    4    0    0 -0.43123586600E+01 -0.48949625036E+01 -0.95919461856E+01  0.11600108922E+02  0.51100000000E-03 0. -1.
        -11    1    4    4    0    0  0.78098920792E+01 -0.15005838473E+02 -0.14969444493E+02  0.22588799686E+02  0.51100000000E-03 0.  1.
         12    1    4    4    0    0 -0.29551469527E+01 -0.12587916511E+02 -0.42103366910E+01  0.13598362793E+02  0.00000000000E+00 0. -1.
</event>
<event>
 8    1  0.6524083E-011  0.9118800E+02  0.7816164E-02  0.1184000E+00
        -11   -1    0    0    0    0  0.00000000000E+00  0.00000000000E+00  0.45593999997E+02  0.45594000000E+02  0.51100000000E-03 0. -1.
         11   -1    0    0    0    0 -0.00000000000E+00 -0.00000000000E+00 -0.45593999997E+02  0.45594000000E+02  0.51100000000E-03 0.  1.
         23    2    1    2    0    0  0.00000000000E+00  0.35527136788E-14  0.35527136788E-14  0.91188000000E+02  0.91188000000E+02 0.  0.
    9900012    2    3    3    0    0 -0.11190272909E+02  0.31498368772E+02  0.27681290120E+02  0.47787271138E+02  0.20000000424E+02 0.  0.
        -12    1    3    3    0    0  0.11190272909E+02 -0.31498368772E+02 -0.27681290120E+02  0.43400728862E+02  0.00000000000E+00 0.  1.
         11    1    4    4    0    0 -0.10001307946E+02  0.24857405291E+02  0.29853419620E+02  0.40114129950E+02  0.51100000000E-03 0. -1.
        -11    1    4    4    0    0  0.25870978441E+00 -0.19172311405E+00 -0.30497102693E+00  0.44350433300E+00  0.51100000000E-03 0.  1.
         12    1    4    4    0    0 -0.14476747475E+01  0.68326865950E+01 -0.18671584725E+01  0.72296368540E+01  0.00000000000E+00 0. -1.
</event>
<event>
 8    1  0.6524083E-011  0.9118800E+02  0.7816164E-02  0.1184000E+00
        -11   -1    0    0    0    0  0.00000000000E+00  0.00000000000E+00  0.45593999997E+02  0.45594000000E+02  0.51100000000E-03 0. -1.
         11   -1    0    0    0    0 -0.00000000000E+00 -0.00000000000E+00 -0.45593999997E+02  0.45594000000E+02  0.51100000000E-03 0.  1.
         23    2    1    2    0    0  0.00000000000E+00  0.00000000000E+00  0.00000000000E+00  0.91188000000E+02  0.91188000000E+02 0.  0.
    9900012    2    3    3    0    0 -0.32331037538E+02 -0.18635988852E+02  0.22159060679E+02  0.47787308313E+02  0.20000169920E+02 0.  0.
        -12    1    3    3    0    0  0.32331037538E+02  0.18635988852E+02 -0.22159060679E+02  0.43400691687E+02  0.00000000000E+00 0.  1.
         11    1    4    4    0    0 -0.52068240450E+01  0.37795937702E+00  0.72267135172E+01  0.89151140457E+01  0.51100000000E-03 0.  1.
        -11    1    4    4    0    0  0.88771259909E+00  0.10521565761E+01  0.17540098165E+00  0.13877438109E+01  0.51100000000E-03 0. -1.
         12    1    4    4    0    0 -0.28011926092E+02 -0.20066104805E+02  0.14756946181E+02  0.37484450456E+02  0.00000000000E+00 0. -1.
</event>
<event>
 8    1  0.6524083E-011  0.9118800E+02  0.7816164E-02  0.1184000E+00
        -11   -1    0    0    0    0  0.00000000000E+00  0.00000000000E+00  0.45593999997E+02  0.45594000000E+02  0.51100000000E-03 0. -1.
         11   -1    0    0    0    0 -0.00000000000E+00 -0.00000000000E+00 -0.45593999997E+02  0.45594000000E+02  0.51100000000E-03 0.  1.
         23    2    1    2    0    0  0.00000000000E+00  0.00000000000E+00  0.00000000000E+00  0.91188000000E+02  0.91188000000E+02 0.  0.
    9900012    2    3    3    0    0  0.17954795971E+02  0.35393845044E+02 -0.17564866055E+02  0.47787268613E+02  0.19999988914E+02 0.  0.
         12    1    3    3    0    0 -0.17954795971E+02 -0.35393845044E+02  0.17564866055E+02  0.43400731387E+02  0.00000000000E+00 0. -1.
         11    1    4    4    0    0  0.68486955618E+01  0.11952137636E+02  0.28729986007E+01  0.14071685975E+02  0.51100000000E-03 0. -1.
        -11    1    4    4    0    0  0.52304363743E+01  0.14037798955E+02 -0.77548752093E+01  0.16868768596E+02  0.51100000000E-03 0.  1.
        -12    1    4    4    0    0  0.58756640354E+01  0.94039084529E+01 -0.12682989447E+02  0.16846814042E+02  0.00000000000E+00 0.  1.
</event>
<event>
 8    1  0.6524083E-011  0.9118800E+02  0.7816164E-02  0.1184000E+00
        -11   -1    0    0    0    0  0.00000000000E+00  0.00000000000E+00  0.45593999997E+02  0.45594000000E+02  0.51100000000E-03 0. -1.
         11   -1    0    0    0    0 -0.00000000000E+00 -0.00000000000E+00 -0.45593999997E+02  0.45594000000E+02  0.51100000000E-03 0.  1.
         23    2    1    2    0    0  0.17763568394E-14  0.00000000000E+00  0.00000000000E+00  0.91188000000E+02  0.91188000000E+02 0.  0.
    9900012    2    3    3    0    0 -0.12177294665E+02 -0.82229575400E+01  0.40837721609E+02  0.47787273712E+02  0.20000012164E+02 0.  0.
        -12    1    3    3    0    0  0.12177294665E+02  0.82229575400E+01 -0.40837721609E+02  0.43400726288E+02  0.00000000000E+00 0.  1.
         11    1    4    4    0    0 -0.93352149063E+01 -0.83005865595E+00  0.17813041513E+02  0.20128081948E+02  0.51100000000E-03 0. -1.
        -11    1    4    4    0    0  0.19439590379E+01  0.51434359679E-01  0.16623278529E+02  0.16736636805E+02  0.51100000000E-03 0.  1.
        -12    1    4    4    0    0 -0.47860387965E+01 -0.74443332438E+01  0.64014015676E+01  0.10922554959E+02  0.00000000000E+00 0.  1.
</event>
<event>
 8    1  0.6524083E-011  0.9118800E+02  0.7816164E-02  0.1184000E+00
        -11   -1    0    0    0    0  0.00000000000E+00  0.00000000000E+00  0.45593999997E+02  0.45594000000E+02  0.51100000000E-03 0. -1.
         11   -1    0    0    0    0 -0.00000000000E+00 -0.00000000000E+00 -0.45593999997E+02  0.45594000000E+02  0.51100000000E-03 0.  1.
         23    2    1    2    0    0  0.00000000000E+00 -0.17763568394E-14 -0.71054273576E-14  0.91188000000E+02  0.91188000000E+02 0.  0.
    9900012    2    3    3    0    0 -0.74608801414E+01 -0.94503186726E+01 -0.41697123944E+02  0.47787269584E+02  0.19999993340E+02 0.  0.
         12    1    3    3    0    0  0.74608801414E+01  0.94503186726E+01  0.41697123944E+02  0.43400730416E+02  0.00000000000E+00 0. -1.
         11    1    4    4    0    0 -0.54889197020E+01 -0.62985221388E+01 -0.48425750750E+01  0.96566119445E+01  0.51100000000E-03 0.  1.
        -11    1    4    4    0    0 -0.25145154609E+01  0.26631525841E+01 -0.10033240377E+02  0.10680874609E+02  0.51100000000E-03 0. -1.
         12    1    4    4    0    0  0.54255502148E+00 -0.58149491179E+01 -0.26821308492E+02  0.27449783030E+02  0.00000000000E+00 0. -1.
</event>
<event>
 8    1  0.6524083E-011  0.9118800E+02  0.7816164E-02  0.1184000E+00
        -11   -1    0    0    0    0  0.00000000000E+00  0.00000000000E+00  0.45593999997E+02  0.45594000000E+02  0.51100000000E-03 0.  1.
         11   -1    0    0    0    0 -0.00000000000E+00 -0.00000000000E+00 -0.45593999997E+02  0.45594000000E+02  0.51100000000E-03 0. -1.
         23    2    1    2    0    0 -0.17763568394E-14  0.00000000000E+00  0.00000000000E+00  0.91188000000E+02  0.91188000000E+02 0.  0.
    9900012    2    3    3    0    0  0.12106961664E+02 -0.31654327641E+02  0.27111768319E+02  0.47787274654E+02  0.20000016458E+02 0.  0.
        -12    1    3    3    0    0 -0.12106961664E+02  0.31654327641E+02 -0.27111768319E+02  0.43400725346E+02  0.00000000000E+00 0.  1.
         11    1    4    4    0    0  0.34873828845E+01 -0.10024326038E+01 -0.91874350002E+00  0.37431003711E+01  0.51100000000E-03 0. -1.
        -11    1    4    4    0    0 -0.92622096416E+00 -0.15122108293E+02  0.86850096655E+01  0.17463259652E+02  0.51100000000E-03 0.  1.
        -12    1    4    4    0    0  0.95457997441E+01 -0.15529786744E+02  0.19345502154E+02  0.26580914631E+02  0.00000000000E+00 0.  1.
</event>
<event>
 8    1  0.6524083E-011  0.9118800E+02  0.7816164E-02  0.1184000E+00
        -11   -1    0    0    0    0  0.00000000000E+00  0.00000000000E+00  0.45593999997E+02  0.45594000000E+02  0.51100000000E-03 0. -1.
         11   -1    0    0    0    0 -0.00000000000E+00 -0.00000000000E+00 -0.45593999997E+02  0.45594000000E+02  0.51100000000E-03 0.  1.
         23    2    1    2    0    0  0.00000000000E+00  0.00000000000E+00  0.35527136788E-14  0.91188000000E+02  0.91188000000E+02 0.  0.
    9900012    2    3    3    0    0  0.51325889175E+01  0.31399041719E+02  0.29519145698E+02  0.47787271290E+02  0.20000001119E+02 0.  0.
        -12    1    3    3    0    0 -0.51325889175E+01 -0.31399041719E+02 -0.29519145698E+02  0.43400728710E+02  0.00000000000E+00 0.  1.
         11    1    4    4    0    0  0.43634865694E+00 -0.52759926614E+00  0.39732014943E+01  0.40317603490E+01  0.51100000000E-03 0. -1.
        -11    1    4    4    0    0  0.43394688539E+01  0.23234855949E+01  0.44676248186E+00  0.49425876037E+01  0.51100000000E-03 0.  1.
        -12    1    4    4    0    0  0.35677140658E+00  0.29603155390E+02  0.25099181721E+02  0.38812923337E+02  0.00000000000E+00 0.  1.
</event>
<event>
 8    1  0.6524083E-011  0.9118800E+02  0.7816164E-02  0.1184000E+00
        -11   -1    0    0    0    0  0.00000000000E+00  0.00000000000E+00  0.45593999997E+02  0.45594000000E+02  0.51100000000E-03 0. -1.
         11   -1    0    0    0    0 -0.00000000000E+00 -0.00000000000E+00 -0.45593999997E+02  0.45594000000E+02  0.51100000000E-03 0.  1.
         23    2    1    2    0    0  0.00000000000E+00  0.17763568394E-14  0.00000000000E+00  0.91188000000E+02  0.91188000000E+02 0.  0.
    9900012    2    3    3    0    0 -0.80228757180E+01 -0.13841798792E+02  0.40344283254E+02  0.47787272819E+02  0.20000008091E+02 0.  0.
        -12    1    3    3    0    0  0.80228757180E+01  0.13841798792E+02 -0.40344283254E+02  0.43400727181E+02  0.00000000000E+00 0.  1.
         11    1    4    4    0    0 -0.25920980655E+01 -0.27818160636E+01 -0.55913952095E+00  0.38431901147E+01  0.51100000000E-03 0. -1.
        -11    1    4    4    0    0  0.35984542164E+00 -0.91428526948E+01  0.17364928583E+02  0.19628091835E+02  0.51100000000E-03 0.  1.
         12    1    4    4    0    0 -0.57906230741E+01 -0.19171300334E+01  0.23538494192E+02  0.24315990870E+02  0.00000000000E+00 0. -1.
</event>
<event>
 8    1  0.6524083E-011  0.9118800E+02  0.7816164E-02  0.1184000E+00
        -11   -1    0    0    0    0  0.00000000000E+00  0.00000000000E+00  0.45593999997E+02  0.45594000000E+02  0.51100000000E-03 0. -1.
         11   -1    0    0    0    0 -0.00000000000E+00 -0.00000000000E+00 -0.45593999997E+02  0.45594000000E+02  0.51100000000E-03 0.  1.
         23    2    1    2    0    0  0.71054273576E-14 -0.17763568394E-14  0.88817841970E-15  0.91188000000E+02  0.91188000000E+02 0.  0.
    9900012    2    3    3    0    0  0.41858988792E+02 -0.97687749559E+01  0.60013175507E+01  0.47787311996E+02  0.20000186715E+02 0.  0.
        -12    1    3    3    0    0 -0.41858988792E+02  0.97687749559E+01 -0.60013175507E+01  0.43400688004E+02  0.00000000000E+00 0.  1.
         11    1    4    4    0    0  0.23972713981E+02 -0.68034818450E+01  0.20191901717E+01  0.25001110176E+02  0.51100000000E-03 0. -1.
        -11    1    4    4    0    0  0.12681118127E+02  0.64235001930E+00 -0.33160806521E+01  0.13123252709E+02  0.51100000000E-03 0.  1.
        -12    1    4    4    0    0  0.52051566837E+01 -0.36076431301E+01  0.72982080312E+01  0.96629491110E+01  0.00000000000E+00 0.  1.
</event>
<event>
 8    1  0.6524083E-011  0.9118800E+02  0.7816164E-02  0.1184000E+00
        -11   -1    0    0    0    0  0.00000000000E+00  0.00000000000E+00  0.45593999997E+02  0.45594000000E+02  0.51100000000E-03 0. -1.
         11   -1    0    0    0    0 -0.00000000000E+00 -0.00000000000E+00 -0.45593999997E+02  0.45594000000E+02  0.51100000000E-03 0.  1.
         23    2    1    2    0    0  0.00000000000E+00  0.35527136788E-14  0.71054273576E-14  0.91188000000E+02  0.91188000000E+02 0.  0.
    9900012    2    3    3    0    0 -0.10102614854E+02 -0.23845544455E+02  0.34827443795E+02  0.47787266613E+02  0.19999979795E+02 0.  0.
        -12    1    3    3    0    0  0.10102614854E+02  0.23845544455E+02 -0.34827443795E+02  0.43400733387E+02  0.00000000000E+00 0.  1.
         11    1    4    4    0    0  0.28341948241E+01 -0.11271022948E+02  0.10510892552E+02  0.15669954726E+02  0.51100000000E-03 0. -1.
        -11    1    4    4    0    0 -0.20660574154E+01  0.19224716002E+01  0.26369749911E+01  0.38623992106E+01  0.51100000000E-03 0.  1.
        -12    1    4    4    0    0 -0.10870752263E+02 -0.14496993106E+02  0.21679576252E+02  0.28254912676E+02  0.00000000000E+00 0.  1.
</event>
<event>
 8    1  0.6524083E-011  0.9118800E+02  0.7816164E-02  0.1184000E+00
        -11   -1    0    0    0    0  0.00000000000E+00  0.00000000000E+00  0.45593999997E+02  0.45594000000E+02  0.51100000000E-03 0. -1.
         11   -1    0    0    0    0 -0.00000000000E+00 -0.00000000000E+00 -0.45593999997E+02  0.45594000000E+02  0.51100000000E-03 0.  1.
         23    2    1    2    0    0  0.00000000000E+00  0.00000000000E+00  0.00000000000E+00  0.91188000000E+02  0.91188000000E+02 0.  0.
    9900012    2    3    3    0    0  0.10677276857E+02  0.82131495235E+01  0.41257275563E+02  0.47787275892E+02  0.20000022103E+02 0.  0.
        -12    1    3    3    0    0 -0.10677276857E+02 -0.82131495235E+01 -0.41257275563E+02  0.43400724108E+02  0.00000000000E+00 0.  1.
         11    1    4    4    0    0  0.92879973180E+01  0.37786120062E+01  0.24330109978E+02  0.26315376772E+02  0.51100000000E-03 0. -1.
        -11    1    4    4    0    0 -0.14796846116E+01 -0.12048779574E+01  0.14609416082E+02  0.14733507253E+02  0.51100000000E-03 0.  1.
        -12    1    4    4    0    0  0.28689641508E+01  0.56394154747E+01  0.23177495032E+01  0.67383918671E+01  0.00000000000E+00 0.  1.
</event>
<event>
 8    1  0.6524083E-011  0.9118800E+02  0.7816164E-02  0.1184000E+00
        -11   -1    0    0    0    0  0.00000000000E+00  0.00000000000E+00  0.45593999997E+02  0.45594000000E+02  0.51100000000E-03 0. -1.
         11   -1    0    0    0    0 -0.00000000000E+00 -0.00000000000E+00 -0.45593999997E+02  0.45594000000E+02  0.51100000000E-03 0.  1.
         23    2    1    2    0    0 -0.88817841970E-15  0.17763568394E-14  0.00000000000E+00  0.91188000000E+02  0.91188000000E+02 0.  0.
    9900012    2    3    3    0    0  0.41842681788E+01 -0.13983178653E+02 -0.40872803156E+02  0.47787269323E+02  0.19999992154E+02 0.  0.
         12    1    3    3    0    0 -0.41842681788E+01  0.13983178653E+02  0.40872803156E+02  0.43400730677E+02  0.00000000000E+00 0. -1.
         11    1    4    4    0    0  0.27068576668E+01 -0.54926641878E+01 -0.17998926675E+02  0.19012043552E+02  0.51100000000E-03 0. -1.
        -11    1    4    4    0    0 -0.22592684632E+01  0.38970379945E+01 -0.53932595250E+01  0.70269799832E+01  0.51100000000E-03 0.  1.
        -12    1    4    4    0    0  0.37366789753E+01 -0.12387552460E+02 -0.17480616956E+02  0.21748245788E+02  0.00000000000E+00 0.  1.
</event>
<event>
 8    1  0.6524083E-011  0.9118800E+02  0.7816164E-02  0.1184000E+00
        -11   -1    0    0    0    0  0.00000000000E+00  0.00000000000E+00  0.45593999997E+02  0.45594000000E+02  0.51100000000E-03 0. -1.
         11   -1    0    0    0    0 -0.00000000000E+00 -0.00000000000E+00 -0.45593999997E+02  0.45594000000E+02  0.51100000000E-03 0.  1.
         23    2    1    2    0    0  0.71054273576E-14 -0.88817841970E-15  0.00000000000E+00  0.91188000000E+02  0.91188000000E+02 0.  0.
    9900012    2    3    3    0    0 -0.28159209513E+02  0.36966675622E+01 -0.32817935435E+02  0.47787270540E+02  0.19999997699E+02 0.  0.
         12    1    3    3    0    0  0.28159209513E+02 -0.36966675622E+01  0.32817935435E+02  0.43400729460E+02  0.00000000000E+00 0. -1.
         11    1    4    4    0    0 -0.18067373572E+02  0.30264699345E+00 -0.21910648724E+02  0.28400670956E+02  0.51100000000E-03 0.  1.
        -11    1    4    4    0    0 -0.64000304615E+01  0.70347967024E+01 -0.30781721702E+01  0.99961942119E+01  0.51100000000E-03 0. -1.
         12    1    4    4    0    0 -0.36918054798E+01 -0.36407761336E+01 -0.78291145409E+01  0.93904053719E+01  0.00000000000E+00 0. -1.
</event>
<event>
 8    1  0.6524083E-011  0.9118800E+02  0.7816164E-02  0.1184000E+00
        -11   -1    0    0    0    0  0.00000000000E+00  0.00000000000E+00  0.45593999997E+02  0.45594000000E+02  0.51100000000E-03 0. -1.
         11   -1    0    0    0    0 -0.00000000000E+00 -0.00000000000E+00 -0.45593999997E+02  0.45594000000E+02  0.51100000000E-03 0.  1.
         23    2    1    2    0    0  0.00000000000E+00 -0.17763568394E-14 -0.71054273576E-14  0.91188000000E+02  0.91188000000E+02 0.  0.
    9900012    2    3    3    0    0 -0.80755655680E+01  0.14096675081E+02 -0.40245397545E+02  0.47787273841E+02  0.20000012751E+02 0.  0.
         12    1    3    3    0    0  0.80755655680E+01 -0.14096675081E+02  0.40245397545E+02  0.43400726159E+02  0.00000000000E+00 0. -1.
         11    1    4    4    0    0 -0.10161341781E+02  0.11926709424E+02 -0.21122445991E+02  0.26299372414E+02  0.51100000000E-03 0. -1.
        -11    1    4    4    0    0  0.20011525805E+01  0.57426776130E+01 -0.13752241907E+02  0.15036858566E+02  0.51100000000E-03 0.  1.
        -12    1    4    4    0    0  0.84623632771E-01 -0.35727119560E+01 -0.53707096471E+01  0.64510428609E+01  0.00000000000E+00 0.  1.
</event>
<event>
 8    1  0.6524083E-011  0.9118800E+02  0.7816164E-02  0.1184000E+00
        -11   -1    0    0    0    0  0.00000000000E+00  0.00000000000E+00  0.45593999997E+02  0.45594000000E+02  0.51100000000E-03 0.  1.
         11   -1    0    0    0    0 -0.00000000000E+00 -0.00000000000E+00 -0.45593999997E+02  0.45594000000E+02  0.51100000000E-03 0. -1.
         23    2    1    2    0    0 -0.71054273576E-14 -0.22204460493E-15  0.00000000000E+00  0.91188000000E+02  0.91188000000E+02 0.  0.
    9900012    2    3    3    0    0  0.43302841848E+02 -0.15426593482E+01  0.24713092814E+01  0.47787270979E+02  0.19999999701E+02 0.  0.
         12    1    3    3    0    0 -0.43302841848E+02  0.15426593482E+01 -0.24713092814E+01  0.43400729021E+02  0.00000000000E+00 0. -1.
         11    1    4    4    0    0  0.18886076605E+02  0.71765809294E+00 -0.69769688111E+01  0.20146389670E+02  0.51100000000E-03 0. -1.
        -11    1    4    4    0    0  0.56498818082E+01 -0.42334082472E+01  0.18505838660E+01  0.72984635876E+01  0.51100000000E-03 0.  1.
        -12    1    4    4    0    0  0.18766883435E+02  0.19730908061E+01  0.75976942265E+01  0.20342417721E+02  0.00000000000E+00 0.  1.
</event>
<event>
 8    1  0.6524083E-011  0.9118800E+02  0.7816164E-02  0.1184000E+00
        -11   -1    0    0    0    0  0.00000000000E+00  0.00000000000E+00  0.45593999997E+02  0.45594000000E+02  0.51100000000E-03 0. -1.
         11   -1    0    0    0    0 -0.00000000000E+00 -0.00000000000E+00 -0.45593999997E+02  0.45594000000E+02  0.51100000000E-03 0.  1.
         23    2    1    2    0    0  0.00000000000E+00  0.00000000000E+00  0.00000000000E+00  0.91188000000E+02  0.91188000000E+02 0.  0.
    9900012    2    3    3    0    0  0.41525002995E+01  0.35846506561E+02  0.24112398733E+02  0.47787273462E+02  0.20000011022E+02 0.  0.
        -12    1    3    3    0    0 -0.41525002995E+01 -0.35846506561E+02 -0.24112398733E+02  0.43400726538E+02  0.00000000000E+00 0.  1.
         11    1    4    4    0    0  0.14698544584E+01  0.18672857655E+02  0.88163066501E+00  0.18751356165E+02  0.51100000000E-03 0. -1.
        -11    1    4    4    0    0  0.69928340909E+00  0.37571924779E+01  0.58941758969E+01  0.70247279212E+01  0.51100000000E-03 0.  1.
         12    1    4    4    0    0  0.19833624320E+01  0.13416456429E+02  0.17336592171E+02  0.22011189376E+02  0.00000000000E+00 0. -1.
</event>
<event>
 8    1  0.6524083E-011  0.9118800E+02  0.7816164E-02  0.1184000E+00
        -11   -1    0    0    0    0  0.00000000000E+00  0.00000000000E+00  0.45593999997E+02  0.45594000000E+02  0.51100000000E-03 0.  1.
         11   -1    0    0    0    0 -0.00000000000E+00 -0.00000000000E+00 -0.45593999997E+02  0.45594000000E+02  0.51100000000E-03 0. -1.
         23    2    1    2    0    0 -0.22204460493E-15  0.00000000000E+00  0.00000000000E+00  0.91188000000E+02  0.91188000000E+02 0.  0.
    9900012    2    3    3    0    0 -0.13064494303E+01 -0.43291174043E+02 -0.27911434192E+01  0.47787273719E+02  0.20000012192E+02 0.  0.
        -12    1    3    3    0    0  0.13064494303E+01  0.43291174043E+02  0.27911434192E+01  0.43400726281E+02  0.00000000000E+00 0.  1.
         11    1    4    4    0    0  0.33620902568E+01 -0.12834574203E+02 -0.61346606411E+01  0.14617250334E+02  0.51100000000E-03 0. -1.
        -11    1    4    4    0    0  0.26330004664E+01 -0.13075954898E+02  0.50013383105E+01  0.14245233347E+02  0.51100000000E-03 0.  1.
        -12    1    4    4    0    0 -0.73015401535E+01 -0.17380644943E+02 -0.16578210886E+01  0.18924790038E+02  0.00000000000E+00 0.  1.
</event>
<event>
 8    1  0.6524083E-011  0.9118800E+02  0.7816164E-02  0.1184000E+00
        -11   -1    0    0    0    0  0.00000000000E+00  0.00000000000E+00  0.45593999997E+02  0.45594000000E+02  0.51100000000E-03 0. -1.
         11   -1    0    0    0    0 -0.00000000000E+00 -0.00000000000E+00 -0.45593999997E+02  0.45594000000E+02  0.51100000000E-03 0.  1.
         23    2    1    2    0    0 -0.71054273576E-14  0.71054273576E-14  0.00000000000E+00  0.91188000000E+02  0.91188000000E+02 0.  0.
    9900012    2    3    3    0    0 -0.26707047274E+02  0.33607940976E+02  0.63924514793E+01  0.47787268363E+02  0.19999987774E+02 0.  0.
        -12    1    3    3    0    0  0.26707047274E+02 -0.33607940976E+02 -0.63924514793E+01  0.43400731637E+02  0.00000000000E+00 0.  1.
         11    1    4    4    0    0 -0.15078007243E+02  0.22993013244E+02  0.38672714196E+01  0.27766540097E+02  0.51100000000E-03 0. -1.
        -11    1    4    4    0    0 -0.67668594152E+01  0.48850761850E+01  0.73244760460E+01  0.11104157117E+02  0.51100000000E-03 0.  1.
        -12    1    4    4    0    0 -0.48621806152E+01  0.57298515473E+01 -0.47992959863E+01  0.89165711489E+01  0.00000000000E+00 0.  1.
</event>
<event>
 8    1  0.6524083E-011  0.9118800E+02  0.7816164E-02  0.1184000E+00
        -11   -1    0    0    0    0  0.00000000000E+00  0.00000000000E+00  0.45593999997E+02  0.45594000000E+02  0.51100000000E-03 0. -1.
         11   -1    0    0    0    0 -0.00000000000E+00 -0.00000000000E+00 -0.45593999997E+02  0.45594000000E+02  0.51100000000E-03 0.  1.
         23    2    1    2    0    0  0.00000000000E+00  0.71054273576E-14  0.00000000000E+00  0.91188000000E+02  0.91188000000E+02 0.  0.
    9900012    2    3    3    0    0  0.24109532981E+02  0.34530058229E+02 -0.10489460443E+02  0.47787270948E+02  0.19999999560E+02 0.  0.
         12    1    3    3    0    0 -0.24109532981E+02 -0.34530058229E+02  0.10489460443E+02  0.43400729052E+02  0.00000000000E+00 0. -1.
         11    1    4    4    0    0  0.15116312056E+02  0.24613404748E+02 -0.10114680281E+01  0.28902346813E+02  0.51100000000E-03 0. -1.
        -11    1    4    4    0    0 -0.18989684174E+01  0.62945116028E+00 -0.86667373272E+00  0.21802324265E+01  0.51100000000E-03 0.  1.
        -12    1    4    4    0    0  0.10892189343E+02  0.92872023201E+01 -0.86113186826E+01  0.16704691708E+02  0.00000000000E+00 0.  1.
</event>
<event>
 8    1  0.6524083E-011  0.9118800E+02  0.7816164E-02  0.1184000E+00
        -11   -1    0    0    0    0  0.00000000000E+00  0.00000000000E+00  0.45593999997E+02  0.45594000000E+02  0.51100000000E-03 0. -1.
         11   -1    0    0    0    0 -0.00000000000E+00 -0.00000000000E+00 -0.45593999997E+02  0.45594000000E+02  0.51100000000E-03 0.  1.
         23    2    1    2    0    0  0.00000000000E+00  0.00000000000E+00  0.71054273576E-14  0.91188000000E+02  0.91188000000E+02 0.  0.
    9900012    2    3    3    0    0 -0.21060964346E+02 -0.16721468390E+02  0.34065339493E+02  0.47787319371E+02  0.20000220339E+02 0.  0.
        -12    1    3    3    0    0  0.21060964346E+02  0.16721468390E+02 -0.34065339493E+02  0.43400680629E+02  0.00000000000E+00 0.  1.
         11    1    4    4    0    0 -0.60743887173E+01 -0.14525862365E+01  0.12589326580E+02  0.14053446164E+02  0.51100000000E-03 0. -1.
        -11    1    4    4    0    0 -0.15544903413E+01 -0.53836323182E+01 -0.10549912399E+01  0.57020122708E+01  0.51100000000E-03 0.  1.
        -12    1    4    4    0    0 -0.13432085287E+02 -0.98852498348E+01  0.22531004152E+02  0.28031860937E+02  0.00000000000E+00 0.  1.
</event>
<event>
 8    1  0.6524083E-011  0.9118800E+02  0.7816164E-02  0.1184000E+00
        -11   -1    0    0    0    0  0.00000000000E+00  0.00000000000E+00  0.45593999997E+02  0.45594000000E+02  0.51100000000E-03 0. -1.
         11   -1    0    0    0    0 -0.00000000000E+00 -0.00000000000E+00 -0.45593999997E+02  0.45594000000E+02  0.51100000000E-03 0.  1.
         23    2    1    2    0    0 -0.44408920985E-15  0.00000000000E+00  0.00000000000E+00  0.91188000000E+02  0.91188000000E+02 0.  0.
    9900012    2    3    3    0    0 -0.21301190672E+01  0.26078042539E+02 -0.34626888761E+02  0.47787272642E+02  0.20000007285E+02 0.  0.
         12    1    3    3    0    0  0.21301190672E+01 -0.26078042539E+02  0.34626888761E+02  0.43400727358E+02  0.00000000000E+00 0. -1.
         11    1    4    4    0    0 -0.44080444456E+01 -0.14037926097E+01 -0.50871950865E+01  0.68761212638E+01  0.51100000000E-03 0. -1.
        -11    1    4    4    0    0  0.22667717871E+01  0.69367089495E+01 -0.47190078885E+01  0.86905247885E+01  0.51100000000E-03 0.  1.
         12    1    4    4    0    0  0.11153591291E-01  0.20545126199E+02 -0.24820685786E+02  0.32220626590E+02  0.00000000000E+00 0. -1.
</event>
<event>
 8    1  0.6524083E-011  0.9118800E+02  0.7816164E-02  0.1184000E+00
        -11   -1    0    0    0    0  0.00000000000E+00  0.00000000000E+00  0.45593999997E+02  0.45594000000E+02  0.51100000000E-03 0. -1.
         11   -1    0    0    0    0 -0.00000000000E+00 -0.00000000000E+00 -0.45593999997E+02  0.45594000000E+02  0.51100000000E-03 0.  1.
         23    2    1    2    0    0  0.44408920985E-15  0.71054273576E-14  0.11102230246E-15  0.91188000000E+02  0.91188000000E+02 0.  0.
    9900012    2    3    3    0    0  0.27910322652E+01 -0.43300084689E+02 -0.96760153997E+00  0.47787269040E+02  0.19999990859E+02 0.  0.
         12    1    3    3    0    0 -0.27910322652E+01  0.43300084689E+02  0.96760153997E+00  0.43400730960E+02  0.00000000000E+00 0. -1.
         11    1    4    4    0    0 -0.23584677848E+01 -0.17025314269E+01 -0.22521158197E+00  0.29174824883E+01  0.51100000000E-03 0.  1.
        -11    1    4    4    0    0  0.79875963790E+01 -0.38795204088E+02 -0.38751742213E+01  0.39798071959E+02  0.51100000000E-03 0. -1.
         12    1    4    4    0    0 -0.28380963290E+01 -0.28023491734E+01  0.31327842633E+01  0.50717145920E+01  0.00000000000E+00 0. -1.
</event>
<event>
 8    1  0.6524083E-011  0.9118800E+02  0.7816164E-02  0.1184000E+00
        -11   -1    0    0    0    0  0.00000000000E+00  0.00000000000E+00  0.45593999997E+02  0.45594000000E+02  0.51100000000E-03 0. -1.
         11   -1    0    0    0    0 -0.00000000000E+00 -0.00000000000E+00 -0.45593999997E+02  0.45594000000E+02  0.51100000000E-03 0.  1.
         23    2    1    2    0    0  0.00000000000E+00  0.00000000000E+00  0.00000000000E+00  0.91188000000E+02  0.91188000000E+02 0.  0.
    9900012    2    3    3    0    0  0.14762245135E+02  0.94659076297E+01 -0.39700072968E+02  0.47787273251E+02  0.20000010062E+02 0.  0.
         12    1    3    3    0    0 -0.14762245135E+02 -0.94659076297E+01  0.39700072968E+02  0.43400726749E+02  0.00000000000E+00 0. -1.
         11    1    4    4    0    0  0.45836886748E+01  0.50118611045E+01 -0.62970435322E+00  0.68209589818E+01  0.51100000000E-03 0. -1.
        -11    1    4    4    0    0  0.16798855160E+01  0.11696273534E+01 -0.16497119554E+02  0.16623627683E+02  0.51100000000E-03 0.  1.
         12    1    4    4    0    0  0.84986709438E+01  0.32844191719E+01 -0.22573249060E+02  0.24342686586E+02  0.00000000000E+00 0. -1.
</event>
<event>
 8    1  0.6524083E-011  0.9118800E+02  0.7816164E-02  0.1184000E+00
        -11   -1    0    0    0    0  0.00000000000E+00  0.00000000000E+00  0.45593999997E+02  0.45594000000E+02  0.51100000000E-03 0. -1.
         11   -1    0    0    0    0 -0.00000000000E+00 -0.00000000000E+00 -0.45593999997E+02  0.45594000000E+02  0.51100000000E-03 0.  1.
         23    2    1    2    0    0  0.00000000000E+00  0.00000000000E+00  0.00000000000E+00  0.91188000000E+02  0.91188000000E+02 0.  0.
    9900012    2    3    3    0    0  0.18226811248E+02 -0.12082554342E+02  0.37488897543E+02  0.47787283339E+02  0.20000056055E+02 0.  0.
        -12    1    3    3    0    0 -0.18226811248E+02  0.12082554342E+02 -0.37488897543E+02  0.43400716661E+02  0.00000000000E+00 0.  1.
         11    1    4    4    0    0  0.14159382540E+02 -0.34129456262E+00  0.30205809948E+02  0.33361587953E+02  0.51100000000E-03 0. -1.
        -11    1    4    4    0    0  0.80564430314E+00 -0.17677754076E+01  0.14114986820E+01  0.24013374243E+01  0.51100000000E-03 0.  1.
         12    1    4    4    0    0  0.32617844053E+01 -0.99734843716E+01  0.58715889132E+01  0.12024357961E+02  0.00000000000E+00 0. -1.
</event>
<event>
 8    1  0.6524083E-011  0.9118800E+02  0.7816164E-02  0.1184000E+00
        -11   -1    0    0    0    0  0.00000000000E+00  0.00000000000E+00  0.45593999997E+02  0.45594000000E+02  0.51100000000E-03 0. -1.
         11   -1    0    0    0    0 -0.00000000000E+00 -0.00000000000E+00 -0.45593999997E+02  0.45594000000E+02  0.51100000000E-03 0.  1.
         23    2    1    2    0    0 -0.17763568394E-14  0.17763568394E-14 -0.71054273576E-14  0.91188000000E+02  0.91188000000E+02 0.  0.
    9900012    2    3    3    0    0  0.14895447323E+02 -0.15372227382E+02  0.37755045465E+02  0.47787272084E+02  0.20000004739E+02 0.  0.
        -12    1    3    3    0    0 -0.14895447323E+02  0.15372227382E+02 -0.37755045465E+02  0.43400727916E+02  0.00000000000E+00 0.  1.
         11    1    4    4    0    0  0.69766746556E+01 -0.80932690508E+01  0.26916442400E+02  0.28959797390E+02  0.51100000000E-03 0. -1.
        -11    1    4    4    0    0  0.74213617821E+01 -0.33762024256E+01  0.12191910176E+02  0.14666902451E+02  0.51100000000E-03 0.  1.
        -12    1    4    4    0    0  0.49741088528E+00 -0.39027559054E+01 -0.13533071108E+01  0.41605722422E+01  0.00000000000E+00 0.  1.
</event>
<event>
 8    1  0.6524083E-011  0.9118800E+02  0.7816164E-02  0.1184000E+00
        -11   -1    0    0    0    0  0.00000000000E+00  0.00000000000E+00  0.45593999997E+02  0.45594000000E+02  0.51100000000E-03 0. -1.
         11   -1    0    0    0    0 -0.00000000000E+00 -0.00000000000E+00 -0.45593999997E+02  0.45594000000E+02  0.51100000000E-03 0.  1.
         23    2    1    2    0    0  0.00000000000E+00  0.17763568394E-14  0.00000000000E+00  0.91188000000E+02  0.91188000000E+02 0.  0.
    9900012    2    3    3    0    0  0.12794802786E+02  0.14247880425E+02 -0.38947570953E+02  0.47787281595E+02  0.20000048105E+02 0.  0.
         12    1    3    3    0    0 -0.12794802786E+02 -0.14247880425E+02  0.38947570953E+02  0.43400718405E+02  0.00000000000E+00 0. -1.
         11    1    4    4    0    0  0.16787276350E+01  0.74904832703E+01 -0.31215969919E+02  0.32145952223E+02  0.51100000000E-03 0. -1.
        -11    1    4    4    0    0  0.38077340613E+01  0.45483782000E+01 -0.38986452122E+01  0.70983109036E+01  0.51100000000E-03 0.  1.
         12    1    4    4    0    0  0.73083410894E+01  0.22090189549E+01 -0.38329558216E+01  0.85430184684E+01  0.00000000000E+00 0. -1.
</event>
<event>
 8    1  0.6524083E-011  0.9118800E+02  0.7816164E-02  0.1184000E+00
        -11   -1    0    0    0    0  0.00000000000E+00  0.00000000000E+00  0.45593999997E+02  0.45594000000E+02  0.51100000000E-03 0.  1.
         11   -1    0    0    0    0 -0.00000000000E+00 -0.00000000000E+00 -0.45593999997E+02  0.45594000000E+02  0.51100000000E-03 0. -1.
         23    2    1    2    0    0 -0.35527136788E-14 -0.35527136788E-14  0.00000000000E+00  0.91188000000E+02  0.91188000000E+02 0.  0.
    9900012    2    3    3    0    0  0.28762994719E+02 -0.31730961458E+02  0.70327460894E+01  0.47787270769E+02  0.19999998742E+02 0.  0.
        -12    1    3    3    0    0 -0.28762994719E+02  0.31730961458E+02 -0.70327460894E+01  0.43400729231E+02  0.00000000000E+00 0.  1.
         11    1    4    4    0    0  0.70725785102E+01 -0.48396563600E+01 -0.12967410366E+01  0.86674781824E+01  0.51100000000E-03 0. -1.
        -11    1    4    4    0    0  0.16719646959E+02 -0.16896030136E+02  0.12914353809E+02  0.27051856930E+02  0.51100000000E-03 0.  1.
        -12    1    4    4    0    0  0.49707692495E+01 -0.99952749625E+01 -0.45848666828E+01  0.12067935656E+02  0.00000000000E+00 0.  1.
</event>
<event>
 8    1  0.6524083E-011  0.9118800E+02  0.7816164E-02  0.1184000E+00
        -11   -1    0    0    0    0  0.00000000000E+00  0.00000000000E+00  0.45593999997E+02  0.45594000000E+02  0.51100000000E-03 0. -1.
         11   -1    0    0    0    0 -0.00000000000E+00 -0.00000000000E+00 -0.45593999997E+02  0.45594000000E+02  0.51100000000E-03 0.  1.
         23    2    1    2    0    0 -0.35527136788E-14  0.00000000000E+00  0.00000000000E+00  0.91188000000E+02  0.91188000000E+02 0.  0.
    9900012    2    3    3    0    0  0.17440131501E+02  0.23861722022E+02  0.31781805096E+02  0.47787273050E+02  0.20000009145E+02 0.  0.
        -12    1    3    3    0    0 -0.17440131501E+02 -0.23861722022E+02 -0.31781805096E+02  0.43400726950E+02  0.00000000000E+00 0.  1.
         11    1    4    4    0    0  0.11643444411E+01  0.11321185147E+02  0.53546609020E+01  0.12577651798E+02  0.51100000000E-03 0.  1.
        -11    1    4    4    0    0  0.10018987227E+02  0.31050013432E+01  0.66448580214E+01  0.12416733740E+02  0.51100000000E-03 0. -1.
         12    1    4    4    0    0  0.62567998336E+01  0.94355355310E+01  0.19782286172E+02  0.22792887512E+02  0.00000000000E+00 0. -1.
</event>
<event>
 8    1  0.6524083E-011  0.9118800E+02  0.7816164E-02  0.1184000E+00
        -11   -1    0    0    0    0  0.00000000000E+00  0.00000000000E+00  0.45593999997E+02  0.45594000000E+02  0.51100000000E-03 0.  1.
         11   -1    0    0    0    0 -0.00000000000E+00 -0.00000000000E+00 -0.45593999997E+02  0.45594000000E+02  0.51100000000E-03 0. -1.
         23    2    1    2    0    0  0.00000000000E+00  0.71054273576E-14  0.71054273576E-14  0.91188000000E+02  0.91188000000E+02 0.  0.
    9900012    2    3    3    0    0 -0.95546683671E+01 -0.36212803822E+02 -0.21930905032E+02  0.47787269087E+02  0.19999991074E+02 0.  0.
         12    1    3    3    0    0  0.95546683671E+01  0.36212803822E+02  0.21930905032E+02  0.43400730913E+02  0.00000000000E+00 0. -1.
         11    1    4    4    0    0  0.30442268082E+01 -0.45191232546E+01 -0.49128301948E+01  0.73365995280E+01  0.51100000000E-03 0. -1.
        -11    1    4    4    0    0 -0.75608519660E+01 -0.27257069655E+02 -0.18198221308E+02  0.33634648618E+02  0.51100000000E-03 0.  1.
        -12    1    4    4    0    0 -0.50380432092E+01 -0.44366109131E+01  0.11801464706E+01  0.68160209407E+01  0.00000000000E+00 0.  1.
</event>
<event>
 8    1  0.6524083E-011  0.9118800E+02  0.7816164E-02  0.1184000E+00
        -11   -1    0    0    0    0  0.00000000000E+00  0.00000000000E+00  0.45593999997E+02  0.45594000000E+02  0.51100000000E-03 0. -1.
         11   -1    0    0    0    0 -0.00000000000E+00 -0.00000000000E+00 -0.45593999997E+02  0.45594000000E+02  0.51100000000E-03 0.  1.
         23    2    1    2    0    0  0.17763568394E-14 -0.35527136788E-14  0.71054273576E-14  0.91188000000E+02  0.91188000000E+02 0.  0.
    9900012    2    3    3    0    0  0.94936492362E+01 -0.17630803806E+02  0.38505176638E+02  0.47787271359E+02  0.20000001433E+02 0.  0.
        -12    1    3    3    0    0 -0.94936492362E+01  0.17630803806E+02 -0.38505176638E+02  0.43400728641E+02  0.00000000000E+00 0.  1.
         11    1    4    4    0    0  0.66726717259E+01 -0.85140177137E+01  0.29894750694E+02  0.31791652441E+02  0.51100000000E-03 0. -1.
        -11    1    4    4    0    0  0.25141748833E+01 -0.10296783818E+02  0.96945056629E+01  0.14364131461E+02  0.51100000000E-03 0.  1.
        -12    1    4    4    0    0  0.30680262705E+00  0.11799977253E+01 -0.10840797190E+01  0.16314874565E+01  0.00000000000E+00 0.  1.
</event>
<event>
 8    1  0.9789295E-011  0.9118800E+02  0.7816164E-02  0.1184000E+00
        -11   -1    0    0    0    0  0.00000000000E+00  0.00000000000E+00  0.45593999997E+02  0.45594000000E+02  0.51100000000E-03 0. -1.
         11   -1    0    0    0    0 -0.00000000000E+00 -0.00000000000E+00 -0.45593999997E+02  0.45594000000E+02  0.51100000000E-03 0.  1.
         23    2    1    2    0    0  0.88817841970E-15 -0.71054273576E-14  0.35527136788E-14  0.91188000000E+02  0.91188000000E+02 0.  0.
    9900012    2    3    3    0    0 -0.48756886414E+01  0.32936887654E+02 -0.27839025513E+02  0.47787282846E+02  0.20000053806E+02 0.  0.
         12    1    3    3    0    0  0.48756886414E+01 -0.32936887654E+02  0.27839025513E+02  0.43400717154E+02  0.00000000000E+00 0. -1.
         11    1    4    4    0    0  0.86220006612E+00  0.10595721079E+02 -0.10939872862E+02  0.15254294891E+02  0.51100000000E-03 0. -1.
        -11    1    4    4    0    0  0.41636165658E+01  0.14576842410E+02 -0.81945636794E+01  0.17232843982E+02  0.51100000000E-03 0.  1.
         12    1    4    4    0    0 -0.99015052733E+01  0.77643241643E+01 -0.87045889715E+01  0.15300143972E+02  0.00000000000E+00 0. -1.
</event>
<event>
 8    1  0.6524083E-011  0.9118800E+02  0.7816164E-02  0.1184000E+00
        -11   -1    0    0    0    0  0.00000000000E+00  0.00000000000E+00  0.45593999997E+02  0.45594000000E+02  0.51100000000E-03 0. -1.
         11   -1    0    0    0    0 -0.00000000000E+00 -0.00000000000E+00 -0.45593999997E+02  0.45594000000E+02  0.51100000000E-03 0.  1.
         23    2    1    2    0    0  0.00000000000E+00 -0.35527136788E-14  0.71054273576E-14  0.91188000000E+02  0.91188000000E+02 0.  0.
    9900012    2    3    3    0    0 -0.14283825705E+01 -0.17938074879E+02  0.39494409764E+02  0.47787271783E+02  0.20000003368E+02 0.  0.
        -12    1    3    3    0    0  0.14283825705E+01  0.17938074879E+02 -0.39494409764E+02  0.43400728217E+02  0.00000000000E+00 0.  1.
         11    1    4    4    0    0  0.10421588181E+01 -0.54848685609E+00 -0.11262226324E+01  0.16295123541E+01  0.51100000000E-03 0. -1.
        -11    1    4    4    0    0 -0.29561701390E+01 -0.73329169771E+00  0.10499068014E+01  0.32216398243E+01  0.51100000000E-03 0.  1.
         12    1    4    4    0    0  0.48562875048E+00 -0.16656296325E+02  0.39570725596E+02  0.42936119605E+02  0.00000000000E+00 0. -1.
</event>
<event>
 8    1  0.6524083E-011  0.9118800E+02  0.7816164E-02  0.1184000E+00
        -11   -1    0    0    0    0  0.00000000000E+00  0.00000000000E+00  0.45593999997E+02  0.45594000000E+02  0.51100000000E-03 0. -1.
         11   -1    0    0    0    0 -0.00000000000E+00 -0.00000000000E+00 -0.45593999997E+02  0.45594000000E+02  0.51100000000E-03 0.  1.
         23    2    1    2    0    0  0.00000000000E+00  0.44408920985E-15  0.00000000000E+00  0.91188000000E+02  0.91188000000E+02 0.  0.
    9900012    2    3    3    0    0 -0.14480224751E+02 -0.22190383618E+01  0.40853670851E+02  0.47787268876E+02  0.19999990114E+02 0.  0.
        -12    1    3    3    0    0  0.14480224751E+02  0.22190383618E+01 -0.40853670851E+02  0.43400731124E+02  0.00000000000E+00 0.  1.
         11    1    4    4    0    0 -0.48551177066E+01 -0.30593099515E+01  0.17689694649E+02  0.18597226739E+02  0.51100000000E-03 0. -1.
        -11    1    4    4    0    0 -0.57226807925E+01  0.78342001642E+01  0.11579494372E+02  0.15106570022E+02  0.51100000000E-03 0.  1.
        -12    1    4    4    0    0 -0.39024262515E+01 -0.69939285745E+01  0.11584481830E+02  0.14083472115E+02  0.00000000000E+00 0.  1.
</event>
<event>
 8    1  0.6524083E-011  0.9118800E+02  0.7816164E-02  0.1184000E+00
        -11   -1    0    0    0    0  0.00000000000E+00  0.00000000000E+00  0.45593999997E+02  0.45594000000E+02  0.51100000000E-03 0.  1.
         11   -1    0    0    0    0 -0.00000000000E+00 -0.00000000000E+00 -0.45593999997E+02  0.45594000000E+02  0.51100000000E-03 0. -1.
         23    2    1    2    0    0 -0.71054273576E-14 -0.88817841970E-15 -0.71054273576E-14  0.91188000000E+02  0.91188000000E+02 0.  0.
    9900012    2    3    3    0    0  0.37723534990E+02  0.44810110519E+01  0.20987613458E+02  0.47787257254E+02  0.19999937124E+02 0.  0.
        -12    1    3    3    0    0 -0.37723534990E+02 -0.44810110519E+01 -0.20987613458E+02  0.43400742746E+02  0.00000000000E+00 0.  1.
         11    1    4    4    0    0  0.18413964986E+02 -0.26182409375E+00  0.16092208975E+02  0.24456120876E+02  0.51100000000E-03 0. -1.
        -11    1    4    4    0    0  0.49095515879E+01 -0.12521029316E+01  0.58067335773E+01  0.77064657038E+01  0.51100000000E-03 0.  1.
        -12    1    4    4    0    0  0.14400018417E+02  0.59949380773E+01 -0.91132909421E+00  0.15624670674E+02  0.00000000000E+00 0.  1.
</event>
<event>
 8    1  0.9260797E-011  0.9118800E+02  0.7816164E-02  0.1184000E+00
        -11   -1    0    0    0    0  0.00000000000E+00  0.00000000000E+00  0.45593999997E+02  0.45594000000E+02  0.51100000000E-03 0.  1.
         11   -1    0    0    0    0 -0.00000000000E+00 -0.00000000000E+00 -0.45593999997E+02  0.45594000000E+02  0.51100000000E-03 0. -1.
         23    2    1    2    0    0  0.35527136788E-14 -0.71054273576E-14  0.00000000000E+00  0.91188000000E+02  0.91188000000E+02 0.  0.
    9900012    2    3    3    0    0  0.22658481525E+02 -0.35600787738E+02 -0.10139129401E+02  0.47787253259E+02  0.19999918911E+02 0.  0.
         12    1    3    3    0    0 -0.22658481525E+02  0.35600787738E+02  0.10139129401E+02  0.43400746741E+02  0.00000000000E+00 0. -1.
         11    1    4    4    0    0  0.25413649127E+01 -0.10684253104E+01 -0.55504047171E+01  0.61973430636E+01  0.51100000000E-03 0. -1.
        -11    1    4    4    0    0  0.15364356118E+02 -0.17095023528E+02 -0.49544636855E+01  0.23512762046E+02  0.51100000000E-03 0.  1.
         12    1    4    4    0    0  0.47527604949E+01 -0.17437338900E+02  0.36573900170E+00  0.18077148150E+02  0.00000000000E+00 0. -1.
</event>
<event>
 8    1  0.6524083E-011  0.9118800E+02  0.7816164E-02  0.1184000E+00
        -11   -1    0    0    0    0  0.00000000000E+00  0.00000000000E+00  0.45593999997E+02  0.45594000000E+02  0.51100000000E-03 0. -1.
         11   -1    0    0    0    0 -0.00000000000E+00 -0.00000000000E+00 -0.45593999997E+02  0.45594000000E+02  0.51100000000E-03 0.  1.
         23    2    1    2    0    0 -0.44408920985E-15 -0.17763568394E-14  0.00000000000E+00  0.91188000000E+02  0.91188000000E+02 0.  0.
    9900012    2    3    3    0    0 -0.36212029994E+01 -0.12081645155E+02  0.41527601261E+02  0.47787298078E+02  0.20000123257E+02 0.  0.
        -12    1    3    3    0    0  0.36212029994E+01  0.12081645155E+02 -0.41527601261E+02  0.43400701922E+02  0.00000000000E+00 0.  1.
         11    1    4    4    0    0 -0.36217135271E+01 -0.81145957748E+01  0.28116631712E+02  0.29487428720E+02  0.51100000000E-03 0. -1.
        -11    1    4    4    0    0  0.58718637646E+01 -0.23474990240E+01  0.61278638403E+01  0.88056942511E+01  0.51100000000E-03 0.  1.
         12    1    4    4    0    0 -0.58713532369E+01 -0.16195503564E+01  0.72831057088E+01  0.94941751066E+01  0.00000000000E+00 0. -1.
</event>
<event>
 8    1  0.6524083E-011  0.9118800E+02  0.7816164E-02  0.1184000E+00
        -11   -1    0    0    0    0  0.00000000000E+00  0.00000000000E+00  0.45593999997E+02  0.45594000000E+02  0.51100000000E-03 0. -1.
         11   -1    0    0    0    0 -0.00000000000E+00 -0.00000000000E+00 -0.45593999997E+02  0.45594000000E+02  0.51100000000E-03 0.  1.
         23    2    1    2    0    0  0.00000000000E+00  0.35527136788E-14  0.88817841970E-15  0.91188000000E+02  0.91188000000E+02 0.  0.
    9900012    2    3    3    0    0 -0.35956137559E+02  0.23902256533E+02  0.44115365480E+01  0.47787270165E+02  0.19999995988E+02 0.  0.
        -12    1    3    3    0    0  0.35956137559E+02 -0.23902256533E+02 -0.44115365480E+01  0.43400729835E+02  0.00000000000E+00 0.  1.
         11    1    4    4    0    0 -0.26013131068E+02  0.79074576145E+01  0.64660434821E+01  0.27946745650E+02  0.51100000000E-03 0.  1.
        -11    1    4    4    0    0  0.69615894132E+00  0.21300476745E+01  0.23570309176E-01  0.22410480110E+01  0.51100000000E-03 0. -1.
         12    1    4    4    0    0 -0.10639165433E+02  0.13864751244E+02 -0.20780772433E+01  0.17599476503E+02  0.00000000000E+00 0. -1.
</event>
<event>
 8    1  0.6524083E-011  0.9118800E+02  0.7816164E-02  0.1184000E+00
        -11   -1    0    0    0    0  0.00000000000E+00  0.00000000000E+00  0.45593999997E+02  0.45594000000E+02  0.51100000000E-03 0. -1.
         11   -1    0    0    0    0 -0.00000000000E+00 -0.00000000000E+00 -0.45593999997E+02  0.45594000000E+02  0.51100000000E-03 0.  1.
         23    2    1    2    0    0  0.00000000000E+00  0.00000000000E+00  0.00000000000E+00  0.91188000000E+02  0.91188000000E+02 0.  0.
    9900012    2    3    3    0    0 -0.72412586849E+01 -0.18424360308E+02  0.38622927998E+02  0.47787269047E+02  0.19999990893E+02 0.  0.
        -12    1    3    3    0    0  0.72412586849E+01  0.18424360308E+02 -0.38622927998E+02  0.43400730953E+02  0.00000000000E+00 0.  1.
         11    1    4    4    0    0 -0.10253766307E+02 -0.89542540543E+01  0.17032604795E+02  0.21804311856E+02  0.51100000000E-03 0.  1.
        -11    1    4    4    0    0 -0.14963789315E+01 -0.46541701011E+01  0.19484896807E+01  0.52627997808E+01  0.51100000000E-03 0. -1.
        -12    1    4    4    0    0  0.45088865535E+01 -0.48159361523E+01  0.19641833523E+02  0.20720157411E+02  0.00000000000E+00 0.  1.
</event>
<event>
 8    1  0.6524083E-011  0.9118800E+02  0.7816164E-02  0.1184000E+00
        -11   -1    0    0    0    0  0.00000000000E+00  0.00000000000E+00  0.45593999997E+02  0.45594000000E+02  0.51100000000E-03 0. -1.
         11   -1    0    0    0    0 -0.00000000000E+00 -0.00000000000E+00 -0.45593999997E+02  0.45594000000E+02  0.51100000000E-03 0.  1.
         23    2    1    2    0    0  0.00000000000E+00 -0.66613381478E-15  0.88817841970E-15  0.91188000000E+02  0.91188000000E+02 0.  0.
    9900012    2    3    3    0    0 -0.42934179011E+02 -0.19546422744E+01 -0.60382941551E+01  0.47787247126E+02  0.19999890945E+02 0.  0.
         12    1    3    3    0    0  0.42934179011E+02  0.19546422744E+01  0.60382941551E+01  0.43400752874E+02  0.00000000000E+00 0. -1.
         11    1    4    4    0    0 -0.30110380471E+01  0.22758922038E+01 -0.15477467826E+01  0.40794063059E+01  0.51100000000E-03 0. -1.
        -11    1    4    4    0    0 -0.32368429295E+02 -0.99778582253E+01 -0.21987195961E+01  0.33942705223E+02  0.51100000000E-03 0.  1.
        -12    1    4    4    0    0 -0.75547116691E+01  0.57473237472E+01 -0.22918277765E+01  0.97651355963E+01  0.00000000000E+00 0.  1.
</event>
<event>
 8    1  0.6524083E-011  0.9118800E+02  0.7816164E-02  0.1184000E+00
        -11   -1    0    0    0    0  0.00000000000E+00  0.00000000000E+00  0.45593999997E+02  0.45594000000E+02  0.51100000000E-03 0. -1.
         11   -1    0    0    0    0 -0.00000000000E+00 -0.00000000000E+00 -0.45593999997E+02  0.45594000000E+02  0.51100000000E-03 0.  1.
         23    2    1    2    0    0  0.00000000000E+00  0.00000000000E+00  0.71054273576E-14  0.91188000000E+02  0.91188000000E+02 0.  0.
    9900012    2    3    3    0    0 -0.29356430624E+01 -0.10075494156E+02  0.42112839988E+02  0.47787252604E+02  0.19999915922E+02 0.  0.
        -12    1    3    3    0    0  0.29356430624E+01  0.10075494156E+02 -0.42112839988E+02  0.43400747396E+02  0.00000000000E+00 0.  1.
         11    1    4    4    0    0  0.21302397675E+01 -0.34817806692E+01  0.32247530923E+02  0.32504829933E+02  0.51100000000E-03 0. -1.
        -11    1    4    4    0    0  0.16964380709E+01 -0.10268832165E+01 -0.13624336403E+00  0.19877006274E+01  0.51100000000E-03 0.  1.
         12    1    4    4    0    0 -0.67623209008E+01 -0.55668302698E+01  0.10001552429E+02  0.13294722043E+02  0.00000000000E+00 0. -1.
</event>
<event>
 8    1  0.6524083E-011  0.9118800E+02  0.7816164E-02  0.1184000E+00
        -11   -1    0    0    0    0  0.00000000000E+00  0.00000000000E+00  0.45593999997E+02  0.45594000000E+02  0.51100000000E-03 0. -1.
         11   -1    0    0    0    0 -0.00000000000E+00 -0.00000000000E+00 -0.45593999997E+02  0.45594000000E+02  0.51100000000E-03 0.  1.
         23    2    1    2    0    0 -0.17763568394E-14 -0.88817841970E-15  0.00000000000E+00  0.91188000000E+02  0.91188000000E+02 0.  0.
    9900012    2    3    3    0    0  0.11785831370E+02 -0.61211092608E+01 -0.41318872095E+02  0.47787274305E+02  0.20000014865E+02 0.  0.
         12    1    3    3    0    0 -0.11785831370E+02  0.61211092608E+01  0.41318872095E+02  0.43400725695E+02  0.00000000000E+00 0. -1.
         11    1    4    4    0    0  0.16197062599E+02 -0.12092207165E+01 -0.30204257510E+02  0.34294375976E+02  0.51100000000E-03 0. -1.
        -11    1    4    4    0    0 -0.11781666784E+01 -0.33300416838E+01 -0.79532013279E+01  0.87023368104E+01  0.51100000000E-03 0.  1.
         12    1    4    4    0    0 -0.32330645508E+01 -0.15818468605E+01 -0.31614132577E+01  0.47905615188E+01  0.00000000000E+00 0. -1.
</event>
<event>
 8    1  0.6524083E-011  0.9118800E+02  0.7816164E-02  0.1184000E+00
        -11   -1    0    0    0    0  0.00000000000E+00  0.00000000000E+00  0.45593999997E+02  0.45594000000E+02  0.51100000000E-03 0. -1.
         11   -1    0    0    0    0 -0.00000000000E+00 -0.00000000000E+00 -0.45593999997E+02  0.45594000000E+02  0.51100000000E-03 0.  1.
         23    2    1    2    0    0  0.00000000000E+00  0.00000000000E+00  0.00000000000E+00  0.91188000000E+02  0.91188000000E+02 0.  0.
    9900012    2    3    3    0    0 -0.20803728994E+02  0.61612814866E+01  0.37588119285E+02  0.47787271423E+02  0.20000001725E+02 0.  0.
        -12    1    3    3    0    0  0.20803728994E+02 -0.61612814866E+01 -0.37588119285E+02  0.43400728577E+02  0.00000000000E+00 0.  1.
         11    1    4    4    0    0 -0.48897873562E+01  0.72735301434E+01  0.54609547453E+01  0.10326484790E+02  0.51100000000E-03 0. -1.
        -11    1    4    4    0    0 -0.93745562225E-01  0.14268913343E+00 -0.84825764959E+00  0.86526858284E+00  0.51100000000E-03 0.  1.
         12    1    4    4    0    0 -0.15820196076E+02 -0.12549377903E+01  0.32975422190E+02  0.36595518050E+02  0.00000000000E+00 0. -1.
</event>
<event>
 8    1  0.6524083E-011  0.9118800E+02  0.7816164E-02  0.1184000E+00
        -11   -1    0    0    0    0  0.00000000000E+00  0.00000000000E+00  0.45593999997E+02  0.45594000000E+02  0.51100000000E-03 0. -1.
         11   -1    0    0    0    0 -0.00000000000E+00 -0.00000000000E+00 -0.45593999997E+02  0.45594000000E+02  0.51100000000E-03 0.  1.
         23    2    1    2    0    0 -0.71054273576E-14 -0.17763568394E-14 -0.35527136788E-14  0.91188000000E+02  0.91188000000E+02 0.  0.
    9900012    2    3    3    0    0 -0.29585214617E+02 -0.10504839540E+02 -0.29966446681E+02  0.47787256868E+02  0.19999935365E+02 0.  0.
         12    1    3    3    0    0  0.29585214617E+02  0.10504839540E+02  0.29966446681E+02  0.43400743132E+02  0.00000000000E+00 0. -1.
         11    1    4    4    0    0 -0.88878439230E+01 -0.19126163118E+01 -0.39856117786E+01  0.99265790818E+01  0.51100000000E-03 0. -1.
        -11    1    4    4    0    0 -0.13457159428E+02 -0.17622270729E+01 -0.24204672172E+02  0.27750076384E+02  0.51100000000E-03 0.  1.
        -12    1    4    4    0    0 -0.72402112669E+01 -0.68299961551E+01 -0.17761627299E+01  0.10110601402E+02  0.00000000000E+00 0.  1.
</event>
<event>
 8    1  0.6695398E-011  0.9118800E+02  0.7816164E-02  0.1184000E+00
        -11   -1    0    0    0    0  0.00000000000E+00  0.00000000000E+00  0.45593999997E+02  0.45594000000E+02  0.51100000000E-03 0. -1.
         11   -1    0    0    0    0 -0.00000000000E+00 -0.00000000000E+00 -0.45593999997E+02  0.45594000000E+02  0.51100000000E-03 0.  1.
         23    2    1    2    0    0  0.00000000000E+00  0.35527136788E-14  0.00000000000E+00  0.91188000000E+02  0.91188000000E+02 0.  0.
    9900012    2    3    3    0    0 -0.22241862991E+02 -0.17915307462E+02 -0.32679713744E+02  0.47787281098E+02  0.20000045839E+02 0.  0.
         12    1    3    3    0    0  0.22241862991E+02  0.17915307462E+02  0.32679713744E+02  0.43400718902E+02  0.00000000000E+00 0. -1.
         11    1    4    4    0    0 -0.99546453123E+00  0.36990210829E+01 -0.55078913218E+01  0.67089920017E+01  0.51100000000E-03 0. -1.
        -11    1    4    4    0    0 -0.91438026000E+01 -0.84135889212E+01 -0.14733265944E+02  0.19273472188E+02  0.51100000000E-03 0.  1.
         12    1    4    4    0    0 -0.12102595860E+02 -0.13200739624E+02 -0.12438556478E+02  0.21804816909E+02  0.00000000000E+00 0. -1.
</event>
<event>
 8    1  0.6524083E-011  0.9118800E+02  0.7816164E-02  0.1184000E+00
        -11   -1    0    0    0    0  0.00000000000E+00  0.00000000000E+00  0.45593999997E+02  0.45594000000E+02  0.51100000000E-03 0. -1.
         11   -1    0    0    0    0 -0.00000000000E+00 -0.00000000000E+00 -0.45593999997E+02  0.45594000000E+02  0.51100000000E-03 0.  1.
         23    2    1    2    0    0 -0.17763568394E-14  0.00000000000E+00 -0.71054273576E-14  0.91188000000E+02  0.91188000000E+02 0.  0.
    9900012    2    3    3    0    0 -0.12653505270E+02 -0.20313216149E+02  0.36206151475E+02  0.47787270160E+02  0.19999995969E+02 0.  0.
        -12    1    3    3    0    0  0.12653505270E+02  0.20313216149E+02 -0.36206151475E+02  0.43400729840E+02  0.00000000000E+00 0.  1.
         11    1    4    4    0    0 -0.83444579022E+01 -0.19569262266E+02  0.16560054276E+02  0.26959625391E+02  0.51100000000E-03 0. -1.
        -11    1    4    4    0    0  0.55206560096E+00  0.93946063645E+00  0.82821882523E+01  0.83535624271E+01  0.51100000000E-03 0.  1.
        -12    1    4    4    0    0 -0.48611129689E+01 -0.16834145201E+01  0.11363908947E+02  0.12474082343E+02  0.00000000000E+00 0.  1.
</event>
<event>
 8    1  0.6524083E-011  0.9118800E+02  0.7816164E-02  0.1184000E+00
        -11   -1    0    0    0    0  0.00000000000E+00  0.00000000000E+00  0.45593999997E+02  0.45594000000E+02  0.51100000000E-03 0. -1.
         11   -1    0    0    0    0 -0.00000000000E+00 -0.00000000000E+00 -0.45593999997E+02  0.45594000000E+02  0.51100000000E-03 0.  1.
         23    2    1    2    0    0  0.88817841970E-15  0.00000000000E+00 -0.71054273576E-14  0.91188000000E+02  0.91188000000E+02 0.  0.
    9900012    2    3    3    0    0  0.71812496303E+01  0.22642748167E+02 -0.36322981918E+02  0.47787269520E+02  0.19999993051E+02 0.  0.
         12    1    3    3    0    0 -0.71812496303E+01 -0.22642748167E+02  0.36322981918E+02  0.43400730480E+02  0.00000000000E+00 0. -1.
         11    1    4    4    0    0  0.36652774006E+00  0.60595693722E+00  0.87078128953E+00  0.11224022048E+01  0.51100000000E-03 0. -1.
        -11    1    4    4    0    0  0.53344112923E+01  0.24522436616E+02 -0.31468102788E+02  0.40249811612E+02  0.51100000000E-03 0.  1.
        -12    1    4    4    0    0  0.14803105979E+01 -0.24856453865E+01 -0.57256604188E+01  0.64150557040E+01  0.00000000000E+00 0.  1.
</event>
<event>
 8    1  0.6524083E-011  0.9118800E+02  0.7816164E-02  0.1184000E+00
        -11   -1    0    0    0    0  0.00000000000E+00  0.00000000000E+00  0.45593999997E+02  0.45594000000E+02  0.51100000000E-03 0. -1.
         11   -1    0    0    0    0 -0.00000000000E+00 -0.00000000000E+00 -0.45593999997E+02  0.45594000000E+02  0.51100000000E-03 0.  1.
         23    2    1    2    0    0 -0.17763568394E-14  0.00000000000E+00 -0.17763568394E-14  0.91188000000E+02  0.91188000000E+02 0.  0.
    9900012    2    3    3    0    0 -0.13171027871E+02  0.40314707262E+02 -0.92126514937E+01  0.47787256408E+02  0.19999933266E+02 0.  0.
         12    1    3    3    0    0  0.13171027871E+02 -0.40314707262E+02  0.92126514937E+01  0.43400743592E+02  0.00000000000E+00 0. -1.
         11    1    4    4    0    0  0.29662996444E+01  0.60105145092E+01  0.28804025041E+01  0.72953366675E+01  0.51100000000E-03 0. -1.
        -11    1    4    4    0    0 -0.75049663664E+01  0.23406506907E+02 -0.59345753808E+01  0.25286523505E+02  0.51100000000E-03 0.  1.
        -12    1    4    4    0    0 -0.86323611494E+01  0.10897685846E+02 -0.61584786169E+01  0.15205396236E+02  0.00000000000E+00 0.  1.
</event>
<event>
 8    1  0.6524083E-011  0.9118800E+02  0.7816164E-02  0.1184000E+00
        -11   -1    0    0    0    0  0.00000000000E+00  0.00000000000E+00  0.45593999997E+02  0.45594000000E+02  0.51100000000E-03 0.  1.
         11   -1    0    0    0    0 -0.00000000000E+00 -0.00000000000E+00 -0.45593999997E+02  0.45594000000E+02  0.51100000000E-03 0. -1.
         23    2    1    2    0    0  0.00000000000E+00 -0.71054273576E-14  0.00000000000E+00  0.91188000000E+02  0.91188000000E+02 0.  0.
    9900012    2    3    3    0    0 -0.89862843953E+01 -0.37623259648E+02  0.19681474737E+02  0.47787269342E+02  0.19999992240E+02 0.  0.
        -12    1    3    3    0    0  0.89862843953E+01  0.37623259648E+02 -0.19681474737E+02  0.43400730658E+02  0.00000000000E+00 0.  1.
         11    1    4    4    0    0 -0.96734877991E+01 -0.95034648104E+01  0.27605857117E+00  0.13563495796E+02  0.51100000000E-03 0. -1.
        -11    1    4    4    0    0  0.23925523670E+00 -0.96423528454E+01  0.55890877874E+01  0.11147650605E+02  0.51100000000E-03 0.  1.
         12    1    4    4    0    0  0.44794816717E+00 -0.18477441993E+02  0.13816328378E+02  0.23076122941E+02  0.00000000000E+00 0. -1.
</event>
<event>
 8    1  0.6524083E-011  0.9118800E+02  0.7816164E-02  0.1184000E+00
        -11   -1    0    0    0    0  0.00000000000E+00  0.00000000000E+00  0.45593999997E+02  0.45594000000E+02  0.51100000000E-03 0. -1.
         11   -1    0    0    0    0 -0.00000000000E+00 -0.00000000000E+00 -0.45593999997E+02  0.45594000000E+02  0.51100000000E-03 0.  1.
         23    2    1    2    0    0 -0.44408920985E-15  0.00000000000E+00 -0.35527136788E-14  0.91188000000E+02  0.91188000000E+02 0.  0.
    9900012    2    3    3    0    0 -0.32876174518E+01 -0.33406357381E+02 -0.27510535387E+02  0.47787277664E+02  0.20000030181E+02 0.  0.
         12    1    3    3    0    0  0.32876174518E+01  0.33406357381E+02  0.27510535387E+02  0.43400722336E+02  0.00000000000E+00 0. -1.
         11    1    4    4    0    0 -0.21170132591E+01 -0.17181132959E+02 -0.12413238850E+02  0.21301680072E+02  0.51100000000E-03 0. -1.
        -11    1    4    4    0    0 -0.52629830158E+01 -0.31535506186E+01 -0.47231019256E-01  0.61356420006E+01  0.51100000000E-03 0.  1.
        -12    1    4    4    0    0  0.40923788231E+01 -0.13071673804E+02 -0.15050065518E+02  0.20349955591E+02  0.00000000000E+00 0.  1.
</event>
<event>
 8    1  0.6524083E-011  0.9118800E+02  0.7816164E-02  0.1184000E+00
        -11   -1    0    0    0    0  0.00000000000E+00  0.00000000000E+00  0.45593999997E+02  0.45594000000E+02  0.51100000000E-03 0.  1.
         11   -1    0    0    0    0 -0.00000000000E+00 -0.00000000000E+00 -0.45593999997E+02  0.45594000000E+02  0.51100000000E-03 0. -1.
         23    2    1    2    0    0  0.00000000000E+00  0.00000000000E+00  0.00000000000E+00  0.91188000000E+02  0.91188000000E+02 0.  0.
    9900012    2    3    3    0    0  0.41231269616E+02  0.36364476109E+00  0.13545236532E+02  0.47787271154E+02  0.20000000499E+02 0.  0.
        -12    1    3    3    0    0 -0.41231269616E+02 -0.36364476109E+00 -0.13545236532E+02  0.43400728846E+02  0.00000000000E+00 0.  1.
         11    1    4    4    0    0  0.11323709122E+02  0.66656569578E+00  0.80990329691E+01  0.13937899175E+02  0.51100000000E-03 0. -1.
        -11    1    4    4    0    0  0.66912555548E+01  0.11055566603E+01  0.79571842285E+01  0.10455234935E+02  0.51100000000E-03 0.  1.
         12    1    4    4    0    0  0.23216304939E+02 -0.14084775950E+01 -0.25109806654E+01  0.23394137045E+02  0.00000000000E+00 0. -1.
</event>
<event>
 8    1  0.6524083E-011  0.9118800E+02  0.7816164E-02  0.1184000E+00
        -11   -1    0    0    0    0  0.00000000000E+00  0.00000000000E+00  0.45593999997E+02  0.45594000000E+02  0.51100000000E-03 0. -1.
         11   -1    0    0    0    0 -0.00000000000E+00 -0.00000000000E+00 -0.45593999997E+02  0.45594000000E+02  0.51100000000E-03 0.  1.
         23    2    1    2    0    0 -0.17763568394E-14  0.00000000000E+00  0.00000000000E+00  0.91188000000E+02  0.91188000000E+02 0.  0.
    9900012    2    3    3    0    0  0.12240265659E+02  0.23816513284E+02 -0.34155132972E+02  0.47787268246E+02  0.19999987242E+02 0.  0.
         12    1    3    3    0    0 -0.12240265659E+02 -0.23816513284E+02  0.34155132972E+02  0.43400731754E+02  0.00000000000E+00 0. -1.
         11    1    4    4    0    0 -0.11400620304E+01  0.38513734826E+01 -0.71991833251E+01  0.82438498254E+01  0.51100000000E-03 0.  1.
        -11    1    4    4    0    0  0.79365871772E+01  0.71127761167E+01 -0.18477363509E+01  0.10816428708E+02  0.51100000000E-03 0. -1.
         12    1    4    4    0    0  0.54437405125E+01  0.12852363685E+02 -0.25108213296E+02  0.28726989713E+02  0.00000000000E+00 0. -1.
</event>
<event>
 8    1  0.6524083E-011  0.9118800E+02  0.7816164E-02  0.1184000E+00
        -11   -1    0    0    0    0  0.00000000000E+00  0.00000000000E+00  0.45593999997E+02  0.45594000000E+02  0.51100000000E-03 0. -1.
         11   -1    0    0    0    0 -0.00000000000E+00 -0.00000000000E+00 -0.45593999997E+02  0.45594000000E+02  0.51100000000E-03 0.  1.
         23    2    1    2    0    0  0.00000000000E+00  0.00000000000E+00  0.35527136788E-14  0.91188000000E+02  0.91188000000E+02 0.  0.
    9900012    2    3    3    0    0 -0.19043375162E+02 -0.29356544675E+02 -0.25674233815E+02  0.47787272647E+02  0.20000007306E+02 0.  0.
         12    1    3    3    0    0  0.19043375162E+02  0.29356544675E+02  0.25674233815E+02  0.43400727353E+02  0.00000000000E+00 0. -1.
         11    1    4    4    0    0 -0.62584344541E+01 -0.22220211085E+01 -0.68196950754E+01  0.95191186990E+01  0.51100000000E-03 0. -1.
        -11    1    4    4    0    0 -0.13572186386E+02 -0.25921709540E+02 -0.12615255460E+02  0.31863520511E+02  0.51100000000E-03 0.  1.
        -12    1    4    4    0    0  0.78724567831E+00 -0.12128140266E+01 -0.62392832796E+01  0.64046334371E+01  0.00000000000E+00 0.  1.
</event>
<event>
 8    1  0.6524083E-011  0.9118800E+02  0.7816164E-02  0.1184000E+00
        -11   -1    0    0    0    0  0.00000000000E+00  0.00000000000E+00  0.45593999997E+02  0.45594000000E+02  0.51100000000E-03 0.  1.
         11   -1    0    0    0    0 -0.00000000000E+00 -0.00000000000E+00 -0.45593999997E+02  0.45594000000E+02  0.51100000000E-03 0. -1.
         23    2    1    2    0    0  0.00000000000E+00  0.00000000000E+00  0.35527136788E-14  0.91188000000E+02  0.91188000000E+02 0.  0.
    9900012    2    3    3    0    0  0.31858558138E+02 -0.20793763580E+02 -0.20887200227E+02  0.47787268857E+02  0.19999990026E+02 0.  0.
         12    1    3    3    0    0 -0.31858558138E+02  0.20793763580E+02  0.20887200227E+02  0.43400731143E+02  0.00000000000E+00 0. -1.
         11    1    4    4    0    0 -0.10320594661E+01 -0.19479008648E+00  0.59565304621E+00  0.12074322887E+01  0.51100000000E-03 0. -1.
        -11    1    4    4    0    0 -0.12884494084E+01 -0.83326288731E+00  0.17946217976E+00  0.15448740571E+01  0.51100000000E-03 0.  1.
        -12    1    4    4    0    0  0.34179067013E+02 -0.19765710606E+02 -0.21662315453E+02  0.45034962511E+02  0.00000000000E+00 0.  1.
</event>
<event>
 8    1  0.6524083E-011  0.9118800E+02  0.7816164E-02  0.1184000E+00
        -11   -1    0    0    0    0  0.00000000000E+00  0.00000000000E+00  0.45593999997E+02  0.45594000000E+02  0.51100000000E-03 0. -1.
         11   -1    0    0    0    0 -0.00000000000E+00 -0.00000000000E+00 -0.45593999997E+02  0.45594000000E+02  0.51100000000E-03 0.  1.
         23    2    1    2    0    0  0.00000000000E+00  0.00000000000E+00  0.00000000000E+00  0.91188000000E+02  0.91188000000E+02 0.  0.
    9900012    2    3    3    0    0  0.14898765891E+02  0.33351072378E+02 -0.23438343948E+02  0.47787271655E+02  0.20000002785E+02 0.  0.
         12    1    3    3    0    0 -0.14898765891E+02 -0.33351072378E+02  0.23438343948E+02  0.43400728345E+02  0.00000000000E+00 0. -1.
         11    1    4    4    0    0  0.15042266081E+01  0.76884925893E+01 -0.21530602641E+01  0.81247329030E+01  0.51100000000E-03 0. -1.
        -11    1    4    4    0    0  0.12087116986E+02  0.27336294630E+02 -0.15860378695E+02  0.33836711036E+02  0.51100000000E-03 0.  1.
         12    1    4    4    0    0  0.13074222963E+01 -0.16737148415E+01 -0.54249049894E+01  0.58258277159E+01  0.00000000000E+00 0. -1.
</event>
<event>
 8    1  0.6524083E-011  0.9118800E+02  0.7816164E-02  0.1184000E+00
        -11   -1    0    0    0    0  0.00000000000E+00  0.00000000000E+00  0.45593999997E+02  0.45594000000E+02  0.51100000000E-03 0. -1.
         11   -1    0    0    0    0 -0.00000000000E+00 -0.00000000000E+00 -0.45593999997E+02  0.45594000000E+02  0.51100000000E-03 0.  1.
         23    2    1    2    0    0  0.00000000000E+00  0.17763568394E-14  0.00000000000E+00  0.91188000000E+02  0.91188000000E+02 0.  0.
    9900012    2    3    3    0    0  0.15751131577E+02 -0.97369994864E+01 -0.39251953869E+02  0.47787272039E+02  0.20000004537E+02 0.  0.
         12    1    3    3    0    0 -0.15751131577E+02  0.97369994864E+01  0.39251953869E+02  0.43400727961E+02  0.00000000000E+00 0. -1.
         11    1    4    4    0    0  0.33160081654E+01  0.30885725062E+01 -0.42165983008E+01  0.61899024040E+01  0.51100000000E-03 0. -1.
        -11    1    4    4    0    0  0.21504330651E+01 -0.55357327886E+01 -0.24374856248E+02  0.25087891845E+02  0.51100000000E-03 0.  1.
        -12    1    4    4    0    0  0.10284690346E+02 -0.72898392041E+01 -0.10660499321E+02  0.16509477790E+02  0.00000000000E+00 0.  1.
</event>
<event>
 8    1  0.6524083E-011  0.9118800E+02  0.7816164E-02  0.1184000E+00
        -11   -1    0    0    0    0  0.00000000000E+00  0.00000000000E+00  0.45593999997E+02  0.45594000000E+02  0.51100000000E-03 0. -1.
         11   -1    0    0    0    0 -0.00000000000E+00 -0.00000000000E+00 -0.45593999997E+02  0.45594000000E+02  0.51100000000E-03 0.  1.
         23    2    1    2    0    0  0.35527136788E-14 -0.35527136788E-14  0.00000000000E+00  0.91188000000E+02  0.91188000000E+02 0.  0.
    9900012    2    3    3    0    0 -0.23637188442E+02  0.29535307735E+02 -0.21273745881E+02  0.47787270233E+02  0.19999996302E+02 0.  0.
         12    1    3    3    0    0  0.23637188442E+02 -0.29535307735E+02  0.21273745881E+02  0.43400729767E+02  0.00000000000E+00 0. -1.
         11    1    4    4    0    0  0.41295790594E+00  0.55708973510E+01 -0.53823843947E+01  0.77572864818E+01  0.51100000000E-03 0. -1.
        -11    1    4    4    0    0 -0.11389265531E+02  0.16664708456E+02 -0.27412148777E+01  0.20370128535E+02  0.51100000000E-03 0.  1.
        -12    1    4    4    0    0 -0.12660880817E+02  0.72997019283E+01 -0.13150146609E+02  0.19659855216E+02  0.00000000000E+00 0.  1.
</event>
<event>
 8    1  0.6524083E-011  0.9118800E+02  0.7816164E-02  0.1184000E+00
        -11   -1    0    0    0    0  0.00000000000E+00  0.00000000000E+00  0.45593999997E+02  0.45594000000E+02  0.51100000000E-03 0. -1.
         11   -1    0    0    0    0 -0.00000000000E+00 -0.00000000000E+00 -0.45593999997E+02  0.45594000000E+02  0.51100000000E-03 0.  1.
         23    2    1    2    0    0  0.00000000000E+00  0.00000000000E+00  0.00000000000E+00  0.91188000000E+02  0.91188000000E+02 0.  0.
    9900012    2    3    3    0    0  0.10320614628E+02  0.23858802517E+02  0.34754366898E+02  0.47787267721E+02  0.19999984848E+02 0.  0.
        -12    1    3    3    0    0 -0.10320614628E+02 -0.23858802517E+02 -0.34754366898E+02  0.43400732279E+02  0.00000000000E+00 0.  1.
         11    1    4    4    0    0  0.36003498540E+01  0.14064267998E+02  0.19206302292E+02  0.24075884228E+02  0.51100000000E-03 0. -1.
        -11    1    4    4    0    0  0.10056220903E+02  0.45635173356E+01  0.12857204542E+02  0.16948775124E+02  0.51100000000E-03 0.  1.
        -12    1    4    4    0    0 -0.33359561284E+01  0.52310171836E+01  0.26908600644E+01  0.67626083690E+01  0.00000000000E+00 0.  1.
</event>
<event>
 8    1  0.6524083E-011  0.9118800E+02  0.7816164E-02  0.1184000E+00
        -11   -1    0    0    0    0  0.00000000000E+00  0.00000000000E+00  0.45593999997E+02  0.45594000000E+02  0.51100000000E-03 0. -1.
         11   -1    0    0    0    0 -0.00000000000E+00 -0.00000000000E+00 -0.45593999997E+02  0.45594000000E+02  0.51100000000E-03 0.  1.
         23    2    1    2    0    0  0.00000000000E+00 -0.88817841970E-15  0.00000000000E+00  0.91188000000E+02  0.91188000000E+02 0.  0.
    9900012    2    3    3    0    0  0.39410825414E+02  0.52905790343E+01  0.17390218745E+02  0.47787273113E+02  0.20000009432E+02 0.  0.
        -12    1    3    3    0    0 -0.39410825414E+02 -0.52905790343E+01 -0.17390218745E+02  0.43400726887E+02  0.00000000000E+00 0.  1.
         11    1    4    4    0    0  0.27014040463E+02  0.17441256781E+01  0.14597941894E+02  0.30755491613E+02  0.51100000000E-03 0. -1.
        -11    1    4    4    0    0 -0.21596553561E+00 -0.14272305914E+01  0.31543710925E+01  0.34689602944E+01  0.51100000000E-03 0.  1.
        -12    1    4    4    0    0  0.12612750486E+02  0.49736839476E+01 -0.36209424140E+00  0.13562821206E+02  0.00000000000E+00 0.  1.
</event>
<event>
 8    1  0.6524083E-011  0.9118800E+02  0.7816164E-02  0.1184000E+00
        -11   -1    0    0    0    0  0.00000000000E+00  0.00000000000E+00  0.45593999997E+02  0.45594000000E+02  0.51100000000E-03 0. -1.
         11   -1    0    0    0    0 -0.00000000000E+00 -0.00000000000E+00 -0.45593999997E+02  0.45594000000E+02  0.51100000000E-03 0.  1.
         23    2    1    2    0    0  0.35527136788E-14  0.00000000000E+00 -0.35527136788E-14  0.91188000000E+02  0.91188000000E+02 0.  0.
    9900012    2    3    3    0    0  0.27716937604E+02  0.22864908331E+02  0.24343191455E+02  0.47787266903E+02  0.19999981119E+02 0.  0.
        -12    1    3    3    0    0 -0.27716937604E+02 -0.22864908331E+02 -0.24343191455E+02  0.43400733097E+02  0.00000000000E+00 0.  1.
         11    1    4    4    0    0  0.15169968253E+02  0.12983531782E+02  0.21557660740E+02  0.29384226571E+02  0.51100000000E-03 0. -1.
        -11    1    4    4    0    0  0.35080557154E+01 -0.10802383890E+01 -0.78485905400E+00  0.37535814731E+01  0.51100000000E-03 0.  1.
        -12    1    4    4    0    0  0.90389136357E+01  0.10961614938E+02  0.35703897690E+01  0.14649458859E+02  0.00000000000E+00 0.  1.
</event>
<event>
 8    1  0.6524083E-011  0.9118800E+02  0.7816164E-02  0.1184000E+00
        -11   -1    0    0    0    0  0.00000000000E+00  0.00000000000E+00  0.45593999997E+02  0.45594000000E+02  0.51100000000E-03 0. -1.
         11   -1    0    0    0    0 -0.00000000000E+00 -0.00000000000E+00 -0.45593999997E+02  0.45594000000E+02  0.51100000000E-03 0.  1.
         23    2    1    2    0    0  0.22204460493E-15  0.17763568394E-14 -0.71054273576E-14  0.91188000000E+02  0.91188000000E+02 0.  0.
    9900012    2    3    3    0    0  0.18303450645E+01  0.10168384713E+02 -0.42153017105E+02  0.47787273488E+02  0.20000011139E+02 0.  0.
         12    1    3    3    0    0 -0.18303450645E+01 -0.10168384713E+02  0.42153017105E+02  0.43400726512E+02  0.00000000000E+00 0. -1.
         11    1    4    4    0    0 -0.33936193414E+01  0.34783292512E+01 -0.21667529143E+02  0.22205793073E+02  0.51100000000E-03 0. -1.
        -11    1    4    4    0    0  0.18607377634E+01 -0.30673461132E+01 -0.13368677333E+01  0.38285993261E+01  0.51100000000E-03 0.  1.
         12    1    4    4    0    0  0.33632266425E+01  0.97574015751E+01 -0.19148620229E+02  0.21752881088E+02  0.00000000000E+00 0. -1.
</event>
<event>
 8    1  0.6524083E-011  0.9118800E+02  0.7816164E-02  0.1184000E+00
        -11   -1    0    0    0    0  0.00000000000E+00  0.00000000000E+00  0.45593999997E+02  0.45594000000E+02  0.51100000000E-03 0. -1.
         11   -1    0    0    0    0 -0.00000000000E+00 -0.00000000000E+00 -0.45593999997E+02  0.45594000000E+02  0.51100000000E-03 0.  1.
         23    2    1    2    0    0  0.00000000000E+00  0.35527136788E-14  0.00000000000E+00  0.91188000000E+02  0.91188000000E+02 0.  0.
    9900012    2    3    3    0    0 -0.12796833941E+02  0.21061317973E+02  0.35725134035E+02  0.47787271026E+02  0.19999999917E+02 0.  0.
        -12    1    3    3    0    0  0.12796833941E+02 -0.21061317973E+02 -0.35725134035E+02  0.43400728974E+02  0.00000000000E+00 0.  1.
         11    1    4    4    0    0  0.55911346984E+00  0.13923751877E+02  0.16311803718E+02  0.21453634074E+02  0.51100000000E-03 0. -1.
        -11    1    4    4    0    0 -0.73494352417E+01  0.67568391563E+01  0.60398978416E+01  0.11668309216E+02  0.51100000000E-03 0.  1.
         12    1    4    4    0    0 -0.60065121692E+01  0.38072693920E+00  0.13373432475E+02  0.14665327736E+02  0.00000000000E+00 0. -1.
</event>
<event>
 8    1  0.6524083E-011  0.9118800E+02  0.7816164E-02  0.1184000E+00
        -11   -1    0    0    0    0  0.00000000000E+00  0.00000000000E+00  0.45593999997E+02  0.45594000000E+02  0.51100000000E-03 0. -1.
         11   -1    0    0    0    0 -0.00000000000E+00 -0.00000000000E+00 -0.45593999997E+02  0.45594000000E+02  0.51100000000E-03 0.  1.
         23    2    1    2    0    0  0.00000000000E+00  0.00000000000E+00  0.00000000000E+00  0.91188000000E+02  0.91188000000E+02 0.  0.
    9900012    2    3    3    0    0  0.43408576608E+01 -0.18743599744E+02  0.38903185860E+02  0.47787269054E+02  0.19999990923E+02 0.  0.
        -12    1    3    3    0    0 -0.43408576608E+01  0.18743599744E+02 -0.38903185860E+02  0.43400730946E+02  0.00000000000E+00 0.  1.
         11    1    4    4    0    0 -0.20634189847E+01  0.66326936174E+00  0.36783830457E+01  0.42694409756E+01  0.51100000000E-03 0. -1.
        -11    1    4    4    0    0 -0.48518690781E-01 -0.26503352965E+01 -0.11984005593E+01  0.29090884155E+01  0.51100000000E-03 0.  1.
         12    1    4    4    0    0  0.64527953363E+01 -0.16756533810E+02  0.36423203374E+02  0.40608739662E+02  0.00000000000E+00 0. -1.
</event>
<event>
 8    1  0.6524083E-011  0.9118800E+02  0.7816164E-02  0.1184000E+00
        -11   -1    0    0    0    0  0.00000000000E+00  0.00000000000E+00  0.45593999997E+02  0.45594000000E+02  0.51100000000E-03 0. -1.
         11   -1    0    0    0    0 -0.00000000000E+00 -0.00000000000E+00 -0.45593999997E+02  0.45594000000E+02  0.51100000000E-03 0.  1.
         23    2    1    2    0    0  0.00000000000E+00  0.00000000000E+00 -0.71054273576E-14  0.91188000000E+02  0.91188000000E+02 0.  0.
    9900012    2    3    3    0    0  0.24555917053E+02  0.14673305872E+02  0.32639301936E+02  0.47787274218E+02  0.20000014470E+02 0.  0.
        -12    1    3    3    0    0 -0.24555917053E+02 -0.14673305872E+02 -0.32639301936E+02  0.43400725782E+02  0.00000000000E+00 0.  1.
         11    1    4    4    0    0  0.12588143152E+02  0.49594533284E+01  0.17678408397E+02  0.22261708134E+02  0.51100000000E-03 0. -1.
        -11    1    4    4    0    0  0.61691566172E+01 -0.15777505823E+01  0.65685573815E+00  0.64015037288E+01  0.51100000000E-03 0.  1.
         12    1    4    4    0    0  0.57986172837E+01  0.11291603126E+02  0.14304037801E+02  0.19124062355E+02  0.00000000000E+00 0. -1.
</event>
<event>
 8    1  0.6524083E-011  0.9118800E+02  0.7816164E-02  0.1184000E+00
        -11   -1    0    0    0    0  0.00000000000E+00  0.00000000000E+00  0.45593999997E+02  0.45594000000E+02  0.51100000000E-03 0. -1.
         11   -1    0    0    0    0 -0.00000000000E+00 -0.00000000000E+00 -0.45593999997E+02  0.45594000000E+02  0.51100000000E-03 0.  1.
         23    2    1    2    0    0 -0.35527136788E-14  0.00000000000E+00  0.00000000000E+00  0.91188000000E+02  0.91188000000E+02 0.  0.
    9900012    2    3    3    0    0  0.19311531716E+02  0.32350129942E+02  0.21544302737E+02  0.47787272530E+02  0.20000006774E+02 0.  0.
        -12    1    3    3    0    0 -0.19311531716E+02 -0.32350129942E+02 -0.21544302737E+02  0.43400727470E+02  0.00000000000E+00 0.  1.
         11    1    4    4    0    0  0.57932342741E+01  0.16299077290E+02  0.41344672166E+01  0.17785255221E+02  0.51100000000E-03 0. -1.
        -11    1    4    4    0    0  0.41159401021E+01  0.95617113298E+01  0.16545182076E+01  0.10540622242E+02  0.51100000000E-03 0.  1.
         12    1    4    4    0    0  0.94023573402E+01  0.64893413221E+01  0.15755317313E+02  0.19461395068E+02  0.00000000000E+00 0. -1.
</event>
<event>
 8    1  0.6554533E-011  0.9118800E+02  0.7816164E-02  0.1184000E+00
        -11   -1    0    0    0    0  0.00000000000E+00  0.00000000000E+00  0.45593999997E+02  0.45594000000E+02  0.51100000000E-03 0. -1.
         11   -1    0    0    0    0 -0.00000000000E+00 -0.00000000000E+00 -0.45593999997E+02  0.45594000000E+02  0.51100000000E-03 0.  1.
         23    2    1    2    0    0  0.00000000000E+00  0.00000000000E+00  0.00000000000E+00  0.91188000000E+02  0.91188000000E+02 0.  0.
    9900012    2    3    3    0    0 -0.23322152555E+02 -0.21124162720E+02 -0.29890974358E+02  0.47787269609E+02  0.19999993454E+02 0.  0.
         12    1    3    3    0    0  0.23322152555E+02  0.21124162720E+02  0.29890974358E+02  0.43400730391E+02  0.00000000000E+00 0. -1.
         11    1    4    4    0    0 -0.12791398292E+02 -0.12829557162E+02 -0.10189867365E+02  0.20785831819E+02  0.51100000000E-03 0. -1.
        -11    1    4    4    0    0 -0.59212947194E+01 -0.94294951089E+01 -0.19243108352E+02  0.22232281225E+02  0.51100000000E-03 0.  1.
         12    1    4    4    0    0 -0.46094595442E+01  0.11348895508E+01 -0.45799864073E+00  0.47691565645E+01  0.00000000000E+00 0. -1.
</event>
<event>
 8    1  0.7531004E-011  0.9118800E+02  0.7816164E-02  0.1184000E+00
        -11   -1    0    0    0    0  0.00000000000E+00  0.00000000000E+00  0.45593999997E+02  0.45594000000E+02  0.51100000000E-03 0. -1.
         11   -1    0    0    0    0 -0.00000000000E+00 -0.00000000000E+00 -0.45593999997E+02  0.45594000000E+02  0.51100000000E-03 0.  1.
         23    2    1    2    0    0 -0.17763568394E-14  0.00000000000E+00  0.00000000000E+00  0.91188000000E+02  0.91188000000E+02 0.  0.
    9900012    2    3    3    0    0  0.92415601112E+01 -0.90834838268E+01 -0.41421096141E+02  0.47787270545E+02  0.19999997723E+02 0.  0.
         12    1    3    3    0    0 -0.92415601112E+01  0.90834838268E+01  0.41421096141E+02  0.43400729455E+02  0.00000000000E+00 0. -1.
         11    1    4    4    0    0 -0.26401378892E+01 -0.17050813383E+00 -0.74986916420E+01  0.79517153935E+01  0.51100000000E-03 0.  1.
        -11    1    4    4    0    0  0.84793598695E+01 -0.10743044587E+02 -0.33193183992E+02  0.35904038973E+02  0.51100000000E-03 0. -1.
         12    1    4    4    0    0  0.34023381309E+01  0.18300688940E+01 -0.72922050688E+00  0.39315161785E+01  0.00000000000E+00 0. -1.
</event>
<event>
 8    1  0.6524083E-011  0.9118800E+02  0.7816164E-02  0.1184000E+00
        -11   -1    0    0    0    0  0.00000000000E+00  0.00000000000E+00  0.45593999997E+02  0.45594000000E+02  0.51100000000E-03 0. -1.
         11   -1    0    0    0    0 -0.00000000000E+00 -0.00000000000E+00 -0.45593999997E+02  0.45594000000E+02  0.51100000000E-03 0.  1.
         23    2    1    2    0    0  0.00000000000E+00  0.00000000000E+00  0.00000000000E+00  0.91188000000E+02  0.91188000000E+02 0.  0.
    9900012    2    3    3    0    0  0.29961915632E+02  0.28286728871E+01  0.31271470572E+02  0.47787278227E+02  0.20000032749E+02 0.  0.
        -12    1    3    3    0    0 -0.29961915632E+02 -0.28286728871E+01 -0.31271470572E+02  0.43400721773E+02  0.00000000000E+00 0.  1.
         11    1    4    4    0    0 -0.10508348027E+01 -0.16035708317E+01  0.90203127435E+00  0.21188095421E+01  0.51100000000E-03 0. -1.
        -11    1    4    4    0    0  0.72861926610E+01 -0.17520972953E+01  0.14896448057E+02  0.16675209546E+02  0.51100000000E-03 0.  1.
         12    1    4    4    0    0  0.23726557774E+02  0.61843410141E+01  0.15472991241E+02  0.28993259139E+02  0.00000000000E+00 0. -1.
</event>
<event>
 8    1  0.6524083E-011  0.9118800E+02  0.7816164E-02  0.1184000E+00
        -11   -1    0    0    0    0  0.00000000000E+00  0.00000000000E+00  0.45593999997E+02  0.45594000000E+02  0.51100000000E-03 0. -1.
         11   -1    0    0    0    0 -0.00000000000E+00 -0.00000000000E+00 -0.45593999997E+02  0.45594000000E+02  0.51100000000E-03 0.  1.
         23    2    1    2    0    0  0.00000000000E+00  0.35527136788E-14  0.71054273576E-14  0.91188000000E+02  0.91188000000E+02 0.  0.
    9900012    2    3    3    0    0 -0.18765909167E+02  0.23687405053E+02  0.31150773340E+02  0.47787272072E+02  0.20000004686E+02 0.  0.
        -12    1    3    3    0    0  0.18765909167E+02 -0.23687405053E+02 -0.31150773340E+02  0.43400727928E+02  0.00000000000E+00 0.  1.
         11    1    4    4    0    0 -0.15418867779E+02  0.99352632975E+01  0.12914969010E+02  0.22433175548E+02  0.51100000000E-03 0. -1.
        -11    1    4    4    0    0 -0.40789481430E+01  0.93953315527E+01  0.18259607392E+02  0.20936172891E+02  0.51100000000E-03 0.  1.
        -12    1    4    4    0    0  0.73190675551E+00  0.43568102027E+01 -0.23803062894E-01  0.44179236329E+01  0.00000000000E+00 0.  1.
</event>
<event>
 8    1  0.6524083E-011  0.9118800E+02  0.7816164E-02  0.1184000E+00
        -11   -1    0    0    0    0  0.00000000000E+00  0.00000000000E+00  0.45593999997E+02  0.45594000000E+02  0.51100000000E-03 0. -1.
         11   -1    0    0    0    0 -0.00000000000E+00 -0.00000000000E+00 -0.45593999997E+02  0.45594000000E+02  0.51100000000E-03 0.  1.
         23    2    1    2    0    0  0.00000000000E+00  0.00000000000E+00  0.00000000000E+00  0.91188000000E+02  0.91188000000E+02 0.  0.
    9900012    2    3    3    0    0 -0.92707179822E+01 -0.24775060929E+02  0.34407462200E+02  0.47787270617E+02  0.19999998051E+02 0.  0.
        -12    1    3    3    0    0  0.92707179822E+01  0.24775060929E+02 -0.34407462200E+02  0.43400729383E+02  0.00000000000E+00 0.  1.
         11    1    4    4    0    0 -0.19817573634E+01 -0.18554281822E+00 -0.41529356757E+00  0.20332873366E+01  0.51100000000E-03 0. -1.
        -11    1    4    4    0    0  0.35754815080E+01 -0.20668364313E+01  0.22934571664E+01  0.47239630485E+01  0.51100000000E-03 0.  1.
         12    1    4    4    0    0 -0.10864442127E+02 -0.22522681679E+02  0.32529298601E+02  0.41030020232E+02  0.00000000000E+00 0. -1.
</event>
<event>
 8    1  0.6524083E-011  0.9118800E+02  0.7816164E-02  0.1184000E+00
        -11   -1    0    0    0    0  0.00000000000E+00  0.00000000000E+00  0.45593999997E+02  0.45594000000E+02  0.51100000000E-03 0. -1.
         11   -1    0    0    0    0 -0.00000000000E+00 -0.00000000000E+00 -0.45593999997E+02  0.45594000000E+02  0.51100000000E-03 0.  1.
         23    2    1    2    0    0  0.00000000000E+00  0.22204460493E-15  0.00000000000E+00  0.91188000000E+02  0.91188000000E+02 0.  0.
    9900012    2    3    3    0    0 -0.96902056272E+01  0.18487052135E+01  0.42264706735E+02  0.47787271533E+02  0.20000002229E+02 0.  0.
        -12    1    3    3    0    0  0.96902056272E+01 -0.18487052135E+01 -0.42264706735E+02  0.43400728467E+02  0.00000000000E+00 0.  1.
         11    1    4    4    0    0 -0.34410124013E+00  0.28998468731E+00 -0.10255434878E+01  0.11199270015E+01  0.51100000000E-03 0.  1.
        -11    1    4    4    0    0 -0.11440189145E+02 -0.32497902930E+01  0.33695689508E+02  0.35732877806E+02  0.51100000000E-03 0. -1.
         12    1    4    4    0    0  0.20940847583E+01  0.48085108191E+01  0.95945607145E+01  0.10934466726E+02  0.00000000000E+00 0. -1.
</event>
<event>
 8    1  0.6524083E-011  0.9118800E+02  0.7816164E-02  0.1184000E+00
        -11   -1    0    0    0    0  0.00000000000E+00  0.00000000000E+00  0.45593999997E+02  0.45594000000E+02  0.51100000000E-03 0. -1.
         11   -1    0    0    0    0 -0.00000000000E+00 -0.00000000000E+00 -0.45593999997E+02  0.45594000000E+02  0.51100000000E-03 0.  1.
         23    2    1    2    0    0 -0.17763568394E-14  0.00000000000E+00  0.00000000000E+00  0.91188000000E+02  0.91188000000E+02 0.  0.
    9900012    2    3    3    0    0 -0.14535696736E+02 -0.16560153834E+02 -0.37391136822E+02  0.47787282408E+02  0.20000051812E+02 0.  0.
         12    1    3    3    0    0  0.14535696736E+02  0.16560153834E+02  0.37391136822E+02  0.43400717592E+02  0.00000000000E+00 0. -1.
         11    1    4    4    0    0 -0.29523231738E+01 -0.28548170828E+00 -0.11042334877E+02  0.11433760175E+02  0.51100000000E-03 0. -1.
        -11    1    4    4    0    0 -0.49941951836E+01 -0.16837639078E+02 -0.23006085168E+02  0.28943531752E+02  0.51100000000E-03 0.  1.
        -12    1    4    4    0    0 -0.65891783785E+01  0.56296695207E+00 -0.33427167773E+01  0.74099904821E+01  0.00000000000E+00 0.  1.
</event>
<event>
 8    1  0.6524083E-011  0.9118800E+02  0.7816164E-02  0.1184000E+00
        -11   -1    0    0    0    0  0.00000000000E+00  0.00000000000E+00  0.45593999997E+02  0.45594000000E+02  0.51100000000E-03 0. -1.
         11   -1    0    0    0    0 -0.00000000000E+00 -0.00000000000E+00 -0.45593999997E+02  0.45594000000E+02  0.51100000000E-03 0.  1.
         23    2    1    2    0    0 -0.88817841970E-15  0.00000000000E+00 -0.35527136788E-14  0.91188000000E+02  0.91188000000E+02 0.  0.
    9900012    2    3    3    0    0  0.63786819262E+01 -0.35035579673E+02 -0.24808142944E+02  0.47787269793E+02  0.19999994294E+02 0.  0.
         12    1    3    3    0    0 -0.63786819262E+01  0.35035579673E+02  0.24808142944E+02  0.43400730207E+02  0.00000000000E+00 0. -1.
         11    1    4    4    0    0 -0.44791621360E+01 -0.12848598080E+01 -0.28734216760E+01  0.54745146412E+01  0.51100000000E-03 0. -1.
        -11    1    4    4    0    0  0.12755348103E+01 -0.21576372821E+01 -0.40566688975E+01  0.47685375639E+01  0.51100000000E-03 0.  1.
        -12    1    4    4    0    0  0.95823092519E+01 -0.31593082583E+02 -0.17878052371E+02  0.37544217588E+02  0.00000000000E+00 0.  1.
</event>
<event>
 8    1  0.6524083E-011  0.9118800E+02  0.7816164E-02  0.1184000E+00
        -11   -1    0    0    0    0  0.00000000000E+00  0.00000000000E+00  0.45593999997E+02  0.45594000000E+02  0.51100000000E-03 0. -1.
         11   -1    0    0    0    0 -0.00000000000E+00 -0.00000000000E+00 -0.45593999997E+02  0.45594000000E+02  0.51100000000E-03 0.  1.
         23    2    1    2    0    0 -0.27755575616E-16  0.00000000000E+00  0.00000000000E+00  0.91188000000E+02  0.91188000000E+02 0.  0.
    9900012    2    3    3    0    0 -0.79688272911E-01  0.16787181391E+02 -0.40022586551E+02  0.47787271394E+02  0.20000001595E+02 0.  0.
         12    1    3    3    0    0  0.79688272911E-01 -0.16787181391E+02  0.40022586551E+02  0.43400728606E+02  0.00000000000E+00 0. -1.
         11    1    4    4    0    0  0.38110288564E+00  0.39688992847E+01 -0.52861950202E+01  0.66212732155E+01  0.51100000000E-03 0. -1.
        -11    1    4    4    0    0 -0.14256005484E+01  0.59638764016E+01 -0.33595640140E+02  0.34150654391E+02  0.51100000000E-03 0.  1.
         12    1    4    4    0    0  0.96480938989E+00  0.68544057047E+01 -0.11407513909E+01  0.70153437876E+01  0.00000000000E+00 0. -1.
</event>
<event>
 8    1  0.7453497E-011  0.9118800E+02  0.7816164E-02  0.1184000E+00
        -11   -1    0    0    0    0  0.00000000000E+00  0.00000000000E+00  0.45593999997E+02  0.45594000000E+02  0.51100000000E-03 0. -1.
         11   -1    0    0    0    0 -0.00000000000E+00 -0.00000000000E+00 -0.45593999997E+02  0.45594000000E+02  0.51100000000E-03 0.  1.
         23    2    1    2    0    0 -0.35527136788E-14  0.35527136788E-14 -0.35527136788E-14  0.91188000000E+02  0.91188000000E+02 0.  0.
    9900012    2    3    3    0    0 -0.25385725900E+02  0.27099406896E+02 -0.22467985765E+02  0.47787270537E+02  0.19999997687E+02 0.  0.
         12    1    3    3    0    0  0.25385725900E+02 -0.27099406896E+02  0.22467985765E+02  0.43400729463E+02  0.00000000000E+00 0. -1.
         11    1    4    4    0    0 -0.55537276642E+01  0.14745885588E+02 -0.61695336661E+01  0.16921825512E+02  0.51100000000E-03 0. -1.
        -11    1    4    4    0    0 -0.18789977901E+02  0.14559887651E+02 -0.14834392160E+02  0.28019864185E+02  0.51100000000E-03 0.  1.
         12    1    4    4    0    0 -0.10420203345E+01 -0.22063663425E+01 -0.14640599390E+01  0.28455808404E+01  0.00000000000E+00 0. -1.
</event>
<event>
 8    1  0.6524083E-011  0.9118800E+02  0.7816164E-02  0.1184000E+00
        -11   -1    0    0    0    0  0.00000000000E+00  0.00000000000E+00  0.45593999997E+02  0.45594000000E+02  0.51100000000E-03 0. -1.
         11   -1    0    0    0    0 -0.00000000000E+00 -0.00000000000E+00 -0.45593999997E+02  0.45594000000E+02  0.51100000000E-03 0.  1.
         23    2    1    2    0    0  0.00000000000E+00  0.00000000000E+00  0.00000000000E+00  0.91188000000E+02  0.91188000000E+02 0.  0.
    9900012    2    3    3    0    0  0.30926872024E+02 -0.16123507174E+02  0.25829942325E+02  0.47787253264E+02  0.19999918930E+02 0.  0.
        -12    1    3    3    0    0 -0.30926872024E+02  0.16123507174E+02 -0.25829942325E+02  0.43400746736E+02  0.00000000000E+00 0.  1.
         11    1    4    4    0    0  0.61134932057E+01 -0.11334495696E+01  0.48396151902E+01  0.78791739766E+01  0.51100000000E-03 0. -1.
        -11    1    4    4    0    0  0.14499049017E+01  0.13452200574E+01  0.85993112591E+01  0.88238311191E+01  0.51100000000E-03 0.  1.
        -12    1    4    4    0    0  0.23363473916E+02 -0.16335277662E+02  0.12391015876E+02  0.31084248168E+02  0.00000000000E+00 0.  1.
</event>
<event>
 8    1  0.6524083E-011  0.9118800E+02  0.7816164E-02  0.1184000E+00
        -11   -1    0    0    0    0  0.00000000000E+00  0.00000000000E+00  0.45593999997E+02  0.45594000000E+02  0.51100000000E-03 0. -1.
         11   -1    0    0    0    0 -0.00000000000E+00 -0.00000000000E+00 -0.45593999997E+02  0.45594000000E+02  0.51100000000E-03 0.  1.
         23    2    1    2    0    0  0.00000000000E+00 -0.35527136788E-14  0.35527136788E-14  0.91188000000E+02  0.91188000000E+02 0.  0.
    9900012    2    3    3    0    0 -0.20663431869E+02 -0.24857588313E+02  0.28961105479E+02  0.47787277150E+02  0.20000027838E+02 0.  0.
        -12    1    3    3    0    0  0.20663431869E+02  0.24857588313E+02 -0.28961105479E+02  0.43400722850E+02  0.00000000000E+00 0.  1.
         11    1    4    4    0    0 -0.96284493122E+01 -0.24747285220E+01  0.67328166920E+01  0.12006753861E+02  0.51100000000E-03 0. -1.
        -11    1    4    4    0    0 -0.99979371381E+01 -0.20550189254E+02  0.12952130158E+02  0.26268359319E+02  0.51100000000E-03 0.  1.
         12    1    4    4    0    0 -0.10370454192E+01 -0.18326705363E+01  0.92761586282E+01  0.95121639700E+01  0.00000000000E+00 0. -1.
</event>
<event>
 8    1  0.6524083E-011  0.9118800E+02  0.7816164E-02  0.1184000E+00
        -11   -1    0    0    0    0  0.00000000000E+00  0.00000000000E+00  0.45593999997E+02  0.45594000000E+02  0.51100000000E-03 0. -1.
         11   -1    0    0    0    0 -0.00000000000E+00 -0.00000000000E+00 -0.45593999997E+02  0.45594000000E+02  0.51100000000E-03 0.  1.
         23    2    1    2    0    0  0.11102230246E-15  0.13322676296E-14  0.00000000000E+00  0.91188000000E+02  0.91188000000E+02 0.  0.
    9900012    2    3    3    0    0  0.76945886019E+00  0.30450065798E+01  0.43286939680E+02  0.47787270987E+02  0.19999999738E+02 0.  0.
        -12    1    3    3    0    0 -0.76945886019E+00 -0.30450065798E+01 -0.43286939680E+02  0.43400729013E+02  0.00000000000E+00 0.  1.
         11    1    4    4    0    0 -0.17637774215E+01 -0.28724080626E+01  0.29764310494E+01  0.44967522640E+01  0.51100000000E-03 0. -1.
        -11    1    4    4    0    0 -0.37914498927E+01 -0.30052129046E+01  0.13047218504E+02  0.13915326365E+02  0.51100000000E-03 0.  1.
         12    1    4    4    0    0  0.63246861744E+01  0.89226275470E+01  0.27263290127E+02  0.29375192358E+02  0.00000000000E+00 0. -1.
</event>
<event>
 8    1  0.6524083E-011  0.9118800E+02  0.7816164E-02  0.1184000E+00
        -11   -1    0    0    0    0  0.00000000000E+00  0.00000000000E+00  0.45593999997E+02  0.45594000000E+02  0.51100000000E-03 0. -1.
         11   -1    0    0    0    0 -0.00000000000E+00 -0.00000000000E+00 -0.45593999997E+02  0.45594000000E+02  0.51100000000E-03 0.  1.
         23    2    1    2    0    0 -0.35527136788E-14  0.00000000000E+00  0.00000000000E+00  0.91188000000E+02  0.91188000000E+02 0.  0.
    9900012    2    3    3    0    0  0.29599039269E+02 -0.10095822419E+02 -0.30093103777E+02  0.47787266700E+02  0.19999980194E+02 0.  0.
         12    1    3    3    0    0 -0.29599039269E+02  0.10095822419E+02  0.30093103777E+02  0.43400733300E+02  0.00000000000E+00 0. -1.
         11    1    4    4    0    0  0.45114665275E+01 -0.26813868188E+01 -0.10046335392E+02  0.11334549862E+02  0.51100000000E-03 0. -1.
        -11    1    4    4    0    0  0.12707707184E+02 -0.75304217355E+00 -0.18291562501E+02  0.22285290068E+02  0.51100000000E-03 0.  1.
         12    1    4    4    0    0  0.12379865558E+02 -0.66613934270E+01 -0.17552058837E+01  0.14167426771E+02  0.00000000000E+00 0. -1.
</event>
<event>
 8    1  0.6524083E-011  0.9118800E+02  0.7816164E-02  0.1184000E+00
        -11   -1    0    0    0    0  0.00000000000E+00  0.00000000000E+00  0.45593999997E+02  0.45594000000E+02  0.51100000000E-03 0. -1.
         11   -1    0    0    0    0 -0.00000000000E+00 -0.00000000000E+00 -0.45593999997E+02  0.45594000000E+02  0.51100000000E-03 0.  1.
         23    2    1    2    0    0  0.00000000000E+00  0.71054273576E-14  0.00000000000E+00  0.91188000000E+02  0.91188000000E+02 0.  0.
    9900012    2    3    3    0    0  0.16177802714E+02 -0.33388070027E+02  0.22519731188E+02  0.47787276347E+02  0.20000024179E+02 0.  0.
        -12    1    3    3    0    0 -0.16177802714E+02  0.33388070027E+02 -0.22519731188E+02  0.43400723653E+02  0.00000000000E+00 0.  1.
         11    1    4    4    0    0  0.64314416715E+01 -0.13888953940E+02  0.26111925028E+01  0.15526906004E+02  0.51100000000E-03 0. -1.
        -11    1    4    4    0    0 -0.19653717825E+01 -0.35753767029E+01  0.85223726053E+01  0.94486422250E+01  0.51100000000E-03 0.  1.
         12    1    4    4    0    0  0.11711732825E+02 -0.15923739384E+02  0.11386166080E+02  0.22811728118E+02  0.00000000000E+00 0. -1.
</event>
<event>
 8    1  0.6524083E-011  0.9118800E+02  0.7816164E-02  0.1184000E+00
        -11   -1    0    0    0    0  0.00000000000E+00  0.00000000000E+00  0.45593999997E+02  0.45594000000E+02  0.51100000000E-03 0. -1.
         11   -1    0    0    0    0 -0.00000000000E+00 -0.00000000000E+00 -0.45593999997E+02  0.45594000000E+02  0.51100000000E-03 0.  1.
         23    2    1    2    0    0  0.17763568394E-14  0.71054273576E-14  0.00000000000E+00  0.91188000000E+02  0.91188000000E+02 0.  0.
    9900012    2    3    3    0    0 -0.11749077781E+02 -0.38056829336E+02  0.17241208428E+02  0.47787281620E+02  0.20000048218E+02 0.  0.
        -12    1    3    3    0    0  0.11749077781E+02  0.38056829336E+02 -0.17241208428E+02  0.43400718380E+02  0.00000000000E+00 0.  1.
         11    1    4    4    0    0 -0.21319223256E+01 -0.31516334455E+02  0.11155647704E+02  0.33500341883E+02  0.51100000000E-03 0. -1.
        -11    1    4    4    0    0 -0.14959340845E+01 -0.28984231605E+01  0.39707702110E+01  0.51386468970E+01  0.51100000000E-03 0.  1.
        -12    1    4    4    0    0 -0.81212213711E+01 -0.36420717204E+01  0.21147905134E+01  0.91482928402E+01  0.00000000000E+00 0.  1.
</event>
<event>
 8    1  0.6524083E-011  0.9118800E+02  0.7816164E-02  0.1184000E+00
        -11   -1    0    0    0    0  0.00000000000E+00  0.00000000000E+00  0.45593999997E+02  0.45594000000E+02  0.51100000000E-03 0. -1.
         11   -1    0    0    0    0 -0.00000000000E+00 -0.00000000000E+00 -0.45593999997E+02  0.45594000000E+02  0.51100000000E-03 0.  1.
         23    2    1    2    0    0  0.00000000000E+00  0.00000000000E+00 -0.35527136788E-14  0.91188000000E+02  0.91188000000E+02 0.  0.
    9900012    2    3    3    0    0  0.11145360498E+02  0.35028625208E+02  0.23073788438E+02  0.47787270081E+02  0.19999995608E+02 0.  0.
        -12    1    3    3    0    0 -0.11145360498E+02 -0.35028625208E+02 -0.23073788438E+02  0.43400729919E+02  0.00000000000E+00 0.  1.
         11    1    4    4    0    0  0.75602974106E+01  0.46206390934E+01  0.34296217945E+01  0.95010898577E+01  0.51100000000E-03 0. -1.
        -11    1    4    4    0    0  0.46963088477E+01  0.24474556613E+02  0.98829668480E+01  0.26809182609E+02  0.51100000000E-03 0.  1.
        -12    1    4    4    0    0 -0.11112457607E+01  0.59334295020E+01  0.97611997955E+01  0.11476997614E+02  0.00000000000E+00 0.  1.
</event>
<event>
 8    1  0.6524083E-011  0.9118800E+02  0.7816164E-02  0.1184000E+00
        -11   -1    0    0    0    0  0.00000000000E+00  0.00000000000E+00  0.45593999997E+02  0.45594000000E+02  0.51100000000E-03 0. -1.
         11   -1    0    0    0    0 -0.00000000000E+00 -0.00000000000E+00 -0.45593999997E+02  0.45594000000E+02  0.51100000000E-03 0.  1.
         23    2    1    2    0    0  0.00000000000E+00  0.35527136788E-14  0.00000000000E+00  0.91188000000E+02  0.91188000000E+02 0.  0.
    9900012    2    3    3    0    0 -0.59761641364E+01  0.22041759040E+02 -0.36906225057E+02  0.47787272733E+02  0.20000007697E+02 0.  0.
         12    1    3    3    0    0  0.59761641364E+01 -0.22041759040E+02  0.36906225057E+02  0.43400727267E+02  0.00000000000E+00 0. -1.
         11    1    4    4    0    0 -0.11710813179E+01 -0.11879461406E+01  0.41101995907E+00  0.17180177979E+01  0.51100000000E-03 0. -1.
        -11    1    4    4    0    0 -0.34342860894E+01  0.28249177888E+00 -0.87314370142E+01  0.93868053747E+01  0.51100000000E-03 0.  1.
         12    1    4    4    0    0 -0.13707967291E+01  0.22947213402E+02 -0.28585808002E+02  0.36682449560E+02  0.00000000000E+00 0. -1.
</event>
<event>
 8    1  0.6524083E-011  0.9118800E+02  0.7816164E-02  0.1184000E+00
        -11   -1    0    0    0    0  0.00000000000E+00  0.00000000000E+00  0.45593999997E+02  0.45594000000E+02  0.51100000000E-03 0. -1.
         11   -1    0    0    0    0 -0.00000000000E+00 -0.00000000000E+00 -0.45593999997E+02  0.45594000000E+02  0.51100000000E-03 0.  1.
         23    2    1    2    0    0  0.00000000000E+00 -0.35527136788E-14  0.35527136788E-14  0.91188000000E+02  0.91188000000E+02 0.  0.
    9900012    2    3    3    0    0 -0.14469168528E+02 -0.29945517171E+02  0.27884273500E+02  0.47787267919E+02  0.19999985750E+02 0.  0.
        -12    1    3    3    0    0  0.14469168528E+02  0.29945517171E+02 -0.27884273500E+02  0.43400732081E+02  0.00000000000E+00 0.  1.
         11    1    4    4    0    0 -0.35461002226E+01 -0.20618153286E+02  0.21184049097E+02  0.29773259951E+02  0.51100000000E-03 0. -1.
        -11    1    4    4    0    0 -0.19982658669E+01  0.16268912114E+01  0.13144736372E+01  0.28926947113E+01  0.51100000000E-03 0.  1.
        -12    1    4    4    0    0 -0.89248024389E+01 -0.10954255097E+02  0.53857507650E+01  0.15121313257E+02  0.00000000000E+00 0.  1.
</event>
<event>
 8    1  0.6524083E-011  0.9118800E+02  0.7816164E-02  0.1184000E+00
        -11   -1    0    0    0    0  0.00000000000E+00  0.00000000000E+00  0.45593999997E+02  0.45594000000E+02  0.51100000000E-03 0. -1.
         11   -1    0    0    0    0 -0.00000000000E+00 -0.00000000000E+00 -0.45593999997E+02  0.45594000000E+02  0.51100000000E-03 0.  1.
         23    2    1    2    0    0 -0.35527136788E-14  0.00000000000E+00  0.00000000000E+00  0.91188000000E+02  0.91188000000E+02 0.  0.
    9900012    2    3    3    0    0  0.27132574923E+02 -0.99274942203E+01  0.32386593705E+02  0.47787271719E+02  0.20000003077E+02 0.  0.
        -12    1    3    3    0    0 -0.27132574923E+02  0.99274942203E+01 -0.32386593705E+02  0.43400728281E+02  0.00000000000E+00 0.  1.
         11    1    4    4    0    0  0.11057174851E+02 -0.52874157204E+01  0.14780354549E+02  0.19200957308E+02  0.51100000000E-03 0. -1.
        -11    1    4    4    0    0 -0.21308018570E-01 -0.58786979155E+01  0.22185877489E+01  0.62834445230E+01  0.51100000000E-03 0.  1.
         12    1    4    4    0    0  0.16096708091E+02  0.12386194156E+01  0.15387651408E+02  0.22302869889E+02  0.00000000000E+00 0. -1.
</event>
<event>
 8    1  0.6603334E-011  0.9118800E+02  0.7816164E-02  0.1184000E+00
        -11   -1    0    0    0    0  0.00000000000E+00  0.00000000000E+00  0.45593999997E+02  0.45594000000E+02  0.51100000000E-03 0. -1.
         11   -1    0    0    0    0 -0.00000000000E+00 -0.00000000000E+00 -0.45593999997E+02  0.45594000000E+02  0.51100000000E-03 0.  1.
         23    2    1    2    0    0  0.17763568394E-14  0.35527136788E-14  0.00000000000E+00  0.91188000000E+02  0.91188000000E+02 0.  0.
    9900012    2    3    3    0    0  0.13359138242E+02  0.30500436279E+02 -0.27836693709E+02  0.47787254563E+02  0.19999924856E+02 0.  0.
         12    1    3    3    0    0 -0.13359138242E+02 -0.30500436279E+02  0.27836693709E+02  0.43400745437E+02  0.00000000000E+00 0. -1.
         11    1    4    4    0    0  0.15933512827E+01  0.63375681859E+01  0.26945683117E+01  0.70685385667E+01  0.51100000000E-03 0. -1.
        -11    1    4    4    0    0  0.91220907350E+01  0.17452850944E+02 -0.21386886363E+02  0.29072554996E+02  0.51100000000E-03 0.  1.
         12    1    4    4    0    0  0.26436962245E+01  0.67100171499E+01 -0.91443756574E+01  0.11646161000E+02  0.00000000000E+00 0. -1.
</event>
<event>
 8    1  0.6524083E-011  0.9118800E+02  0.7816164E-02  0.1184000E+00
        -11   -1    0    0    0    0  0.00000000000E+00  0.00000000000E+00  0.45593999997E+02  0.45594000000E+02  0.51100000000E-03 0. -1.
         11   -1    0    0    0    0 -0.00000000000E+00 -0.00000000000E+00 -0.45593999997E+02  0.45594000000E+02  0.51100000000E-03 0.  1.
         23    2    1    2    0    0 -0.17763568394E-14 -0.35527136788E-14  0.00000000000E+00  0.91188000000E+02  0.91188000000E+02 0.  0.
    9900012    2    3    3    0    0  0.13037178633E+02  0.18278496829E+02  0.37142320511E+02  0.47787269062E+02  0.19999990959E+02 0.  0.
        -12    1    3    3    0    0 -0.13037178633E+02 -0.18278496829E+02 -0.37142320511E+02  0.43400730938E+02  0.00000000000E+00 0.  1.
         11    1    4    4    0    0  0.43959735682E+01  0.16124336743E+02  0.13637240686E+02  0.21570654899E+02  0.51100000000E-03 0. -1.
        -11    1    4    4    0    0  0.54349553088E+01 -0.41411803996E+00  0.54795273327E+01  0.77288713931E+01  0.51100000000E-03 0.  1.
        -12    1    4    4    0    0  0.32062497564E+01  0.25682781259E+01  0.18025552493E+02  0.18487742769E+02  0.00000000000E+00 0.  1.
</event>
<event>
 8    1  0.6524083E-011  0.9118800E+02  0.7816164E-02  0.1184000E+00
        -11   -1    0    0    0    0  0.00000000000E+00  0.00000000000E+00  0.45593999997E+02  0.45594000000E+02  0.51100000000E-03 0. -1.
         11   -1    0    0    0    0 -0.00000000000E+00 -0.00000000000E+00 -0.45593999997E+02  0.45594000000E+02  0.51100000000E-03 0.  1.
         23    2    1    2    0    0 -0.35527136788E-14  0.88817841970E-15  0.71054273576E-14  0.91188000000E+02  0.91188000000E+02 0.  0.
    9900012    2    3    3    0    0  0.25371350965E+02 -0.52180852874E+01 -0.34823691803E+02  0.47787269883E+02  0.19999994705E+02 0.  0.
         12    1    3    3    0    0 -0.25371350965E+02  0.52180852874E+01  0.34823691803E+02  0.43400730117E+02  0.00000000000E+00 0. -1.
         11    1    4    4    0    0  0.32187269897E+01  0.10610835858E+00  0.15289481698E+01  0.35649888057E+01  0.51100000000E-03 0. -1.
        -11    1    4    4    0    0  0.66231002339E+01  0.13327504699E+01 -0.18246871271E+02  0.19457389136E+02  0.51100000000E-03 0.  1.
        -12    1    4    4    0    0  0.15529523742E+02 -0.66569441159E+01 -0.18105768702E+02  0.24764891942E+02  0.00000000000E+00 0.  1.
</event>
<event>
 8    1  0.6524083E-011  0.9118800E+02  0.7816164E-02  0.1184000E+00
        -11   -1    0    0    0    0  0.00000000000E+00  0.00000000000E+00  0.45593999997E+02  0.45594000000E+02  0.51100000000E-03 0. -1.
         11   -1    0    0    0    0 -0.00000000000E+00 -0.00000000000E+00 -0.45593999997E+02  0.45594000000E+02  0.51100000000E-03 0.  1.
         23    2    1    2    0    0 -0.12767564783E-14  0.00000000000E+00  0.00000000000E+00  0.91188000000E+02  0.91188000000E+02 0.  0.
    9900012    2    3    3    0    0  0.33465383014E+00 -0.24501288249E+02  0.35821759281E+02  0.47787267782E+02  0.19999985126E+02 0.  0.
        -12    1    3    3    0    0 -0.33465383014E+00  0.24501288249E+02 -0.35821759281E+02  0.43400732218E+02  0.00000000000E+00 0.  1.
         11    1    4    4    0    0 -0.39941463619E+01 -0.16059184896E+02  0.11904942087E+02  0.20385736951E+02  0.51100000000E-03 0. -1.
        -11    1    4    4    0    0 -0.27347956599E+00 -0.84073823920E+01  0.18294109133E+02  0.20135374319E+02  0.51100000000E-03 0.  1.
        -12    1    4    4    0    0  0.46022797580E+01 -0.34720961619E-01  0.56227080608E+01  0.72661565118E+01  0.00000000000E+00 0.  1.
</event>
<event>
 8    1  0.6524083E-011  0.9118800E+02  0.7816164E-02  0.1184000E+00
        -11   -1    0    0    0    0  0.00000000000E+00  0.00000000000E+00  0.45593999997E+02  0.45594000000E+02  0.51100000000E-03 0.  1.
         11   -1    0    0    0    0 -0.00000000000E+00 -0.00000000000E+00 -0.45593999997E+02  0.45594000000E+02  0.51100000000E-03 0. -1.
         23    2    1    2    0    0 -0.71054273576E-14  0.00000000000E+00 -0.35527136788E-14  0.91188000000E+02  0.91188000000E+02 0.  0.
    9900012    2    3    3    0    0  0.33579559789E+02 -0.20605586648E+02  0.18205733548E+02  0.47787242279E+02  0.19999868847E+02 0.  0.
        -12    1    3    3    0    0 -0.33579559789E+02  0.20605586648E+02 -0.18205733548E+02  0.43400757721E+02  0.00000000000E+00 0.  1.
         11    1    4    4    0    0  0.80865392451E+01 -0.95435637054E+01 -0.24902894584E+00  0.12511344486E+02  0.51100000000E-03 0. -1.
        -11    1    4    4    0    0  0.67937269346E+01 -0.77397547809E+01  0.10431420536E+02  0.14658549191E+02  0.51100000000E-03 0.  1.
        -12    1    4    4    0    0  0.18699293610E+02 -0.33222681613E+01  0.80233419578E+01  0.20617348603E+02  0.00000000000E+00 0.  1.
</event>
<event>
 8    1  0.6524083E-011  0.9118800E+02  0.7816164E-02  0.1184000E+00
        -11   -1    0    0    0    0  0.00000000000E+00  0.00000000000E+00  0.45593999997E+02  0.45594000000E+02  0.51100000000E-03 0. -1.
         11   -1    0    0    0    0 -0.00000000000E+00 -0.00000000000E+00 -0.45593999997E+02  0.45594000000E+02  0.51100000000E-03 0.  1.
         23    2    1    2    0    0  0.17763568394E-14  0.00000000000E+00 -0.71054273576E-14  0.91188000000E+02  0.91188000000E+02 0.  0.
    9900012    2    3    3    0    0 -0.85445981606E+01  0.21275069173E+02  0.36850842354E+02  0.47787270648E+02  0.19999998193E+02 0.  0.
        -12    1    3    3    0    0  0.85445981606E+01 -0.21275069173E+02 -0.36850842354E+02  0.43400729352E+02  0.00000000000E+00 0.  1.
         11    1    4    4    0    0 -0.16506265212E+00  0.98845397537E+01  0.18226636289E+02  0.20735034181E+02  0.51100000000E-03 0. -1.
        -11    1    4    4    0    0  0.20219799368E+01 -0.16356817768E-01 -0.85697532437E+00  0.21961505818E+01  0.51100000000E-03 0.  1.
        -12    1    4    4    0    0 -0.10401515445E+02  0.11406886237E+02  0.19481181390E+02  0.24856085885E+02  0.00000000000E+00 0.  1.
</event>
<event>
 8    1  0.6524083E-011  0.9118800E+02  0.7816164E-02  0.1184000E+00
        -11   -1    0    0    0    0  0.00000000000E+00  0.00000000000E+00  0.45593999997E+02  0.45594000000E+02  0.51100000000E-03 0.  1.
         11   -1    0    0    0    0 -0.00000000000E+00 -0.00000000000E+00 -0.45593999997E+02  0.45594000000E+02  0.51100000000E-03 0. -1.
         23    2    1    2    0    0  0.17763568394E-14  0.00000000000E+00  0.00000000000E+00  0.91188000000E+02  0.91188000000E+02 0.  0.
    9900012    2    3    3    0    0 -0.12626721495E+02 -0.37601645326E+02  0.17615483624E+02  0.47787273159E+02  0.20000009643E+02 0.  0.
        -12    1    3    3    0    0  0.12626721495E+02  0.37601645326E+02 -0.17615483624E+02  0.43400726841E+02  0.00000000000E+00 0.  1.
         11    1    4    4    0    0 -0.49734844754E+01 -0.34041254305E+01  0.34272051672E+01  0.69332065665E+01  0.51100000000E-03 0. -1.
        -11    1    4    4    0    0 -0.80572455678E+01 -0.18408398902E+02  0.14943245787E+02  0.25041744172E+02  0.51100000000E-03 0.  1.
         12    1    4    4    0    0  0.40400854781E+00 -0.15789120994E+02 -0.75496733018E+00  0.15812322421E+02  0.00000000000E+00 0. -1.
</event>
<event>
 8    1  0.6524083E-011  0.9118800E+02  0.7816164E-02  0.1184000E+00
        -11   -1    0    0    0    0  0.00000000000E+00  0.00000000000E+00  0.45593999997E+02  0.45594000000E+02  0.51100000000E-03 0. -1.
         11   -1    0    0    0    0 -0.00000000000E+00 -0.00000000000E+00 -0.45593999997E+02  0.45594000000E+02  0.51100000000E-03 0.  1.
         23    2    1    2    0    0 -0.88817841970E-15 -0.35527136788E-14 -0.71054273576E-14  0.91188000000E+02  0.91188000000E+02 0.  0.
    9900012    2    3    3    0    0 -0.39544293424E+01 -0.25815550459E+02 -0.34663283311E+02  0.47787269974E+02  0.19999995118E+02 0.  0.
         12    1    3    3    0    0  0.39544293424E+01  0.25815550459E+02  0.34663283311E+02  0.43400730026E+02  0.00000000000E+00 0. -1.
         11    1    4    4    0    0 -0.25083855268E+01 -0.20138087353E+02 -0.16322192838E+02  0.26043205246E+02  0.51100000000E-03 0. -1.
        -11    1    4    4    0    0 -0.13052422737E+01 -0.84098010509E+01 -0.10987319523E+02  0.13897827229E+02  0.51100000000E-03 0.  1.
         12    1    4    4    0    0 -0.14080154194E+00  0.27323379444E+01 -0.73537709494E+01  0.78462374991E+01  0.00000000000E+00 0. -1.
</event>
<event>
 8    1  0.6524083E-011  0.9118800E+02  0.7816164E-02  0.1184000E+00
        -11   -1    0    0    0    0  0.00000000000E+00  0.00000000000E+00  0.45593999997E+02  0.45594000000E+02  0.51100000000E-03 0. -1.
         11   -1    0    0    0    0 -0.00000000000E+00 -0.00000000000E+00 -0.45593999997E+02  0.45594000000E+02  0.51100000000E-03 0.  1.
         23    2    1    2    0    0  0.00000000000E+00  0.71054273576E-14  0.17763568394E-14  0.91188000000E+02  0.91188000000E+02 0.  0.
    9900012    2    3    3    0    0  0.72830343580E+01 -0.39784754446E+02 -0.15740181250E+02  0.47787279020E+02  0.20000036366E+02 0.  0.
         12    1    3    3    0    0 -0.72830343580E+01  0.39784754446E+02  0.15740181250E+02  0.43400720980E+02  0.00000000000E+00 0. -1.
         11    1    4    4    0    0  0.17080698820E+01  0.65794531223E+00  0.46750367153E+00  0.18891677267E+01  0.51100000000E-03 0. -1.
        -11    1    4    4    0    0  0.22552515822E+00 -0.20374417918E+02 -0.14600965037E+02  0.25067029090E+02  0.51100000000E-03 0.  1.
         12    1    4    4    0    0  0.53494393177E+01 -0.20068281839E+02 -0.16067198850E+01  0.20831082204E+02  0.00000000000E+00 0. -1.
</event>
<event>
 8    1  0.6524083E-011  0.9118800E+02  0.7816164E-02  0.1184000E+00
        -11   -1    0    0    0    0  0.00000000000E+00  0.00000000000E+00  0.45593999997E+02  0.45594000000E+02  0.51100000000E-03 0. -1.
         11   -1    0    0    0    0 -0.00000000000E+00 -0.00000000000E+00 -0.45593999997E+02  0.45594000000E+02  0.51100000000E-03 0.  1.
         23    2    1    2    0    0  0.00000000000E+00  0.00000000000E+00  0.00000000000E+00  0.91188000000E+02  0.91188000000E+02 0.  0.
    9900012    2    3    3    0    0 -0.84182292697E+01 -0.70597699765E+01  0.41987097096E+02  0.47787271220E+02  0.20000000798E+02 0.  0.
        -12    1    3    3    0    0  0.84182292697E+01  0.70597699765E+01 -0.41987097096E+02  0.43400728780E+02  0.00000000000E+00 0.  1.
         11    1    4    4    0    0 -0.75410935270E+01 -0.50909468731E+00  0.33318639392E+02  0.34165172327E+02  0.51100000000E-03 0.  1.
        -11    1    4    4    0    0  0.13206468294E+01 -0.47471884396E+01  0.94639497613E+01  0.10669875888E+02  0.51100000000E-03 0. -1.
        -12    1    4    4    0    0 -0.21977825721E+01 -0.18034868496E+01 -0.79549205735E+00  0.29522230038E+01  0.00000000000E+00 0.  1.
</event>
<event>
 8    1  0.6524083E-011  0.9118800E+02  0.7816164E-02  0.1184000E+00
        -11   -1    0    0    0    0  0.00000000000E+00  0.00000000000E+00  0.45593999997E+02  0.45594000000E+02  0.51100000000E-03 0. -1.
         11   -1    0    0    0    0 -0.00000000000E+00 -0.00000000000E+00 -0.45593999997E+02  0.45594000000E+02  0.51100000000E-03 0.  1.
         23    2    1    2    0    0 -0.35527136788E-14  0.00000000000E+00  0.00000000000E+00  0.91188000000E+02  0.91188000000E+02 0.  0.
    9900012    2    3    3    0    0 -0.25025569583E+02  0.23551419171E+02  0.26508014989E+02  0.47787270322E+02  0.19999996706E+02 0.  0.
        -12    1    3    3    0    0  0.25025569583E+02 -0.23551419171E+02 -0.26508014989E+02  0.43400729678E+02  0.00000000000E+00 0.  1.
         11    1    4    4    0    0 -0.16331234870E+02  0.33795001136E+01  0.14107693017E+02  0.21843929498E+02  0.51100000000E-03 0.  1.
        -11    1    4    4    0    0 -0.67036743504E+01  0.10320229522E+02  0.43043482323E+01  0.13037400092E+02  0.51100000000E-03 0. -1.
        -12    1    4    4    0    0 -0.19906603623E+01  0.98516895352E+01  0.80959737403E+01  0.12905940732E+02  0.00000000000E+00 0.  1.
</event>
<event>
 8    1  0.6524083E-011  0.9118800E+02  0.7816164E-02  0.1184000E+00
        -11   -1    0    0    0    0  0.00000000000E+00  0.00000000000E+00  0.45593999997E+02  0.45594000000E+02  0.51100000000E-03 0. -1.
         11   -1    0    0    0    0 -0.00000000000E+00 -0.00000000000E+00 -0.45593999997E+02  0.45594000000E+02  0.51100000000E-03 0.  1.
         23    2    1    2    0    0  0.00000000000E+00  0.00000000000E+00 -0.71054273576E-14  0.91188000000E+02  0.91188000000E+02 0.  0.
    9900012    2    3    3    0    0 -0.61244194200E+01 -0.24473661245E+02  0.35315065910E+02  0.47787280096E+02  0.20000041271E+02 0.  0.
        -12    1    3    3    0    0  0.61244194200E+01  0.24473661245E+02 -0.35315065910E+02  0.43400719904E+02  0.00000000000E+00 0.  1.
         11    1    4    4    0    0  0.54015229501E+01 -0.10404149496E+02  0.84759002337E+01  0.14465948360E+02  0.51100000000E-03 0. -1.
        -11    1    4    4    0    0 -0.51923962359E+01 -0.43907791732E+01  0.44671771889E+01  0.81360673988E+01  0.51100000000E-03 0.  1.
         12    1    4    4    0    0 -0.63335461342E+01 -0.96787325760E+01  0.22371988487E+02  0.25185264338E+02  0.00000000000E+00 0. -1.
</event>
<event>
 8    1  0.6524083E-011  0.9118800E+02  0.7816164E-02  0.1184000E+00
        -11   -1    0    0    0    0  0.00000000000E+00  0.00000000000E+00  0.45593999997E+02  0.45594000000E+02  0.51100000000E-03 0.  1.
         11   -1    0    0    0    0 -0.00000000000E+00 -0.00000000000E+00 -0.45593999997E+02  0.45594000000E+02  0.51100000000E-03 0. -1.
         23    2    1    2    0    0 -0.35527136788E-14  0.35527136788E-14 -0.35527136788E-14  0.91188000000E+02  0.91188000000E+02 0.  0.
    9900012    2    3    3    0    0 -0.19820989579E+02  0.23036122716E+02  0.30985294892E+02  0.47787273310E+02  0.20000010330E+02 0.  0.
        -12    1    3    3    0    0  0.19820989579E+02 -0.23036122716E+02 -0.30985294892E+02  0.43400726690E+02  0.00000000000E+00 0.  1.
         11    1    4    4    0    0 -0.16395671035E+02  0.13861541722E+02  0.14482945570E+02  0.25898186814E+02  0.51100000000E-03 0. -1.
        -11    1    4    4    0    0 -0.65560395802E+01  0.44162291505E+01  0.59363287924E+01  0.98855821619E+01  0.51100000000E-03 0.  1.
         12    1    4    4    0    0  0.31307210365E+01  0.47583518433E+01  0.10566020529E+02  0.12003504334E+02  0.00000000000E+00 0. -1.
</event>
<event>
 8    1  0.6524083E-011  0.9118800E+02  0.7816164E-02  0.1184000E+00
        -11   -1    0    0    0    0  0.00000000000E+00  0.00000000000E+00  0.45593999997E+02  0.45594000000E+02  0.51100000000E-03 0. -1.
         11   -1    0    0    0    0 -0.00000000000E+00 -0.00000000000E+00 -0.45593999997E+02  0.45594000000E+02  0.51100000000E-03 0.  1.
         23    2    1    2    0    0  0.35527136788E-14  0.88817841970E-15  0.71054273576E-14  0.91188000000E+02  0.91188000000E+02 0.  0.
    9900012    2    3    3    0    0 -0.17429980137E+02 -0.67984055859E+01 -0.39161213886E+02  0.47787271906E+02  0.20000003928E+02 0.  0.
         12    1    3    3    0    0  0.17429980137E+02  0.67984055859E+01  0.39161213886E+02  0.43400728094E+02  0.00000000000E+00 0. -1.
         11    1    4    4    0    0 -0.53717522790E+01 -0.16966108159E+01 -0.82578807201E-01  0.56339178489E+01  0.51100000000E-03 0. -1.
        -11    1    4    4    0    0 -0.28717139187E+01  0.87054190400E+00 -0.19392282660E+02  0.19623078531E+02  0.51100000000E-03 0.  1.
        -12    1    4    4    0    0 -0.91865139391E+01 -0.59723366739E+01 -0.19686352419E+02  0.22530275526E+02  0.00000000000E+00 0.  1.
</event>
<event>
 8    1  0.6524083E-011  0.9118800E+02  0.7816164E-02  0.1184000E+00
        -11   -1    0    0    0    0  0.00000000000E+00  0.00000000000E+00  0.45593999997E+02  0.45594000000E+02  0.51100000000E-03 0. -1.
         11   -1    0    0    0    0 -0.00000000000E+00 -0.00000000000E+00 -0.45593999997E+02  0.45594000000E+02  0.51100000000E-03 0.  1.
         23    2    1    2    0    0  0.88817841970E-15  0.00000000000E+00  0.71054273576E-14  0.91188000000E+02  0.91188000000E+02 0.  0.
    9900012    2    3    3    0    0  0.66935443581E+01 -0.17908764347E+02  0.38962749180E+02  0.47787271893E+02  0.20000003869E+02 0.  0.
        -12    1    3    3    0    0 -0.66935443581E+01  0.17908764347E+02 -0.38962749180E+02  0.43400728107E+02  0.00000000000E+00 0.  1.
         11    1    4    4    0    0 -0.39588434783E+01 -0.19622586479E+01  0.13918230526E+02  0.14602740904E+02  0.51100000000E-03 0. -1.
        -11    1    4    4    0    0  0.61678600893E+01 -0.17731378957E+01  0.45535146974E+01  0.78689905603E+01  0.51100000000E-03 0.  1.
        -12    1    4    4    0    0  0.44845277471E+01 -0.14173367804E+02  0.20491003957E+02  0.25315540428E+02  0.00000000000E+00 0.  1.
</event>
<event>
 8    1  0.6524083E-011  0.9118800E+02  0.7816164E-02  0.1184000E+00
        -11   -1    0    0    0    0  0.00000000000E+00  0.00000000000E+00  0.45593999997E+02  0.45594000000E+02  0.51100000000E-03 0. -1.
         11   -1    0    0    0    0 -0.00000000000E+00 -0.00000000000E+00 -0.45593999997E+02  0.45594000000E+02  0.51100000000E-03 0.  1.
         23    2    1    2    0    0  0.00000000000E+00 -0.14210854715E-13  0.00000000000E+00  0.91188000000E+02  0.91188000000E+02 0.  0.
    9900012    2    3    3    0    0  0.14859693287E+02  0.33038959636E+02  0.23900622916E+02  0.47787272884E+02  0.20000008388E+02 0.  0.
        -12    1    3    3    0    0 -0.14859693287E+02 -0.33038959636E+02 -0.23900622916E+02  0.43400727116E+02  0.00000000000E+00 0.  1.
         11    1    4    4    0    0  0.81989049311E+01  0.12581363866E+02  0.71797603827E+01  0.16645171018E+02  0.51100000000E-03 0. -1.
        -11    1    4    4    0    0  0.88723313137E+01  0.21029606093E+02  0.11749986541E+02  0.25671477935E+02  0.51100000000E-03 0.  1.
        -12    1    4    4    0    0 -0.22115429579E+01 -0.57201032359E+00  0.49708759928E+01  0.54706239316E+01  0.00000000000E+00 0.  1.
</event>
<event>
 8    1  0.6524083E-011  0.9118800E+02  0.7816164E-02  0.1184000E+00
        -11   -1    0    0    0    0  0.00000000000E+00  0.00000000000E+00  0.45593999997E+02  0.45594000000E+02  0.51100000000E-03 0. -1.
         11   -1    0    0    0    0 -0.00000000000E+00 -0.00000000000E+00 -0.45593999997E+02  0.45594000000E+02  0.51100000000E-03 0.  1.
         23    2    1    2    0    0 -0.71054273576E-14  0.00000000000E+00  0.00000000000E+00  0.91188000000E+02  0.91188000000E+02 0.  0.
    9900012    2    3    3    0    0  0.35399645319E+02 -0.14283810444E+02 -0.20650934230E+02  0.47787271733E+02  0.20000003141E+02 0.  0.
         12    1    3    3    0    0 -0.35399645319E+02  0.14283810444E+02  0.20650934230E+02  0.43400728267E+02  0.00000000000E+00 0. -1.
         11    1    4    4    0    0 -0.22052849367E+00  0.26145073013E+00 -0.62496129053E+00  0.71243678778E+00  0.51100000000E-03 0. -1.
        -11    1    4    4    0    0  0.14156333204E+02 -0.13025369292E+02 -0.26524698513E+01  0.19419001302E+02  0.51100000000E-03 0.  1.
        -12    1    4    4    0    0  0.21463840608E+02 -0.15198918822E+01 -0.17373503088E+02  0.27655833644E+02  0.00000000000E+00 0.  1.
</event>
<event>
 8    1  0.6524083E-011  0.9118800E+02  0.7816164E-02  0.1184000E+00
        -11   -1    0    0    0    0  0.00000000000E+00  0.00000000000E+00  0.45593999997E+02  0.45594000000E+02  0.51100000000E-03 0. -1.
         11   -1    0    0    0    0 -0.00000000000E+00 -0.00000000000E+00 -0.45593999997E+02  0.45594000000E+02  0.51100000000E-03 0.  1.
         23    2    1    2    0    0  0.11102230246E-15  0.88817841970E-15  0.71054273576E-14  0.91188000000E+02  0.91188000000E+02 0.  0.
    9900012    2    3    3    0    0 -0.63748696631E+00 -0.42590259170E+01 -0.43186543664E+02  0.47787271376E+02  0.20000001514E+02 0.  0.
         12    1    3    3    0    0  0.63748696631E+00  0.42590259170E+01  0.43186543664E+02  0.43400728624E+02  0.00000000000E+00 0. -1.
         11    1    4    4    0    0 -0.20627149025E+01  0.35705667564E+00 -0.40310768940E+00  0.21318485661E+01  0.51100000000E-03 0. -1.
        -11    1    4    4    0    0  0.19496394891E+01 -0.97862399823E-01 -0.40534124194E+02  0.40581102691E+02  0.51100000000E-03 0.  1.
        -12    1    4    4    0    0 -0.52441155296E+00 -0.45182201929E+01 -0.22493117812E+01  0.50743201197E+01  0.00000000000E+00 0.  1.
</event>
<event>
 8    1  0.6524083E-011  0.9118800E+02  0.7816164E-02  0.1184000E+00
        -11   -1    0    0    0    0  0.00000000000E+00  0.00000000000E+00  0.45593999997E+02  0.45594000000E+02  0.51100000000E-03 0. -1.
         11   -1    0    0    0    0 -0.00000000000E+00 -0.00000000000E+00 -0.45593999997E+02  0.45594000000E+02  0.51100000000E-03 0.  1.
         23    2    1    2    0    0 -0.17763568394E-14  0.00000000000E+00  0.00000000000E+00  0.91188000000E+02  0.91188000000E+02 0.  0.
    9900012    2    3    3    0    0  0.99143594233E+01  0.35174698118E+02 -0.23410877974E+02  0.47787272840E+02  0.20000008187E+02 0.  0.
         12    1    3    3    0    0 -0.99143594233E+01 -0.35174698118E+02  0.23410877974E+02  0.43400727160E+02  0.00000000000E+00 0. -1.
         11    1    4    4    0    0  0.53391306240E+01  0.35125318804E+01  0.17287369531E+01  0.66206289539E+01  0.51100000000E-03 0. -1.
        -11    1    4    4    0    0 -0.14653224040E+01  0.96513748815E+01 -0.70155068717E+01  0.12021378614E+02  0.51100000000E-03 0.  1.
         12    1    4    4    0    0  0.60405512032E+01  0.22010791357E+02 -0.18124108055E+02  0.29145265272E+02  0.00000000000E+00 0. -1.
</event>
<event>
 8    1  0.6524083E-011  0.9118800E+02  0.7816164E-02  0.1184000E+00
        -11   -1    0    0    0    0  0.00000000000E+00  0.00000000000E+00  0.45593999997E+02  0.45594000000E+02  0.51100000000E-03 0. -1.
         11   -1    0    0    0    0 -0.00000000000E+00 -0.00000000000E+00 -0.45593999997E+02  0.45594000000E+02  0.51100000000E-03 0.  1.
         23    2    1    2    0    0  0.00000000000E+00  0.00000000000E+00 -0.35527136788E-14  0.91188000000E+02  0.91188000000E+02 0.  0.
    9900012    2    3    3    0    0 -0.26397240523E+02  0.13532968623E+02  0.31680717146E+02  0.47787269754E+02  0.19999994117E+02 0.  0.
        -12    1    3    3    0    0  0.26397240523E+02 -0.13532968623E+02 -0.31680717146E+02  0.43400730246E+02  0.00000000000E+00 0.  1.
         11    1    4    4    0    0 -0.12204654136E+02  0.55742359263E+01  0.36575220592E+01  0.13906946344E+02  0.51100000000E-03 0. -1.
        -11    1    4    4    0    0 -0.20794624996E+01 -0.17595746990E+01  0.85469292449E+01  0.89705221246E+01  0.51100000000E-03 0.  1.
        -12    1    4    4    0    0 -0.12113123888E+02  0.97183073955E+01  0.19476265842E+02  0.24909801286E+02  0.00000000000E+00 0.  1.
</event>
<event>
 8    1 -0.6524083E-011  0.9118800E+02  0.7816164E-02  0.1184000E+00
        -11   -1    0    0    0    0  0.00000000000E+00  0.00000000000E+00  0.45593999997E+02  0.45594000000E+02  0.51100000000E-03 0. -1.
         11   -1    0    0    0    0 -0.00000000000E+00 -0.00000000000E+00 -0.45593999997E+02  0.45594000000E+02  0.51100000000E-03 0.  1.
         23    2    1    2    0    0 -0.35527136788E-14 -0.22204460493E-15 -0.71054273576E-14  0.91188000000E+02  0.91188000000E+02 0.  0.
    9900012    2    3    3    0    0  0.20489542328E+02 -0.16012083608E+01  0.38226143305E+02  0.47787271377E+02  0.20000001517E+02 0.  0.
        -12    1    3    3    0    0 -0.20489542328E+02  0.16012083608E+01 -0.38226143305E+02  0.43400728623E+02  0.00000000000E+00 0.  1.
         11    1    4    4    0    0  0.65962885630E+01 -0.54141594730E+01  0.12123558952E+02  0.14825816252E+02  0.51100000000E-03 0. -1.
        -11    1    4    4    0    0  0.59033606877E+01  0.38576113755E+01  0.23535310724E+02  0.24569120539E+02  0.51100000000E-03 0.  1.
        -12    1    4    4    0    0  0.79898930770E+01 -0.44660263264E-01  0.25672736287E+01  0.83923345862E+01  0.00000000000E+00 0.  1.
</event>
<event>
 8    1  0.6524083E-011  0.9118800E+02  0.7816164E-02  0.1184000E+00
        -11   -1    0    0    0    0  0.00000000000E+00  0.00000000000E+00  0.45593999997E+02  0.45594000000E+02  0.51100000000E-03 0. -1.
         11   -1    0    0    0    0 -0.00000000000E+00 -0.00000000000E+00 -0.45593999997E+02  0.45594000000E+02  0.51100000000E-03 0.  1.
         23    2    1    2    0    0  0.00000000000E+00  0.00000000000E+00  0.00000000000E+00  0.91188000000E+02  0.91188000000E+02 0.  0.
    9900012    2    3    3    0    0  0.60024149977E+01  0.19059033025E+02  0.38527231422E+02  0.47787270897E+02  0.19999999326E+02 0.  0.
        -12    1    3    3    0    0 -0.60024149977E+01 -0.19059033025E+02 -0.38527231422E+02  0.43400729103E+02  0.00000000000E+00 0.  1.
         11    1    4    4    0    0  0.37512056747E+01  0.22429194935E+01  0.19570977786E+02  0.20053064694E+02  0.51100000000E-03 0. -1.
        -11    1    4    4    0    0  0.65999959793E+01  0.11670682182E+02  0.13885553821E+02  0.19302159845E+02  0.51100000000E-03 0.  1.
        -12    1    4    4    0    0 -0.43487866563E+01  0.51454313503E+01  0.50706998152E+01  0.84320463577E+01  0.00000000000E+00 0.  1.
</event>
<event>
 8    1  0.6524083E-011  0.9118800E+02  0.7816164E-02  0.1184000E+00
        -11   -1    0    0    0    0  0.00000000000E+00  0.00000000000E+00  0.45593999997E+02  0.45594000000E+02  0.51100000000E-03 0. -1.
         11   -1    0    0    0    0 -0.00000000000E+00 -0.00000000000E+00 -0.45593999997E+02  0.45594000000E+02  0.51100000000E-03 0.  1.
         23    2    1    2    0    0  0.00000000000E+00  0.00000000000E+00  0.00000000000E+00  0.91188000000E+02  0.91188000000E+02 0.  0.
    9900012    2    3    3    0    0  0.17385883637E+02 -0.11563964692E+02 -0.38047731036E+02  0.47787261916E+02  0.19999958379E+02 0.  0.
         12    1    3    3    0    0 -0.17385883637E+02  0.11563964692E+02  0.38047731036E+02  0.43400738084E+02  0.00000000000E+00 0. -1.
         11    1    4    4    0    0  0.59834883978E+00  0.33810290666E-02 -0.40637705622E+01  0.41075861779E+01  0.51100000000E-03 0. -1.
        -11    1    4    4    0    0 -0.25890325329E+01  0.14789864628E+01 -0.77982678900E+00  0.30819832082E+01  0.51100000000E-03 0.  1.
         12    1    4    4    0    0  0.19376567330E+02 -0.13046332183E+02 -0.33204133685E+02  0.40597692530E+02  0.00000000000E+00 0. -1.
</event>
<event>
 8    1  0.6524083E-011  0.9118800E+02  0.7816164E-02  0.1184000E+00
        -11   -1    0    0    0    0  0.00000000000E+00  0.00000000000E+00  0.45593999997E+02  0.45594000000E+02  0.51100000000E-03 0. -1.
         11   -1    0    0    0    0 -0.00000000000E+00 -0.00000000000E+00 -0.45593999997E+02  0.45594000000E+02  0.51100000000E-03 0.  1.
         23    2    1    2    0    0  0.00000000000E+00  0.00000000000E+00  0.00000000000E+00  0.91188000000E+02  0.91188000000E+02 0.  0.
    9900012    2    3    3    0    0  0.14894032916E+02 -0.13928474172E+02 -0.38311726719E+02  0.47787274045E+02  0.20000013681E+02 0.  0.
         12    1    3    3    0    0 -0.14894032916E+02  0.13928474172E+02  0.38311726719E+02  0.43400725955E+02  0.00000000000E+00 0. -1.
         11    1    4    4    0    0 -0.26341755433E+00  0.19454631257E+01 -0.60424273393E+01  0.63533569074E+01  0.51100000000E-03 0. -1.
        -11    1    4    4    0    0  0.21672144230E+01 -0.24884680157E+00 -0.13810838130E+02  0.13982059691E+02  0.51100000000E-03 0.  1.
         12    1    4    4    0    0  0.12990236047E+02 -0.15625090496E+02 -0.18458461249E+02  0.27451857446E+02  0.00000000000E+00 0. -1.
</event>
<event>
 8    1  0.6524083E-011  0.9118800E+02  0.7816164E-02  0.1184000E+00
        -11   -1    0    0    0    0  0.00000000000E+00  0.00000000000E+00  0.45593999997E+02  0.45594000000E+02  0.51100000000E-03 0. -1.
         11   -1    0    0    0    0 -0.00000000000E+00 -0.00000000000E+00 -0.45593999997E+02  0.45594000000E+02  0.51100000000E-03 0.  1.
         23    2    1    2    0    0  0.00000000000E+00  0.00000000000E+00  0.00000000000E+00  0.91188000000E+02  0.91188000000E+02 0.  0.
    9900012    2    3    3    0    0  0.59213207437E+01  0.38718860193E+02 -0.18692551236E+02  0.47787266761E+02  0.19999980471E+02 0.  0.
         12    1    3    3    0    0 -0.59213207437E+01 -0.38718860193E+02  0.18692551236E+02  0.43400733239E+02  0.00000000000E+00 0. -1.
         11    1    4    4    0    0 -0.19372622570E+01 -0.29685289406E-01 -0.15058015325E+01  0.24538347102E+01  0.51100000000E-03 0. -1.
        -11    1    4    4    0    0 -0.43524181058E+00  0.43390422432E+00  0.17082103300E+01  0.18154038400E+01  0.51100000000E-03 0.  1.
        -12    1    4    4    0    0  0.82938248113E+01  0.38314641258E+02 -0.18894960033E+02  0.43518028211E+02  0.00000000000E+00 0.  1.
</event>
<event>
 8    1  0.6524083E-011  0.9118800E+02  0.7816164E-02  0.1184000E+00
        -11   -1    0    0    0    0  0.00000000000E+00  0.00000000000E+00  0.45593999997E+02  0.45594000000E+02  0.51100000000E-03 0. -1.
         11   -1    0    0    0    0 -0.00000000000E+00 -0.00000000000E+00 -0.45593999997E+02  0.45594000000E+02  0.51100000000E-03 0.  1.
         23    2    1    2    0    0  0.88817841970E-15  0.00000000000E+00  0.00000000000E+00  0.91188000000E+02  0.91188000000E+02 0.  0.
    9900012    2    3    3    0    0  0.12990333566E+01  0.11976087048E+02 -0.41695434417E+02  0.47787269593E+02  0.19999993382E+02 0.  0.
         12    1    3    3    0    0 -0.12990333566E+01 -0.11976087048E+02  0.41695434417E+02  0.43400730407E+02  0.00000000000E+00 0. -1.
         11    1    4    4    0    0  0.47661945567E+01  0.21239645585E+01 -0.89967589175E+01  0.10400457071E+02  0.51100000000E-03 0.  1.
        -11    1    4    4    0    0 -0.74126659601E+01 -0.94209457029E-01 -0.14081204233E+02  0.15913415880E+02  0.51100000000E-03 0. -1.
         12    1    4    4    0    0  0.39455047600E+01  0.99463319462E+01 -0.18617471267E+02  0.21473396642E+02  0.00000000000E+00 0. -1.
</event>
<event>
 8    1  0.6524083E-011  0.9118800E+02  0.7816164E-02  0.1184000E+00
        -11   -1    0    0    0    0  0.00000000000E+00  0.00000000000E+00  0.45593999997E+02  0.45594000000E+02  0.51100000000E-03 0. -1.
         11   -1    0    0    0    0 -0.00000000000E+00 -0.00000000000E+00 -0.45593999997E+02  0.45594000000E+02  0.51100000000E-03 0.  1.
         23    2    1    2    0    0 -0.71054273576E-14  0.88817841970E-15  0.35527136788E-14  0.91188000000E+02  0.91188000000E+02 0.  0.
    9900012    2    3    3    0    0 -0.31486362607E+02  0.62333542318E+01  0.29212581254E+02  0.47787301403E+02  0.20000138418E+02 0.  0.
        -12    1    3    3    0    0  0.31486362607E+02 -0.62333542318E+01 -0.29212581254E+02  0.43400698597E+02  0.00000000000E+00 0.  1.
         11    1    4    4    0    0 -0.10451474158E+02  0.25800069182E+00  0.14041151309E+02  0.17505822082E+02  0.51100000000E-03 0. -1.
        -11    1    4    4    0    0 -0.22294190600E+02  0.52027208629E+01  0.10141316950E+02  0.25038880738E+02  0.51100000000E-03 0.  1.
        -12    1    4    4    0    0  0.12593021511E+01  0.77263267714E+00  0.50301129947E+01  0.52425985829E+01  0.00000000000E+00 0.  1.
</event>
<event>
 8    1  0.6524083E-011  0.9118800E+02  0.7816164E-02  0.1184000E+00
        -11   -1    0    0    0    0  0.00000000000E+00  0.00000000000E+00  0.45593999997E+02  0.45594000000E+02  0.51100000000E-03 0. -1.
         11   -1    0    0    0    0 -0.00000000000E+00 -0.00000000000E+00 -0.45593999997E+02  0.45594000000E+02  0.51100000000E-03 0.  1.
         23    2    1    2    0    0  0.00000000000E+00  0.35527136788E-14  0.00000000000E+00  0.91188000000E+02  0.91188000000E+02 0.  0.
    9900012    2    3    3    0    0  0.62417852889E+01  0.17501917254E+02 -0.39221761460E+02  0.47787267711E+02  0.19999984801E+02 0.  0.
         12    1    3    3    0    0 -0.62417852889E+01 -0.17501917254E+02  0.39221761460E+02  0.43400732289E+02  0.00000000000E+00 0. -1.
         11    1    4    4    0    0 -0.19179811759E+01  0.63765503380E+01 -0.57853179278E+01  0.88209381469E+01  0.51100000000E-03 0. -1.
        -11    1    4    4    0    0 -0.13341127811E+01  0.82354665086E+01 -0.23439708865E+02  0.24880167151E+02  0.51100000000E-03 0.  1.
         12    1    4    4    0    0  0.94938792460E+01  0.28899004078E+01 -0.99967346672E+01  0.14086162412E+02  0.00000000000E+00 0. -1.
</event>
<event>
 8    1  0.6524083E-011  0.9118800E+02  0.7816164E-02  0.1184000E+00
        -11   -1    0    0    0    0  0.00000000000E+00  0.00000000000E+00  0.45593999997E+02  0.45594000000E+02  0.51100000000E-03 0. -1.
         11   -1    0    0    0    0 -0.00000000000E+00 -0.00000000000E+00 -0.45593999997E+02  0.45594000000E+02  0.51100000000E-03 0.  1.
         23    2    1    2    0    0  0.00000000000E+00  0.35527136788E-14  0.00000000000E+00  0.91188000000E+02  0.91188000000E+02 0.  0.
    9900012    2    3    3    0    0  0.35749572502E+02  0.16740888830E+02 -0.18037013492E+02  0.47787272487E+02  0.20000006578E+02 0.  0.
         12    1    3    3    0    0 -0.35749572502E+02 -0.16740888830E+02  0.18037013492E+02  0.43400727513E+02  0.00000000000E+00 0. -1.
         11    1    4    4    0    0  0.11553088463E+02  0.13079210621E+02 -0.30085914419E+00  0.17453656350E+02  0.51100000000E-03 0. -1.
        -11    1    4    4    0    0  0.91993131221E+01  0.84937227418E+00 -0.53128443552E+01  0.10657162408E+02  0.51100000000E-03 0.  1.
         12    1    4    4    0    0  0.14997170917E+02  0.28123059350E+01 -0.12423309993E+02  0.19676453730E+02  0.00000000000E+00 0. -1.
</event>
<event>
 8    1  0.6524083E-011  0.9118800E+02  0.7816164E-02  0.1184000E+00
        -11   -1    0    0    0    0  0.00000000000E+00  0.00000000000E+00  0.45593999997E+02  0.45594000000E+02  0.51100000000E-03 0. -1.
         11   -1    0    0    0    0 -0.00000000000E+00 -0.00000000000E+00 -0.45593999997E+02  0.45594000000E+02  0.51100000000E-03 0.  1.
         23    2    1    2    0    0  0.00000000000E+00  0.17763568394E-14  0.00000000000E+00  0.91188000000E+02  0.91188000000E+02 0.  0.
    9900012    2    3    3    0    0 -0.35625324072E+02 -0.92089388175E+01 -0.23014232550E+02  0.47787272249E+02  0.20000005494E+02 0.  0.
         12    1    3    3    0    0  0.35625324072E+02  0.92089388175E+01  0.23014232550E+02  0.43400727751E+02  0.00000000000E+00 0. -1.
         11    1    4    4    0    0 -0.82013438640E+01 -0.29016718542E+01  0.15578319444E+01  0.88379059371E+01  0.51100000000E-03 0. -1.
        -11    1    4    4    0    0 -0.22076961447E+02 -0.87712255410E+01 -0.16356220480E+02  0.28841854532E+02  0.51100000000E-03 0.  1.
        -12    1    4    4    0    0 -0.53470187613E+01  0.24639585777E+01 -0.82158440147E+01  0.10107511780E+02  0.00000000000E+00 0.  1.
</event>
<event>
 8    1  0.6524083E-011  0.9118800E+02  0.7816164E-02  0.1184000E+00
        -11   -1    0    0    0    0  0.00000000000E+00  0.00000000000E+00  0.45593999997E+02  0.45594000000E+02  0.51100000000E-03 0. -1.
         11   -1    0    0    0    0 -0.00000000000E+00 -0.00000000000E+00 -0.45593999997E+02  0.45594000000E+02  0.51100000000E-03 0.  1.
         23    2    1    2    0    0  0.00000000000E+00  0.26645352591E-14 -0.71054273576E-14  0.91188000000E+02  0.91188000000E+02 0.  0.
    9900012    2    3    3    0    0  0.14062844267E+02  0.46028325154E+01 -0.40800413703E+02  0.47787269426E+02  0.19999992620E+02 0.  0.
         12    1    3    3    0    0 -0.14062844267E+02 -0.46028325154E+01  0.40800413703E+02  0.43400730574E+02  0.00000000000E+00 0. -1.
         11    1    4    4    0    0  0.42852050614E+01 -0.25613292027E+01 -0.61178341569E+01  0.78962829695E+01  0.51100000000E-03 0. -1.
        -11    1    4    4    0    0  0.89253221721E+01  0.97084948844E+01 -0.34789889291E+02  0.37205545903E+02  0.51100000000E-03 0.  1.
        -12    1    4    4    0    0  0.85231703332E+00 -0.25443331663E+01  0.10730974463E+00  0.26854405537E+01  0.00000000000E+00 0.  1.
</event>
<event>
 8    1  0.6524083E-011  0.9118800E+02  0.7816164E-02  0.1184000E+00
        -11   -1    0    0    0    0  0.00000000000E+00  0.00000000000E+00  0.45593999997E+02  0.45594000000E+02  0.51100000000E-03 0. -1.
         11   -1    0    0    0    0 -0.00000000000E+00 -0.00000000000E+00 -0.45593999997E+02  0.45594000000E+02  0.51100000000E-03 0.  1.
         23    2    1    2    0    0  0.00000000000E+00  0.00000000000E+00  0.71054273576E-14  0.91188000000E+02  0.91188000000E+02 0.  0.
    9900012    2    3    3    0    0 -0.19912464962E+02  0.29507671125E+02 -0.24827686652E+02  0.47787274884E+02  0.20000017507E+02 0.  0.
         12    1    3    3    0    0  0.19912464962E+02 -0.29507671125E+02  0.24827686652E+02  0.43400725116E+02  0.00000000000E+00 0. -1.
         11    1    4    4    0    0 -0.56906933530E+01  0.78228775437E+01 -0.20602692511E+01  0.98907084453E+01  0.51100000000E-03 0. -1.
        -11    1    4    4    0    0 -0.10143526464E+02  0.69004078955E+01 -0.18099299132E+02  0.21865300995E+02  0.51100000000E-03 0.  1.
        -12    1    4    4    0    0 -0.40782451452E+01  0.14784385686E+02 -0.46681182689E+01  0.16031265444E+02  0.00000000000E+00 0.  1.
</event>
<event>
 8    1  0.6524083E-011  0.9118800E+02  0.7816164E-02  0.1184000E+00
        -11   -1    0    0    0    0  0.00000000000E+00  0.00000000000E+00  0.45593999997E+02  0.45594000000E+02  0.51100000000E-03 0. -1.
         11   -1    0    0    0    0 -0.00000000000E+00 -0.00000000000E+00 -0.45593999997E+02  0.45594000000E+02  0.51100000000E-03 0.  1.
         23    2    1    2    0    0  0.00000000000E+00  0.00000000000E+00  0.00000000000E+00  0.91188000000E+02  0.91188000000E+02 0.  0.
    9900012    2    3    3    0    0  0.11830455413E+02 -0.41405783840E+01  0.41551404574E+02  0.47787270896E+02  0.19999999324E+02 0.  0.
        -12    1    3    3    0    0 -0.11830455413E+02  0.41405783840E+01 -0.41551404574E+02  0.43400729104E+02  0.00000000000E+00 0.  1.
         11    1    4    4    0    0  0.60410221609E+01  0.52393382814E+01  0.22558005098E+02  0.23933411972E+02  0.51100000000E-03 0. -1.
        -11    1    4    4    0    0  0.40800854526E+01 -0.56374401346E+01  0.18431286476E+02  0.19701272801E+02  0.51100000000E-03 0.  1.
        -12    1    4    4    0    0  0.17093477996E+01 -0.37424765307E+01  0.56211300095E+00  0.41525861230E+01  0.00000000000E+00 0.  1.
</event>
<event>
 8    1  0.6524083E-011  0.9118800E+02  0.7816164E-02  0.1184000E+00
        -11   -1    0    0    0    0  0.00000000000E+00  0.00000000000E+00  0.45593999997E+02  0.45594000000E+02  0.51100000000E-03 0. -1.
         11   -1    0    0    0    0 -0.00000000000E+00 -0.00000000000E+00 -0.45593999997E+02  0.45594000000E+02  0.51100000000E-03 0.  1.
         23    2    1    2    0    0 -0.55511151231E-15  0.00000000000E+00  0.00000000000E+00  0.91188000000E+02  0.91188000000E+02 0.  0.
    9900012    2    3    3    0    0  0.99062829645E+00 -0.79420047083E+01  0.42656379325E+02  0.47787268666E+02  0.19999989156E+02 0.  0.
        -12    1    3    3    0    0 -0.99062829645E+00  0.79420047083E+01 -0.42656379325E+02  0.43400731334E+02  0.00000000000E+00 0.  1.
         11    1    4    4    0    0  0.27902862052E+01 -0.10346755964E+01  0.92441278420E+01  0.97113413346E+01  0.51100000000E-03 0. -1.
        -11    1    4    4    0    0  0.74859820767E+01 -0.41018826217E+01  0.14691741567E+02  0.16991546110E+02  0.51100000000E-03 0.  1.
         12    1    4    4    0    0 -0.92856399855E+01 -0.28054464902E+01  0.18720509916E+02  0.21084381221E+02  0.00000000000E+00 0. -1.
</event>
<event>
 8    1  0.6692556E-011  0.9118800E+02  0.7816164E-02  0.1184000E+00
        -11   -1    0    0    0    0  0.00000000000E+00  0.00000000000E+00  0.45593999997E+02  0.45594000000E+02  0.51100000000E-03 0. -1.
         11   -1    0    0    0    0 -0.00000000000E+00 -0.00000000000E+00 -0.45593999997E+02  0.45594000000E+02  0.51100000000E-03 0.  1.
         23    2    1    2    0    0 -0.88817841970E-15 -0.88817841970E-15  0.71054273576E-14  0.91188000000E+02  0.91188000000E+02 0.  0.
    9900012    2    3    3    0    0  0.51251069028E+01  0.75538541458E+00 -0.43090439137E+02  0.47787271055E+02  0.20000000049E+02 0.  0.
         12    1    3    3    0    0 -0.51251069028E+01 -0.75538541458E+00  0.43090439137E+02  0.43400728945E+02  0.00000000000E+00 0. -1.
         11    1    4    4    0    0 -0.25806412771E+01  0.26020452894E+01 -0.28033299096E+01  0.46140012931E+01  0.51100000000E-03 0. -1.
        -11    1    4    4    0    0  0.66951784473E+01  0.41653460819E+01 -0.31543917000E+02  0.32514523253E+02  0.51100000000E-03 0.  1.
         12    1    4    4    0    0  0.10105697327E+01 -0.60120059567E+01 -0.87431922276E+01  0.10658746509E+02  0.00000000000E+00 0. -1.
</event>
<event>
 8    1  0.6524083E-011  0.9118800E+02  0.7816164E-02  0.1184000E+00
        -11   -1    0    0    0    0  0.00000000000E+00  0.00000000000E+00  0.45593999997E+02  0.45594000000E+02  0.51100000000E-03 0. -1.
         11   -1    0    0    0    0 -0.00000000000E+00 -0.00000000000E+00 -0.45593999997E+02  0.45594000000E+02  0.51100000000E-03 0.  1.
         23    2    1    2    0    0 -0.88817841970E-15  0.11102230246E-15  0.00000000000E+00  0.91188000000E+02  0.91188000000E+02 0.  0.
    9900012    2    3    3    0    0  0.38513305086E+01 -0.99246921502E+00 -0.43218109039E+02  0.47787277763E+02  0.20000030632E+02 0.  0.
         12    1    3    3    0    0 -0.38513305086E+01  0.99246921502E+00  0.43218109039E+02  0.43400722237E+02  0.00000000000E+00 0. -1.
         11    1    4    4    0    0 -0.72473852648E+00  0.15637734057E+01  0.11041462544E+01  0.20468933554E+01  0.51100000000E-03 0. -1.
        -11    1    4    4    0    0  0.65963365939E+01 -0.26181355374E+01 -0.18119181912E+02  0.19459471821E+02  0.51100000000E-03 0.  1.
        -12    1    4    4    0    0 -0.20202675588E+01  0.61892916640E-01 -0.26203073381E+02  0.26280912586E+02  0.00000000000E+00 0.  1.
</event>
<event>
 8    1  0.6524083E-011  0.9118800E+02  0.7816164E-02  0.1184000E+00
        -11   -1    0    0    0    0  0.00000000000E+00  0.00000000000E+00  0.45593999997E+02  0.45594000000E+02  0.51100000000E-03 0. -1.
         11   -1    0    0    0    0 -0.00000000000E+00 -0.00000000000E+00 -0.45593999997E+02  0.45594000000E+02  0.51100000000E-03 0.  1.
         23    2    1    2    0    0 -0.44408920985E-15 -0.17763568394E-14 -0.71054273576E-14  0.91188000000E+02  0.91188000000E+02 0.  0.
    9900012    2    3    3    0    0  0.13835759063E+01  0.12190004981E+02 -0.41630661276E+02  0.47787280398E+02  0.20000042647E+02 0.  0.
         12    1    3    3    0    0 -0.13835759063E+01 -0.12190004981E+02  0.41630661276E+02  0.43400719602E+02  0.00000000000E+00 0. -1.
         11    1    4    4    0    0  0.46065263918E+01  0.16674944640E+02 -0.27563795062E+02  0.32542843493E+02  0.51100000000E-03 0. -1.
        -11    1    4    4    0    0 -0.17325226334E+01 -0.85515018932E+00 -0.52343954938E+01  0.55795889605E+01  0.51100000000E-03 0.  1.
         12    1    4    4    0    0 -0.14904278521E+01 -0.36297894697E+01 -0.88324707200E+01  0.96648479448E+01  0.00000000000E+00 0. -1.
</event>
<event>
 8    1  0.6524083E-011  0.9118800E+02  0.7816164E-02  0.1184000E+00
        -11   -1    0    0    0    0  0.00000000000E+00  0.00000000000E+00  0.45593999997E+02  0.45594000000E+02  0.51100000000E-03 0. -1.
         11   -1    0    0    0    0 -0.00000000000E+00 -0.00000000000E+00 -0.45593999997E+02  0.45594000000E+02  0.51100000000E-03 0.  1.
         23    2    1    2    0    0  0.00000000000E+00 -0.35527136788E-14  0.00000000000E+00  0.91188000000E+02  0.91188000000E+02 0.  0.
    9900012    2    3    3    0    0 -0.96430864385E+01  0.27625324344E+02 -0.32054263751E+02  0.47787268603E+02  0.19999988870E+02 0.  0.
         12    1    3    3    0    0  0.96430864385E+01 -0.27625324344E+02  0.32054263751E+02  0.43400731397E+02  0.00000000000E+00 0. -1.
         11    1    4    4    0    0 -0.23674909495E+01  0.63524022140E+01 -0.10334124614E+01  0.68575483127E+01  0.51100000000E-03 0. -1.
        -11    1    4    4    0    0 -0.92710545516E+00  0.20185322526E+02 -0.24600442440E+02  0.31835334748E+02  0.51100000000E-03 0.  1.
         12    1    4    4    0    0 -0.63484900338E+01  0.10875996038E+01 -0.64204088487E+01  0.90943855423E+01  0.00000000000E+00 0. -1.
</event>
<event>
 8    1  0.6524083E-011  0.9118800E+02  0.7816164E-02  0.1184000E+00
        -11   -1    0    0    0    0  0.00000000000E+00  0.00000000000E+00  0.45593999997E+02  0.45594000000E+02  0.51100000000E-03 0. -1.
         11   -1    0    0    0    0 -0.00000000000E+00 -0.00000000000E+00 -0.45593999997E+02  0.45594000000E+02  0.51100000000E-03 0.  1.
         23    2    1    2    0    0  0.00000000000E+00  0.00000000000E+00  0.00000000000E+00  0.91188000000E+02  0.91188000000E+02 0.  0.
    9900012    2    3    3    0    0  0.81683766567E+01  0.11624727042E+02 -0.41009346910E+02  0.47787272011E+02  0.20000004407E+02 0.  0.
         12    1    3    3    0    0 -0.81683766567E+01 -0.11624727042E+02  0.41009346910E+02  0.43400727989E+02  0.00000000000E+00 0. -1.
         11    1    4    4    0    0  0.91463406850E+01 -0.16492000134E+01 -0.23668689577E+02  0.25427982129E+02  0.51100000000E-03 0. -1.
        -11    1    4    4    0    0 -0.21264875520E+01  0.25693132402E+01 -0.36870988217E+01  0.49717218162E+01  0.51100000000E-03 0.  1.
        -12    1    4    4    0    0  0.11485235237E+01  0.10704613815E+02 -0.13653558511E+02  0.17387568066E+02  0.00000000000E+00 0.  1.
</event>
<event>
 8    1  0.6524083E-011  0.9118800E+02  0.7816164E-02  0.1184000E+00
        -11   -1    0    0    0    0  0.00000000000E+00  0.00000000000E+00  0.45593999997E+02  0.45594000000E+02  0.51100000000E-03 0. -1.
         11   -1    0    0    0    0 -0.00000000000E+00 -0.00000000000E+00 -0.45593999997E+02  0.45594000000E+02  0.51100000000E-03 0.  1.
         23    2    1    2    0    0  0.00000000000E+00  0.00000000000E+00  0.00000000000E+00  0.91188000000E+02  0.91188000000E+02 0.  0.
    9900012    2    3    3    0    0  0.18564761840E+02 -0.21965803020E+02 -0.32503487418E+02  0.47787267532E+02  0.19999983984E+02 0.  0.
         12    1    3    3    0    0 -0.18564761840E+02  0.21965803020E+02  0.32503487418E+02  0.43400732468E+02  0.00000000000E+00 0. -1.
         11    1    4    4    0    0  0.52082758164E+01  0.12107585938E+01 -0.36180609596E+01  0.64561938261E+01  0.51100000000E-03 0. -1.
        -11    1    4    4    0    0 -0.63384600406E+00 -0.75665705098E+01 -0.33646507448E+01  0.83051565266E+01  0.51100000000E-03 0.  1.
        -12    1    4    4    0    0  0.13990332028E+02 -0.15609991104E+02 -0.25520775713E+02  0.33025917179E+02  0.00000000000E+00 0.  1.
</event>
<event>
 8    1  0.6524083E-011  0.9118800E+02  0.7816164E-02  0.1184000E+00
        -11   -1    0    0    0    0  0.00000000000E+00  0.00000000000E+00  0.45593999997E+02  0.45594000000E+02  0.51100000000E-03 0.  1.
         11   -1    0    0    0    0 -0.00000000000E+00 -0.00000000000E+00 -0.45593999997E+02  0.45594000000E+02  0.51100000000E-03 0. -1.
         23    2    1    2    0    0 -0.71054273576E-14  0.35527136788E-14  0.00000000000E+00  0.91188000000E+02  0.91188000000E+02 0.  0.
    9900012    2    3    3    0    0 -0.33722646057E+02  0.27290754083E+02 -0.12732444867E+01  0.47787271123E+02  0.20000000358E+02 0.  0.
         12    1    3    3    0    0  0.33722646057E+02 -0.27290754083E+02  0.12732444867E+01  0.43400728877E+02  0.00000000000E+00 0. -1.
         11    1    4    4    0    0 -0.10560245845E+02  0.28049733813E+01  0.40149730301E+01  0.11640733511E+02  0.51100000000E-03 0. -1.
        -11    1    4    4    0    0 -0.17178256108E+02  0.11766468127E+02  0.77922931990E+00  0.20836253351E+02  0.51100000000E-03 0.  1.
        -12    1    4    4    0    0 -0.59841441038E+01  0.12719312575E+02 -0.60674468367E+01  0.15310284261E+02  0.00000000000E+00 0.  1.
</event>
<event>
 8    1  0.6524083E-011  0.9118800E+02  0.7816164E-02  0.1184000E+00
        -11   -1    0    0    0    0  0.00000000000E+00  0.00000000000E+00  0.45593999997E+02  0.45594000000E+02  0.51100000000E-03 0. -1.
         11   -1    0    0    0    0 -0.00000000000E+00 -0.00000000000E+00 -0.45593999997E+02  0.45594000000E+02  0.51100000000E-03 0.  1.
         23    2    1    2    0    0 -0.17763568394E-14  0.35527136788E-14 -0.71054273576E-14  0.91188000000E+02  0.91188000000E+02 0.  0.
    9900012    2    3    3    0    0  0.14117843129E+02 -0.13907732925E+02  0.38611966751E+02  0.47787279890E+02  0.20000040330E+02 0.  0.
        -12    1    3    3    0    0 -0.14117843129E+02  0.13907732925E+02 -0.38611966751E+02  0.43400720110E+02  0.00000000000E+00 0.  1.
         11    1    4    4    0    0  0.92943114340E+01 -0.25946715341E+01  0.16082574052E+02  0.18755418785E+02  0.51100000000E-03 0. -1.
        -11    1    4    4    0    0  0.12328880888E+01 -0.79010670926E+01  0.22708543294E+02  0.24075398502E+02  0.51100000000E-03 0.  1.
        -12    1    4    4    0    0  0.35906436061E+01 -0.34119942982E+01 -0.17915059528E+00  0.49564626027E+01  0.00000000000E+00 0.  1.
</event>
<event>
 8    1  0.6524083E-011  0.9118800E+02  0.7816164E-02  0.1184000E+00
        -11   -1    0    0    0    0  0.00000000000E+00  0.00000000000E+00  0.45593999997E+02  0.45594000000E+02  0.51100000000E-03 0. -1.
         11   -1    0    0    0    0 -0.00000000000E+00 -0.00000000000E+00 -0.45593999997E+02  0.45594000000E+02  0.51100000000E-03 0.  1.
         23    2    1    2    0    0  0.00000000000E+00  0.00000000000E+00  0.00000000000E+00  0.91188000000E+02  0.91188000000E+02 0.  0.
    9900012    2    3    3    0    0  0.22421859303E+02 -0.17895002177E+02 -0.32567660492E+02  0.47787269736E+02  0.19999994035E+02 0.  0.
         12    1    3    3    0    0 -0.22421859303E+02  0.17895002177E+02  0.32567660492E+02  0.43400730264E+02  0.00000000000E+00 0. -1.
         11    1    4    4    0    0 -0.15049029752E+01 -0.17414054369E+01  0.36740907311E+00  0.23307113825E+01  0.51100000000E-03 0. -1.
        -11    1    4    4    0    0  0.12855820054E+02 -0.15593069768E+02 -0.22296245948E+02  0.30092167049E+02  0.51100000000E-03 0.  1.
        -12    1    4    4    0    0  0.11070942224E+02 -0.56052697165E+00 -0.10638823617E+02  0.15364391305E+02  0.00000000000E+00 0.  1.
</event>
<event>
 8    1  0.6524083E-011  0.9118800E+02  0.7816164E-02  0.1184000E+00
        -11   -1    0    0    0    0  0.00000000000E+00  0.00000000000E+00  0.45593999997E+02  0.45594000000E+02  0.51100000000E-03 0. -1.
         11   -1    0    0    0    0 -0.00000000000E+00 -0.00000000000E+00 -0.45593999997E+02  0.45594000000E+02  0.51100000000E-03 0.  1.
         23    2    1    2    0    0  0.00000000000E+00  0.00000000000E+00  0.00000000000E+00  0.91188000000E+02  0.91188000000E+02 0.  0.
    9900012    2    3    3    0    0 -0.10856101966E+02  0.71053999885E+01 -0.41415963525E+02  0.47787266209E+02  0.19999977953E+02 0.  0.
         12    1    3    3    0    0  0.10856101966E+02 -0.71053999885E+01  0.41415963525E+02  0.43400733791E+02  0.00000000000E+00 0. -1.
         11    1    4    4    0    0 -0.62086822600E+01  0.50451535782E+01 -0.60404173810E+01  0.10024367932E+02  0.51100000000E-03 0. -1.
        -11    1    4    4    0    0 -0.48900331035E+01  0.66593674138E+01 -0.26581382110E+02  0.27835758895E+02  0.51100000000E-03 0.  1.
        -12    1    4    4    0    0  0.24261339721E+00 -0.45991210035E+01 -0.87941640336E+01  0.99271393823E+01  0.00000000000E+00 0.  1.
</event>
<event>
 8    1  0.6524083E-011  0.9118800E+02  0.7816164E-02  0.1184000E+00
        -11   -1    0    0    0    0  0.00000000000E+00  0.00000000000E+00  0.45593999997E+02  0.45594000000E+02  0.51100000000E-03 0. -1.
         11   -1    0    0    0    0 -0.00000000000E+00 -0.00000000000E+00 -0.45593999997E+02  0.45594000000E+02  0.51100000000E-03 0.  1.
         23    2    1    2    0    0  0.00000000000E+00  0.00000000000E+00  0.00000000000E+00  0.91188000000E+02  0.91188000000E+02 0.  0.
    9900012    2    3    3    0    0  0.82695945303E+01  0.25225711665E+02 -0.34335121610E+02  0.47787270758E+02  0.19999998696E+02 0.  0.
         12    1    3    3    0    0 -0.82695945303E+01 -0.25225711665E+02  0.34335121610E+02  0.43400729242E+02  0.00000000000E+00 0. -1.
         11    1    4    4    0    0  0.51120833732E+01  0.67065367887E+00 -0.45828386087E+00  0.51762145560E+01  0.51100000000E-03 0. -1.
        -11    1    4    4    0    0  0.38277818299E+01  0.85662938182E+01 -0.16551765794E+02  0.19026146606E+02  0.51100000000E-03 0.  1.
        -12    1    4    4    0    0 -0.67027067288E+00  0.15988764168E+02 -0.17325071956E+02  0.23584909596E+02  0.00000000000E+00 0.  1.
</event>
<event>
 8    1  0.6524083E-011  0.9118800E+02  0.7816164E-02  0.1184000E+00
        -11   -1    0    0    0    0  0.00000000000E+00  0.00000000000E+00  0.45593999997E+02  0.45594000000E+02  0.51100000000E-03 0. -1.
         11   -1    0    0    0    0 -0.00000000000E+00 -0.00000000000E+00 -0.45593999997E+02  0.45594000000E+02  0.51100000000E-03 0.  1.
         23    2    1    2    0    0  0.00000000000E+00 -0.17763568394E-14 -0.35527136788E-14  0.91188000000E+02  0.91188000000E+02 0.  0.
    9900012    2    3    3    0    0  0.33347155139E+02  0.11121657978E+02  0.25453867504E+02  0.47787269558E+02  0.19999993221E+02 0.  0.
        -12    1    3    3    0    0 -0.33347155139E+02 -0.11121657978E+02 -0.25453867504E+02  0.43400730442E+02  0.00000000000E+00 0.  1.
         11    1    4    4    0    0  0.17963224642E+02  0.13367361653E+02  0.18257119984E+02  0.28890936771E+02  0.51100000000E-03 0. -1.
        -11    1    4    4    0    0  0.97431279514E+01 -0.20236708987E+01  0.85177093780E+01  0.13098670142E+02  0.51100000000E-03 0.  1.
        -12    1    4    4    0    0  0.56408025452E+01 -0.22203277680E+00 -0.13209618585E+01  0.57976626445E+01  0.00000000000E+00 0.  1.
</event>
<event>
 8    1  0.6524083E-011  0.9118800E+02  0.7816164E-02  0.1184000E+00
        -11   -1    0    0    0    0  0.00000000000E+00  0.00000000000E+00  0.45593999997E+02  0.45594000000E+02  0.51100000000E-03 0. -1.
         11   -1    0    0    0    0 -0.00000000000E+00 -0.00000000000E+00 -0.45593999997E+02  0.45594000000E+02  0.51100000000E-03 0.  1.
         23    2    1    2    0    0  0.35527136788E-14 -0.71054273576E-14  0.00000000000E+00  0.91188000000E+02  0.91188000000E+02 0.  0.
    9900012    2    3    3    0    0  0.31143762461E+02 -0.28728045256E+02 -0.94015237600E+01  0.47787272202E+02  0.20000005276E+02 0.  0.
         12    1    3    3    0    0 -0.31143762461E+02  0.28728045256E+02  0.94015237600E+01  0.43400727798E+02  0.00000000000E+00 0. -1.
         11    1    4    4    0    0  0.74430718992E+01 -0.19316946809E+02 -0.64437672332E+01  0.21681002969E+02  0.51100000000E-03 0. -1.
        -11    1    4    4    0    0  0.12157818369E+02 -0.72694185857E+01 -0.96209122403E+00  0.14197979217E+02  0.51100000000E-03 0.  1.
         12    1    4    4    0    0  0.11542872193E+02 -0.21416798605E+01 -0.19956653027E+01  0.11908290015E+02  0.00000000000E+00 0. -1.
</event>
<event>
 8    1  0.6524083E-011  0.9118800E+02  0.7816164E-02  0.1184000E+00
        -11   -1    0    0    0    0  0.00000000000E+00  0.00000000000E+00  0.45593999997E+02  0.45594000000E+02  0.51100000000E-03 0. -1.
         11   -1    0    0    0    0 -0.00000000000E+00 -0.00000000000E+00 -0.45593999997E+02  0.45594000000E+02  0.51100000000E-03 0.  1.
         23    2    1    2    0    0  0.00000000000E+00  0.00000000000E+00  0.00000000000E+00  0.91188000000E+02  0.91188000000E+02 0.  0.
    9900012    2    3    3    0    0 -0.95157192236E+01 -0.29684966123E+01  0.42240530638E+02  0.47787270593E+02  0.19999997942E+02 0.  0.
        -12    1    3    3    0    0  0.95157192236E+01  0.29684966123E+01 -0.42240530638E+02  0.43400729407E+02  0.00000000000E+00 0.  1.
         11    1    4    4    0    0 -0.23378765399E+01 -0.43841227217E+01  0.15344115555E+02  0.16128486636E+02  0.51100000000E-03 0. -1.
        -11    1    4    4    0    0  0.31355305943E+00  0.65570012554E+01  0.17002950001E+02  0.18226159496E+02  0.51100000000E-03 0.  1.
        -12    1    4    4    0    0 -0.74913957431E+01 -0.51413751459E+01  0.98934650819E+01  0.13432624461E+02  0.00000000000E+00 0.  1.
</event>
<event>
 8    1  0.1239273E-010  0.9118800E+02  0.7816164E-02  0.1184000E+00
        -11   -1    0    0    0    0  0.00000000000E+00  0.00000000000E+00  0.45593999997E+02  0.45594000000E+02  0.51100000000E-03 0. -1.
         11   -1    0    0    0    0 -0.00000000000E+00 -0.00000000000E+00 -0.45593999997E+02  0.45594000000E+02  0.51100000000E-03 0.  1.
         23    2    1    2    0    0 -0.22204460493E-15 -0.88817841970E-15  0.00000000000E+00  0.91188000000E+02  0.91188000000E+02 0.  0.
    9900012    2    3    3    0    0  0.12903214799E+01  0.75492349194E+01 -0.42719614664E+02  0.47787293157E+02  0.20000100822E+02 0.  0.
         12    1    3    3    0    0 -0.12903214799E+01 -0.75492349194E+01  0.42719614664E+02  0.43400706843E+02  0.00000000000E+00 0. -1.
         11    1    4    4    0    0 -0.52331732997E+01  0.13623786612E+01 -0.68812740895E+01  0.87518061997E+01  0.51100000000E-03 0. -1.
        -11    1    4    4    0    0  0.33436752690E+01  0.76020915565E+01 -0.34190293004E+02  0.35184486586E+02  0.51100000000E-03 0.  1.
         12    1    4    4    0    0  0.31798195107E+01 -0.14152352983E+01 -0.16480475703E+01  0.38510003718E+01  0.00000000000E+00 0. -1.
</event>
<event>
 8    1  0.6524083E-011  0.9118800E+02  0.7816164E-02  0.1184000E+00
        -11   -1    0    0    0    0  0.00000000000E+00  0.00000000000E+00  0.45593999997E+02  0.45594000000E+02  0.51100000000E-03 0. -1.
         11   -1    0    0    0    0 -0.00000000000E+00 -0.00000000000E+00 -0.45593999997E+02  0.45594000000E+02  0.51100000000E-03 0.  1.
         23    2    1    2    0    0  0.35527136788E-14  0.00000000000E+00 -0.17763568394E-14  0.91188000000E+02  0.91188000000E+02 0.  0.
    9900012    2    3    3    0    0 -0.29910670499E+02 -0.30208069786E+02  0.87434243903E+01  0.47787272357E+02  0.20000005985E+02 0.  0.
        -12    1    3    3    0    0  0.29910670499E+02  0.30208069786E+02 -0.87434243903E+01  0.43400727643E+02  0.00000000000E+00 0.  1.
         11    1    4    4    0    0 -0.14662149834E+02 -0.12105435555E+02 -0.19575786564E+01  0.19114191644E+02  0.51100000000E-03 0. -1.
        -11    1    4    4    0    0 -0.10912488606E+02 -0.45075457941E+01  0.76863429179E+01  0.14088301685E+02  0.51100000000E-03 0.  1.
         12    1    4    4    0    0 -0.43360320591E+01 -0.13595088436E+02  0.30146601288E+01  0.14584779028E+02  0.00000000000E+00 0. -1.
</event>
<event>
 8    1  0.6524083E-011  0.9118800E+02  0.7816164E-02  0.1184000E+00
        -11   -1    0    0    0    0  0.00000000000E+00  0.00000000000E+00  0.45593999997E+02  0.45594000000E+02  0.51100000000E-03 0.  1.
         11   -1    0    0    0    0 -0.00000000000E+00 -0.00000000000E+00 -0.45593999997E+02  0.45594000000E+02  0.51100000000E-03 0. -1.
         23    2    1    2    0    0  0.00000000000E+00  0.00000000000E+00  0.00000000000E+00  0.91188000000E+02  0.91188000000E+02 0.  0.
    9900012    2    3    3    0    0  0.39325646173E+02 -0.15644116372E+02  0.96113743505E+01  0.47787270272E+02  0.19999996479E+02 0.  0.
         12    1    3    3    0    0 -0.39325646173E+02  0.15644116372E+02 -0.96113743505E+01  0.43400729728E+02  0.00000000000E+00 0. -1.
         11    1    4    4    0    0 -0.43710514653E+00 -0.22514331844E+01 -0.30054943898E+01  0.37806096176E+01  0.51100000000E-03 0. -1.
        -11    1    4    4    0    0  0.15664193077E+02 -0.64148041602E+01  0.68737692171E+01  0.18269246308E+02  0.51100000000E-03 0.  1.
         12    1    4    4    0    0  0.24098558243E+02 -0.69778790279E+01  0.57430995232E+01  0.25737414347E+02  0.00000000000E+00 0. -1.
</event>
<event>
 8    1  0.6524083E-011  0.9118800E+02  0.7816164E-02  0.1184000E+00
        -11   -1    0    0    0    0  0.00000000000E+00  0.00000000000E+00  0.45593999997E+02  0.45594000000E+02  0.51100000000E-03 0.  1.
         11   -1    0    0    0    0 -0.00000000000E+00 -0.00000000000E+00 -0.45593999997E+02  0.45594000000E+02  0.51100000000E-03 0. -1.
         23    2    1    2    0    0  0.35527136788E-14  0.00000000000E+00 -0.17763568394E-14  0.91188000000E+02  0.91188000000E+02 0.  0.
    9900012    2    3    3    0    0  0.20848290658E+02 -0.36898738507E+02 -0.93517480151E+01  0.47787270540E+02  0.19999997700E+02 0.  0.
         12    1    3    3    0    0 -0.20848290658E+02  0.36898738507E+02  0.93517480151E+01  0.43400729460E+02  0.00000000000E+00 0. -1.
         11    1    4    4    0    0  0.12766155502E+02 -0.28441947753E+02  0.17467480523E+01  0.31224513564E+02  0.51100000000E-03 0. -1.
        -11    1    4    4    0    0  0.32388213985E+01 -0.42350180947E+01 -0.26646031608E+01  0.59603231942E+01  0.51100000000E-03 0.  1.
         12    1    4    4    0    0  0.48433137571E+01 -0.42217726588E+01 -0.84338929065E+01  0.10602433782E+02  0.00000000000E+00 0. -1.
</event>
<event>
 8    1  0.6524083E-011  0.9118800E+02  0.7816164E-02  0.1184000E+00
        -11   -1    0    0    0    0  0.00000000000E+00  0.00000000000E+00  0.45593999997E+02  0.45594000000E+02  0.51100000000E-03 0. -1.
         11   -1    0    0    0    0 -0.00000000000E+00 -0.00000000000E+00 -0.45593999997E+02  0.45594000000E+02  0.51100000000E-03 0.  1.
         23    2    1    2    0    0  0.88817841970E-15 -0.26645352591E-14 -0.71054273576E-14  0.91188000000E+02  0.91188000000E+02 0.  0.
    9900012    2    3    3    0    0  0.73790484996E+01 -0.60510271621E+01 -0.42338612100E+02  0.47787270040E+02  0.19999995422E+02 0.  0.
         12    1    3    3    0    0 -0.73790484996E+01  0.60510271621E+01  0.42338612100E+02  0.43400729960E+02  0.00000000000E+00 0. -1.
         11    1    4    4    0    0  0.55105313710E+00 -0.75456656721E+01 -0.58227556827E+01  0.95470002617E+01  0.51100000000E-03 0. -1.
        -11    1    4    4    0    0  0.73282464431E+01 -0.21009329503E+01 -0.22249930184E+02  0.23519704689E+02  0.51100000000E-03 0.  1.
        -12    1    4    4    0    0 -0.50025108052E+00  0.35955714604E+01 -0.14265926233E+02  0.14720565090E+02  0.00000000000E+00 0.  1.
</event>
<event>
 8    1  0.6524083E-011  0.9118800E+02  0.7816164E-02  0.1184000E+00
        -11   -1    0    0    0    0  0.00000000000E+00  0.00000000000E+00  0.45593999997E+02  0.45594000000E+02  0.51100000000E-03 0. -1.
         11   -1    0    0    0    0 -0.00000000000E+00 -0.00000000000E+00 -0.45593999997E+02  0.45594000000E+02  0.51100000000E-03 0.  1.
         23    2    1    2    0    0  0.88817841970E-15  0.00000000000E+00  0.35527136788E-14  0.91188000000E+02  0.91188000000E+02 0.  0.
    9900012    2    3    3    0    0  0.46487532955E+01 -0.38612357978E+02 -0.19263908999E+02  0.47787270908E+02  0.19999999376E+02 0.  0.
         12    1    3    3    0    0 -0.46487532955E+01  0.38612357978E+02  0.19263908999E+02  0.43400729092E+02  0.00000000000E+00 0. -1.
         11    1    4    4    0    0  0.10494214325E+02 -0.13099313101E+02 -0.72348926588E+01  0.18277423507E+02  0.51100000000E-03 0.  1.
        -11    1    4    4    0    0 -0.26560392431E+01 -0.41360233412E+01 -0.31386873727E+00  0.49254184985E+01  0.51100000000E-03 0. -1.
         12    1    4    4    0    0 -0.31894217864E+01 -0.21377021536E+02 -0.11715147603E+02  0.24584428902E+02  0.00000000000E+00 0. -1.
</event>
<event>
 8    1  0.6524083E-011  0.9118800E+02  0.7816164E-02  0.1184000E+00
        -11   -1    0    0    0    0  0.00000000000E+00  0.00000000000E+00  0.45593999997E+02  0.45594000000E+02  0.51100000000E-03 0. -1.
         11   -1    0    0    0    0 -0.00000000000E+00 -0.00000000000E+00 -0.45593999997E+02  0.45594000000E+02  0.51100000000E-03 0.  1.
         23    2    1    2    0    0  0.00000000000E+00  0.35527136788E-14  0.00000000000E+00  0.91188000000E+02  0.91188000000E+02 0.  0.
    9900012    2    3    3    0    0  0.31929888693E+02 -0.28272515826E+02  0.80480933979E+01  0.47787254034E+02  0.19999922443E+02 0.  0.
        -12    1    3    3    0    0 -0.31929888693E+02  0.28272515826E+02 -0.80480933979E+01  0.43400745966E+02  0.00000000000E+00 0.  1.
         11    1    4    4    0    0  0.97412871515E+01 -0.13398478335E+02  0.60004847532E+00  0.16576246725E+02  0.51100000000E-03 0. -1.
        -11    1    4    4    0    0  0.93551977224E+01  0.95008791989E+00 -0.31389398898E+00  0.94085557435E+01  0.51100000000E-03 0.  1.
        -12    1    4    4    0    0  0.12833403819E+02 -0.15824125411E+02  0.77619389116E+01  0.21802451565E+02  0.00000000000E+00 0.  1.
</event>
<event>
 8    1  0.6524083E-011  0.9118800E+02  0.7816164E-02  0.1184000E+00
        -11   -1    0    0    0    0  0.00000000000E+00  0.00000000000E+00  0.45593999997E+02  0.45594000000E+02  0.51100000000E-03 0. -1.
         11   -1    0    0    0    0 -0.00000000000E+00 -0.00000000000E+00 -0.45593999997E+02  0.45594000000E+02  0.51100000000E-03 0.  1.
         23    2    1    2    0    0  0.00000000000E+00  0.17763568394E-14  0.35527136788E-14  0.91188000000E+02  0.91188000000E+02 0.  0.
    9900012    2    3    3    0    0 -0.29925359239E+02 -0.11118024919E+02 -0.29402138374E+02  0.47787270229E+02  0.19999996284E+02 0.  0.
         12    1    3    3    0    0  0.29925359239E+02  0.11118024919E+02  0.29402138374E+02  0.43400729771E+02  0.00000000000E+00 0. -1.
         11    1    4    4    0    0 -0.49287629547E+01  0.17406276096E+01 -0.40927818358E+01  0.66387764050E+01  0.51100000000E-03 0. -1.
        -11    1    4    4    0    0 -0.13212420898E+02 -0.12671077119E+02 -0.22547920604E+02  0.29043639324E+02  0.51100000000E-03 0.  1.
        -12    1    4    4    0    0 -0.11784175386E+02 -0.18757540894E+00 -0.27614359343E+01  0.12104854500E+02  0.00000000000E+00 0.  1.
</event>
<event>
 8    1  0.6524083E-011  0.9118800E+02  0.7816164E-02  0.1184000E+00
        -11   -1    0    0    0    0  0.00000000000E+00  0.00000000000E+00  0.45593999997E+02  0.45594000000E+02  0.51100000000E-03 0. -1.
         11   -1    0    0    0    0 -0.00000000000E+00 -0.00000000000E+00 -0.45593999997E+02  0.45594000000E+02  0.51100000000E-03 0.  1.
         23    2    1    2    0    0  0.00000000000E+00  0.35527136788E-14  0.35527136788E-14  0.91188000000E+02  0.91188000000E+02 0.  0.
    9900012    2    3    3    0    0 -0.25132896307E+02 -0.17739718209E+02  0.30614751969E+02  0.47787272851E+02  0.20000008238E+02 0.  0.
        -12    1    3    3    0    0  0.25132896307E+02  0.17739718209E+02 -0.30614751969E+02  0.43400727149E+02  0.00000000000E+00 0.  1.
         11    1    4    4    0    0 -0.55245088717E+01 -0.62374145353E+01  0.10109772053E+02  0.13100878962E+02  0.51100000000E-03 0. -1.
        -11    1    4    4    0    0 -0.14511833928E+02 -0.15628353865E+02  0.16842704475E+02  0.27175640982E+02  0.51100000000E-03 0.  1.
         12    1    4    4    0    0 -0.50965535072E+01  0.41260501910E+01  0.36622754409E+01  0.75107529073E+01  0.00000000000E+00 0. -1.
</event>
<event>
 8    1  0.6524083E-011  0.9118800E+02  0.7816164E-02  0.1184000E+00
        -11   -1    0    0    0    0  0.00000000000E+00  0.00000000000E+00  0.45593999997E+02  0.45594000000E+02  0.51100000000E-03 0.  1.
         11   -1    0    0    0    0 -0.00000000000E+00 -0.00000000000E+00 -0.45593999997E+02  0.45594000000E+02  0.51100000000E-03 0. -1.
         23    2    1    2    0    0  0.00000000000E+00  0.00000000000E+00  0.00000000000E+00  0.91188000000E+02  0.91188000000E+02 0.  0.
    9900012    2    3    3    0    0  0.12963705825E+02  0.37134141965E+02 -0.18347190422E+02  0.47787290736E+02  0.20000089783E+02 0.  0.
         12    1    3    3    0    0 -0.12963705825E+02 -0.37134141965E+02  0.18347190422E+02  0.43400709264E+02  0.00000000000E+00 0. -1.
         11    1    4    4    0    0  0.28037083085E+00  0.25659009278E+01  0.14287345998E+01  0.29502098556E+01  0.51100000000E-03 0. -1.
        -11    1    4    4    0    0  0.14221258700E+02  0.24493990434E+02 -0.19951172673E+02  0.34644610803E+02  0.51100000000E-03 0.  1.
        -12    1    4    4    0    0 -0.15379237062E+01  0.10074250604E+02  0.17524765155E+00  0.10192470078E+02  0.00000000000E+00 0.  1.
</event>
<event>
 8    1  0.6524083E-011  0.9118800E+02  0.7816164E-02  0.1184000E+00
        -11   -1    0    0    0    0  0.00000000000E+00  0.00000000000E+00  0.45593999997E+02  0.45594000000E+02  0.51100000000E-03 0. -1.
         11   -1    0    0    0    0 -0.00000000000E+00 -0.00000000000E+00 -0.45593999997E+02  0.45594000000E+02  0.51100000000E-03 0.  1.
         23    2    1    2    0    0  0.00000000000E+00  0.17763568394E-14  0.00000000000E+00  0.91188000000E+02  0.91188000000E+02 0.  0.
    9900012    2    3    3    0    0 -0.14017890267E+02  0.14302126707E+02  0.38504135130E+02  0.47787303024E+02  0.20000145807E+02 0.  0.
        -12    1    3    3    0    0  0.14017890267E+02 -0.14302126707E+02 -0.38504135130E+02  0.43400696976E+02  0.00000000000E+00 0.  1.
         11    1    4    4    0    0 -0.97726261814E+01  0.12043845250E+01  0.22088958598E+02  0.24184227438E+02  0.51100000000E-03 0. -1.
        -11    1    4    4    0    0 -0.60546823914E+01  0.68887744446E+01  0.49054984228E+01  0.10400880119E+02  0.51100000000E-03 0.  1.
        -12    1    4    4    0    0  0.18094183063E+01  0.62089677374E+01  0.11509678110E+02  0.13202195467E+02  0.00000000000E+00 0.  1.
</event>
<event>
 8    1  0.6524083E-011  0.9118800E+02  0.7816164E-02  0.1184000E+00
        -11   -1    0    0    0    0  0.00000000000E+00  0.00000000000E+00  0.45593999997E+02  0.45594000000E+02  0.51100000000E-03 0. -1.
         11   -1    0    0    0    0 -0.00000000000E+00 -0.00000000000E+00 -0.45593999997E+02  0.45594000000E+02  0.51100000000E-03 0.  1.
         23    2    1    2    0    0  0.88817841970E-15  0.00000000000E+00  0.00000000000E+00  0.91188000000E+02  0.91188000000E+02 0.  0.
    9900012    2    3    3    0    0  0.75528277691E+01  0.26212760292E+02 -0.33756026164E+02  0.47787270607E+02  0.19999998007E+02 0.  0.
         12    1    3    3    0    0 -0.75528277691E+01 -0.26212760292E+02  0.33756026164E+02  0.43400729393E+02  0.00000000000E+00 0. -1.
         11    1    4    4    0    0  0.28588210424E+01 -0.14647598720E+01 -0.43609972883E+01  0.54163342627E+01  0.51100000000E-03 0. -1.
        -11    1    4    4    0    0 -0.35998315547E+01  0.10159894321E+02 -0.13695523283E+02  0.17428413528E+02  0.51100000000E-03 0.  1.
        -12    1    4    4    0    0  0.82938382814E+01  0.17517625843E+02 -0.15699505592E+02  0.24942522817E+02  0.00000000000E+00 0.  1.
</event>
<event>
 8    1  0.6524083E-011  0.9118800E+02  0.7816164E-02  0.1184000E+00
        -11   -1    0    0    0    0  0.00000000000E+00  0.00000000000E+00  0.45593999997E+02  0.45594000000E+02  0.51100000000E-03 0. -1.
         11   -1    0    0    0    0 -0.00000000000E+00 -0.00000000000E+00 -0.45593999997E+02  0.45594000000E+02  0.51100000000E-03 0.  1.
         23    2    1    2    0    0  0.00000000000E+00  0.00000000000E+00  0.00000000000E+00  0.91188000000E+02  0.91188000000E+02 0.  0.
    9900012    2    3    3    0    0  0.28270631802E+02  0.15093387483E+01 -0.32895541067E+02  0.47787270190E+02  0.19999996104E+02 0.  0.
         12    1    3    3    0    0 -0.28270631802E+02 -0.15093387483E+01  0.32895541067E+02  0.43400729810E+02  0.00000000000E+00 0. -1.
         11    1    4    4    0    0  0.83595294748E+01  0.18504706786E+01 -0.14749079117E+02  0.17054070184E+02  0.51100000000E-03 0.  1.
        -11    1    4    4    0    0  0.45773902545E+01 -0.67101025191E+01 -0.71207893834E+01  0.10802019212E+02  0.51100000000E-03 0. -1.
         12    1    4    4    0    0  0.15333712072E+02  0.63689705888E+01 -0.11025672567E+02  0.19931180794E+02  0.00000000000E+00 0. -1.
</event>
<event>
 8    1  0.6524083E-011  0.9118800E+02  0.7816164E-02  0.1184000E+00
        -11   -1    0    0    0    0  0.00000000000E+00  0.00000000000E+00  0.45593999997E+02  0.45594000000E+02  0.51100000000E-03 0. -1.
         11   -1    0    0    0    0 -0.00000000000E+00 -0.00000000000E+00 -0.45593999997E+02  0.45594000000E+02  0.51100000000E-03 0.  1.
         23    2    1    2    0    0 -0.17763568394E-14  0.00000000000E+00  0.71054273576E-14  0.91188000000E+02  0.91188000000E+02 0.  0.
    9900012    2    3    3    0    0  0.14441856732E+02 -0.13771914575E+02 -0.38540770091E+02  0.47787264797E+02  0.19999971517E+02 0.  0.
         12    1    3    3    0    0 -0.14441856732E+02  0.13771914575E+02  0.38540770091E+02  0.43400735203E+02  0.00000000000E+00 0. -1.
         11    1    4    4    0    0  0.45738361926E+01 -0.14837153405E+02 -0.13750389874E+02  0.20739679858E+02  0.51100000000E-03 0. -1.
        -11    1    4    4    0    0  0.38955471344E+01 -0.14869910861E+01 -0.11977612491E+02  0.12682650796E+02  0.51100000000E-03 0.  1.
         12    1    4    4    0    0  0.59724734050E+01  0.25522299165E+01 -0.12812767726E+02  0.14364934143E+02  0.00000000000E+00 0. -1.
</event>
<event>
 8    1  0.6524083E-011  0.9118800E+02  0.7816164E-02  0.1184000E+00
        -11   -1    0    0    0    0  0.00000000000E+00  0.00000000000E+00  0.45593999997E+02  0.45594000000E+02  0.51100000000E-03 0. -1.
         11   -1    0    0    0    0 -0.00000000000E+00 -0.00000000000E+00 -0.45593999997E+02  0.45594000000E+02  0.51100000000E-03 0.  1.
         23    2    1    2    0    0 -0.55511151231E-16 -0.71054273576E-14 -0.35527136788E-14  0.91188000000E+02  0.91188000000E+02 0.  0.
    9900012    2    3    3    0    0 -0.32881359876E+00  0.39396142082E+02  0.18206017615E+02  0.47787271818E+02  0.20000003527E+02 0.  0.
        -12    1    3    3    0    0  0.32881359876E+00 -0.39396142082E+02 -0.18206017615E+02  0.43400728182E+02  0.00000000000E+00 0.  1.
         11    1    4    4    0    0  0.21164411420E+01  0.23474610596E+01 -0.73542037485E+00  0.32451101557E+01  0.51100000000E-03 0.  1.
        -11    1    4    4    0    0 -0.39451045055E+01  0.36115904070E+02  0.13395221963E+02  0.38721497235E+02  0.51100000000E-03 0. -1.
         12    1    4    4    0    0  0.14998497648E+01  0.93277695164E+00  0.55462160273E+01  0.58206644277E+01  0.00000000000E+00 0. -1.
</event>
<event>
 8    1  0.6524083E-011  0.9118800E+02  0.7816164E-02  0.1184000E+00
        -11   -1    0    0    0    0  0.00000000000E+00  0.00000000000E+00  0.45593999997E+02  0.45594000000E+02  0.51100000000E-03 0.  1.
         11   -1    0    0    0    0 -0.00000000000E+00 -0.00000000000E+00 -0.45593999997E+02  0.45594000000E+02  0.51100000000E-03 0. -1.
         23    2    1    2    0    0  0.35527136788E-14  0.00000000000E+00  0.00000000000E+00  0.91188000000E+02  0.91188000000E+02 0.  0.
    9900012    2    3    3    0    0  0.30992479937E+02 -0.22738185040E+02 -0.20151032474E+02  0.47787274415E+02  0.20000015367E+02 0.  0.
         12    1    3    3    0    0 -0.30992479937E+02  0.22738185040E+02  0.20151032474E+02  0.43400725585E+02  0.00000000000E+00 0. -1.
         11    1    4    4    0    0  0.26902890807E+01  0.14241938476E+01 -0.30123116323E+01  0.42825232147E+01  0.51100000000E-03 0. -1.
        -11    1    4    4    0    0  0.17776592814E+01 -0.13250871184E+01 -0.65830120011E+01  0.69463642044E+01  0.51100000000E-03 0.  1.
        -12    1    4    4    0    0  0.26524531575E+02 -0.22837291769E+02 -0.10555708841E+02  0.36558386996E+02  0.00000000000E+00 0.  1.
</event>
<event>
 8    1  0.6524083E-011  0.9118800E+02  0.7816164E-02  0.1184000E+00
        -11   -1    0    0    0    0  0.00000000000E+00  0.00000000000E+00  0.45593999997E+02  0.45594000000E+02  0.51100000000E-03 0. -1.
         11   -1    0    0    0    0 -0.00000000000E+00 -0.00000000000E+00 -0.45593999997E+02  0.45594000000E+02  0.51100000000E-03 0.  1.
         23    2    1    2    0    0 -0.17763568394E-14 -0.44408920985E-15  0.00000000000E+00  0.91188000000E+02  0.91188000000E+02 0.  0.
    9900012    2    3    3    0    0  0.14430354853E+02  0.25091792609E+01  0.40854520220E+02  0.47787274843E+02  0.20000017318E+02 0.  0.
        -12    1    3    3    0    0 -0.14430354853E+02 -0.25091792609E+01 -0.40854520220E+02  0.43400725157E+02  0.00000000000E+00 0.  1.
         11    1    4    4    0    0  0.44203127584E+01  0.82657263500E+01  0.19487117902E+02  0.21624272505E+02  0.51100000000E-03 0. -1.
        -11    1    4    4    0    0  0.42286949310E+01 -0.43437686133E+00  0.10496896890E+01  0.43786290984E+01  0.51100000000E-03 0.  1.
        -12    1    4    4    0    0  0.57813471631E+01 -0.53221702278E+01  0.20317712629E+02  0.21784373240E+02  0.00000000000E+00 0.  1.
</event>
<event>
 8    1  0.6524083E-011  0.9118800E+02  0.7816164E-02  0.1184000E+00
        -11   -1    0    0    0    0  0.00000000000E+00  0.00000000000E+00  0.45593999997E+02  0.45594000000E+02  0.51100000000E-03 0. -1.
         11   -1    0    0    0    0 -0.00000000000E+00 -0.00000000000E+00 -0.45593999997E+02  0.45594000000E+02  0.51100000000E-03 0.  1.
         23    2    1    2    0    0  0.00000000000E+00  0.35527136788E-14  0.00000000000E+00  0.91188000000E+02  0.91188000000E+02 0.  0.
    9900012    2    3    3    0    0 -0.17704125665E+02 -0.22914576279E+02 -0.32328069719E+02  0.47787332224E+02  0.20000278942E+02 0.  0.
         12    1    3    3    0    0  0.17704125665E+02  0.22914576279E+02  0.32328069719E+02  0.43400667776E+02  0.00000000000E+00 0. -1.
         11    1    4    4    0    0 -0.55539515054E+00  0.13396030548E+01 -0.40658515563E+01  0.43167289996E+01  0.51100000000E-03 0. -1.
        -11    1    4    4    0    0  0.22692754406E+01 -0.16769135916E+01 -0.47643893826E+01  0.55372426955E+01  0.51100000000E-03 0.  1.
        -12    1    4    4    0    0 -0.19418005955E+02 -0.22577265743E+02 -0.23497828780E+02  0.37933360529E+02  0.00000000000E+00 0.  1.
</event>
<event>
 8    1  0.6524083E-011  0.9118800E+02  0.7816164E-02  0.1184000E+00
        -11   -1    0    0    0    0  0.00000000000E+00  0.00000000000E+00  0.45593999997E+02  0.45594000000E+02  0.51100000000E-03 0. -1.
         11   -1    0    0    0    0 -0.00000000000E+00 -0.00000000000E+00 -0.45593999997E+02  0.45594000000E+02  0.51100000000E-03 0.  1.
         23    2    1    2    0    0 -0.88817841970E-15  0.35527136788E-14  0.35527136788E-14  0.91188000000E+02  0.91188000000E+02 0.  0.
    9900012    2    3    3    0    0 -0.77200109737E+01  0.29182122594E+02  0.31183775506E+02  0.47787277617E+02  0.20000029968E+02 0.  0.
        -12    1    3    3    0    0  0.77200109737E+01 -0.29182122594E+02 -0.31183775506E+02  0.43400722383E+02  0.00000000000E+00 0.  1.
         11    1    4    4    0    0 -0.37741700186E+01  0.90311038491E+01  0.20548169037E+02  0.22760326164E+02  0.51100000000E-03 0. -1.
        -11    1    4    4    0    0  0.17715086094E+01  0.50410775241E+01  0.63769569428E+01  0.83196325321E+01  0.51100000000E-03 0.  1.
        -12    1    4    4    0    0 -0.57173495644E+01  0.15109941221E+02  0.42586495261E+01  0.16707318921E+02  0.00000000000E+00 0.  1.
</event>
<event>
 8    1  0.6524083E-011  0.9118800E+02  0.7816164E-02  0.1184000E+00
        -11   -1    0    0    0    0  0.00000000000E+00  0.00000000000E+00  0.45593999997E+02  0.45594000000E+02  0.51100000000E-03 0. -1.
         11   -1    0    0    0    0 -0.00000000000E+00 -0.00000000000E+00 -0.45593999997E+02  0.45594000000E+02  0.51100000000E-03 0.  1.
         23    2    1    2    0    0 -0.44408920985E-15 -0.88817841970E-15  0.00000000000E+00  0.91188000000E+02  0.91188000000E+02 0.  0.
    9900012    2    3    3    0    0 -0.24569456830E+01  0.73799444345E+01 -0.42698045763E+02  0.47787271044E+02  0.19999999999E+02 0.  0.
         12    1    3    3    0    0  0.24569456830E+01 -0.73799444345E+01  0.42698045763E+02  0.43400728956E+02  0.00000000000E+00 0. -1.
         11    1    4    4    0    0  0.33658994321E+01  0.41520664828E+01 -0.10282123650E+02  0.11588399461E+02  0.51100000000E-03 0. -1.
        -11    1    4    4    0    0 -0.77403374900E+01  0.60841577190E+01 -0.30916191207E+02  0.32445965522E+02  0.51100000000E-03 0.  1.
         12    1    4    4    0    0  0.19174923750E+01 -0.28562797672E+01 -0.14997309057E+01  0.37529060615E+01  0.00000000000E+00 0. -1.
</event>
<event>
 8    1  0.6524083E-011  0.9118800E+02  0.7816164E-02  0.1184000E+00
        -11   -1    0    0    0    0  0.00000000000E+00  0.00000000000E+00  0.45593999997E+02  0.45594000000E+02  0.51100000000E-03 0. -1.
         11   -1    0    0    0    0 -0.00000000000E+00 -0.00000000000E+00 -0.45593999997E+02  0.45594000000E+02  0.51100000000E-03 0.  1.
         23    2    1    2    0    0  0.00000000000E+00  0.00000000000E+00  0.00000000000E+00  0.91188000000E+02  0.91188000000E+02 0.  0.
    9900012    2    3    3    0    0 -0.29479097946E+02 -0.17452752154E+02 -0.26645975950E+02  0.47787264893E+02  0.19999971953E+02 0.  0.
         12    1    3    3    0    0  0.29479097946E+02  0.17452752154E+02  0.26645975950E+02  0.43400735107E+02  0.00000000000E+00 0. -1.
         11    1    4    4    0    0 -0.91533397292E+01 -0.23635262176E+01  0.13979464366E+01  0.95563664057E+01  0.51100000000E-03 0. -1.
        -11    1    4    4    0    0 -0.59661281943E+01 -0.15585671119E+01 -0.53937607934E+01  0.81924643930E+01  0.51100000000E-03 0.  1.
        -12    1    4    4    0    0 -0.14359630023E+02 -0.13530658825E+02 -0.22650161594E+02  0.30038434094E+02  0.00000000000E+00 0.  1.
</event>
<event>
 8    1  0.6524083E-011  0.9118800E+02  0.7816164E-02  0.1184000E+00
        -11   -1    0    0    0    0  0.00000000000E+00  0.00000000000E+00  0.45593999997E+02  0.45594000000E+02  0.51100000000E-03 0. -1.
         11   -1    0    0    0    0 -0.00000000000E+00 -0.00000000000E+00 -0.45593999997E+02  0.45594000000E+02  0.51100000000E-03 0.  1.
         23    2    1    2    0    0  0.71054273576E-14  0.00000000000E+00  0.00000000000E+00  0.91188000000E+02  0.91188000000E+02 0.  0.
    9900012    2    3    3    0    0 -0.36012313057E+02 -0.91832648561E+01  0.22414374409E+02  0.47787271604E+02  0.20000002551E+02 0.  0.
        -12    1    3    3    0    0  0.36012313057E+02  0.91832648561E+01 -0.22414374409E+02  0.43400728396E+02  0.00000000000E+00 0.  1.
         11    1    4    4    0    0 -0.22652559294E+02 -0.21361720352E+01  0.16645452322E+02  0.28191714328E+02  0.51100000000E-03 0. -1.
        -11    1    4    4    0    0  0.93562682115E+00  0.16865099568E+01  0.10279031817E+01  0.21854744553E+01  0.51100000000E-03 0.  1.
        -12    1    4    4    0    0 -0.14295380585E+02 -0.87336027777E+01  0.47410189058E+01  0.17410082820E+02  0.00000000000E+00 0.  1.
</event>
<event>
 8    1  0.6524083E-011  0.9118800E+02  0.7816164E-02  0.1184000E+00
        -11   -1    0    0    0    0  0.00000000000E+00  0.00000000000E+00  0.45593999997E+02  0.45594000000E+02  0.51100000000E-03 0. -1.
         11   -1    0    0    0    0 -0.00000000000E+00 -0.00000000000E+00 -0.45593999997E+02  0.45594000000E+02  0.51100000000E-03 0.  1.
         23    2    1    2    0    0  0.00000000000E+00  0.00000000000E+00  0.00000000000E+00  0.91188000000E+02  0.91188000000E+02 0.  0.
    9900012    2    3    3    0    0 -0.23435480368E+02  0.27702548251E+02  0.23811140674E+02  0.47787270284E+02  0.19999996533E+02 0.  0.
        -12    1    3    3    0    0  0.23435480368E+02 -0.27702548251E+02 -0.23811140674E+02  0.43400729716E+02  0.00000000000E+00 0.  1.
         11    1    4    4    0    0 -0.82454126620E+01  0.77024940867E+01  0.13763916778E+02  0.17797770940E+02  0.51100000000E-03 0. -1.
        -11    1    4    4    0    0  0.19174443740E+01  0.32859560977E+01 -0.52387790215E+00  0.38403839288E+01  0.51100000000E-03 0.  1.
        -12    1    4    4    0    0 -0.17107512080E+02  0.16714098067E+02  0.10571101799E+02  0.26149115415E+02  0.00000000000E+00 0.  1.
</event>
<event>
 8    1  0.6524083E-011  0.9118800E+02  0.7816164E-02  0.1184000E+00
        -11   -1    0    0    0    0  0.00000000000E+00  0.00000000000E+00  0.45593999997E+02  0.45594000000E+02  0.51100000000E-03 0. -1.
         11   -1    0    0    0    0 -0.00000000000E+00 -0.00000000000E+00 -0.45593999997E+02  0.45594000000E+02  0.51100000000E-03 0.  1.
         23    2    1    2    0    0 -0.22204460493E-15  0.00000000000E+00  0.00000000000E+00  0.91188000000E+02  0.91188000000E+02 0.  0.
    9900012    2    3    3    0    0  0.17152962528E+01  0.24307217408E+02 -0.35914343799E+02  0.47787272473E+02  0.20000006512E+02 0.  0.
         12    1    3    3    0    0 -0.17152962528E+01 -0.24307217408E+02  0.35914343799E+02  0.43400727527E+02  0.00000000000E+00 0. -1.
         11    1    4    4    0    0 -0.36749834199E+01  0.27383240082E+01 -0.48795645393E+01  0.66943313232E+01  0.51100000000E-03 0. -1.
        -11    1    4    4    0    0  0.84380824626E+01  0.22232106688E+02 -0.26723927279E+02  0.35772001522E+02  0.51100000000E-03 0.  1.
         12    1    4    4    0    0 -0.30478027899E+01 -0.66321328862E+00 -0.43108519813E+01  0.53209396272E+01  0.00000000000E+00 0. -1.
</event>
<event>
 8    1  0.6524083E-011  0.9118800E+02  0.7816164E-02  0.1184000E+00
        -11   -1    0    0    0    0  0.00000000000E+00  0.00000000000E+00  0.45593999997E+02  0.45594000000E+02  0.51100000000E-03 0. -1.
         11   -1    0    0    0    0 -0.00000000000E+00 -0.00000000000E+00 -0.45593999997E+02  0.45594000000E+02  0.51100000000E-03 0.  1.
         23    2    1    2    0    0  0.88817841970E-15  0.00000000000E+00  0.00000000000E+00  0.91188000000E+02  0.91188000000E+02 0.  0.
    9900012    2    3    3    0    0 -0.45604759337E+01  0.24693860528E+02 -0.35398276570E+02  0.47787277971E+02  0.20000031581E+02 0.  0.
         12    1    3    3    0    0  0.45604759337E+01 -0.24693860528E+02  0.35398276570E+02  0.43400722029E+02  0.00000000000E+00 0. -1.
         11    1    4    4    0    0  0.40212245002E+01  0.10645956971E+02 -0.71193818374E+01  0.13423570476E+02  0.51100000000E-03 0. -1.
        -11    1    4    4    0    0 -0.68978362397E+01  0.68890138990E+01 -0.74348454592E+01  0.12260325630E+02  0.51100000000E-03 0.  1.
         12    1    4    4    0    0 -0.16838641942E+01  0.71588896577E+01 -0.20844049273E+02  0.22103381865E+02  0.00000000000E+00 0. -1.
</event>
<event>
 8    1  0.6524083E-011  0.9118800E+02  0.7816164E-02  0.1184000E+00
        -11   -1    0    0    0    0  0.00000000000E+00  0.00000000000E+00  0.45593999997E+02  0.45594000000E+02  0.51100000000E-03 0. -1.
         11   -1    0    0    0    0 -0.00000000000E+00 -0.00000000000E+00 -0.45593999997E+02  0.45594000000E+02  0.51100000000E-03 0.  1.
         23    2    1    2    0    0  0.00000000000E+00  0.44408920985E-15  0.00000000000E+00  0.91188000000E+02  0.91188000000E+02 0.  0.
    9900012    2    3    3    0    0  0.27818180888E+02 -0.37741879890E+01  0.33098753836E+02  0.47787272029E+02  0.20000004488E+02 0.  0.
        -12    1    3    3    0    0 -0.27818180888E+02  0.37741879890E+01 -0.33098753836E+02  0.43400727971E+02  0.00000000000E+00 0.  1.
         11    1    4    4    0    0  0.24345493091E+02 -0.64587507193E+01  0.21597537995E+02  0.33179393340E+02  0.51100000000E-03 0. -1.
        -11    1    4    4    0    0  0.36305469702E+01  0.19097364607E+01  0.12601804830E+02  0.13252677084E+02  0.51100000000E-03 0.  1.
        -12    1    4    4    0    0 -0.15785917302E+00  0.77482626953E+00 -0.11005889891E+01  0.13552016047E+01  0.00000000000E+00 0.  1.
</event>
<event>
 8    1  0.6524083E-011  0.9118800E+02  0.7816164E-02  0.1184000E+00
        -11   -1    0    0    0    0  0.00000000000E+00  0.00000000000E+00  0.45593999997E+02  0.45594000000E+02  0.51100000000E-03 0. -1.
         11   -1    0    0    0    0 -0.00000000000E+00 -0.00000000000E+00 -0.45593999997E+02  0.45594000000E+02  0.51100000000E-03 0.  1.
         23    2    1    2    0    0  0.00000000000E+00  0.00000000000E+00  0.00000000000E+00  0.91188000000E+02  0.91188000000E+02 0.  0.
    9900012    2    3    3    0    0 -0.21698599256E+02  0.28497871412E+02 -0.24508472173E+02  0.47787273129E+02  0.20000009504E+02 0.  0.
         12    1    3    3    0    0  0.21698599256E+02 -0.28497871412E+02  0.24508472173E+02  0.43400726871E+02  0.00000000000E+00 0. -1.
         11    1    4    4    0    0 -0.60581039089E+01  0.10581715003E+02 -0.21103767514E+01  0.12374449712E+02  0.51100000000E-03 0. -1.
        -11    1    4    4    0    0  0.13356365198E+01  0.72137504391E+00 -0.60536750356E+01  0.62410967437E+01  0.51100000000E-03 0.  1.
         12    1    4    4    0    0 -0.16976131867E+02  0.17194781365E+02 -0.16344420386E+02  0.29171726674E+02  0.00000000000E+00 0. -1.
</event>
<event>
 8    1  0.6524083E-011  0.9118800E+02  0.7816164E-02  0.1184000E+00
        -11   -1    0    0    0    0  0.00000000000E+00  0.00000000000E+00  0.45593999997E+02  0.45594000000E+02  0.51100000000E-03 0. -1.
         11   -1    0    0    0    0 -0.00000000000E+00 -0.00000000000E+00 -0.45593999997E+02  0.45594000000E+02  0.51100000000E-03 0.  1.
         23    2    1    2    0    0  0.00000000000E+00  0.00000000000E+00  0.00000000000E+00  0.91188000000E+02  0.91188000000E+02 0.  0.
    9900012    2    3    3    0    0 -0.34499265765E+02 -0.17907243453E+01  0.26271995264E+02  0.47787265362E+02  0.19999974090E+02 0.  0.
        -12    1    3    3    0    0  0.34499265765E+02  0.17907243453E+01 -0.26271995264E+02  0.43400734638E+02  0.00000000000E+00 0.  1.
         11    1    4    4    0    0  0.16732237764E+00  0.20056585006E+01  0.73164339648E+01  0.75882059158E+01  0.51100000000E-03 0. -1.
        -11    1    4    4    0    0 -0.14679083483E+02  0.16710354274E+00  0.50274490083E+01  0.15517044155E+02  0.51100000000E-03 0.  1.
         12    1    4    4    0    0 -0.19987504659E+02 -0.39634863886E+01  0.13928112291E+02  0.24682015291E+02  0.00000000000E+00 0. -1.
</event>
<event>
 8    1  0.6524083E-011  0.9118800E+02  0.7816164E-02  0.1184000E+00
        -11   -1    0    0    0    0  0.00000000000E+00  0.00000000000E+00  0.45593999997E+02  0.45594000000E+02  0.51100000000E-03 0.  1.
         11   -1    0    0    0    0 -0.00000000000E+00 -0.00000000000E+00 -0.45593999997E+02  0.45594000000E+02  0.51100000000E-03 0. -1.
         23    2    1    2    0    0  0.00000000000E+00  0.00000000000E+00  0.35527136788E-14  0.91188000000E+02  0.91188000000E+02 0.  0.
    9900012    2    3    3    0    0  0.36882541598E+02 -0.80813163368E+01  0.21400786830E+02  0.47787271603E+02  0.20000002545E+02 0.  0.
        -12    1    3    3    0    0 -0.36882541598E+02  0.80813163368E+01 -0.21400786830E+02  0.43400728397E+02  0.00000000000E+00 0.  1.
         11    1    4    4    0    0  0.11992031289E+02 -0.97518653965E+01  0.12140346157E+02  0.19654406586E+02  0.51100000000E-03 0. -1.
        -11    1    4    4    0    0  0.19667452434E+02  0.11215617281E+01  0.11047026520E+02  0.22585468362E+02  0.51100000000E-03 0.  1.
        -12    1    4    4    0    0  0.52230578755E+01  0.54898733160E+00 -0.17865858471E+01  0.55473966552E+01  0.00000000000E+00 0.  1.
</event>
<event>
 8    1  0.6524083E-011  0.9118800E+02  0.7816164E-02  0.1184000E+00
        -11   -1    0    0    0    0  0.00000000000E+00  0.00000000000E+00  0.45593999997E+02  0.45594000000E+02  0.51100000000E-03 0.  1.
         11   -1    0    0    0    0 -0.00000000000E+00 -0.00000000000E+00 -0.45593999997E+02  0.45594000000E+02  0.51100000000E-03 0. -1.
         23    2    1    2    0    0  0.00000000000E+00  0.71054273576E-14  0.00000000000E+00  0.91188000000E+02  0.91188000000E+02 0.  0.
    9900012    2    3    3    0    0  0.23469234977E+02 -0.24988340222E+02  0.26615799223E+02  0.47787275285E+02  0.20000019335E+02 0.  0.
        -12    1    3    3    0    0 -0.23469234977E+02  0.24988340222E+02 -0.26615799223E+02  0.43400724715E+02  0.00000000000E+00 0.  1.
         11    1    4    4    0    0  0.30468825133E+01 -0.77165095871E+01 -0.12137565196E+01  0.83845821845E+01  0.51100000000E-03 0. -1.
        -11    1    4    4    0    0  0.13907303094E+02 -0.14265854721E+02  0.15935822280E+02  0.25512313150E+02  0.51100000000E-03 0.  1.
        -12    1    4    4    0    0  0.65150493697E+01 -0.30059759141E+01  0.11893733462E+02  0.13890379950E+02  0.00000000000E+00 0.  1.
</event>
<event>
 8    1  0.6524083E-011  0.9118800E+02  0.7816164E-02  0.1184000E+00
        -11   -1    0    0    0    0  0.00000000000E+00  0.00000000000E+00  0.45593999997E+02  0.45594000000E+02  0.51100000000E-03 0. -1.
         11   -1    0    0    0    0 -0.00000000000E+00 -0.00000000000E+00 -0.45593999997E+02  0.45594000000E+02  0.51100000000E-03 0.  1.
         23    2    1    2    0    0  0.00000000000E+00  0.00000000000E+00  0.00000000000E+00  0.91188000000E+02  0.91188000000E+02 0.  0.
    9900012    2    3    3    0    0 -0.13075278290E+02  0.39886807244E+01  0.41191636373E+02  0.47787269783E+02  0.19999994247E+02 0.  0.
        -12    1    3    3    0    0  0.13075278290E+02 -0.39886807244E+01 -0.41191636373E+02  0.43400730217E+02  0.00000000000E+00 0.  1.
         11    1    4    4    0    0 -0.74593099774E+01 -0.41210496363E+01  0.13001123951E+02  0.15545210828E+02  0.51100000000E-03 0. -1.
        -11    1    4    4    0    0 -0.17659576917E+01  0.33970274633E+01  0.25149258336E+02  0.25439017223E+02  0.51100000000E-03 0.  1.
         12    1    4    4    0    0 -0.38500106212E+01  0.47127028974E+01  0.30412540864E+01  0.68030417315E+01  0.00000000000E+00 0. -1.
</event>
<event>
 8    1  0.6524083E-011  0.9118800E+02  0.7816164E-02  0.1184000E+00
        -11   -1    0    0    0    0  0.00000000000E+00  0.00000000000E+00  0.45593999997E+02  0.45594000000E+02  0.51100000000E-03 0. -1.
         11   -1    0    0    0    0 -0.00000000000E+00 -0.00000000000E+00 -0.45593999997E+02  0.45594000000E+02  0.51100000000E-03 0.  1.
         23    2    1    2    0    0  0.88817841970E-15  0.00000000000E+00  0.00000000000E+00  0.91188000000E+02  0.91188000000E+02 0.  0.
    9900012    2    3    3    0    0  0.37418951231E+01 -0.15653907586E+02  0.40306036510E+02  0.47787272114E+02  0.20000004878E+02 0.  0.
        -12    1    3    3    0    0 -0.37418951231E+01  0.15653907586E+02 -0.40306036510E+02  0.43400727886E+02  0.00000000000E+00 0.  1.
         11    1    4    4    0    0  0.18931299372E+01 -0.11454648082E+01  0.17443886050E+02  0.17583662627E+02  0.51100000000E-03 0. -1.
        -11    1    4    4    0    0 -0.57666065076E+01 -0.61982659909E+01  0.98433929770E+01  0.12983244489E+02  0.51100000000E-03 0.  1.
        -12    1    4    4    0    0  0.76153716935E+01 -0.83101767874E+01  0.13018757483E+02  0.17220364998E+02  0.00000000000E+00 0.  1.
</event>
<event>
 8    1  0.6524083E-011  0.9118800E+02  0.7816164E-02  0.1184000E+00
        -11   -1    0    0    0    0  0.00000000000E+00  0.00000000000E+00  0.45593999997E+02  0.45594000000E+02  0.51100000000E-03 0. -1.
         11   -1    0    0    0    0 -0.00000000000E+00 -0.00000000000E+00 -0.45593999997E+02  0.45594000000E+02  0.51100000000E-03 0.  1.
         23    2    1    2    0    0  0.00000000000E+00  0.00000000000E+00  0.00000000000E+00  0.91188000000E+02  0.91188000000E+02 0.  0.
    9900012    2    3    3    0    0  0.53592438732E+01  0.34640140440E+02 -0.25592235110E+02  0.47787270484E+02  0.19999997446E+02 0.  0.
         12    1    3    3    0    0 -0.53592438732E+01 -0.34640140440E+02  0.25592235110E+02  0.43400729516E+02  0.00000000000E+00 0. -1.
         11    1    4    4    0    0 -0.18005407256E+01  0.58491830736E+00 -0.33651708427E+01  0.38611463832E+01  0.51100000000E-03 0. -1.
        -11    1    4    4    0    0  0.16939432315E+01  0.31239727539E+02 -0.20933706276E+02  0.37643194327E+02  0.51100000000E-03 0.  1.
         12    1    4    4    0    0  0.54658413673E+01  0.28154945931E+01 -0.12933579911E+01  0.62829297744E+01  0.00000000000E+00 0. -1.
</event>
<event>
 8    1  0.6524083E-011  0.9118800E+02  0.7816164E-02  0.1184000E+00
        -11   -1    0    0    0    0  0.00000000000E+00  0.00000000000E+00  0.45593999997E+02  0.45594000000E+02  0.51100000000E-03 0. -1.
         11   -1    0    0    0    0 -0.00000000000E+00 -0.00000000000E+00 -0.45593999997E+02  0.45594000000E+02  0.51100000000E-03 0.  1.
         23    2    1    2    0    0  0.55511151231E-16  0.00000000000E+00  0.00000000000E+00  0.91188000000E+02  0.91188000000E+02 0.  0.
    9900012    2    3    3    0    0  0.54847926081E-01  0.20748748577E+02 -0.38119675970E+02  0.47787271068E+02  0.20000000106E+02 0.  0.
         12    1    3    3    0    0 -0.54847926081E-01 -0.20748748577E+02  0.38119675970E+02  0.43400728932E+02  0.00000000000E+00 0. -1.
         11    1    4    4    0    0  0.14465147789E+00  0.17226988706E+02 -0.23769788748E+02  0.29356309735E+02  0.51100000000E-03 0. -1.
        -11    1    4    4    0    0  0.48976691531E+00  0.54945480918E+01 -0.15227091694E+02  0.16195500983E+02  0.51100000000E-03 0.  1.
        -12    1    4    4    0    0 -0.57957046712E+00 -0.19727882206E+01  0.87720447164E+00  0.22354603496E+01  0.00000000000E+00 0.  1.
</event>
<event>
 8    1  0.6524083E-011  0.9118800E+02  0.7816164E-02  0.1184000E+00
        -11   -1    0    0    0    0  0.00000000000E+00  0.00000000000E+00  0.45593999997E+02  0.45594000000E+02  0.51100000000E-03 0.  1.
         11   -1    0    0    0    0 -0.00000000000E+00 -0.00000000000E+00 -0.45593999997E+02  0.45594000000E+02  0.51100000000E-03 0. -1.
         23    2    1    2    0    0  0.35527136788E-14  0.71054273576E-14  0.00000000000E+00  0.91188000000E+02  0.91188000000E+02 0.  0.
    9900012    2    3    3    0    0 -0.25969475396E+02  0.34316397483E+02 -0.56209147131E+01  0.47787268776E+02  0.19999989658E+02 0.  0.
        -12    1    3    3    0    0  0.25969475396E+02 -0.34316397483E+02  0.56209147131E+01  0.43400731224E+02  0.00000000000E+00 0.  1.
         11    1    4    4    0    0 -0.26064292290E+02  0.23614061532E+02 -0.44904278284E+01  0.35456102112E+02  0.51100000000E-03 0. -1.
        -11    1    4    4    0    0  0.84206207926E-01  0.13367209446E+01  0.20426474542E+01  0.24426056687E+01  0.51100000000E-03 0.  1.
        -12    1    4    4    0    0  0.10610686362E-01  0.93656150066E+01 -0.31731343389E+01  0.98885609959E+01  0.00000000000E+00 0.  1.
</event>
<event>
 8    1  0.6524083E-011  0.9118800E+02  0.7816164E-02  0.1184000E+00
        -11   -1    0    0    0    0  0.00000000000E+00  0.00000000000E+00  0.45593999997E+02  0.45594000000E+02  0.51100000000E-03 0. -1.
         11   -1    0    0    0    0 -0.00000000000E+00 -0.00000000000E+00 -0.45593999997E+02  0.45594000000E+02  0.51100000000E-03 0.  1.
         23    2    1    2    0    0  0.00000000000E+00  0.44408920985E-15  0.00000000000E+00  0.91188000000E+02  0.91188000000E+02 0.  0.
    9900012    2    3    3    0    0 -0.33795568327E+02 -0.12100629992E+01  0.27203293210E+02  0.47787264379E+02  0.19999969607E+02 0.  0.
        -12    1    3    3    0    0  0.33795568327E+02  0.12100629992E+01 -0.27203293210E+02  0.43400735621E+02  0.00000000000E+00 0.  1.
         11    1    4    4    0    0 -0.40771620010E+01 -0.46479222874E+01  0.10801555489E+02  0.12445884172E+02  0.51100000000E-03 0. -1.
        -11    1    4    4    0    0 -0.49916499106E+01  0.31932203356E+01  0.51083317762E+00  0.59476193337E+01  0.51100000000E-03 0.  1.
        -12    1    4    4    0    0 -0.24726756416E+02  0.24463895258E+00  0.15890904543E+02  0.29393760873E+02  0.00000000000E+00 0.  1.
</event>
<event>
 8    1  0.6524083E-011  0.9118800E+02  0.7816164E-02  0.1184000E+00
        -11   -1    0    0    0    0  0.00000000000E+00  0.00000000000E+00  0.45593999997E+02  0.45594000000E+02  0.51100000000E-03 0. -1.
         11   -1    0    0    0    0 -0.00000000000E+00 -0.00000000000E+00 -0.45593999997E+02  0.45594000000E+02  0.51100000000E-03 0.  1.
         23    2    1    2    0    0 -0.17763568394E-14  0.17763568394E-14  0.00000000000E+00  0.91188000000E+02  0.91188000000E+02 0.  0.
    9900012    2    3    3    0    0  0.11468650197E+02 -0.98442212860E+01  0.40683920995E+02  0.47787308098E+02  0.20000168941E+02 0.  0.
        -12    1    3    3    0    0 -0.11468650197E+02  0.98442212860E+01 -0.40683920995E+02  0.43400691902E+02  0.00000000000E+00 0.  1.
         11    1    4    4    0    0  0.59505732590E+01 -0.10142678928E+02  0.16322931493E+02  0.20117687509E+02  0.51100000000E-03 0. -1.
        -11    1    4    4    0    0  0.15245603021E+01 -0.15559789279E+01  0.22939602563E+02  0.23042801925E+02  0.51100000000E-03 0.  1.
        -12    1    4    4    0    0  0.39935166361E+01  0.18544365698E+01  0.14213869384E+01  0.46268186633E+01  0.00000000000E+00 0.  1.
</event>
<event>
 8    1  0.6524083E-011  0.9118800E+02  0.7816164E-02  0.1184000E+00
        -11   -1    0    0    0    0  0.00000000000E+00  0.00000000000E+00  0.45593999997E+02  0.45594000000E+02  0.51100000000E-03 0. -1.
         11   -1    0    0    0    0 -0.00000000000E+00 -0.00000000000E+00 -0.45593999997E+02  0.45594000000E+02  0.51100000000E-03 0.  1.
         23    2    1    2    0    0 -0.35527136788E-14  0.00000000000E+00  0.00000000000E+00  0.91188000000E+02  0.91188000000E+02 0.  0.
    9900012    2    3    3    0    0 -0.27686204138E+02  0.26021396998E+02  0.20975814021E+02  0.47787265269E+02  0.19999973669E+02 0.  0.
        -12    1    3    3    0    0  0.27686204138E+02 -0.26021396998E+02 -0.20975814021E+02  0.43400734731E+02  0.00000000000E+00 0.  1.
         11    1    4    4    0    0 -0.71697564856E+01  0.77273333887E+01  0.29988885253E+01  0.10959490043E+02  0.51100000000E-03 0. -1.
        -11    1    4    4    0    0 -0.13816753966E+02  0.66928156709E+01  0.12584462795E+01  0.15403900774E+02  0.51100000000E-03 0.  1.
         12    1    4    4    0    0 -0.66996936868E+01  0.11601247938E+02  0.16718479216E+02  0.21423874452E+02  0.00000000000E+00 0. -1.
</event>
<event>
 8    1  0.6524083E-011  0.9118800E+02  0.7816164E-02  0.1184000E+00
        -11   -1    0    0    0    0  0.00000000000E+00  0.00000000000E+00  0.45593999997E+02  0.45594000000E+02  0.51100000000E-03 0. -1.
         11   -1    0    0    0    0 -0.00000000000E+00 -0.00000000000E+00 -0.45593999997E+02  0.45594000000E+02  0.51100000000E-03 0.  1.
         23    2    1    2    0    0  0.71054273576E-14  0.00000000000E+00  0.00000000000E+00  0.91188000000E+02  0.91188000000E+02 0.  0.
    9900012    2    3    3    0    0  0.39447523267E+02 -0.59724003753E+01  0.17083533528E+02  0.47787265260E+02  0.19999973628E+02 0.  0.
        -12    1    3    3    0    0 -0.39447523267E+02  0.59724003753E+01 -0.17083533528E+02  0.43400734740E+02  0.00000000000E+00 0.  1.
         11    1    4    4    0    0  0.21486985987E+02  0.30139664099E+01  0.72086534187E+01  0.22863491525E+02  0.51100000000E-03 0. -1.
        -11    1    4    4    0    0 -0.14638165346E+01 -0.42614483679E-01  0.98601249898E+00  0.17654449157E+01  0.51100000000E-03 0.  1.
         12    1    4    4    0    0  0.19424353815E+02 -0.89437523015E+01  0.88888676100E+01  0.23158328820E+02  0.00000000000E+00 0. -1.
</event>
<event>
 8    1  0.6524083E-011  0.9118800E+02  0.7816164E-02  0.1184000E+00
        -11   -1    0    0    0    0  0.00000000000E+00  0.00000000000E+00  0.45593999997E+02  0.45594000000E+02  0.51100000000E-03 0. -1.
         11   -1    0    0    0    0 -0.00000000000E+00 -0.00000000000E+00 -0.45593999997E+02  0.45594000000E+02  0.51100000000E-03 0.  1.
         23    2    1    2    0    0  0.26645352591E-14  0.35527136788E-14  0.00000000000E+00  0.91188000000E+02  0.91188000000E+02 0.  0.
    9900012    2    3    3    0    0 -0.75390479836E+01 -0.20908987261E+02  0.37277335308E+02  0.47787277420E+02  0.20000029071E+02 0.  0.
        -12    1    3    3    0    0  0.75390479836E+01  0.20908987261E+02 -0.37277335308E+02  0.43400722580E+02  0.00000000000E+00 0.  1.
         11    1    4    4    0    0 -0.10383627063E+02 -0.13051708059E+02  0.22448358211E+02  0.27965971839E+02  0.51100000000E-03 0. -1.
        -11    1    4    4    0    0 -0.71635489509E+00  0.22597612166E+01  0.34327469173E+01  0.41717426516E+01  0.51100000000E-03 0.  1.
         12    1    4    4    0    0  0.35609339748E+01 -0.10117040419E+02  0.11396230179E+02  0.15649562930E+02  0.00000000000E+00 0. -1.
</event>
<event>
 8    1  0.6524083E-011  0.9118800E+02  0.7816164E-02  0.1184000E+00
        -11   -1    0    0    0    0  0.00000000000E+00  0.00000000000E+00  0.45593999997E+02  0.45594000000E+02  0.51100000000E-03 0. -1.
         11   -1    0    0    0    0 -0.00000000000E+00 -0.00000000000E+00 -0.45593999997E+02  0.45594000000E+02  0.51100000000E-03 0.  1.
         23    2    1    2    0    0 -0.88817841970E-15 -0.35527136788E-14 -0.35527136788E-14  0.91188000000E+02  0.91188000000E+02 0.  0.
    9900012    2    3    3    0    0  0.66767742227E+01  0.30676237569E+02  0.29966856720E+02  0.47787269970E+02  0.19999995103E+02 0.  0.
        -12    1    3    3    0    0 -0.66767742227E+01 -0.30676237569E+02 -0.29966856720E+02  0.43400730030E+02  0.00000000000E+00 0.  1.
         11    1    4    4    0    0  0.17417891016E+01  0.52399889834E+01  0.72920111519E+01  0.91468432107E+01  0.51100000000E-03 0. -1.
        -11    1    4    4    0    0 -0.60027827274E+01  0.11229931055E+02  0.13281923388E+02  0.18399843508E+02  0.51100000000E-03 0.  1.
        -12    1    4    4    0    0  0.10937767848E+02  0.14206317531E+02  0.93929221805E+01  0.20240583252E+02  0.00000000000E+00 0.  1.
</event>
<event>
 8    1  0.6524083E-011  0.9118800E+02  0.7816164E-02  0.1184000E+00
        -11   -1    0    0    0    0  0.00000000000E+00  0.00000000000E+00  0.45593999997E+02  0.45594000000E+02  0.51100000000E-03 0. -1.
         11   -1    0    0    0    0 -0.00000000000E+00 -0.00000000000E+00 -0.45593999997E+02  0.45594000000E+02  0.51100000000E-03 0.  1.
         23    2    1    2    0    0  0.00000000000E+00  0.44408920985E-15 -0.71054273576E-14  0.91188000000E+02  0.91188000000E+02 0.  0.
    9900012    2    3    3    0    0  0.12521960232E+02  0.35883303792E+01 -0.41399851597E+02  0.47787270568E+02  0.19999997830E+02 0.  0.
         12    1    3    3    0    0 -0.12521960232E+02 -0.35883303792E+01  0.41399851597E+02  0.43400729432E+02  0.00000000000E+00 0. -1.
         11    1    4    4    0    0 -0.46823578588E+01 -0.37660523281E-01 -0.88773823986E+01  0.10036623533E+02  0.51100000000E-03 0. -1.
        -11    1    4    4    0    0  0.76218770167E+01 -0.63376797049E+00 -0.20028175059E+02  0.21438807513E+02  0.51100000000E-03 0.  1.
        -12    1    4    4    0    0  0.95824410736E+01  0.42597588729E+01 -0.12494294139E+02  0.16311839523E+02  0.00000000000E+00 0.  1.
</event>
<event>
 8    1  0.7022599E-011  0.9118800E+02  0.7816164E-02  0.1184000E+00
        -11   -1    0    0    0    0  0.00000000000E+00  0.00000000000E+00  0.45593999997E+02  0.45594000000E+02  0.51100000000E-03 0. -1.
         11   -1    0    0    0    0 -0.00000000000E+00 -0.00000000000E+00 -0.45593999997E+02  0.45594000000E+02  0.51100000000E-03 0.  1.
         23    2    1    2    0    0  0.00000000000E+00  0.00000000000E+00 -0.35527136788E-14  0.91188000000E+02  0.91188000000E+02 0.  0.
    9900012    2    3    3    0    0 -0.99468725305E+01 -0.32039925296E+02 -0.27534087216E+02  0.47787273682E+02  0.20000012025E+02 0.  0.
         12    1    3    3    0    0  0.99468725305E+01  0.32039925296E+02  0.27534087216E+02  0.43400726318E+02  0.00000000000E+00 0. -1.
         11    1    4    4    0    0  0.26547018663E+01 -0.26669556830E+01 -0.44220571089E+00  0.37888838417E+01  0.51100000000E-03 0. -1.
        -11    1    4    4    0    0 -0.33820974123E+01 -0.23283618311E+02 -0.19898048324E+02  0.30813922047E+02  0.51100000000E-03 0.  1.
         12    1    4    4    0    0 -0.92194769845E+01 -0.60893513024E+01 -0.71938331812E+01  0.13184467793E+02  0.00000000000E+00 0. -1.
</event>
<event>
 8    1  0.6524083E-011  0.9118800E+02  0.7816164E-02  0.1184000E+00
        -11   -1    0    0    0    0  0.00000000000E+00  0.00000000000E+00  0.45593999997E+02  0.45594000000E+02  0.51100000000E-03 0. -1.
         11   -1    0    0    0    0 -0.00000000000E+00 -0.00000000000E+00 -0.45593999997E+02  0.45594000000E+02  0.51100000000E-03 0.  1.
         23    2    1    2    0    0  0.35527136788E-14  0.00000000000E+00  0.00000000000E+00  0.91188000000E+02  0.91188000000E+02 0.  0.
    9900012    2    3    3    0    0  0.14299815853E+02  0.20511741291E+02  0.35474025569E+02  0.47787277030E+02  0.20000027291E+02 0.  0.
        -12    1    3    3    0    0 -0.14299815853E+02 -0.20511741291E+02 -0.35474025569E+02  0.43400722970E+02  0.00000000000E+00 0.  1.
         11    1    4    4    0    0  0.47335971102E+01  0.58572479594E+01  0.28090941571E+01  0.80377425627E+01  0.51100000000E-03 0. -1.
        -11    1    4    4    0    0 -0.16761199748E+01 -0.13296284692E+01  0.80016249073E+01  0.82827103930E+01  0.51100000000E-03 0.  1.
         12    1    4    4    0    0  0.11242338718E+02  0.15984121801E+02  0.24663306504E+02  0.31466824074E+02  0.00000000000E+00 0. -1.
</event>
<event>
 8    1  0.6524083E-011  0.9118800E+02  0.7816164E-02  0.1184000E+00
        -11   -1    0    0    0    0  0.00000000000E+00  0.00000000000E+00  0.45593999997E+02  0.45594000000E+02  0.51100000000E-03 0. -1.
         11   -1    0    0    0    0 -0.00000000000E+00 -0.00000000000E+00 -0.45593999997E+02  0.45594000000E+02  0.51100000000E-03 0.  1.
         23    2    1    2    0    0  0.88817841970E-15 -0.35527136788E-14  0.00000000000E+00  0.91188000000E+02  0.91188000000E+02 0.  0.
    9900012    2    3    3    0    0  0.77704837397E+01  0.26316296499E+02  0.33625812570E+02  0.47787272472E+02  0.20000006510E+02 0.  0.
        -12    1    3    3    0    0 -0.77704837397E+01 -0.26316296499E+02 -0.33625812570E+02  0.43400727528E+02  0.00000000000E+00 0.  1.
         11    1    4    4    0    0  0.10412902298E+02  0.12113483582E+02  0.71886822202E+01  0.17516911003E+02  0.51100000000E-03 0. -1.
        -11    1    4    4    0    0 -0.20261992900E-01  0.31874362084E+01  0.82743030981E+01  0.88670317554E+01  0.51100000000E-03 0.  1.
         12    1    4    4    0    0 -0.26221565652E+01  0.11015376708E+02  0.18162827251E+02  0.21403329714E+02  0.00000000000E+00 0. -1.
</event>
<event>
 8    1  0.6815764E-011  0.9118800E+02  0.7816164E-02  0.1184000E+00
        -11   -1    0    0    0    0  0.00000000000E+00  0.00000000000E+00  0.45593999997E+02  0.45594000000E+02  0.51100000000E-03 0. -1.
         11   -1    0    0    0    0 -0.00000000000E+00 -0.00000000000E+00 -0.45593999997E+02  0.45594000000E+02  0.51100000000E-03 0.  1.
         23    2    1    2    0    0  0.00000000000E+00  0.35527136788E-14  0.00000000000E+00  0.91188000000E+02  0.91188000000E+02 0.  0.
    9900012    2    3    3    0    0 -0.26742215238E+02  0.27698157037E+02 -0.20032214852E+02  0.47787267161E+02  0.19999982292E+02 0.  0.
         12    1    3    3    0    0  0.26742215238E+02 -0.27698157037E+02  0.20032214852E+02  0.43400732839E+02  0.00000000000E+00 0. -1.
         11    1    4    4    0    0 -0.92408699545E+01  0.12727155657E+01  0.12775284382E+01  0.94151771943E+01  0.51100000000E-03 0. -1.
        -11    1    4    4    0    0 -0.94802473001E+01  0.11231912315E+02 -0.89680289192E+01  0.17217911780E+02  0.51100000000E-03 0.  1.
         12    1    4    4    0    0 -0.80210979835E+01  0.15193529157E+02 -0.12341714372E+02  0.21154178186E+02  0.00000000000E+00 0. -1.
</event>
<event>
 8    1  0.6524083E-011  0.9118800E+02  0.7816164E-02  0.1184000E+00
        -11   -1    0    0    0    0  0.00000000000E+00  0.00000000000E+00  0.45593999997E+02  0.45594000000E+02  0.51100000000E-03 0. -1.
         11   -1    0    0    0    0 -0.00000000000E+00 -0.00000000000E+00 -0.45593999997E+02  0.45594000000E+02  0.51100000000E-03 0.  1.
         23    2    1    2    0    0  0.71054273576E-14  0.00000000000E+00  0.35527136788E-14  0.91188000000E+02  0.91188000000E+02 0.  0.
    9900012    2    3    3    0    0 -0.37909421005E+02  0.55684410124E+01 -0.20383610194E+02  0.47787270734E+02  0.19999998586E+02 0.  0.
         12    1    3    3    0    0  0.37909421005E+02 -0.55684410124E+01  0.20383610194E+02  0.43400729266E+02  0.00000000000E+00 0. -1.
         11    1    4    4    0    0 -0.26718751424E+00  0.27833957770E+01 -0.26720448881E+01  0.38676227019E+01  0.51100000000E-03 0. -1.
        -11    1    4    4    0    0 -0.33068887545E+02  0.21978448483E+01 -0.20065325015E+02  0.38742729817E+02  0.51100000000E-03 0.  1.
         12    1    4    4    0    0 -0.45733459462E+01  0.58720038717E+00  0.23537597100E+01  0.51769182155E+01  0.00000000000E+00 0. -1.
</event>
<event>
 8    1  0.6524083E-011  0.9118800E+02  0.7816164E-02  0.1184000E+00
        -11   -1    0    0    0    0  0.00000000000E+00  0.00000000000E+00  0.45593999997E+02  0.45594000000E+02  0.51100000000E-03 0. -1.
         11   -1    0    0    0    0 -0.00000000000E+00 -0.00000000000E+00 -0.45593999997E+02  0.45594000000E+02  0.51100000000E-03 0.  1.
         23    2    1    2    0    0 -0.22204460493E-15  0.17763568394E-14  0.71054273576E-14  0.91188000000E+02  0.91188000000E+02 0.  0.
    9900012    2    3    3    0    0  0.16995280733E+01  0.15310579560E+02 -0.40574893135E+02  0.47787260432E+02  0.19999951612E+02 0.  0.
         12    1    3    3    0    0 -0.16995280733E+01 -0.15310579560E+02  0.40574893135E+02  0.43400739568E+02  0.00000000000E+00 0. -1.
         11    1    4    4    0    0  0.27397500391E+01  0.31395160315E+00 -0.12692136527E+02  0.12988268774E+02  0.51100000000E-03 0. -1.
        -11    1    4    4    0    0  0.24606173156E+00  0.16256208250E+02 -0.28569967154E+02  0.32871992280E+02  0.51100000000E-03 0.  1.
         12    1    4    4    0    0 -0.12862836974E+01 -0.12595802933E+01  0.68721054498E+00  0.19269993769E+01  0.00000000000E+00 0. -1.
</event>
<event>
 8    1  0.6524083E-011  0.9118800E+02  0.7816164E-02  0.1184000E+00
        -11   -1    0    0    0    0  0.00000000000E+00  0.00000000000E+00  0.45593999997E+02  0.45594000000E+02  0.51100000000E-03 0. -1.
         11   -1    0    0    0    0 -0.00000000000E+00 -0.00000000000E+00 -0.45593999997E+02  0.45594000000E+02  0.51100000000E-03 0.  1.
         23    2    1    2    0    0  0.17763568394E-14 -0.88817841970E-15  0.71054273576E-14  0.91188000000E+02  0.91188000000E+02 0.  0.
    9900012    2    3    3    0    0  0.15203154818E+02  0.39501435276E+01 -0.40458411327E+02  0.47787278838E+02  0.20000035534E+02 0.  0.
         12    1    3    3    0    0 -0.15203154818E+02 -0.39501435276E+01  0.40458411327E+02  0.43400721162E+02  0.00000000000E+00 0. -1.
         11    1    4    4    0    0  0.81221795020E+01  0.57085796570E+01 -0.10503538472E+02  0.14452750681E+02  0.51100000000E-03 0. -1.
        -11    1    4    4    0    0  0.93833692206E+01 -0.41233055369E+00 -0.29030125397E+02  0.30511732419E+02  0.51100000000E-03 0.  1.
        -12    1    4    4    0    0 -0.23023939049E+01 -0.13461055757E+01 -0.92474745844E+00  0.28227957376E+01  0.00000000000E+00 0.  1.
</event>
<event>
 8    1  0.6524083E-011  0.9118800E+02  0.7816164E-02  0.1184000E+00
        -11   -1    0    0    0    0  0.00000000000E+00  0.00000000000E+00  0.45593999997E+02  0.45594000000E+02  0.51100000000E-03 0. -1.
         11   -1    0    0    0    0 -0.00000000000E+00 -0.00000000000E+00 -0.45593999997E+02  0.45594000000E+02  0.51100000000E-03 0.  1.
         23    2    1    2    0    0  0.88817841970E-15  0.00000000000E+00  0.00000000000E+00  0.91188000000E+02  0.91188000000E+02 0.  0.
    9900012    2    3    3    0    0  0.76190770581E+01  0.37980551078E+02  0.19571678167E+02  0.47787272107E+02  0.20000004845E+02 0.  0.
        -12    1    3    3    0    0 -0.76190770581E+01 -0.37980551078E+02 -0.19571678167E+02  0.43400727893E+02  0.00000000000E+00 0.  1.
         11    1    4    4    0    0  0.91637995485E-01  0.51119378714E+01  0.52773508710E+01  0.73478390565E+01  0.51100000000E-03 0. -1.
        -11    1    4    4    0    0 -0.46715616504E+01  0.56562580620E+01  0.60237252139E+01  0.94922078165E+01  0.51100000000E-03 0.  1.
         12    1    4    4    0    0  0.12199000713E+02  0.27212355144E+02  0.82706020818E+01  0.30947225234E+02  0.00000000000E+00 0. -1.
</event>
<event>
 8    1  0.6524083E-011  0.9118800E+02  0.7816164E-02  0.1184000E+00
        -11   -1    0    0    0    0  0.00000000000E+00  0.00000000000E+00  0.45593999997E+02  0.45594000000E+02  0.51100000000E-03 0. -1.
         11   -1    0    0    0    0 -0.00000000000E+00 -0.00000000000E+00 -0.45593999997E+02  0.45594000000E+02  0.51100000000E-03 0.  1.
         23    2    1    2    0    0 -0.35527136788E-14  0.17763568394E-14  0.00000000000E+00  0.91188000000E+02  0.91188000000E+02 0.  0.
    9900012    2    3    3    0    0  0.25967274147E+02 -0.12565393750E+02  0.32425829558E+02  0.47787275706E+02  0.20000021254E+02 0.  0.
        -12    1    3    3    0    0 -0.25967274147E+02  0.12565393750E+02 -0.32425829558E+02  0.43400724294E+02  0.00000000000E+00 0.  1.
         11    1    4    4    0    0  0.74150912413E+01 -0.24355038312E+01  0.12963817390E+02  0.15131946954E+02  0.51100000000E-03 0. -1.
        -11    1    4    4    0    0  0.15520540008E+02 -0.12097849063E+02  0.90994559886E+01  0.21680526138E+02  0.51100000000E-03 0.  1.
        -12    1    4    4    0    0  0.30316428981E+01  0.19679591439E+01  0.10362556179E+02  0.10974802614E+02  0.00000000000E+00 0.  1.
</event>
<event>
 8    1  0.6524083E-011  0.9118800E+02  0.7816164E-02  0.1184000E+00
        -11   -1    0    0    0    0  0.00000000000E+00  0.00000000000E+00  0.45593999997E+02  0.45594000000E+02  0.51100000000E-03 0. -1.
         11   -1    0    0    0    0 -0.00000000000E+00 -0.00000000000E+00 -0.45593999997E+02  0.45594000000E+02  0.51100000000E-03 0.  1.
         23    2    1    2    0    0  0.00000000000E+00  0.00000000000E+00  0.00000000000E+00  0.91188000000E+02  0.91188000000E+02 0.  0.
    9900012    2    3    3    0    0 -0.29079570764E+02  0.13154505334E+02  0.29410214557E+02  0.47787272280E+02  0.20000005632E+02 0.  0.
        -12    1    3    3    0    0  0.29079570764E+02 -0.13154505334E+02 -0.29410214557E+02  0.43400727720E+02  0.00000000000E+00 0.  1.
         11    1    4    4    0    0 -0.18629708405E+02  0.70021776618E+01  0.28167272388E+02  0.34489009282E+02  0.51100000000E-03 0. -1.
        -11    1    4    4    0    0 -0.49433029232E-01 -0.12688002183E+00 -0.94422200995E+00  0.95399037181E+00  0.51100000000E-03 0.  1.
        -12    1    4    4    0    0 -0.10400429330E+02  0.62792076940E+01  0.21871641790E+01  0.12344272626E+02  0.00000000000E+00 0.  1.
</event>
<event>
 8    1  0.6524083E-011  0.9118800E+02  0.7816164E-02  0.1184000E+00
        -11   -1    0    0    0    0  0.00000000000E+00  0.00000000000E+00  0.45593999997E+02  0.45594000000E+02  0.51100000000E-03 0. -1.
         11   -1    0    0    0    0 -0.00000000000E+00 -0.00000000000E+00 -0.45593999997E+02  0.45594000000E+02  0.51100000000E-03 0.  1.
         23    2    1    2    0    0 -0.88817841970E-15 -0.71054273576E-14  0.35527136788E-14  0.91188000000E+02  0.91188000000E+02 0.  0.
    9900012    2    3    3    0    0 -0.74211662430E+01 -0.37822567269E+02  0.19950007147E+02  0.47787273181E+02  0.20000009743E+02 0.  0.
        -12    1    3    3    0    0  0.74211662430E+01  0.37822567269E+02 -0.19950007147E+02  0.43400726819E+02  0.00000000000E+00 0.  1.
         11    1    4    4    0    0 -0.38931461334E+01 -0.13045969991E+02  0.20373854061E+01  0.13766076398E+02  0.51100000000E-03 0. -1.
        -11    1    4    4    0    0 -0.76129456366E+01 -0.10056401472E+02  0.12649979908E+02  0.17863654267E+02  0.51100000000E-03 0.  1.
         12    1    4    4    0    0  0.40849255270E+01 -0.14720195806E+02  0.52626418328E+01  0.16157542517E+02  0.00000000000E+00 0. -1.
</event>
<event>
 8    1  0.6524083E-011  0.9118800E+02  0.7816164E-02  0.1184000E+00
        -11   -1    0    0    0    0  0.00000000000E+00  0.00000000000E+00  0.45593999997E+02  0.45594000000E+02  0.51100000000E-03 0. -1.
         11   -1    0    0    0    0 -0.00000000000E+00 -0.00000000000E+00 -0.45593999997E+02  0.45594000000E+02  0.51100000000E-03 0.  1.
         23    2    1    2    0    0  0.00000000000E+00  0.00000000000E+00  0.00000000000E+00  0.91188000000E+02  0.91188000000E+02 0.  0.
    9900012    2    3    3    0    0 -0.22128040511E+02  0.15407724800E+02  0.34008457018E+02  0.47787270638E+02  0.19999998149E+02 0.  0.
        -12    1    3    3    0    0  0.22128040511E+02 -0.15407724800E+02 -0.34008457018E+02  0.43400729362E+02  0.00000000000E+00 0.  1.
         11    1    4    4    0    0 -0.83800447501E+01  0.49991768164E+01  0.22612749527E+02  0.24628304048E+02  0.51100000000E-03 0. -1.
        -11    1    4    4    0    0  0.12079792540E+01  0.29351915301E+01  0.52692585540E+00  0.32174857132E+01  0.51100000000E-03 0.  1.
        -12    1    4    4    0    0 -0.14955975015E+02  0.74733564533E+01  0.10868781635E+02  0.19941480877E+02  0.00000000000E+00 0.  1.
</event>
<event>
 8    1  0.6524083E-011  0.9118800E+02  0.7816164E-02  0.1184000E+00
        -11   -1    0    0    0    0  0.00000000000E+00  0.00000000000E+00  0.45593999997E+02  0.45594000000E+02  0.51100000000E-03 0. -1.
         11   -1    0    0    0    0 -0.00000000000E+00 -0.00000000000E+00 -0.45593999997E+02  0.45594000000E+02  0.51100000000E-03 0.  1.
         23    2    1    2    0    0  0.00000000000E+00 -0.71054273576E-14  0.00000000000E+00  0.91188000000E+02  0.91188000000E+02 0.  0.
    9900012    2    3    3    0    0  0.67099758360E+01 -0.23508353624E+02  0.35860240466E+02  0.47787270604E+02  0.19999997994E+02 0.  0.
        -12    1    3    3    0    0 -0.67099758360E+01  0.23508353624E+02 -0.35860240466E+02  0.43400729396E+02  0.00000000000E+00 0.  1.
         11    1    4    4    0    0  0.37920668586E+01 -0.14397084655E+02  0.83269578666E+01  0.17058547570E+02  0.51100000000E-03 0. -1.
        -11    1    4    4    0    0 -0.34116265539E+01 -0.16374956204E+01  0.63738630230E+01  0.74126053279E+01  0.51100000000E-03 0.  1.
         12    1    4    4    0    0  0.63295355314E+01 -0.74737733481E+01  0.21159419576E+02  0.23316117706E+02  0.00000000000E+00 0. -1.
</event>
<event>
 8    1  0.6524083E-011  0.9118800E+02  0.7816164E-02  0.1184000E+00
        -11   -1    0    0    0    0  0.00000000000E+00  0.00000000000E+00  0.45593999997E+02  0.45594000000E+02  0.51100000000E-03 0. -1.
         11   -1    0    0    0    0 -0.00000000000E+00 -0.00000000000E+00 -0.45593999997E+02  0.45594000000E+02  0.51100000000E-03 0.  1.
         23    2    1    2    0    0  0.00000000000E+00 -0.35527136788E-14  0.00000000000E+00  0.91188000000E+02  0.91188000000E+02 0.  0.
    9900012    2    3    3    0    0 -0.28316984634E+02  0.20121198113E+02  0.26017543141E+02  0.47787230613E+02  0.19999815657E+02 0.  0.
        -12    1    3    3    0    0  0.28316984634E+02 -0.20121198113E+02 -0.26017543141E+02  0.43400769387E+02  0.00000000000E+00 0.  1.
         11    1    4    4    0    0 -0.26467707851E+01 -0.15666177662E+01  0.13710578438E+01  0.33674154312E+01  0.51100000000E-03 0. -1.
        -11    1    4    4    0    0 -0.10213566686E+02  0.18002812105E+02  0.10815532882E+02  0.23353670802E+02  0.51100000000E-03 0.  1.
         12    1    4    4    0    0 -0.15456647163E+02  0.36850037742E+01  0.13830952415E+02  0.21066144380E+02  0.00000000000E+00 0. -1.
</event>
<event>
 8    1  0.6524083E-011  0.9118800E+02  0.7816164E-02  0.1184000E+00
        -11   -1    0    0    0    0  0.00000000000E+00  0.00000000000E+00  0.45593999997E+02  0.45594000000E+02  0.51100000000E-03 0. -1.
         11   -1    0    0    0    0 -0.00000000000E+00 -0.00000000000E+00 -0.45593999997E+02  0.45594000000E+02  0.51100000000E-03 0.  1.
         23    2    1    2    0    0  0.00000000000E+00  0.44408920985E-15  0.71054273576E-14  0.91188000000E+02  0.91188000000E+02 0.  0.
    9900012    2    3    3    0    0 -0.43366150390E+01  0.38763513756E+01  0.43009214191E+02  0.47787253056E+02  0.19999917983E+02 0.  0.
        -12    1    3    3    0    0  0.43366150390E+01 -0.38763513756E+01 -0.43009214191E+02  0.43400746944E+02  0.00000000000E+00 0.  1.
         11    1    4    4    0    0 -0.13812492786E+01  0.18289645315E+01  0.36546642745E+01  0.43138766843E+01  0.51100000000E-03 0. -1.
        -11    1    4    4    0    0 -0.26985581714E+01  0.40556473732E+00 -0.11308400674E+01  0.29538954754E+01  0.51100000000E-03 0.  1.
         12    1    4    4    0    0 -0.25680758897E+00  0.16418221068E+01  0.40485389984E+02  0.40519480896E+02  0.00000000000E+00 0. -1.
</event>
<event>
 8    1  0.6524083E-011  0.9118800E+02  0.7816164E-02  0.1184000E+00
        -11   -1    0    0    0    0  0.00000000000E+00  0.00000000000E+00  0.45593999997E+02  0.45594000000E+02  0.51100000000E-03 0. -1.
         11   -1    0    0    0    0 -0.00000000000E+00 -0.00000000000E+00 -0.45593999997E+02  0.45594000000E+02  0.51100000000E-03 0.  1.
         23    2    1    2    0    0  0.35527136788E-14  0.00000000000E+00  0.35527136788E-14  0.91188000000E+02  0.91188000000E+02 0.  0.
    9900012    2    3    3    0    0 -0.18710545009E+02 -0.28730219531E+02 -0.26610396121E+02  0.47787272005E+02  0.20000004377E+02 0.  0.
         12    1    3    3    0    0  0.18710545009E+02  0.28730219531E+02  0.26610396121E+02  0.43400727995E+02  0.00000000000E+00 0. -1.
         11    1    4    4    0    0 -0.14227301395E+01 -0.13621392013E+02 -0.62648898110E+01  0.15060389305E+02  0.51100000000E-03 0.  1.
        -11    1    4    4    0    0 -0.68912911330E+01  0.79595053949E-01 -0.33022622585E+01  0.76420655020E+01  0.51100000000E-03 0. -1.
         12    1    4    4    0    0 -0.10396523736E+02 -0.15188422572E+02 -0.17043244051E+02  0.25084817197E+02  0.00000000000E+00 0. -1.
</event>
<event>
 8    1  0.6524083E-011  0.9118800E+02  0.7816164E-02  0.1184000E+00
        -11   -1    0    0    0    0  0.00000000000E+00  0.00000000000E+00  0.45593999997E+02  0.45594000000E+02  0.51100000000E-03 0.  1.
         11   -1    0    0    0    0 -0.00000000000E+00 -0.00000000000E+00 -0.45593999997E+02  0.45594000000E+02  0.51100000000E-03 0. -1.
         23    2    1    2    0    0  0.00000000000E+00  0.35527136788E-14  0.00000000000E+00  0.91188000000E+02  0.91188000000E+02 0.  0.
    9900012    2    3    3    0    0 -0.11229388267E+02  0.30477254712E+02 -0.28786473347E+02  0.47787271165E+02  0.20000000550E+02 0.  0.
         12    1    3    3    0    0  0.11229388267E+02 -0.30477254712E+02  0.28786473347E+02  0.43400728835E+02  0.00000000000E+00 0. -1.
         11    1    4    4    0    0  0.15620261649E+01 -0.16518033658E+01 -0.15019613738E+01  0.27247510580E+01  0.51100000000E-03 0. -1.
        -11    1    4    4    0    0 -0.26534727608E+01  0.18302261534E+02 -0.11635988551E+02  0.21849712235E+02  0.51100000000E-03 0.  1.
        -12    1    4    4    0    0 -0.10137941671E+02  0.13826796544E+02 -0.15648523422E+02  0.23212807872E+02  0.00000000000E+00 0.  1.
</event>
<event>
 8    1  0.6524083E-011  0.9118800E+02  0.7816164E-02  0.1184000E+00
        -11   -1    0    0    0    0  0.00000000000E+00  0.00000000000E+00  0.45593999997E+02  0.45594000000E+02  0.51100000000E-03 0.  1.
         11   -1    0    0    0    0 -0.00000000000E+00 -0.00000000000E+00 -0.45593999997E+02  0.45594000000E+02  0.51100000000E-03 0. -1.
         23    2    1    2    0    0  0.00000000000E+00 -0.88817841970E-15 -0.88817841970E-15  0.91188000000E+02  0.91188000000E+02 0.  0.
    9900012    2    3    3    0    0 -0.42900418781E+02  0.28419055866E+01  0.59246272759E+01  0.47787267664E+02  0.19999984586E+02 0.  0.
         12    1    3    3    0    0  0.42900418781E+02 -0.28419055866E+01 -0.59246272759E+01  0.43400732336E+02  0.00000000000E+00 0. -1.
         11    1    4    4    0    0 -0.23301609620E+02 -0.91233372167E+00  0.44661270609E+01  0.23743286522E+02  0.51100000000E-03 0. -1.
        -11    1    4    4    0    0 -0.11161981623E+02  0.72416745835E+01 -0.33574143906E+01  0.13722387408E+02  0.51100000000E-03 0.  1.
         12    1    4    4    0    0 -0.84368275383E+01 -0.34874352752E+01  0.48159146056E+01  0.10321593733E+02  0.00000000000E+00 0. -1.
</event>
<event>
 8    1  0.6524083E-011  0.9118800E+02  0.7816164E-02  0.1184000E+00
        -11   -1    0    0    0    0  0.00000000000E+00  0.00000000000E+00  0.45593999997E+02  0.45594000000E+02  0.51100000000E-03 0. -1.
         11   -1    0    0    0    0 -0.00000000000E+00 -0.00000000000E+00 -0.45593999997E+02  0.45594000000E+02  0.51100000000E-03 0.  1.
         23    2    1    2    0    0 -0.17763568394E-14  0.00000000000E+00  0.00000000000E+00  0.91188000000E+02  0.91188000000E+02 0.  0.
    9900012    2    3    3    0    0  0.66018313572E+01  0.35059079549E+02  0.24716390338E+02  0.47787272040E+02  0.20000004541E+02 0.  0.
        -12    1    3    3    0    0 -0.66018313572E+01 -0.35059079549E+02 -0.24716390338E+02  0.43400727960E+02  0.00000000000E+00 0.  1.
         11    1    4    4    0    0  0.90148310730E+01  0.17024838471E+02  0.16032451729E+02  0.25062956987E+02  0.51100000000E-03 0. -1.
        -11    1    4    4    0    0  0.31872110380E+01  0.33561235035E+01  0.45253165458E+01  0.64730494570E+01  0.51100000000E-03 0.  1.
        -12    1    4    4    0    0 -0.56002107538E+01  0.14678117575E+02  0.41586220630E+01  0.16251265597E+02  0.00000000000E+00 0.  1.
</event>
<event>
 8    1  0.6524083E-011  0.9118800E+02  0.7816164E-02  0.1184000E+00
        -11   -1    0    0    0    0  0.00000000000E+00  0.00000000000E+00  0.45593999997E+02  0.45594000000E+02  0.51100000000E-03 0. -1.
         11   -1    0    0    0    0 -0.00000000000E+00 -0.00000000000E+00 -0.45593999997E+02  0.45594000000E+02  0.51100000000E-03 0.  1.
         23    2    1    2    0    0  0.00000000000E+00 -0.35527136788E-14  0.71054273576E-14  0.91188000000E+02  0.91188000000E+02 0.  0.
    9900012    2    3    3    0    0 -0.14478028059E+02  0.22452785818E+02 -0.34203551785E+02  0.47787264497E+02  0.19999970147E+02 0.  0.
         12    1    3    3    0    0  0.14478028059E+02 -0.22452785818E+02  0.34203551785E+02  0.43400735503E+02  0.00000000000E+00 0. -1.
         11    1    4    4    0    0 -0.65838581124E+00  0.58805318150E+01 -0.21977002525E+00  0.59213533444E+01  0.51100000000E-03 0. -1.
        -11    1    4    4    0    0 -0.81910934027E+01  0.15392714295E+01 -0.10200879602E+02  0.13172748862E+02  0.51100000000E-03 0.  1.
         12    1    4    4    0    0 -0.56285488455E+01  0.15032982574E+02 -0.23782902158E+02  0.28693162290E+02  0.00000000000E+00 0. -1.
</event>
<event>
 8    1  0.6524083E-011  0.9118800E+02  0.7816164E-02  0.1184000E+00
        -11   -1    0    0    0    0  0.00000000000E+00  0.00000000000E+00  0.45593999997E+02  0.45594000000E+02  0.51100000000E-03 0. -1.
         11   -1    0    0    0    0 -0.00000000000E+00 -0.00000000000E+00 -0.45593999997E+02  0.45594000000E+02  0.51100000000E-03 0.  1.
         23    2    1    2    0    0  0.00000000000E+00  0.00000000000E+00  0.00000000000E+00  0.91188000000E+02  0.91188000000E+02 0.  0.
    9900012    2    3    3    0    0  0.34388146721E+02 -0.61688348840E+00 -0.26470701528E+02  0.47787271670E+02  0.20000002852E+02 0.  0.
         12    1    3    3    0    0 -0.34388146721E+02  0.61688348840E+00  0.26470701528E+02  0.43400728330E+02  0.00000000000E+00 0. -1.
         11    1    4    4    0    0  0.44005395500E+01  0.95276964566E+00  0.17825437139E+01  0.48425180105E+01  0.51100000000E-03 0. -1.
        -11    1    4    4    0    0  0.71817107513E+01  0.23530112173E+01 -0.13588216968E+02  0.15548417017E+02  0.51100000000E-03 0.  1.
         12    1    4    4    0    0  0.22805896420E+02 -0.39226643513E+01 -0.14665028274E+02  0.27396336642E+02  0.00000000000E+00 0. -1.
</event>
<event>
 8    1  0.6524083E-011  0.9118800E+02  0.7816164E-02  0.1184000E+00
        -11   -1    0    0    0    0  0.00000000000E+00  0.00000000000E+00  0.45593999997E+02  0.45594000000E+02  0.51100000000E-03 0. -1.
         11   -1    0    0    0    0 -0.00000000000E+00 -0.00000000000E+00 -0.45593999997E+02  0.45594000000E+02  0.51100000000E-03 0.  1.
         23    2    1    2    0    0 -0.35527136788E-14  0.35527136788E-14  0.35527136788E-14  0.91188000000E+02  0.91188000000E+02 0.  0.
    9900012    2    3    3    0    0 -0.20483252347E+02  0.22223070139E+02  0.31147952933E+02  0.47787269072E+02  0.19999991009E+02 0.  0.
        -12    1    3    3    0    0  0.20483252347E+02 -0.22223070139E+02 -0.31147952933E+02  0.43400730928E+02  0.00000000000E+00 0.  1.
         11    1    4    4    0    0 -0.85627710453E+01  0.42535996119E+01  0.34138620642E+01  0.10152271277E+02  0.51100000000E-03 0. -1.
        -11    1    4    4    0    0 -0.78405312698E+01  0.19346355152E+02  0.24840947960E+02  0.32447312432E+02  0.51100000000E-03 0.  1.
        -12    1    4    4    0    0 -0.40799500323E+01 -0.13768846247E+01  0.28931429085E+01  0.51876853629E+01  0.00000000000E+00 0.  1.
</event>
<event>
 8    1  0.6524083E-011  0.9118800E+02  0.7816164E-02  0.1184000E+00
        -11   -1    0    0    0    0  0.00000000000E+00  0.00000000000E+00  0.45593999997E+02  0.45594000000E+02  0.51100000000E-03 0. -1.
         11   -1    0    0    0    0 -0.00000000000E+00 -0.00000000000E+00 -0.45593999997E+02  0.45594000000E+02  0.51100000000E-03 0.  1.
         23    2    1    2    0    0  0.17763568394E-14  0.00000000000E+00  0.00000000000E+00  0.91188000000E+02  0.91188000000E+02 0.  0.
    9900012    2    3    3    0    0  0.15525875163E+02 -0.18568838609E+02  0.36024553099E+02  0.47787274282E+02  0.20000014762E+02 0.  0.
        -12    1    3    3    0    0 -0.15525875163E+02  0.18568838609E+02 -0.36024553099E+02  0.43400725718E+02  0.00000000000E+00 0.  1.
         11    1    4    4    0    0  0.12278108221E+01  0.16476344132E+01  0.96207433555E+00  0.22688776658E+01  0.51100000000E-03 0.  1.
        -11    1    4    4    0    0  0.16073957071E+02 -0.20942646981E+02  0.29272706720E+02  0.39419004521E+02  0.51100000000E-03 0. -1.
        -12    1    4    4    0    0 -0.17758927303E+01  0.72617395897E+00  0.57897720438E+01  0.60993920949E+01  0.00000000000E+00 0.  1.
</event>
<event>
 8    1  0.6524083E-011  0.9118800E+02  0.7816164E-02  0.1184000E+00
        -11   -1    0    0    0    0  0.00000000000E+00  0.00000000000E+00  0.45593999997E+02  0.45594000000E+02  0.51100000000E-03 0. -1.
         11   -1    0    0    0    0 -0.00000000000E+00 -0.00000000000E+00 -0.45593999997E+02  0.45594000000E+02  0.51100000000E-03 0.  1.
         23    2    1    2    0    0  0.00000000000E+00  0.35527136788E-14  0.35527136788E-14  0.91188000000E+02  0.91188000000E+02 0.  0.
    9900012    2    3    3    0    0  0.26211865689E+02 -0.17402605285E+02 -0.29894996367E+02  0.47787269806E+02  0.19999994354E+02 0.  0.
         12    1    3    3    0    0 -0.26211865689E+02  0.17402605285E+02  0.29894996367E+02  0.43400730194E+02  0.00000000000E+00 0. -1.
         11    1    4    4    0    0  0.56822265763E+01 -0.27408392662E+01 -0.10340200287E+02  0.12112788324E+02  0.51100000000E-03 0.  1.
        -11    1    4    4    0    0  0.70370938717E+01 -0.28240425476E+01  0.17847111711E+01  0.77898074877E+01  0.51100000000E-03 0. -1.
         12    1    4    4    0    0  0.13492545241E+02 -0.11837723471E+02 -0.21339507251E+02  0.27884673994E+02  0.00000000000E+00 0. -1.
</event>
<event>
 8    1  0.6524083E-011  0.9118800E+02  0.7816164E-02  0.1184000E+00
        -11   -1    0    0    0    0  0.00000000000E+00  0.00000000000E+00  0.45593999997E+02  0.45594000000E+02  0.51100000000E-03 0. -1.
         11   -1    0    0    0    0 -0.00000000000E+00 -0.00000000000E+00 -0.45593999997E+02  0.45594000000E+02  0.51100000000E-03 0.  1.
         23    2    1    2    0    0  0.44408920985E-15  0.00000000000E+00  0.00000000000E+00  0.91188000000E+02  0.91188000000E+02 0.  0.
    9900012    2    3    3    0    0 -0.38478273699E+01 -0.12436198420E+02 -0.41402390110E+02  0.47787277501E+02  0.20000029440E+02 0.  0.
         12    1    3    3    0    0  0.38478273699E+01  0.12436198420E+02  0.41402390110E+02  0.43400722499E+02  0.00000000000E+00 0. -1.
         11    1    4    4    0    0 -0.60043204141E+01 -0.92235251792E+01 -0.15047017434E+02  0.18642371477E+02  0.51100000000E-03 0. -1.
        -11    1    4    4    0    0  0.31876795525E+01  0.19942851872E+00 -0.73452059376E+00  0.32772844593E+01  0.51100000000E-03 0.  1.
        -12    1    4    4    0    0 -0.10311865084E+01 -0.34121017595E+01 -0.25620852082E+02  0.25867621565E+02  0.00000000000E+00 0.  1.
</event>
<event>
 8    1  0.6524083E-011  0.9118800E+02  0.7816164E-02  0.1184000E+00
        -11   -1    0    0    0    0  0.00000000000E+00  0.00000000000E+00  0.45593999997E+02  0.45594000000E+02  0.51100000000E-03 0. -1.
         11   -1    0    0    0    0 -0.00000000000E+00 -0.00000000000E+00 -0.45593999997E+02  0.45594000000E+02  0.51100000000E-03 0.  1.
         23    2    1    2    0    0  0.00000000000E+00  0.00000000000E+00  0.00000000000E+00  0.91188000000E+02  0.91188000000E+02 0.  0.
    9900012    2    3    3    0    0 -0.69484103439E+01 -0.14108124629E+02 -0.40451269184E+02  0.47787253860E+02  0.19999921651E+02 0.  0.
         12    1    3    3    0    0  0.69484103439E+01  0.14108124629E+02  0.40451269184E+02  0.43400746140E+02  0.00000000000E+00 0. -1.
         11    1    4    4    0    0  0.72906650030E+00  0.23277098236E+01 -0.27264280637E+01  0.36583030536E+01  0.51100000000E-03 0. -1.
        -11    1    4    4    0    0 -0.59895269534E+01 -0.14497022570E+02 -0.16563359154E+02  0.22811903981E+02  0.51100000000E-03 0.  1.
         12    1    4    4    0    0 -0.16879498908E+01 -0.19388118829E+01 -0.21161481966E+02  0.21317046826E+02  0.00000000000E+00 0. -1.
</event>
<event>
 8    1  0.6524083E-011  0.9118800E+02  0.7816164E-02  0.1184000E+00
        -11   -1    0    0    0    0  0.00000000000E+00  0.00000000000E+00  0.45593999997E+02  0.45594000000E+02  0.51100000000E-03 0. -1.
         11   -1    0    0    0    0 -0.00000000000E+00 -0.00000000000E+00 -0.45593999997E+02  0.45594000000E+02  0.51100000000E-03 0.  1.
         23    2    1    2    0    0  0.00000000000E+00 -0.35527136788E-14  0.88817841970E-15  0.91188000000E+02  0.91188000000E+02 0.  0.
    9900012    2    3    3    0    0 -0.32038054163E+02  0.28167756418E+02 -0.79852383236E+01  0.47787269047E+02  0.19999990892E+02 0.  0.
         12    1    3    3    0    0  0.32038054163E+02 -0.28167756418E+02  0.79852383236E+01  0.43400730953E+02  0.00000000000E+00 0. -1.
         11    1    4    4    0    0 -0.77002859273E+01  0.11618056785E+02 -0.26671761494E+01  0.14191105513E+02  0.51100000000E-03 0. -1.
        -11    1    4    4    0    0 -0.11729367306E+02  0.10469706592E+02  0.46688184228E+01  0.16400935316E+02  0.51100000000E-03 0.  1.
         12    1    4    4    0    0 -0.12608400930E+02  0.60799930416E+01 -0.99868805969E+01  0.17195228218E+02  0.00000000000E+00 0. -1.
</event>
<event>
 8    1  0.6524083E-011  0.9118800E+02  0.7816164E-02  0.1184000E+00
        -11   -1    0    0    0    0  0.00000000000E+00  0.00000000000E+00  0.45593999997E+02  0.45594000000E+02  0.51100000000E-03 0. -1.
         11   -1    0    0    0    0 -0.00000000000E+00 -0.00000000000E+00 -0.45593999997E+02  0.45594000000E+02  0.51100000000E-03 0.  1.
         23    2    1    2    0    0 -0.35527136788E-14  0.00000000000E+00  0.00000000000E+00  0.91188000000E+02  0.91188000000E+02 0.  0.
    9900012    2    3    3    0    0  0.27578855130E+02  0.98242902051E+01  0.32039254028E+02  0.47787265824E+02  0.19999976200E+02 0.  0.
        -12    1    3    3    0    0 -0.27578855130E+02 -0.98242902051E+01 -0.32039254028E+02  0.43400734176E+02  0.00000000000E+00 0.  1.
         11    1    4    4    0    0  0.19111716818E+02  0.28729182300E+00  0.17313935630E+02  0.25789777502E+02  0.51100000000E-03 0. -1.
        -11    1    4    4    0    0  0.20559855270E+01  0.30835660792E+01 -0.99283269431E+00  0.38368181182E+01  0.51100000000E-03 0.  1.
         12    1    4    4    0    0  0.64111527851E+01  0.64534323029E+01  0.15718151092E+02  0.18160670205E+02  0.00000000000E+00 0. -1.
</event>
<event>
 8    1  0.6524083E-011  0.9118800E+02  0.7816164E-02  0.1184000E+00
        -11   -1    0    0    0    0  0.00000000000E+00  0.00000000000E+00  0.45593999997E+02  0.45594000000E+02  0.51100000000E-03 0. -1.
         11   -1    0    0    0    0 -0.00000000000E+00 -0.00000000000E+00 -0.45593999997E+02  0.45594000000E+02  0.51100000000E-03 0.  1.
         23    2    1    2    0    0  0.35527136788E-14  0.00000000000E+00  0.00000000000E+00  0.91188000000E+02  0.91188000000E+02 0.  0.
    9900012    2    3    3    0    0  0.31264696213E+02 -0.15277688770E+02  0.25937121932E+02  0.47787270772E+02  0.19999998756E+02 0.  0.
        -12    1    3    3    0    0 -0.31264696213E+02  0.15277688770E+02 -0.25937121932E+02  0.43400729228E+02  0.00000000000E+00 0.  1.
         11    1    4    4    0    0  0.29366750883E+01 -0.20215538856E+01  0.74089777666E+01  0.82221464650E+01  0.51100000000E-03 0. -1.
        -11    1    4    4    0    0  0.22742148453E+02 -0.27113854587E+01  0.10589604641E+02  0.25232848712E+02  0.51100000000E-03 0.  1.
        -12    1    4    4    0    0  0.55858726713E+01 -0.10544749426E+02  0.79385395239E+01  0.14332275595E+02  0.00000000000E+00 0.  1.
</event>
<event>
 8    1  0.6524083E-011  0.9118800E+02  0.7816164E-02  0.1184000E+00
        -11   -1    0    0    0    0  0.00000000000E+00  0.00000000000E+00  0.45593999997E+02  0.45594000000E+02  0.51100000000E-03 0. -1.
         11   -1    0    0    0    0 -0.00000000000E+00 -0.00000000000E+00 -0.45593999997E+02  0.45594000000E+02  0.51100000000E-03 0.  1.
         23    2    1    2    0    0  0.00000000000E+00  0.00000000000E+00  0.00000000000E+00  0.91188000000E+02  0.91188000000E+02 0.  0.
    9900012    2    3    3    0    0 -0.46735239517E+01  0.14696128505E+02 -0.40568515752E+02  0.47787280081E+02  0.20000041202E+02 0.  0.
         12    1    3    3    0    0  0.46735239517E+01 -0.14696128505E+02  0.40568515752E+02  0.43400719919E+02  0.00000000000E+00 0. -1.
         11    1    4    4    0    0 -0.35095582369E+01  0.29002998296E+01 -0.22172079386E+02  0.22634704387E+02  0.51100000000E-03 0. -1.
        -11    1    4    4    0    0  0.23889127893E+01 -0.12470467217E+00 -0.96613797521E+01  0.99531258681E+01  0.51100000000E-03 0.  1.
         12    1    4    4    0    0 -0.35528785042E+01  0.11920533348E+02 -0.87350566133E+01  0.15199449826E+02  0.00000000000E+00 0. -1.
</event>
<event>
 8    1  0.6524083E-011  0.9118800E+02  0.7816164E-02  0.1184000E+00
        -11   -1    0    0    0    0  0.00000000000E+00  0.00000000000E+00  0.45593999997E+02  0.45594000000E+02  0.51100000000E-03 0. -1.
         11   -1    0    0    0    0 -0.00000000000E+00 -0.00000000000E+00 -0.45593999997E+02  0.45594000000E+02  0.51100000000E-03 0.  1.
         23    2    1    2    0    0  0.00000000000E+00  0.00000000000E+00  0.71054273576E-14  0.91188000000E+02  0.91188000000E+02 0.  0.
    9900012    2    3    3    0    0 -0.14773985400E+02  0.17797040023E+02 -0.36723537144E+02  0.47787268917E+02  0.19999990302E+02 0.  0.
         12    1    3    3    0    0  0.14773985400E+02 -0.17797040023E+02  0.36723537144E+02  0.43400731083E+02  0.00000000000E+00 0. -1.
         11    1    4    4    0    0 -0.51250324028E+00 -0.14394574448E+01  0.57106200089E+00  0.16311987545E+01  0.51100000000E-03 0. -1.
        -11    1    4    4    0    0 -0.14046678545E+02  0.10541825403E+02 -0.18848980562E+02  0.25762828445E+02  0.51100000000E-03 0.  1.
         12    1    4    4    0    0 -0.21480361500E+00  0.86946720645E+01 -0.18445618582E+02  0.20393241718E+02  0.00000000000E+00 0. -1.
</event>
<event>
 8    1  0.6524083E-011  0.9118800E+02  0.7816164E-02  0.1184000E+00
        -11   -1    0    0    0    0  0.00000000000E+00  0.00000000000E+00  0.45593999997E+02  0.45594000000E+02  0.51100000000E-03 0. -1.
         11   -1    0    0    0    0 -0.00000000000E+00 -0.00000000000E+00 -0.45593999997E+02  0.45594000000E+02  0.51100000000E-03 0.  1.
         23    2    1    2    0    0  0.00000000000E+00 -0.44408920985E-15  0.00000000000E+00  0.91188000000E+02  0.91188000000E+02 0.  0.
    9900012    2    3    3    0    0  0.97271663090E+01 -0.11282769349E+01  0.42281588417E+02  0.47787268528E+02  0.19999988528E+02 0.  0.
        -12    1    3    3    0    0 -0.97271663090E+01  0.11282769349E+01 -0.42281588417E+02  0.43400731472E+02  0.00000000000E+00 0.  1.
         11    1    4    4    0    0  0.54050941548E+01 -0.37956702069E+01  0.18214989511E+02  0.19375448338E+02  0.51100000000E-03 0. -1.
        -11    1    4    4    0    0  0.26192175946E+01  0.78766360625E+01  0.83790123300E+01  0.11794470923E+02  0.51100000000E-03 0.  1.
        -12    1    4    4    0    0  0.17028545596E+01 -0.52092427905E+01  0.15687586575E+02  0.16617349267E+02  0.00000000000E+00 0.  1.
</event>
<event>
 8    1  0.6524083E-011  0.9118800E+02  0.7816164E-02  0.1184000E+00
        -11   -1    0    0    0    0  0.00000000000E+00  0.00000000000E+00  0.45593999997E+02  0.45594000000E+02  0.51100000000E-03 0. -1.
         11   -1    0    0    0    0 -0.00000000000E+00 -0.00000000000E+00 -0.45593999997E+02  0.45594000000E+02  0.51100000000E-03 0.  1.
         23    2    1    2    0    0 -0.27755575616E-15 -0.88817841970E-15  0.71054273576E-14  0.91188000000E+02  0.91188000000E+02 0.  0.
    9900012    2    3    3    0    0 -0.14351112023E+00 -0.44053099122E+01  0.43176336485E+02  0.47787269785E+02  0.19999994260E+02 0.  0.
        -12    1    3    3    0    0  0.14351112023E+00  0.44053099122E+01 -0.43176336485E+02  0.43400730215E+02  0.00000000000E+00 0.  1.
         11    1    4    4    0    0  0.46871249419E+01 -0.24634109399E+01  0.35650965357E+01  0.63833727175E+01  0.51100000000E-03 0. -1.
        -11    1    4    4    0    0 -0.63764896937E+01 -0.28888079356E+01  0.13295721682E+02  0.15026012359E+02  0.51100000000E-03 0.  1.
         12    1    4    4    0    0  0.15458536316E+01  0.94690896337E+00  0.26315518267E+02  0.26377884709E+02  0.00000000000E+00 0. -1.
</event>
<event>
 8    1  0.6524083E-011  0.9118800E+02  0.7816164E-02  0.1184000E+00
        -11   -1    0    0    0    0  0.00000000000E+00  0.00000000000E+00  0.45593999997E+02  0.45594000000E+02  0.51100000000E-03 0. -1.
         11   -1    0    0    0    0 -0.00000000000E+00 -0.00000000000E+00 -0.45593999997E+02  0.45594000000E+02  0.51100000000E-03 0.  1.
         23    2    1    2    0    0  0.00000000000E+00  0.00000000000E+00 -0.71054273576E-14  0.91188000000E+02  0.91188000000E+02 0.  0.
    9900012    2    3    3    0    0  0.85339703216E+01 -0.95799618548E+01  0.41461057418E+02  0.47787267278E+02  0.19999982829E+02 0.  0.
        -12    1    3    3    0    0 -0.85339703216E+01  0.95799618548E+01 -0.41461057418E+02  0.43400732722E+02  0.00000000000E+00 0.  1.
         11    1    4    4    0    0  0.44208610790E+01  0.21722024279E+01  0.27834906971E+02  0.28267375584E+02  0.51100000000E-03 0. -1.
        -11    1    4    4    0    0  0.30852413524E+01 -0.76218774346E+01  0.12754523304E+02  0.15175295543E+02  0.51100000000E-03 0.  1.
        -12    1    4    4    0    0  0.10278678903E+01 -0.41302868481E+01  0.87162714279E+00  0.43445961519E+01  0.00000000000E+00 0.  1.
</event>
<event>
 8    1  0.6524083E-011  0.9118800E+02  0.7816164E-02  0.1184000E+00
        -11   -1    0    0    0    0  0.00000000000E+00  0.00000000000E+00  0.45593999997E+02  0.45594000000E+02  0.51100000000E-03 0. -1.
         11   -1    0    0    0    0 -0.00000000000E+00 -0.00000000000E+00 -0.45593999997E+02  0.45594000000E+02  0.51100000000E-03 0.  1.
         23    2    1    2    0    0 -0.17763568394E-14  0.00000000000E+00  0.00000000000E+00  0.91188000000E+02  0.91188000000E+02 0.  0.
    9900012    2    3    3    0    0  0.99944915838E+01  0.21426329579E+02 -0.36395684233E+02  0.47787270836E+02  0.19999999048E+02 0.  0.
         12    1    3    3    0    0 -0.99944915838E+01 -0.21426329579E+02  0.36395684233E+02  0.43400729164E+02  0.00000000000E+00 0. -1.
         11    1    4    4    0    0  0.13362368969E+02  0.88731074217E+01 -0.23188327771E+02  0.28195451493E+02  0.51100000000E-03 0. -1.
        -11    1    4    4    0    0 -0.35848116975E+01  0.41214321734E+01 -0.79743032238E+01  0.96657431289E+01  0.51100000000E-03 0.  1.
        -12    1    4    4    0    0  0.21693431223E+00  0.84317899837E+01 -0.52330532374E+01  0.99260762142E+01  0.00000000000E+00 0.  1.
</event>
<event>
 8    1  0.6524083E-011  0.9118800E+02  0.7816164E-02  0.1184000E+00
        -11   -1    0    0    0    0  0.00000000000E+00  0.00000000000E+00  0.45593999997E+02  0.45594000000E+02  0.51100000000E-03 0. -1.
         11   -1    0    0    0    0 -0.00000000000E+00 -0.00000000000E+00 -0.45593999997E+02  0.45594000000E+02  0.51100000000E-03 0.  1.
         23    2    1    2    0    0  0.17763568394E-14  0.00000000000E+00 -0.71054273576E-14  0.91188000000E+02  0.91188000000E+02 0.  0.
    9900012    2    3    3    0    0 -0.12571386307E+02 -0.75839176401E+01  0.40841924544E+02  0.47787327644E+02  0.20000258059E+02 0.  0.
        -12    1    3    3    0    0  0.12571386307E+02  0.75839176401E+01 -0.40841924544E+02  0.43400672356E+02  0.00000000000E+00 0.  1.
         11    1    4    4    0    0 -0.60819587327E+01 -0.78810876915E+01  0.16339667128E+02  0.19133386719E+02  0.51100000000E-03 0. -1.
        -11    1    4    4    0    0 -0.93879463068E+01  0.15358425913E+01  0.23490320248E+02  0.25343391524E+02  0.51100000000E-03 0.  1.
        -12    1    4    4    0    0  0.28985187326E+01 -0.12386725398E+01  0.10119371684E+01  0.33105494011E+01  0.00000000000E+00 0.  1.
</event>
<event>
 8    1  0.6524083E-011  0.9118800E+02  0.7816164E-02  0.1184000E+00
        -11   -1    0    0    0    0  0.00000000000E+00  0.00000000000E+00  0.45593999997E+02  0.45594000000E+02  0.51100000000E-03 0. -1.
         11   -1    0    0    0    0 -0.00000000000E+00 -0.00000000000E+00 -0.45593999997E+02  0.45594000000E+02  0.51100000000E-03 0.  1.
         23    2    1    2    0    0  0.71054273576E-14  0.35527136788E-14  0.35527136788E-14  0.91188000000E+02  0.91188000000E+02 0.  0.
    9900012    2    3    3    0    0 -0.25747940750E+02 -0.30490715418E+02 -0.17058244861E+02  0.47787263862E+02  0.19999967253E+02 0.  0.
         12    1    3    3    0    0  0.25747940750E+02  0.30490715418E+02  0.17058244861E+02  0.43400736138E+02  0.00000000000E+00 0. -1.
         11    1    4    4    0    0 -0.21578052175E+02 -0.13821370305E+02 -0.13650666716E+02  0.29034174946E+02  0.51100000000E-03 0. -1.
        -11    1    4    4    0    0 -0.17003156032E+01 -0.29345428596E+01  0.18224382091E+01  0.38501813246E+01  0.51100000000E-03 0.  1.
        -12    1    4    4    0    0 -0.24695729719E+01 -0.13734802253E+02 -0.52300163546E+01  0.14902907591E+02  0.00000000000E+00 0.  1.
</event>
<event>
 8    1  0.6524083E-011  0.9118800E+02  0.7816164E-02  0.1184000E+00
        -11   -1    0    0    0    0  0.00000000000E+00  0.00000000000E+00  0.45593999997E+02  0.45594000000E+02  0.51100000000E-03 0. -1.
         11   -1    0    0    0    0 -0.00000000000E+00 -0.00000000000E+00 -0.45593999997E+02  0.45594000000E+02  0.51100000000E-03 0.  1.
         23    2    1    2    0    0  0.35527136788E-14  0.88817841970E-15  0.00000000000E+00  0.91188000000E+02  0.91188000000E+02 0.  0.
    9900012    2    3    3    0    0 -0.19918770625E+02  0.28036689233E+01  0.38457836536E+02  0.47787272199E+02  0.20000005265E+02 0.  0.
        -12    1    3    3    0    0  0.19918770625E+02 -0.28036689233E+01 -0.38457836536E+02  0.43400727801E+02  0.00000000000E+00 0.  1.
         11    1    4    4    0    0 -0.17219652029E+02 -0.59941453807E+01  0.27997350637E+02  0.33411043650E+02  0.51100000000E-03 0. -1.
        -11    1    4    4    0    0  0.55609940369E+00  0.24581737666E+01  0.15208249724E+01  0.29435987620E+01  0.51100000000E-03 0.  1.
        -12    1    4    4    0    0 -0.32552179997E+01  0.63396405374E+01  0.89396609266E+01  0.11432629787E+02  0.00000000000E+00 0.  1.
</event>
<event>
 8    1  0.6524083E-011  0.9118800E+02  0.7816164E-02  0.1184000E+00
        -11   -1    0    0    0    0  0.00000000000E+00  0.00000000000E+00  0.45593999997E+02  0.45594000000E+02  0.51100000000E-03 0. -1.
         11   -1    0    0    0    0 -0.00000000000E+00 -0.00000000000E+00 -0.45593999997E+02  0.45594000000E+02  0.51100000000E-03 0.  1.
         23    2    1    2    0    0  0.00000000000E+00  0.00000000000E+00  0.00000000000E+00  0.91188000000E+02  0.91188000000E+02 0.  0.
    9900012    2    3    3    0    0 -0.20767154371E+02  0.15276672962E+02  0.34913779541E+02  0.47787269139E+02  0.19999991312E+02 0.  0.
        -12    1    3    3    0    0  0.20767154371E+02 -0.15276672962E+02 -0.34913779541E+02  0.43400730861E+02  0.00000000000E+00 0.  1.
         11    1    4    4    0    0 -0.10328634610E+02  0.38734915265E+01  0.22256131556E+02  0.24839887713E+02  0.51100000000E-03 0. -1.
        -11    1    4    4    0    0 -0.88790378290E+01  0.15729673946E+01  0.44970027886E+01  0.10076436549E+02  0.51100000000E-03 0.  1.
        -12    1    4    4    0    0 -0.15594819317E+01  0.98302140408E+01  0.81606451966E+01  0.12870944876E+02  0.00000000000E+00 0.  1.
</event>
<event>
 8    1  0.6524083E-011  0.9118800E+02  0.7816164E-02  0.1184000E+00
        -11   -1    0    0    0    0  0.00000000000E+00  0.00000000000E+00  0.45593999997E+02  0.45594000000E+02  0.51100000000E-03 0. -1.
         11   -1    0    0    0    0 -0.00000000000E+00 -0.00000000000E+00 -0.45593999997E+02  0.45594000000E+02  0.51100000000E-03 0.  1.
         23    2    1    2    0    0  0.00000000000E+00  0.00000000000E+00  0.71054273576E-14  0.91188000000E+02  0.91188000000E+02 0.  0.
    9900012    2    3    3    0    0 -0.10371902432E+02  0.24955119867E+02 -0.33960107385E+02  0.47787271190E+02  0.20000000664E+02 0.  0.
         12    1    3    3    0    0  0.10371902432E+02 -0.24955119867E+02  0.33960107385E+02  0.43400728810E+02  0.00000000000E+00 0. -1.
         11    1    4    4    0    0 -0.12233623138E+01  0.10942053612E+02 -0.26199688974E+01  0.11317658322E+02  0.51100000000E-03 0. -1.
        -11    1    4    4    0    0  0.12863781716E+00  0.68939601843E+01 -0.13076239402E+02  0.14782803248E+02  0.51100000000E-03 0.  1.
         12    1    4    4    0    0 -0.92771779358E+01  0.71191060704E+01 -0.18263899085E+02  0.21686809620E+02  0.00000000000E+00 0. -1.
</event>
<event>
 8    1  0.6524083E-011  0.9118800E+02  0.7816164E-02  0.1184000E+00
        -11   -1    0    0    0    0  0.00000000000E+00  0.00000000000E+00  0.45593999997E+02  0.45594000000E+02  0.51100000000E-03 0. -1.
         11   -1    0    0    0    0 -0.00000000000E+00 -0.00000000000E+00 -0.45593999997E+02  0.45594000000E+02  0.51100000000E-03 0.  1.
         23    2    1    2    0    0  0.00000000000E+00  0.00000000000E+00  0.00000000000E+00  0.91188000000E+02  0.91188000000E+02 0.  0.
    9900012    2    3    3    0    0 -0.15898578792E+02  0.14460687243E+01  0.40357990561E+02  0.47787270462E+02  0.19999997342E+02 0.  0.
        -12    1    3    3    0    0  0.15898578792E+02 -0.14460687243E+01 -0.40357990561E+02  0.43400729538E+02  0.00000000000E+00 0.  1.
         11    1    4    4    0    0 -0.25977034711E+01 -0.38125600577E+01  0.19857634290E+02  0.20386498409E+02  0.51100000000E-03 0. -1.
        -11    1    4    4    0    0 -0.13297222946E+02  0.18880761214E+01  0.19852082748E+02  0.23968440901E+02  0.51100000000E-03 0.  1.
        -12    1    4    4    0    0 -0.36523748964E-02  0.33705526606E+01  0.64827352293E+00  0.34323311522E+01  0.00000000000E+00 0.  1.
</event>
<event>
 8    1  0.6524083E-011  0.9118800E+02  0.7816164E-02  0.1184000E+00
        -11   -1    0    0    0    0  0.00000000000E+00  0.00000000000E+00  0.45593999997E+02  0.45594000000E+02  0.51100000000E-03 0. -1.
         11   -1    0    0    0    0 -0.00000000000E+00 -0.00000000000E+00 -0.45593999997E+02  0.45594000000E+02  0.51100000000E-03 0.  1.
         23    2    1    2    0    0  0.00000000000E+00 -0.22204460493E-15  0.00000000000E+00  0.91188000000E+02  0.91188000000E+02 0.  0.
    9900012    2    3    3    0    0  0.64952981704E+01 -0.13940604716E+01  0.42889298629E+02  0.47787259916E+02  0.19999949260E+02 0.  0.
        -12    1    3    3    0    0 -0.64952981704E+01  0.13940604716E+01 -0.42889298629E+02  0.43400740084E+02  0.00000000000E+00 0.  1.
         11    1    4    4    0    0  0.26808051903E+01  0.61224145092E+01  0.10040224244E+02  0.12061375503E+02  0.51100000000E-03 0. -1.
        -11    1    4    4    0    0  0.47332269794E+01 -0.43326757257E+01  0.63749879399E+01  0.90452190730E+01  0.51100000000E-03 0.  1.
         12    1    4    4    0    0 -0.91873399931E+00 -0.31837992551E+01  0.26474086446E+02  0.26680665340E+02  0.00000000000E+00 0. -1.
</event>
<event>
 8    1  0.6524083E-011  0.9118800E+02  0.7816164E-02  0.1184000E+00
        -11   -1    0    0    0    0  0.00000000000E+00  0.00000000000E+00  0.45593999997E+02  0.45594000000E+02  0.51100000000E-03 0. -1.
         11   -1    0    0    0    0 -0.00000000000E+00 -0.00000000000E+00 -0.45593999997E+02  0.45594000000E+02  0.51100000000E-03 0.  1.
         23    2    1    2    0    0  0.00000000000E+00  0.00000000000E+00  0.00000000000E+00  0.91188000000E+02  0.91188000000E+02 0.  0.
    9900012    2    3    3    0    0  0.28344996040E+02 -0.29091625017E+01 -0.32737147894E+02  0.47787275591E+02  0.20000020729E+02 0.  0.
         12    1    3    3    0    0 -0.28344996040E+02  0.29091625017E+01  0.32737147894E+02  0.43400724409E+02  0.00000000000E+00 0. -1.
         11    1    4    4    0    0  0.12522497817E+02  0.10703091881E+01 -0.60207989654E+01  0.13935872193E+02  0.51100000000E-03 0. -1.
        -11    1    4    4    0    0  0.18003673451E+02 -0.44543615282E+01 -0.24154038240E+02  0.30453097674E+02  0.51100000000E-03 0.  1.
         12    1    4    4    0    0 -0.21811752274E+01  0.47488983839E+00 -0.25623106890E+01  0.33983057246E+01  0.00000000000E+00 0. -1.
</event>
<event>
 8    1  0.6524083E-011  0.9118800E+02  0.7816164E-02  0.1184000E+00
        -11   -1    0    0    0    0  0.00000000000E+00  0.00000000000E+00  0.45593999997E+02  0.45594000000E+02  0.51100000000E-03 0. -1.
         11   -1    0    0    0    0 -0.00000000000E+00 -0.00000000000E+00 -0.45593999997E+02  0.45594000000E+02  0.51100000000E-03 0.  1.
         23    2    1    2    0    0  0.00000000000E+00  0.44408920985E-15  0.00000000000E+00  0.91188000000E+02  0.91188000000E+02 0.  0.
    9900012    2    3    3    0    0 -0.19461638553E+02  0.33459491932E+01  0.38648061100E+02  0.47787269845E+02  0.19999994532E+02 0.  0.
        -12    1    3    3    0    0  0.19461638553E+02 -0.33459491932E+01 -0.38648061100E+02  0.43400730155E+02  0.00000000000E+00 0.  1.
         11    1    4    4    0    0 -0.10952634317E+01  0.82173895020E+01  0.14000641834E+02  0.16270926963E+02  0.51100000000E-03 0. -1.
        -11    1    4    4    0    0 -0.59451356243E+01 -0.19390498921E+01  0.12091327415E+02  0.13612668768E+02  0.51100000000E-03 0.  1.
        -12    1    4    4    0    0 -0.12421239497E+02 -0.29323904168E+01  0.12556091851E+02  0.17903674114E+02  0.00000000000E+00 0.  1.
</event>
<event>
 8    1  0.6524083E-011  0.9118800E+02  0.7816164E-02  0.1184000E+00
        -11   -1    0    0    0    0  0.00000000000E+00  0.00000000000E+00  0.45593999997E+02  0.45594000000E+02  0.51100000000E-03 0.  1.
         11   -1    0    0    0    0 -0.00000000000E+00 -0.00000000000E+00 -0.45593999997E+02  0.45594000000E+02  0.51100000000E-03 0. -1.
         23    2    1    2    0    0  0.71054273576E-14  0.00000000000E+00  0.35527136788E-14  0.91188000000E+02  0.91188000000E+02 0.  0.
    9900012    2    3    3    0    0 -0.34810918881E+02 -0.11431702228E+02 -0.23262407526E+02  0.47787268519E+02  0.19999988487E+02 0.  0.
         12    1    3    3    0    0  0.34810918881E+02  0.11431702228E+02  0.23262407526E+02  0.43400731481E+02  0.00000000000E+00 0. -1.
         11    1    4    4    0    0 -0.66813439609E+01  0.11846397407E+01 -0.11071083099E+02  0.12985091824E+02  0.51100000000E-03 0. -1.
        -11    1    4    4    0    0 -0.14330036490E+02 -0.10179720742E+02 -0.11006144512E+02  0.20739138783E+02  0.51100000000E-03 0.  1.
         12    1    4    4    0    0 -0.13799538430E+02 -0.24366212263E+01 -0.11851799147E+01  0.14063037912E+02  0.00000000000E+00 0. -1.
</event>
<event>
 8    1  0.6524083E-011  0.9118800E+02  0.7816164E-02  0.1184000E+00
        -11   -1    0    0    0    0  0.00000000000E+00  0.00000000000E+00  0.45593999997E+02  0.45594000000E+02  0.51100000000E-03 0. -1.
         11   -1    0    0    0    0 -0.00000000000E+00 -0.00000000000E+00 -0.45593999997E+02  0.45594000000E+02  0.51100000000E-03 0.  1.
         23    2    1    2    0    0 -0.35527136788E-14  0.88817841970E-15  0.00000000000E+00  0.91188000000E+02  0.91188000000E+02 0.  0.
    9900012    2    3    3    0    0 -0.25240666586E+02  0.49504268195E+01 -0.34957484433E+02  0.47787266213E+02  0.19999977970E+02 0.  0.
         12    1    3    3    0    0  0.25240666586E+02 -0.49504268195E+01  0.34957484433E+02  0.43400733787E+02  0.00000000000E+00 0. -1.
         11    1    4    4    0    0 -0.77773272918E+01 -0.44504659536E+01 -0.82130282852E+01  0.12155134754E+02  0.51100000000E-03 0. -1.
        -11    1    4    4    0    0  0.14156144617E+01  0.34822106698E+01 -0.41290443257E+01  0.55837946557E+01  0.51100000000E-03 0.  1.
        -12    1    4    4    0    0 -0.18878953756E+02  0.59186821033E+01 -0.22615411822E+02  0.30048336803E+02  0.00000000000E+00 0.  1.
</event>
<event>
 8    1  0.6524083E-011  0.9118800E+02  0.7816164E-02  0.1184000E+00
        -11   -1    0    0    0    0  0.00000000000E+00  0.00000000000E+00  0.45593999997E+02  0.45594000000E+02  0.51100000000E-03 0. -1.
         11   -1    0    0    0    0 -0.00000000000E+00 -0.00000000000E+00 -0.45593999997E+02  0.45594000000E+02  0.51100000000E-03 0.  1.
         23    2    1    2    0    0  0.71054273576E-14 -0.17763568394E-14  0.00000000000E+00  0.91188000000E+02  0.91188000000E+02 0.  0.
    9900012    2    3    3    0    0 -0.38676940048E+02  0.12346492440E+02  0.15338896163E+02  0.47787270714E+02  0.19999998495E+02 0.  0.
        -12    1    3    3    0    0  0.38676940048E+02 -0.12346492440E+02 -0.15338896163E+02  0.43400729286E+02  0.00000000000E+00 0.  1.
         11    1    4    4    0    0 -0.63808769119E+01  0.29539660649E+01  0.73361833366E+01  0.10161746498E+02  0.51100000000E-03 0. -1.
        -11    1    4    4    0    0 -0.12893945007E+02 -0.23387215132E+01  0.71691775239E+01  0.14937220049E+02  0.51100000000E-03 0.  1.
        -12    1    4    4    0    0 -0.19402118128E+02  0.11731247888E+02  0.83353530222E+00  0.22688304167E+02  0.00000000000E+00 0.  1.
</event>
<event>
 8    1  0.6524083E-011  0.9118800E+02  0.7816164E-02  0.1184000E+00
        -11   -1    0    0    0    0  0.00000000000E+00  0.00000000000E+00  0.45593999997E+02  0.45594000000E+02  0.51100000000E-03 0. -1.
         11   -1    0    0    0    0 -0.00000000000E+00 -0.00000000000E+00 -0.45593999997E+02  0.45594000000E+02  0.51100000000E-03 0.  1.
         23    2    1    2    0    0  0.00000000000E+00 -0.77715611724E-15  0.71054273576E-14  0.91188000000E+02  0.91188000000E+02 0.  0.
    9900012    2    3    3    0    0 -0.13799053495E+02 -0.52895520387E+00  0.41145237666E+02  0.47787259758E+02  0.19999948539E+02 0.  0.
        -12    1    3    3    0    0  0.13799053495E+02  0.52895520387E+00 -0.41145237666E+02  0.43400740242E+02  0.00000000000E+00 0.  1.
         11    1    4    4    0    0 -0.14686984723E+00  0.86013869451E+00  0.13646526710E+02  0.13674395812E+02  0.51100000000E-03 0. -1.
        -11    1    4    4    0    0 -0.25628599762E+01 -0.61051634873E+01  0.40848372789E+01  0.77799208429E+01  0.51100000000E-03 0.  1.
         12    1    4    4    0    0 -0.11089323671E+02  0.47160695890E+01  0.23413873678E+02  0.26332943103E+02  0.00000000000E+00 0. -1.
</event>
<event>
 8    1  0.6524083E-011  0.9118800E+02  0.7816164E-02  0.1184000E+00
        -11   -1    0    0    0    0  0.00000000000E+00  0.00000000000E+00  0.45593999997E+02  0.45594000000E+02  0.51100000000E-03 0.  1.
         11   -1    0    0    0    0 -0.00000000000E+00 -0.00000000000E+00 -0.45593999997E+02  0.45594000000E+02  0.51100000000E-03 0. -1.
         23    2    1    2    0    0  0.00000000000E+00  0.71054273576E-14  0.35527136788E-14  0.91188000000E+02  0.91188000000E+02 0.  0.
    9900012    2    3    3    0    0 -0.51562317098E+01  0.34933821105E+02 -0.25232216194E+02  0.47787270553E+02  0.19999997760E+02 0.  0.
         12    1    3    3    0    0  0.51562317098E+01 -0.34933821105E+02  0.25232216194E+02  0.43400729447E+02  0.00000000000E+00 0. -1.
         11    1    4    4    0    0 -0.84164158229E+01  0.18188627745E+02 -0.14826755381E+02  0.24929799637E+02  0.51100000000E-03 0.  1.
        -11    1    4    4    0    0  0.23677018982E+01  0.42170986078E+01 -0.90027227560E+01  0.10219537672E+02  0.51100000000E-03 0. -1.
        -12    1    4    4    0    0  0.89248221484E+00  0.12528094752E+02 -0.14027380570E+01  0.12637933244E+02  0.00000000000E+00 0.  1.
</event>
<event>
 8    1  0.6524083E-011  0.9118800E+02  0.7816164E-02  0.1184000E+00
        -11   -1    0    0    0    0  0.00000000000E+00  0.00000000000E+00  0.45593999997E+02  0.45594000000E+02  0.51100000000E-03 0. -1.
         11   -1    0    0    0    0 -0.00000000000E+00 -0.00000000000E+00 -0.45593999997E+02  0.45594000000E+02  0.51100000000E-03 0.  1.
         23    2    1    2    0    0  0.00000000000E+00  0.35527136788E-14  0.00000000000E+00  0.91188000000E+02  0.91188000000E+02 0.  0.
    9900012    2    3    3    0    0 -0.28573119213E+02  0.30743890985E+02  0.11045958601E+02  0.47787272173E+02  0.20000005147E+02 0.  0.
        -12    1    3    3    0    0  0.28573119213E+02 -0.30743890985E+02 -0.11045958601E+02  0.43400727827E+02  0.00000000000E+00 0.  1.
         11    1    4    4    0    0 -0.12557553700E+02  0.19374960483E+02  0.45191075001E+01  0.23526656828E+02  0.51100000000E-03 0. -1.
        -11    1    4    4    0    0 -0.12044703002E+02  0.68026769659E+01 -0.18187219965E+01  0.13952026171E+02  0.51100000000E-03 0.  1.
        -12    1    4    4    0    0 -0.39708625117E+01  0.45662535359E+01  0.83455730977E+01  0.10308589175E+02  0.00000000000E+00 0.  1.
</event>
<event>
 8    1  0.6524083E-011  0.9118800E+02  0.7816164E-02  0.1184000E+00
        -11   -1    0    0    0    0  0.00000000000E+00  0.00000000000E+00  0.45593999997E+02  0.45594000000E+02  0.51100000000E-03 0. -1.
         11   -1    0    0    0    0 -0.00000000000E+00 -0.00000000000E+00 -0.45593999997E+02  0.45594000000E+02  0.51100000000E-03 0.  1.
         23    2    1    2    0    0  0.35527136788E-14  0.00000000000E+00  0.00000000000E+00  0.91188000000E+02  0.91188000000E+02 0.  0.
    9900012    2    3    3    0    0 -0.19673303117E+02  0.84668493465E+01  0.37747790846E+02  0.47787284486E+02  0.20000061284E+02 0.  0.
        -12    1    3    3    0    0  0.19673303117E+02 -0.84668493465E+01 -0.37747790846E+02  0.43400715514E+02  0.00000000000E+00 0.  1.
         11    1    4    4    0    0  0.15435336993E+01 -0.13644303689E+01  0.22007251154E+01  0.30145244745E+01  0.51100000000E-03 0. -1.
        -11    1    4    4    0    0 -0.28854655250E+01 -0.35062862327E+01  0.54776555456E+01  0.71151011925E+01  0.51100000000E-03 0.  1.
        -12    1    4    4    0    0 -0.18331371292E+02  0.13337565948E+02  0.30069410185E+02  0.37657658819E+02  0.00000000000E+00 0.  1.
</event>
<event>
 8    1  0.6524083E-011  0.9118800E+02  0.7816164E-02  0.1184000E+00
        -11   -1    0    0    0    0  0.00000000000E+00  0.00000000000E+00  0.45593999997E+02  0.45594000000E+02  0.51100000000E-03 0. -1.
         11   -1    0    0    0    0 -0.00000000000E+00 -0.00000000000E+00 -0.45593999997E+02  0.45594000000E+02  0.51100000000E-03 0.  1.
         23    2    1    2    0    0  0.00000000000E+00  0.00000000000E+00  0.00000000000E+00  0.91188000000E+02  0.91188000000E+02 0.  0.
    9900012    2    3    3    0    0 -0.19828619895E+02  0.18052555033E+02 -0.34125566141E+02  0.47787272188E+02  0.20000005214E+02 0.  0.
         12    1    3    3    0    0  0.19828619895E+02 -0.18052555033E+02  0.34125566141E+02  0.43400727812E+02  0.00000000000E+00 0. -1.
         11    1    4    4    0    0 -0.21302824272E+01  0.84623633224E-01 -0.19668100019E+01  0.29006216961E+01  0.51100000000E-03 0. -1.
        -11    1    4    4    0    0 -0.13465836334E+02  0.77577088338E+01 -0.29764882525E+02  0.33577656656E+02  0.51100000000E-03 0.  1.
         12    1    4    4    0    0 -0.42325011333E+01  0.10210222566E+02 -0.23938736139E+01  0.11308993836E+02  0.00000000000E+00 0. -1.
</event>
<event>
 8    1  0.6524083E-011  0.9118800E+02  0.7816164E-02  0.1184000E+00
        -11   -1    0    0    0    0  0.00000000000E+00  0.00000000000E+00  0.45593999997E+02  0.45594000000E+02  0.51100000000E-03 0. -1.
         11   -1    0    0    0    0 -0.00000000000E+00 -0.00000000000E+00 -0.45593999997E+02  0.45594000000E+02  0.51100000000E-03 0.  1.
         23    2    1    2    0    0 -0.88817841970E-15  0.00000000000E+00  0.00000000000E+00  0.91188000000E+02  0.91188000000E+02 0.  0.
    9900012    2    3    3    0    0  0.45696321191E+01  0.11057875259E+02  0.41718883501E+02  0.47787269781E+02  0.19999994239E+02 0.  0.
        -12    1    3    3    0    0 -0.45696321191E+01 -0.11057875259E+02 -0.41718883501E+02  0.43400730219E+02  0.00000000000E+00 0.  1.
         11    1    4    4    0    0  0.70770193022E+01  0.15772435921E+02  0.34143106621E+02  0.38270166803E+02  0.51100000000E-03 0. -1.
        -11    1    4    4    0    0 -0.67011553483E+00 -0.98207496740E-01  0.16524724458E+01  0.17858793318E+01  0.51100000000E-03 0.  1.
         12    1    4    4    0    0 -0.18372716483E+01 -0.46163531651E+01  0.59233044342E+01  0.77312236467E+01  0.00000000000E+00 0. -1.
</event>
<event>
 8    1  0.6524083E-011  0.9118800E+02  0.7816164E-02  0.1184000E+00
        -11   -1    0    0    0    0  0.00000000000E+00  0.00000000000E+00  0.45593999997E+02  0.45594000000E+02  0.51100000000E-03 0.  1.
         11   -1    0    0    0    0 -0.00000000000E+00 -0.00000000000E+00 -0.45593999997E+02  0.45594000000E+02  0.51100000000E-03 0. -1.
         23    2    1    2    0    0 -0.11102230246E-15  0.14210854715E-13  0.11102230246E-14  0.91188000000E+02  0.91188000000E+02 0.  0.
    9900012    2    3    3    0    0  0.89835527062E+00 -0.43361022616E+02 -0.16241993177E+01  0.47787270191E+02  0.19999996108E+02 0.  0.
        -12    1    3    3    0    0 -0.89835527062E+00  0.43361022616E+02  0.16241993177E+01  0.43400729809E+02  0.00000000000E+00 0.  1.
         11    1    4    4    0    0 -0.15897946024E+01 -0.28214935541E+02 -0.66368676757E+01  0.29028572946E+02  0.51100000000E-03 0. -1.
        -11    1    4    4    0    0 -0.36366660933E+01 -0.54043886158E+01  0.25212539908E+01  0.69849465661E+01  0.51100000000E-03 0.  1.
         12    1    4    4    0    0  0.61248159663E+01 -0.97416984593E+01  0.24914143672E+01  0.11773750679E+02  0.00000000000E+00 0. -1.
</event>
<event>
 8    1  0.6524083E-011  0.9118800E+02  0.7816164E-02  0.1184000E+00
        -11   -1    0    0    0    0  0.00000000000E+00  0.00000000000E+00  0.45593999997E+02  0.45594000000E+02  0.51100000000E-03 0. -1.
         11   -1    0    0    0    0 -0.00000000000E+00 -0.00000000000E+00 -0.45593999997E+02  0.45594000000E+02  0.51100000000E-03 0.  1.
         23    2    1    2    0    0  0.00000000000E+00 -0.35527136788E-14  0.00000000000E+00  0.91188000000E+02  0.91188000000E+02 0.  0.
    9900012    2    3    3    0    0 -0.19417755363E+02  0.28261133978E+02 -0.26606057048E+02  0.47787272026E+02  0.20000004476E+02 0.  0.
         12    1    3    3    0    0  0.19417755363E+02 -0.28261133978E+02  0.26606057048E+02  0.43400727974E+02  0.00000000000E+00 0. -1.
         11    1    4    4    0    0 -0.85437663980E+01  0.11373660194E+02 -0.11713274011E+02  0.18427069186E+02  0.51100000000E-03 0.  1.
        -11    1    4    4    0    0 -0.82856320513E+01  0.48817230513E+01  0.54590432800E+00  0.96322858260E+01  0.51100000000E-03 0. -1.
         12    1    4    4    0    0 -0.25883569133E+01  0.12005750732E+02 -0.15438687365E+02  0.19727917014E+02  0.00000000000E+00 0. -1.
</event>
<event>
 8    1  0.6524083E-011  0.9118800E+02  0.7816164E-02  0.1184000E+00
        -11   -1    0    0    0    0  0.00000000000E+00  0.00000000000E+00  0.45593999997E+02  0.45594000000E+02  0.51100000000E-03 0. -1.
         11   -1    0    0    0    0 -0.00000000000E+00 -0.00000000000E+00 -0.45593999997E+02  0.45594000000E+02  0.51100000000E-03 0.  1.
         23    2    1    2    0    0  0.00000000000E+00  0.00000000000E+00  0.00000000000E+00  0.91188000000E+02  0.91188000000E+02 0.  0.
    9900012    2    3    3    0    0 -0.40993383047E+02  0.18183181001E+01 -0.14137159437E+02  0.47787274069E+02  0.20000013792E+02 0.  0.
         12    1    3    3    0    0  0.40993383047E+02 -0.18183181001E+01  0.14137159437E+02  0.43400725931E+02  0.00000000000E+00 0. -1.
         11    1    4    4    0    0 -0.13036404598E+02  0.42514911860E+01 -0.57117187624E+01  0.14854183035E+02  0.51100000000E-03 0. -1.
        -11    1    4    4    0    0 -0.74773484051E+01 -0.58704448986E+01 -0.75650558092E+01  0.12149194711E+02  0.51100000000E-03 0.  1.
        -12    1    4    4    0    0 -0.20479630044E+02  0.34372718128E+01 -0.86038486555E+00  0.20783896323E+02  0.00000000000E+00 0.  1.
</event>
<event>
 8    1  0.6524083E-011  0.9118800E+02  0.7816164E-02  0.1184000E+00
        -11   -1    0    0    0    0  0.00000000000E+00  0.00000000000E+00  0.45593999997E+02  0.45594000000E+02  0.51100000000E-03 0.  1.
         11   -1    0    0    0    0 -0.00000000000E+00 -0.00000000000E+00 -0.45593999997E+02  0.45594000000E+02  0.51100000000E-03 0. -1.
         23    2    1    2    0    0  0.35527136788E-14  0.00000000000E+00  0.00000000000E+00  0.91188000000E+02  0.91188000000E+02 0.  0.
    9900012    2    3    3    0    0 -0.29061037210E+02  0.27907109697E+02 -0.16132961704E+02  0.47787272947E+02  0.20000008675E+02 0.  0.
         12    1    3    3    0    0  0.29061037210E+02 -0.27907109697E+02  0.16132961704E+02  0.43400727053E+02  0.00000000000E+00 0. -1.
         11    1    4    4    0    0 -0.12843087657E+02  0.12329759527E+01 -0.83117393901E+01  0.15347642888E+02  0.51100000000E-03 0.  1.
        -11    1    4    4    0    0 -0.62093935827E+01  0.12374565391E+02 -0.52015149243E+01  0.14789935600E+02  0.51100000000E-03 0. -1.
        -12    1    4    4    0    0 -0.10008555970E+02  0.14299568353E+02 -0.26197073900E+01  0.17649694459E+02  0.00000000000E+00 0.  1.
</event>
<event>
 8    1  0.6524083E-011  0.9118800E+02  0.7816164E-02  0.1184000E+00
        -11   -1    0    0    0    0  0.00000000000E+00  0.00000000000E+00  0.45593999997E+02  0.45594000000E+02  0.51100000000E-03 0. -1.
         11   -1    0    0    0    0 -0.00000000000E+00 -0.00000000000E+00 -0.45593999997E+02  0.45594000000E+02  0.51100000000E-03 0.  1.
         23    2    1    2    0    0  0.00000000000E+00  0.00000000000E+00  0.00000000000E+00  0.91188000000E+02  0.91188000000E+02 0.  0.
    9900012    2    3    3    0    0  0.60863765744E+01 -0.23700141134E+02  0.35845262299E+02  0.47787268452E+02  0.19999988181E+02 0.  0.
        -12    1    3    3    0    0 -0.60863765744E+01  0.23700141134E+02 -0.35845262299E+02  0.43400731548E+02  0.00000000000E+00 0.  1.
         11    1    4    4    0    0  0.60422146612E+01 -0.12352697110E+02  0.14098853099E+02  0.19694546018E+02  0.51100000000E-03 0.  1.
        -11    1    4    4    0    0 -0.69844732325E+00  0.27324307712E+01  0.96710376364E+00  0.29814923333E+01  0.51100000000E-03 0. -1.
         12    1    4    4    0    0  0.74260923644E+00 -0.14079874795E+02  0.20779305437E+02  0.25111230101E+02  0.00000000000E+00 0. -1.
</event>
<event>
 8    1  0.6524083E-011  0.9118800E+02  0.7816164E-02  0.1184000E+00
        -11   -1    0    0    0    0  0.00000000000E+00  0.00000000000E+00  0.45593999997E+02  0.45594000000E+02  0.51100000000E-03 0. -1.
         11   -1    0    0    0    0 -0.00000000000E+00 -0.00000000000E+00 -0.45593999997E+02  0.45594000000E+02  0.51100000000E-03 0.  1.
         23    2    1    2    0    0  0.35527136788E-14  0.00000000000E+00 -0.17763568394E-14  0.91188000000E+02  0.91188000000E+02 0.  0.
    9900012    2    3    3    0    0  0.25847184991E+02  0.31153218735E+02 -0.15653261553E+02  0.47787255689E+02  0.19999929989E+02 0.  0.
         12    1    3    3    0    0 -0.25847184991E+02 -0.31153218735E+02  0.15653261553E+02  0.43400744311E+02  0.00000000000E+00 0. -1.
         11    1    4    4    0    0  0.12764129675E+02  0.77564176819E+01 -0.21824885821E+01  0.15094644026E+02  0.51100000000E-03 0. -1.
        -11    1    4    4    0    0  0.67858238405E+01  0.18418212114E+02 -0.35769347578E+01  0.19951751932E+02  0.51100000000E-03 0.  1.
         12    1    4    4    0    0  0.62972314756E+01  0.49785889394E+01 -0.98938382130E+01  0.12740859730E+02  0.00000000000E+00 0. -1.
</event>
<event>
 8    1  0.6524083E-011  0.9118800E+02  0.7816164E-02  0.1184000E+00
        -11   -1    0    0    0    0  0.00000000000E+00  0.00000000000E+00  0.45593999997E+02  0.45594000000E+02  0.51100000000E-03 0. -1.
         11   -1    0    0    0    0 -0.00000000000E+00 -0.00000000000E+00 -0.45593999997E+02  0.45594000000E+02  0.51100000000E-03 0.  1.
         23    2    1    2    0    0  0.44408920985E-15  0.17763568394E-14  0.00000000000E+00  0.91188000000E+02  0.91188000000E+02 0.  0.
    9900012    2    3    3    0    0 -0.63641711230E+00 -0.26277131118E+01 -0.43316432782E+02  0.47787271298E+02  0.20000001156E+02 0.  0.
         12    1    3    3    0    0  0.63641711230E+00  0.26277131118E+01  0.43316432782E+02  0.43400728702E+02  0.00000000000E+00 0. -1.
         11    1    4    4    0    0 -0.42970776868E+01  0.23354576476E+01 -0.31829252188E+01  0.58352594012E+01  0.51100000000E-03 0. -1.
        -11    1    4    4    0    0  0.25246403004E+01  0.28929600861E+01 -0.18834991374E+02  0.19222380888E+02  0.51100000000E-03 0.  1.
        -12    1    4    4    0    0  0.11360202741E+01 -0.78561308455E+01 -0.21298516189E+02  0.22729631008E+02  0.00000000000E+00 0.  1.
</event>
<event>
 8    1  0.6524083E-011  0.9118800E+02  0.7816164E-02  0.1184000E+00
        -11   -1    0    0    0    0  0.00000000000E+00  0.00000000000E+00  0.45593999997E+02  0.45594000000E+02  0.51100000000E-03 0. -1.
         11   -1    0    0    0    0 -0.00000000000E+00 -0.00000000000E+00 -0.45593999997E+02  0.45594000000E+02  0.51100000000E-03 0.  1.
         23    2    1    2    0    0  0.00000000000E+00  0.00000000000E+00  0.00000000000E+00  0.91188000000E+02  0.91188000000E+02 0.  0.
    9900012    2    3    3    0    0 -0.38586116446E+02 -0.44550810902E+01 -0.19362078866E+02  0.47787237012E+02  0.19999844833E+02 0.  0.
         12    1    3    3    0    0  0.38586116446E+02  0.44550810902E+01  0.19362078866E+02  0.43400762988E+02  0.00000000000E+00 0. -1.
         11    1    4    4    0    0 -0.25349021076E+00  0.23825655176E+01 -0.13901372602E+01  0.27700825973E+01  0.51100000000E-03 0. -1.
        -11    1    4    4    0    0 -0.13950544663E+02 -0.20923812510E+01 -0.13977171039E+02  0.19858425573E+02  0.51100000000E-03 0.  1.
         12    1    4    4    0    0 -0.24382081572E+02 -0.47452653568E+01 -0.39947705671E+01  0.25158728842E+02  0.00000000000E+00 0. -1.
</event>
<event>
 8    1  0.6524083E-011  0.9118800E+02  0.7816164E-02  0.1184000E+00
        -11   -1    0    0    0    0  0.00000000000E+00  0.00000000000E+00  0.45593999997E+02  0.45594000000E+02  0.51100000000E-03 0. -1.
         11   -1    0    0    0    0 -0.00000000000E+00 -0.00000000000E+00 -0.45593999997E+02  0.45594000000E+02  0.51100000000E-03 0.  1.
         23    2    1    2    0    0  0.88817841970E-15 -0.35527136788E-14 -0.71054273576E-14  0.91188000000E+02  0.91188000000E+02 0.  0.
    9900012    2    3    3    0    0 -0.60588784569E+01  0.25947682571E+02  0.34258306850E+02  0.47787264670E+02  0.19999970936E+02 0.  0.
        -12    1    3    3    0    0  0.60588784569E+01 -0.25947682571E+02 -0.34258306850E+02  0.43400735330E+02  0.00000000000E+00 0.  1.
         11    1    4    4    0    0 -0.16854223323E+01  0.11840008719E+02  0.23491740496E+02  0.26360734563E+02  0.51100000000E-03 0. -1.
        -11    1    4    4    0    0 -0.27378822660E+01  0.15399426208E+02  0.11275082463E+02  0.19281229516E+02  0.51100000000E-03 0.  1.
        -12    1    4    4    0    0 -0.16355738585E+01 -0.12917523557E+01 -0.50851610860E+00  0.21453005915E+01  0.00000000000E+00 0.  1.
</event>
<event>
 8    1  0.6524083E-011  0.9118800E+02  0.7816164E-02  0.1184000E+00
        -11   -1    0    0    0    0  0.00000000000E+00  0.00000000000E+00  0.45593999997E+02  0.45594000000E+02  0.51100000000E-03 0. -1.
         11   -1    0    0    0    0 -0.00000000000E+00 -0.00000000000E+00 -0.45593999997E+02  0.45594000000E+02  0.51100000000E-03 0.  1.
         23    2    1    2    0    0  0.17763568394E-14  0.00000000000E+00  0.71054273576E-14  0.91188000000E+02  0.91188000000E+02 0.  0.
    9900012    2    3    3    0    0 -0.10505656031E+02  0.15225977307E+02 -0.39260971784E+02  0.47787273059E+02  0.20000009185E+02 0.  0.
         12    1    3    3    0    0  0.10505656031E+02 -0.15225977307E+02  0.39260971784E+02  0.43400726941E+02  0.00000000000E+00 0. -1.
         11    1    4    4    0    0 -0.81713471525E+01  0.10177936217E+02 -0.11177101547E+02  0.17183972159E+02  0.51100000000E-03 0. -1.
        -11    1    4    4    0    0 -0.17096615018E+01 -0.30843283968E+01 -0.49814167358E+01  0.61033218059E+01  0.51100000000E-03 0.  1.
         12    1    4    4    0    0 -0.62464737661E+00  0.81323694873E+01 -0.23102453501E+02  0.24499979094E+02  0.00000000000E+00 0. -1.
</event>
<event>
 8    1  0.6524083E-011  0.9118800E+02  0.7816164E-02  0.1184000E+00
        -11   -1    0    0    0    0  0.00000000000E+00  0.00000000000E+00  0.45593999997E+02  0.45594000000E+02  0.51100000000E-03 0. -1.
         11   -1    0    0    0    0 -0.00000000000E+00 -0.00000000000E+00 -0.45593999997E+02  0.45594000000E+02  0.51100000000E-03 0.  1.
         23    2    1    2    0    0 -0.88817841970E-15  0.00000000000E+00  0.00000000000E+00  0.91188000000E+02  0.91188000000E+02 0.  0.
    9900012    2    3    3    0    0  0.54874181359E+01 -0.14327155156E+01  0.43028580235E+02  0.47787272488E+02  0.20000006580E+02 0.  0.
        -12    1    3    3    0    0 -0.54874181359E+01  0.14327155156E+01 -0.43028580235E+02  0.43400727512E+02  0.00000000000E+00 0.  1.
         11    1    4    4    0    0  0.64906097328E+01  0.24673756991E+01  0.29363432847E+02  0.30173285309E+02  0.51100000000E-03 0. -1.
        -11    1    4    4    0    0  0.43700409370E+01 -0.28280627256E+01  0.90942807799E+01  0.10478603902E+02  0.51100000000E-03 0.  1.
         12    1    4    4    0    0 -0.53732325339E+01 -0.10720284892E+01  0.45708666084E+01  0.71353832761E+01  0.00000000000E+00 0. -1.
</event>
<event>
 8    1  0.6524083E-011  0.9118800E+02  0.7816164E-02  0.1184000E+00
        -11   -1    0    0    0    0  0.00000000000E+00  0.00000000000E+00  0.45593999997E+02  0.45594000000E+02  0.51100000000E-03 0. -1.
         11   -1    0    0    0    0 -0.00000000000E+00 -0.00000000000E+00 -0.45593999997E+02  0.45594000000E+02  0.51100000000E-03 0.  1.
         23    2    1    2    0    0  0.00000000000E+00 -0.17763568394E-14  0.00000000000E+00  0.91188000000E+02  0.91188000000E+02 0.  0.
    9900012    2    3    3    0    0 -0.19447359382E+02  0.84616720748E+01 -0.37865836202E+02  0.47787294562E+02  0.20000107228E+02 0.  0.
         12    1    3    3    0    0  0.19447359382E+02 -0.84616720748E+01  0.37865836202E+02  0.43400705438E+02  0.00000000000E+00 0. -1.
         11    1    4    4    0    0 -0.10871255205E+01 -0.50872421588E+01 -0.51848709402E+01  0.73447097701E+01  0.51100000000E-03 0. -1.
        -11    1    4    4    0    0 -0.93496281192E+01  0.52775057198E+01 -0.99912560225E+01  0.14666042744E+02  0.51100000000E-03 0.  1.
         12    1    4    4    0    0 -0.90106057418E+01  0.82714085139E+01 -0.22689709239E+02  0.25776542049E+02  0.00000000000E+00 0. -1.
</event>
<event>
 8    1  0.6524083E-011  0.9118800E+02  0.7816164E-02  0.1184000E+00
        -11   -1    0    0    0    0  0.00000000000E+00  0.00000000000E+00  0.45593999997E+02  0.45594000000E+02  0.51100000000E-03 0. -1.
         11   -1    0    0    0    0 -0.00000000000E+00 -0.00000000000E+00 -0.45593999997E+02  0.45594000000E+02  0.51100000000E-03 0.  1.
         23    2    1    2    0    0  0.35527136788E-14  0.17763568394E-14  0.00000000000E+00  0.91188000000E+02  0.91188000000E+02 0.  0.
    9900012    2    3    3    0    0 -0.25858339635E+02 -0.15009605077E+02 -0.31459202655E+02  0.47787269534E+02  0.19999993113E+02 0.  0.
         12    1    3    3    0    0  0.25858339635E+02  0.15009605077E+02  0.31459202655E+02  0.43400730466E+02  0.00000000000E+00 0. -1.
         11    1    4    4    0    0 -0.11833870404E+02 -0.16596647708E+01 -0.72275962275E+01  0.13965426001E+02  0.51100000000E-03 0.  1.
        -11    1    4    4    0    0 -0.75190822597E+01 -0.12452803688E+02 -0.86777179309E+01  0.16938468245E+02  0.51100000000E-03 0. -1.
        -12    1    4    4    0    0 -0.65053869713E+01 -0.89713661841E+00 -0.15553888497E+02  0.16883375288E+02  0.00000000000E+00 0.  1.
</event>
<event>
 8    1  0.6524083E-011  0.9118800E+02  0.7816164E-02  0.1184000E+00
        -11   -1    0    0    0    0  0.00000000000E+00  0.00000000000E+00  0.45593999997E+02  0.45594000000E+02  0.51100000000E-03 0. -1.
         11   -1    0    0    0    0 -0.00000000000E+00 -0.00000000000E+00 -0.45593999997E+02  0.45594000000E+02  0.51100000000E-03 0.  1.
         23    2    1    2    0    0 -0.66613381478E-15 -0.17763568394E-14  0.00000000000E+00  0.91188000000E+02  0.91188000000E+02 0.  0.
    9900012    2    3    3    0    0 -0.12719258800E+01  0.11989419385E+02  0.41692401540E+02  0.47787305089E+02  0.20000155222E+02 0.  0.
        -12    1    3    3    0    0  0.12719258800E+01 -0.11989419385E+02 -0.41692401540E+02  0.43400694911E+02  0.00000000000E+00 0.  1.
         11    1    4    4    0    0  0.82934696651E+00  0.28999992726E+01  0.15218191092E+02  0.15514224200E+02  0.51100000000E-03 0. -1.
        -11    1    4    4    0    0 -0.83773073378E+01  0.45156741382E+01  0.87741735561E+01  0.12944369935E+02  0.51100000000E-03 0.  1.
        -12    1    4    4    0    0  0.62760344913E+01  0.45737459739E+01  0.17700036892E+02  0.19328710954E+02  0.00000000000E+00 0.  1.
</event>
<event>
 8    1  0.6524083E-011  0.9118800E+02  0.7816164E-02  0.1184000E+00
        -11   -1    0    0    0    0  0.00000000000E+00  0.00000000000E+00  0.45593999997E+02  0.45594000000E+02  0.51100000000E-03 0.  1.
         11   -1    0    0    0    0 -0.00000000000E+00 -0.00000000000E+00 -0.45593999997E+02  0.45594000000E+02  0.51100000000E-03 0. -1.
         23    2    1    2    0    0 -0.17763568394E-14  0.71054273576E-14  0.00000000000E+00  0.91188000000E+02  0.91188000000E+02 0.  0.
    9900012    2    3    3    0    0 -0.90438606490E+01  0.42073497407E+02 -0.56260124758E+01  0.47787278625E+02  0.20000034563E+02 0.  0.
         12    1    3    3    0    0  0.90438606490E+01 -0.42073497407E+02  0.56260124758E+01  0.43400721375E+02  0.00000000000E+00 0. -1.
         11    1    4    4    0    0  0.20469665542E+00  0.11403862958E+01  0.18964978410E+01  0.22224054415E+01  0.51100000000E-03 0. -1.
        -11    1    4    4    0    0 -0.98207550927E+01  0.29617406498E+02 -0.11932222599E+02  0.33406824672E+02  0.51100000000E-03 0.  1.
        -12    1    4    4    0    0  0.57219778831E+00  0.11315704613E+02  0.44097122821E+01  0.12158048511E+02  0.00000000000E+00 0.  1.
</event>
<event>
 8    1  0.6524083E-011  0.9118800E+02  0.7816164E-02  0.1184000E+00
        -11   -1    0    0    0    0  0.00000000000E+00  0.00000000000E+00  0.45593999997E+02  0.45594000000E+02  0.51100000000E-03 0. -1.
         11   -1    0    0    0    0 -0.00000000000E+00 -0.00000000000E+00 -0.45593999997E+02  0.45594000000E+02  0.51100000000E-03 0.  1.
         23    2    1    2    0    0  0.00000000000E+00  0.00000000000E+00 -0.35527136788E-14  0.91188000000E+02  0.91188000000E+02 0.  0.
    9900012    2    3    3    0    0 -0.31022708010E+02 -0.59581476912E+01  0.29760973107E+02  0.47787268941E+02  0.19999990411E+02 0.  0.
        -12    1    3    3    0    0  0.31022708010E+02  0.59581476912E+01 -0.29760973107E+02  0.43400731059E+02  0.00000000000E+00 0.  1.
         11    1    4    4    0    0  0.10385224827E-01 -0.52547542180E+00  0.74076788526E+00  0.90827836744E+00  0.51100000000E-03 0. -1.
        -11    1    4    4    0    0 -0.20162823022E+02 -0.12416354034E+02  0.16294359555E+02  0.28743893844E+02  0.51100000000E-03 0.  1.
         12    1    4    4    0    0 -0.10870270212E+02  0.69836817649E+01  0.12725845667E+02  0.18135096730E+02  0.00000000000E+00 0. -1.
</event>
<event>
 8    1  0.6524083E-011  0.9118800E+02  0.7816164E-02  0.1184000E+00
        -11   -1    0    0    0    0  0.00000000000E+00  0.00000000000E+00  0.45593999997E+02  0.45594000000E+02  0.51100000000E-03 0. -1.
         11   -1    0    0    0    0 -0.00000000000E+00 -0.00000000000E+00 -0.45593999997E+02  0.45594000000E+02  0.51100000000E-03 0.  1.
         23    2    1    2    0    0  0.00000000000E+00  0.00000000000E+00  0.00000000000E+00  0.91188000000E+02  0.91188000000E+02 0.  0.
    9900012    2    3    3    0    0  0.15834158115E+02 -0.31992964277E+02 -0.24685077777E+02  0.47787269692E+02  0.19999993832E+02 0.  0.
         12    1    3    3    0    0 -0.15834158115E+02  0.31992964277E+02  0.24685077777E+02  0.43400730308E+02  0.00000000000E+00 0. -1.
         11    1    4    4    0    0  0.11803339499E+02 -0.13363445477E+02 -0.10797037143E+02  0.20844100117E+02  0.51100000000E-03 0. -1.
        -11    1    4    4    0    0  0.77449736292E+01 -0.56701477618E+01 -0.61307866983E+01  0.11389545116E+02  0.51100000000E-03 0.  1.
         12    1    4    4    0    0 -0.37141550137E+01 -0.12959371038E+02 -0.77572539351E+01  0.15553624458E+02  0.00000000000E+00 0. -1.
</event>
<event>
 8    1  0.6524083E-011  0.9118800E+02  0.7816164E-02  0.1184000E+00
        -11   -1    0    0    0    0  0.00000000000E+00  0.00000000000E+00  0.45593999997E+02  0.45594000000E+02  0.51100000000E-03 0.  1.
         11   -1    0    0    0    0 -0.00000000000E+00 -0.00000000000E+00 -0.45593999997E+02  0.45594000000E+02  0.51100000000E-03 0. -1.
         23    2    1    2    0    0 -0.17763568394E-14  0.00000000000E+00 -0.88817841970E-15  0.91188000000E+02  0.91188000000E+02 0.  0.
    9900012    2    3    3    0    0  0.89916585269E+01 -0.41997494152E+02 -0.62437094369E+01  0.47787270217E+02  0.19999996228E+02 0.  0.
         12    1    3    3    0    0 -0.89916585269E+01  0.41997494152E+02  0.62437094369E+01  0.43400729783E+02  0.00000000000E+00 0. -1.
         11    1    4    4    0    0 -0.41288420800E+00 -0.17047655221E+01 -0.37117300342E+01  0.41053183753E+01  0.51100000000E-03 0. -1.
        -11    1    4    4    0    0  0.75817977268E+01 -0.40401590505E+02 -0.40520378868E+01  0.41306067150E+02  0.51100000000E-03 0.  1.
        -12    1    4    4    0    0  0.18227450081E+01  0.10886187502E+00  0.15200584841E+01  0.23758846915E+01  0.00000000000E+00 0.  1.
</event>
<event>
 8    1  0.6524083E-011  0.9118800E+02  0.7816164E-02  0.1184000E+00
        -11   -1    0    0    0    0  0.00000000000E+00  0.00000000000E+00  0.45593999997E+02  0.45594000000E+02  0.51100000000E-03 0. -1.
         11   -1    0    0    0    0 -0.00000000000E+00 -0.00000000000E+00 -0.45593999997E+02  0.45594000000E+02  0.51100000000E-03 0.  1.
         23    2    1    2    0    0 -0.35527136788E-14  0.00000000000E+00  0.00000000000E+00  0.91188000000E+02  0.91188000000E+02 0.  0.
    9900012    2    3    3    0    0  0.14006192976E+02 -0.14030207493E+02  0.38608330236E+02  0.47787270426E+02  0.19999997179E+02 0.  0.
        -12    1    3    3    0    0 -0.14006192976E+02  0.14030207493E+02 -0.38608330236E+02  0.43400729574E+02  0.00000000000E+00 0.  1.
         11    1    4    4    0    0 -0.29554017691E+01  0.20379730958E+01  0.37551669479E+01  0.51950950928E+01  0.51100000000E-03 0. -1.
        -11    1    4    4    0    0  0.89121128909E+01 -0.73529284048E+01  0.11006021634E+02  0.15956936572E+02  0.51100000000E-03 0.  1.
         12    1    4    4    0    0  0.80494818546E+01 -0.87152521836E+01  0.23847141654E+02  0.26635238761E+02  0.00000000000E+00 0. -1.
</event>
<event>
 8    1  0.7046575E-011  0.9118800E+02  0.7816164E-02  0.1184000E+00
        -11   -1    0    0    0    0  0.00000000000E+00  0.00000000000E+00  0.45593999997E+02  0.45594000000E+02  0.51100000000E-03 0. -1.
         11   -1    0    0    0    0 -0.00000000000E+00 -0.00000000000E+00 -0.45593999997E+02  0.45594000000E+02  0.51100000000E-03 0.  1.
         23    2    1    2    0    0 -0.17763568394E-14  0.35527136788E-14 -0.35527136788E-14  0.91188000000E+02  0.91188000000E+02 0.  0.
    9900012    2    3    3    0    0 -0.87502658799E+01  0.31600110504E+02 -0.28433954200E+02  0.47787263966E+02  0.19999967727E+02 0.  0.
         12    1    3    3    0    0  0.87502658799E+01 -0.31600110504E+02  0.28433954200E+02  0.43400736034E+02  0.00000000000E+00 0. -1.
         11    1    4    4    0    0 -0.90150502544E+01  0.81847790925E+01 -0.16894475607E+02  0.20825106150E+02  0.51100000000E-03 0. -1.
        -11    1    4    4    0    0 -0.30342406492E+01  0.13842277665E+02 -0.77423490878E+01  0.16148041272E+02  0.51100000000E-03 0.  1.
         12    1    4    4    0    0  0.32990250237E+01  0.95730537465E+01 -0.37971295056E+01  0.10814116544E+02  0.00000000000E+00 0. -1.
</event>
<event>
 8    1  0.6524083E-011  0.9118800E+02  0.7816164E-02  0.1184000E+00
        -11   -1    0    0    0    0  0.00000000000E+00  0.00000000000E+00  0.45593999997E+02  0.45594000000E+02  0.51100000000E-03 0. -1.
         11   -1    0    0    0    0 -0.00000000000E+00 -0.00000000000E+00 -0.45593999997E+02  0.45594000000E+02  0.51100000000E-03 0.  1.
         23    2    1    2    0    0  0.35527136788E-14 -0.35527136788E-14  0.00000000000E+00  0.91188000000E+02  0.91188000000E+02 0.  0.
    9900012    2    3    3    0    0 -0.23661312193E+02  0.29116309346E+02  0.21817571302E+02  0.47787267493E+02  0.19999983806E+02 0.  0.
        -12    1    3    3    0    0  0.23661312193E+02 -0.29116309346E+02 -0.21817571302E+02  0.43400732507E+02  0.00000000000E+00 0.  1.
         11    1    4    4    0    0  0.13093169683E+01 -0.40073499975E+00  0.23872939705E+01  0.27521032369E+01  0.51100000000E-03 0. -1.
        -11    1    4    4    0    0 -0.23151425691E+02  0.23016595559E+02  0.11479436319E+02  0.34605341222E+02  0.51100000000E-03 0.  1.
         12    1    4    4    0    0 -0.18192034703E+01  0.65004487873E+01  0.79508410127E+01  0.10429823034E+02  0.00000000000E+00 0. -1.
</event>
<event>
 8    1  0.6524083E-011  0.9118800E+02  0.7816164E-02  0.1184000E+00
        -11   -1    0    0    0    0  0.00000000000E+00  0.00000000000E+00  0.45593999997E+02  0.45594000000E+02  0.51100000000E-03 0. -1.
         11   -1    0    0    0    0 -0.00000000000E+00 -0.00000000000E+00 -0.45593999997E+02  0.45594000000E+02  0.51100000000E-03 0.  1.
         23    2    1    2    0    0  0.00000000000E+00  0.22204460493E-15  0.00000000000E+00  0.91188000000E+02  0.91188000000E+02 0.  0.
    9900012    2    3    3    0    0  0.17316663568E+02 -0.17020308489E+01  0.39760025201E+02  0.47787270166E+02  0.19999995997E+02 0.  0.
        -12    1    3    3    0    0 -0.17316663568E+02  0.17020308489E+01 -0.39760025201E+02  0.43400729834E+02  0.00000000000E+00 0.  1.
         11    1    4    4    0    0  0.38324418646E+01 -0.40713572267E+01  0.24692246139E+02  0.25317396785E+02  0.51100000000E-03 0. -1.
        -11    1    4    4    0    0  0.50812516177E+01  0.16256418709E+00  0.12368089982E+02  0.13372179896E+02  0.51100000000E-03 0.  1.
        -12    1    4    4    0    0  0.84029700856E+01  0.22067621907E+01  0.26996890797E+01  0.90976934853E+01  0.00000000000E+00 0.  1.
</event>
<event>
 8    1  0.6524083E-011  0.9118800E+02  0.7816164E-02  0.1184000E+00
        -11   -1    0    0    0    0  0.00000000000E+00  0.00000000000E+00  0.45593999997E+02  0.45594000000E+02  0.51100000000E-03 0. -1.
         11   -1    0    0    0    0 -0.00000000000E+00 -0.00000000000E+00 -0.45593999997E+02  0.45594000000E+02  0.51100000000E-03 0.  1.
         23    2    1    2    0    0  0.00000000000E+00  0.00000000000E+00  0.00000000000E+00  0.91188000000E+02  0.91188000000E+02 0.  0.
    9900012    2    3    3    0    0 -0.41930593192E+02 -0.90933137024E+01 -0.65391392769E+01  0.47787270259E+02  0.19999996420E+02 0.  0.
         12    1    3    3    0    0  0.41930593192E+02  0.90933137024E+01  0.65391392769E+01  0.43400729741E+02  0.00000000000E+00 0. -1.
         11    1    4    4    0    0 -0.23489520761E+01 -0.19637862729E+01  0.45672845932E+00  0.30955829060E+01  0.51100000000E-03 0. -1.
        -11    1    4    4    0    0 -0.12716740076E+02 -0.10905405420E+02 -0.32938722126E+00  0.16755651039E+02  0.51100000000E-03 0.  1.
        -12    1    4    4    0    0 -0.26864901040E+02  0.37758779906E+01 -0.66664805150E+01  0.27936036314E+02  0.00000000000E+00 0.  1.
</event>
<event>
 8    1  0.6524083E-011  0.9118800E+02  0.7816164E-02  0.1184000E+00
        -11   -1    0    0    0    0  0.00000000000E+00  0.00000000000E+00  0.45593999997E+02  0.45594000000E+02  0.51100000000E-03 0. -1.
         11   -1    0    0    0    0 -0.00000000000E+00 -0.00000000000E+00 -0.45593999997E+02  0.45594000000E+02  0.51100000000E-03 0.  1.
         23    2    1    2    0    0 -0.35527136788E-14  0.00000000000E+00 -0.71054273576E-14  0.91188000000E+02  0.91188000000E+02 0.  0.
    9900012    2    3    3    0    0 -0.14628775238E+02 -0.27836891994E+02 -0.29912041489E+02  0.47787264443E+02  0.19999969902E+02 0.  0.
         12    1    3    3    0    0  0.14628775238E+02  0.27836891994E+02  0.29912041489E+02  0.43400735557E+02  0.00000000000E+00 0. -1.
         11    1    4    4    0    0  0.20009415364E+01 -0.90572076801E+00  0.81887031230E-01  0.21979087535E+01  0.51100000000E-03 0. -1.
        -11    1    4    4    0    0 -0.82748601298E+01 -0.23375348708E+02 -0.18478424437E+02  0.30924624611E+02  0.51100000000E-03 0.  1.
        -12    1    4    4    0    0 -0.83548566445E+01 -0.35558225179E+01 -0.11515504083E+02  0.14664731079E+02  0.00000000000E+00 0.  1.
</event>
<event>
 8    1  0.6524083E-011  0.9118800E+02  0.7816164E-02  0.1184000E+00
        -11   -1    0    0    0    0  0.00000000000E+00  0.00000000000E+00  0.45593999997E+02  0.45594000000E+02  0.51100000000E-03 0.  1.
         11   -1    0    0    0    0 -0.00000000000E+00 -0.00000000000E+00 -0.45593999997E+02  0.45594000000E+02  0.51100000000E-03 0. -1.
         23    2    1    2    0    0  0.00000000000E+00 -0.35527136788E-14  0.00000000000E+00  0.91188000000E+02  0.91188000000E+02 0.  0.
    9900012    2    3    3    0    0 -0.30745531634E+02 -0.30614468361E+02 -0.10443806253E+01  0.47787261304E+02  0.19999955589E+02 0.  0.
         12    1    3    3    0    0  0.30745531634E+02  0.30614468361E+02  0.10443806253E+01  0.43400738696E+02  0.00000000000E+00 0. -1.
         11    1    4    4    0    0 -0.19714039795E+01 -0.11763759025E+02  0.45044537905E+01  0.12750002520E+02  0.51100000000E-03 0.  1.
        -11    1    4    4    0    0 -0.11625536614E+02 -0.68731758048E+01 -0.38892480559E+01  0.14054177241E+02  0.51100000000E-03 0. -1.
        -12    1    4    4    0    0 -0.17148591040E+02 -0.11977533531E+02 -0.16595863598E+01  0.20983081543E+02  0.00000000000E+00 0.  1.
</event>
<event>
 8    1  0.6524083E-011  0.9118800E+02  0.7816164E-02  0.1184000E+00
        -11   -1    0    0    0    0  0.00000000000E+00  0.00000000000E+00  0.45593999997E+02  0.45594000000E+02  0.51100000000E-03 0. -1.
         11   -1    0    0    0    0 -0.00000000000E+00 -0.00000000000E+00 -0.45593999997E+02  0.45594000000E+02  0.51100000000E-03 0.  1.
         23    2    1    2    0    0  0.00000000000E+00  0.88817841970E-15  0.00000000000E+00  0.91188000000E+02  0.91188000000E+02 0.  0.
    9900012    2    3    3    0    0 -0.27509594898E+02 -0.72216617995E+01 -0.32782509356E+02  0.47787272699E+02  0.20000007542E+02 0.  0.
         12    1    3    3    0    0  0.27509594898E+02  0.72216617995E+01  0.32782509356E+02  0.43400727301E+02  0.00000000000E+00 0. -1.
         11    1    4    4    0    0 -0.20210518832E+02 -0.72906557819E+01 -0.12126862496E+02  0.24671431403E+02  0.51100000000E-03 0. -1.
        -11    1    4    4    0    0  0.44673531640E+00 -0.22468138634E+01 -0.47422337921E+01  0.52665478807E+01  0.51100000000E-03 0.  1.
         12    1    4    4    0    0 -0.77458113818E+01  0.23158078458E+01 -0.15913413068E+02  0.17849293415E+02  0.00000000000E+00 0. -1.
</event>
<event>
 8    1  0.6524083E-011  0.9118800E+02  0.7816164E-02  0.1184000E+00
        -11   -1    0    0    0    0  0.00000000000E+00  0.00000000000E+00  0.45593999997E+02  0.45594000000E+02  0.51100000000E-03 0. -1.
         11   -1    0    0    0    0 -0.00000000000E+00 -0.00000000000E+00 -0.45593999997E+02  0.45594000000E+02  0.51100000000E-03 0.  1.
         23    2    1    2    0    0  0.00000000000E+00 -0.44408920985E-15  0.00000000000E+00  0.91188000000E+02  0.91188000000E+02 0.  0.
    9900012    2    3    3    0    0 -0.34832939504E+02  0.34154745740E+01  0.25663707863E+02  0.47787250671E+02  0.19999907110E+02 0.  0.
        -12    1    3    3    0    0  0.34832939504E+02 -0.34154745740E+01 -0.25663707863E+02  0.43400749329E+02  0.00000000000E+00 0.  1.
         11    1    4    4    0    0 -0.71083033728E+01 -0.14977707879E+01  0.43409513135E+01  0.84625736475E+01  0.51100000000E-03 0. -1.
        -11    1    4    4    0    0  0.39691165305E+00 -0.22100703504E+01 -0.12477780746E+01  0.25688324582E+01  0.51100000000E-03 0.  1.
        -12    1    4    4    0    0 -0.28121547784E+02  0.71233157123E+01  0.22570534624E+02  0.36755844565E+02  0.00000000000E+00 0.  1.
</event>
<event>
 8    1  0.6524083E-011  0.9118800E+02  0.7816164E-02  0.1184000E+00
        -11   -1    0    0    0    0  0.00000000000E+00  0.00000000000E+00  0.45593999997E+02  0.45594000000E+02  0.51100000000E-03 0. -1.
         11   -1    0    0    0    0 -0.00000000000E+00 -0.00000000000E+00 -0.45593999997E+02  0.45594000000E+02  0.51100000000E-03 0.  1.
         23    2    1    2    0    0  0.00000000000E+00  0.17763568394E-14  0.00000000000E+00  0.91188000000E+02  0.91188000000E+02 0.  0.
    9900012    2    3    3    0    0 -0.86810416355E+01  0.12727354396E+02  0.40574339516E+02  0.47787273498E+02  0.20000011186E+02 0.  0.
        -12    1    3    3    0    0  0.86810416355E+01 -0.12727354396E+02 -0.40574339516E+02  0.43400726502E+02  0.00000000000E+00 0.  1.
         11    1    4    4    0    0  0.18020072717E+01  0.47516931093E+00  0.12127786376E+02  0.12270135237E+02  0.51100000000E-03 0. -1.
        -11    1    4    4    0    0 -0.89061196121E+01  0.13870040040E+02  0.28845561763E+02  0.33222935014E+02  0.51100000000E-03 0.  1.
        -12    1    4    4    0    0 -0.15769292951E+01 -0.16178549552E+01 -0.39900862338E+00  0.22942032471E+01  0.00000000000E+00 0.  1.
</event>
<event>
 8    1  0.6524083E-011  0.9118800E+02  0.7816164E-02  0.1184000E+00
        -11   -1    0    0    0    0  0.00000000000E+00  0.00000000000E+00  0.45593999997E+02  0.45594000000E+02  0.51100000000E-03 0. -1.
         11   -1    0    0    0    0 -0.00000000000E+00 -0.00000000000E+00 -0.45593999997E+02  0.45594000000E+02  0.51100000000E-03 0.  1.
         23    2    1    2    0    0  0.00000000000E+00  0.00000000000E+00  0.35527136788E-14  0.91188000000E+02  0.91188000000E+02 0.  0.
    9900012    2    3    3    0    0 -0.31544106434E+02  0.10529387872E+02  0.27887714268E+02  0.47787271126E+02  0.20000000374E+02 0.  0.
        -12    1    3    3    0    0  0.31544106434E+02 -0.10529387872E+02 -0.27887714268E+02  0.43400728874E+02  0.00000000000E+00 0.  1.
         11    1    4    4    0    0 -0.20624405695E+02  0.97237118286E+01  0.14570759461E+02  0.27059632546E+02  0.51100000000E-03 0. -1.
        -11    1    4    4    0    0 -0.53032000219E+01  0.37249518430E+01  0.12836365798E+02  0.14379550892E+02  0.51100000000E-03 0.  1.
        -12    1    4    4    0    0 -0.56165007172E+01 -0.29192757998E+01  0.48058900911E+00  0.63480876882E+01  0.00000000000E+00 0.  1.
</event>
<event>
 8    1  0.6524083E-011  0.9118800E+02  0.7816164E-02  0.1184000E+00
        -11   -1    0    0    0    0  0.00000000000E+00  0.00000000000E+00  0.45593999997E+02  0.45594000000E+02  0.51100000000E-03 0. -1.
         11   -1    0    0    0    0 -0.00000000000E+00 -0.00000000000E+00 -0.45593999997E+02  0.45594000000E+02  0.51100000000E-03 0.  1.
         23    2    1    2    0    0  0.00000000000E+00  0.88817841970E-15  0.00000000000E+00  0.91188000000E+02  0.91188000000E+02 0.  0.
    9900012    2    3    3    0    0  0.22426072566E+02  0.53397604046E+01 -0.36772010023E+02  0.47787280040E+02  0.20000041014E+02 0.  0.
         12    1    3    3    0    0 -0.22426072566E+02 -0.53397604046E+01  0.36772010023E+02  0.43400719960E+02  0.00000000000E+00 0. -1.
         11    1    4    4    0    0  0.51652240363E+01 -0.25219630316E+01 -0.20355131297E+02  0.21151151441E+02  0.51100000000E-03 0. -1.
        -11    1    4    4    0    0  0.45247070388E+01  0.64185686562E+01 -0.84914461146E+01  0.11566142605E+02  0.51100000000E-03 0.  1.
        -12    1    4    4    0    0  0.12736141491E+02  0.14431547801E+01 -0.79254326110E+01  0.15069985994E+02  0.00000000000E+00 0.  1.
</event>
<event>
 8    1  0.6524083E-011  0.9118800E+02  0.7816164E-02  0.1184000E+00
        -11   -1    0    0    0    0  0.00000000000E+00  0.00000000000E+00  0.45593999997E+02  0.45594000000E+02  0.51100000000E-03 0. -1.
         11   -1    0    0    0    0 -0.00000000000E+00 -0.00000000000E+00 -0.45593999997E+02  0.45594000000E+02  0.51100000000E-03 0.  1.
         23    2    1    2    0    0  0.00000000000E+00  0.00000000000E+00  0.17763568394E-14  0.91188000000E+02  0.91188000000E+02 0.  0.
    9900012    2    3    3    0    0  0.40709418782E+02  0.11375152511E+02  0.98474650247E+01  0.47787269135E+02  0.19999991296E+02 0.  0.
        -12    1    3    3    0    0 -0.40709418782E+02 -0.11375152511E+02 -0.98474650247E+01  0.43400730865E+02  0.00000000000E+00 0.  1.
         11    1    4    4    0    0  0.15308155111E+02  0.66416497157E+01  0.10263032795E+02  0.19590328386E+02  0.51100000000E-03 0. -1.
        -11    1    4    4    0    0  0.25989374848E+02  0.41028937847E+01  0.12291017656E+01  0.26339932304E+02  0.51100000000E-03 0.  1.
         12    1    4    4    0    0 -0.58811117731E+00  0.63060901021E+00 -0.16446695363E+01  0.18570084449E+01  0.00000000000E+00 0. -1.
</event>
<event>
 8    1  0.6524083E-011  0.9118800E+02  0.7816164E-02  0.1184000E+00
        -11   -1    0    0    0    0  0.00000000000E+00  0.00000000000E+00  0.45593999997E+02  0.45594000000E+02  0.51100000000E-03 0. -1.
         11   -1    0    0    0    0 -0.00000000000E+00 -0.00000000000E+00 -0.45593999997E+02  0.45594000000E+02  0.51100000000E-03 0.  1.
         23    2    1    2    0    0  0.00000000000E+00  0.00000000000E+00 -0.35527136788E-14  0.91188000000E+02  0.91188000000E+02 0.  0.
    9900012    2    3    3    0    0 -0.35013544263E+02  0.45244736384E+01 -0.25242903480E+02  0.47787270517E+02  0.19999997596E+02 0.  0.
         12    1    3    3    0    0  0.35013544263E+02 -0.45244736384E+01  0.25242903480E+02  0.43400729483E+02  0.00000000000E+00 0. -1.
         11    1    4    4    0    0 -0.41173031344E+01  0.20168994870E+01 -0.76122416990E+01  0.88862980248E+01  0.51100000000E-03 0. -1.
        -11    1    4    4    0    0 -0.29582762159E+02 -0.22959805817E+01 -0.15603034741E+02  0.33524111281E+02  0.51100000000E-03 0.  1.
         12    1    4    4    0    0 -0.13134789695E+01  0.48035547331E+01 -0.20276270402E+01  0.53768612118E+01  0.00000000000E+00 0. -1.
</event>
<event>
 8    1  0.6524083E-011  0.9118800E+02  0.7816164E-02  0.1184000E+00
        -11   -1    0    0    0    0  0.00000000000E+00  0.00000000000E+00  0.45593999997E+02  0.45594000000E+02  0.51100000000E-03 0. -1.
         11   -1    0    0    0    0 -0.00000000000E+00 -0.00000000000E+00 -0.45593999997E+02  0.45594000000E+02  0.51100000000E-03 0.  1.
         23    2    1    2    0    0  0.00000000000E+00  0.00000000000E+00 -0.35527136788E-14  0.91188000000E+02  0.91188000000E+02 0.  0.
    9900012    2    3    3    0    0  0.20405626113E+02  0.23138636104E+02  0.30526007956E+02  0.47787271670E+02  0.20000002852E+02 0.  0.
        -12    1    3    3    0    0 -0.20405626113E+02 -0.23138636104E+02 -0.30526007956E+02  0.43400728330E+02  0.00000000000E+00 0.  1.
         11    1    4    4    0    0  0.50556700374E+01  0.77165740939E+01  0.15761691229E+02  0.18262974181E+02  0.51100000000E-03 0. -1.
        -11    1    4    4    0    0  0.14060522690E+02  0.13224875333E+02  0.17306630696E+02  0.25925182588E+02  0.51100000000E-03 0.  1.
        -12    1    4    4    0    0  0.12894333855E+01  0.21971866773E+01 -0.25423139695E+01  0.35991149009E+01  0.00000000000E+00 0.  1.
</event>
<event>
 8    1  0.6524083E-011  0.9118800E+02  0.7816164E-02  0.1184000E+00
        -11   -1    0    0    0    0  0.00000000000E+00  0.00000000000E+00  0.45593999997E+02  0.45594000000E+02  0.51100000000E-03 0. -1.
         11   -1    0    0    0    0 -0.00000000000E+00 -0.00000000000E+00 -0.45593999997E+02  0.45594000000E+02  0.51100000000E-03 0.  1.
         23    2    1    2    0    0  0.00000000000E+00  0.35527136788E-14 -0.71054273576E-14  0.91188000000E+02  0.91188000000E+02 0.  0.
    9900012    2    3    3    0    0  0.11530399477E+02 -0.26698480118E+02  0.32215894139E+02  0.47787276644E+02  0.20000025530E+02 0.  0.
        -12    1    3    3    0    0 -0.11530399477E+02  0.26698480118E+02 -0.32215894139E+02  0.43400723356E+02  0.00000000000E+00 0.  1.
         11    1    4    4    0    0  0.13332544233E+02 -0.18356150505E+02  0.24650414935E+02  0.33501461965E+02  0.51100000000E-03 0. -1.
        -11    1    4    4    0    0 -0.30397642285E+01 -0.87218619840E+01  0.86064660791E+01  0.12624670359E+02  0.51100000000E-03 0.  1.
        -12    1    4    4    0    0  0.12376194718E+01  0.37953237141E+00 -0.10409868750E+01  0.16611443200E+01  0.00000000000E+00 0.  1.
</event>
<event>
 8    1  0.6524083E-011  0.9118800E+02  0.7816164E-02  0.1184000E+00
        -11   -1    0    0    0    0  0.00000000000E+00  0.00000000000E+00  0.45593999997E+02  0.45594000000E+02  0.51100000000E-03 0. -1.
         11   -1    0    0    0    0 -0.00000000000E+00 -0.00000000000E+00 -0.45593999997E+02  0.45594000000E+02  0.51100000000E-03 0.  1.
         23    2    1    2    0    0 -0.44408920985E-15  0.00000000000E+00  0.00000000000E+00  0.91188000000E+02  0.91188000000E+02 0.  0.
    9900012    2    3    3    0    0 -0.20597133030E+01 -0.10952436712E+02  0.41945500548E+02  0.47787270685E+02  0.19999998362E+02 0.  0.
        -12    1    3    3    0    0  0.20597133030E+01  0.10952436712E+02 -0.41945500548E+02  0.43400729315E+02  0.00000000000E+00 0.  1.
         11    1    4    4    0    0 -0.50407571177E+00  0.35189653381E+01  0.49178570546E+01  0.60681568573E+01  0.51100000000E-03 0. -1.
        -11    1    4    4    0    0 -0.51934971650E+00 -0.91588558696E+01  0.79410964208E+01  0.12133234424E+02  0.51100000000E-03 0.  1.
        -12    1    4    4    0    0 -0.10362878747E+01 -0.53125461808E+01  0.29086547073E+02  0.29585879404E+02  0.00000000000E+00 0.  1.
</event>
<event>
 8    1  0.6524083E-011  0.9118800E+02  0.7816164E-02  0.1184000E+00
        -11   -1    0    0    0    0  0.00000000000E+00  0.00000000000E+00  0.45593999997E+02  0.45594000000E+02  0.51100000000E-03 0. -1.
         11   -1    0    0    0    0 -0.00000000000E+00 -0.00000000000E+00 -0.45593999997E+02  0.45594000000E+02  0.51100000000E-03 0.  1.
         23    2    1    2    0    0  0.35527136788E-14  0.00000000000E+00  0.00000000000E+00  0.91188000000E+02  0.91188000000E+02 0.  0.
    9900012    2    3    3    0    0 -0.26139869001E+02  0.18348966300E+02  0.29387842388E+02  0.47787278855E+02  0.20000035611E+02 0.  0.
        -12    1    3    3    0    0  0.26139869001E+02 -0.18348966300E+02 -0.29387842388E+02  0.43400721145E+02  0.00000000000E+00 0.  1.
         11    1    4    4    0    0 -0.25765577718E+02  0.16040772710E+02  0.23663518599E+02  0.38485497230E+02  0.51100000000E-03 0. -1.
        -11    1    4    4    0    0  0.77371980578E+00  0.36098794813E+01  0.41397768776E+00  0.37150033640E+01  0.51100000000E-03 0.  1.
        -12    1    4    4    0    0 -0.11480110889E+01 -0.13016858911E+01  0.53103461019E+01  0.55867782613E+01  0.00000000000E+00 0.  1.
</event>
<event>
 8    1  0.6524083E-011  0.9118800E+02  0.7816164E-02  0.1184000E+00
        -11   -1    0    0    0    0  0.00000000000E+00  0.00000000000E+00  0.45593999997E+02  0.45594000000E+02  0.51100000000E-03 0. -1.
         11   -1    0    0    0    0 -0.00000000000E+00 -0.00000000000E+00 -0.45593999997E+02  0.45594000000E+02  0.51100000000E-03 0.  1.
         23    2    1    2    0    0  0.00000000000E+00  0.00000000000E+00  0.00000000000E+00  0.91188000000E+02  0.91188000000E+02 0.  0.
    9900012    2    3    3    0    0 -0.15035255518E+02 -0.35188493562E+02 -0.20477653728E+02  0.47787270860E+02  0.19999999159E+02 0.  0.
         12    1    3    3    0    0  0.15035255518E+02  0.35188493562E+02  0.20477653728E+02  0.43400729140E+02  0.00000000000E+00 0. -1.
         11    1    4    4    0    0 -0.63750916749E+01 -0.30957866415E+01 -0.17740012534E+01  0.73056669443E+01  0.51100000000E-03 0. -1.
        -11    1    4    4    0    0 -0.65066495181E+00 -0.15256966547E+02 -0.19108503055E+01  0.15389923400E+02  0.51100000000E-03 0.  1.
         12    1    4    4    0    0 -0.80094988916E+01 -0.16835740373E+02 -0.16792802169E+02  0.25091680516E+02  0.00000000000E+00 0. -1.
</event>
<event>
 8    1  0.6524083E-011  0.9118800E+02  0.7816164E-02  0.1184000E+00
        -11   -1    0    0    0    0  0.00000000000E+00  0.00000000000E+00  0.45593999997E+02  0.45594000000E+02  0.51100000000E-03 0. -1.
         11   -1    0    0    0    0 -0.00000000000E+00 -0.00000000000E+00 -0.45593999997E+02  0.45594000000E+02  0.51100000000E-03 0.  1.
         23    2    1    2    0    0  0.00000000000E+00  0.00000000000E+00  0.35527136788E-14  0.91188000000E+02  0.91188000000E+02 0.  0.
    9900012    2    3    3    0    0  0.15730989506E+02 -0.35885952377E+02  0.18664348456E+02  0.47787268300E+02  0.19999987485E+02 0.  0.
        -12    1    3    3    0    0 -0.15730989506E+02  0.35885952377E+02 -0.18664348456E+02  0.43400731700E+02  0.00000000000E+00 0.  1.
         11    1    4    4    0    0 -0.72508854326E+00 -0.10995279627E+02 -0.14026311194E+01  0.11108073721E+02  0.51100000000E-03 0. -1.
        -11    1    4    4    0    0  0.96130993740E+01 -0.13285322226E+02  0.67426256262E+01  0.17730608191E+02  0.51100000000E-03 0.  1.
         12    1    4    4    0    0  0.68429786753E+01 -0.11605350524E+02  0.13324353949E+02  0.18948586388E+02  0.00000000000E+00 0. -1.
</event>
<event>
 8    1  0.6524083E-011  0.9118800E+02  0.7816164E-02  0.1184000E+00
        -11   -1    0    0    0    0  0.00000000000E+00  0.00000000000E+00  0.45593999997E+02  0.45594000000E+02  0.51100000000E-03 0. -1.
         11   -1    0    0    0    0 -0.00000000000E+00 -0.00000000000E+00 -0.45593999997E+02  0.45594000000E+02  0.51100000000E-03 0.  1.
         23    2    1    2    0    0  0.35527136788E-14  0.17763568394E-14  0.00000000000E+00  0.91188000000E+02  0.91188000000E+02 0.  0.
    9900012    2    3    3    0    0  0.23928073293E+02  0.12881570746E+02 -0.33839862678E+02  0.47787264263E+02  0.19999969083E+02 0.  0.
         12    1    3    3    0    0 -0.23928073293E+02 -0.12881570746E+02  0.33839862678E+02  0.43400735737E+02  0.00000000000E+00 0. -1.
         11    1    4    4    0    0  0.97811801909E+01  0.56520047823E+01 -0.29281311803E+01  0.11670072684E+02  0.51100000000E-03 0. -1.
        -11    1    4    4    0    0 -0.13577516715E+01  0.97308155963E+00 -0.50729448944E+01  0.53408938845E+01  0.51100000000E-03 0.  1.
         12    1    4    4    0    0  0.15504644774E+02  0.62564844042E+01 -0.25838786603E+02  0.30776297695E+02  0.00000000000E+00 0. -1.
</event>
<event>
 8    1  0.6524083E-011  0.9118800E+02  0.7816164E-02  0.1184000E+00
        -11   -1    0    0    0    0  0.00000000000E+00  0.00000000000E+00  0.45593999997E+02  0.45594000000E+02  0.51100000000E-03 0. -1.
         11   -1    0    0    0    0 -0.00000000000E+00 -0.00000000000E+00 -0.45593999997E+02  0.45594000000E+02  0.51100000000E-03 0.  1.
         23    2    1    2    0    0  0.00000000000E+00  0.71054273576E-14  0.00000000000E+00  0.91188000000E+02  0.91188000000E+02 0.  0.
    9900012    2    3    3    0    0 -0.16483861570E+02 -0.36362362575E+02 -0.17020109568E+02  0.47787271504E+02  0.20000002094E+02 0.  0.
         12    1    3    3    0    0  0.16483861570E+02  0.36362362575E+02  0.17020109568E+02  0.43400728496E+02  0.00000000000E+00 0. -1.
         11    1    4    4    0    0 -0.34991106658E+01 -0.23545827516E+02 -0.32175876353E+01  0.24020879237E+02  0.51100000000E-03 0. -1.
        -11    1    4    4    0    0 -0.85754978478E+01 -0.10409672207E+02 -0.66801697455E+01  0.15050751041E+02  0.51100000000E-03 0.  1.
         12    1    4    4    0    0 -0.44092530560E+01 -0.24068628517E+01 -0.71223521871E+01  0.87156412257E+01  0.00000000000E+00 0. -1.
</event>
<event>
 8    1  0.6524083E-011  0.9118800E+02  0.7816164E-02  0.1184000E+00
        -11   -1    0    0    0    0  0.00000000000E+00  0.00000000000E+00  0.45593999997E+02  0.45594000000E+02  0.51100000000E-03 0. -1.
         11   -1    0    0    0    0 -0.00000000000E+00 -0.00000000000E+00 -0.45593999997E+02  0.45594000000E+02  0.51100000000E-03 0.  1.
         23    2    1    2    0    0  0.00000000000E+00 -0.35527136788E-14  0.35527136788E-14  0.91188000000E+02  0.91188000000E+02 0.  0.
    9900012    2    3    3    0    0 -0.24065051277E+02  0.25357991635E+02 -0.25719035029E+02  0.47787271947E+02  0.20000004115E+02 0.  0.
         12    1    3    3    0    0  0.24065051277E+02 -0.25357991635E+02  0.25719035029E+02  0.43400728053E+02  0.00000000000E+00 0. -1.
         11    1    4    4    0    0 -0.11119867420E+02  0.78729512706E+01 -0.73432013275E+01  0.15477642558E+02  0.51100000000E-03 0. -1.
        -11    1    4    4    0    0 -0.16160870119E+02  0.13330224189E+02 -0.12364333572E+02  0.24325816428E+02  0.51100000000E-03 0.  1.
        -12    1    4    4    0    0  0.32156862628E+01  0.41548161759E+01 -0.60115001294E+01  0.79838129614E+01  0.00000000000E+00 0.  1.
</event>
<event>
 8    1  0.6524083E-011  0.9118800E+02  0.7816164E-02  0.1184000E+00
        -11   -1    0    0    0    0  0.00000000000E+00  0.00000000000E+00  0.45593999997E+02  0.45594000000E+02  0.51100000000E-03 0. -1.
         11   -1    0    0    0    0 -0.00000000000E+00 -0.00000000000E+00 -0.45593999997E+02  0.45594000000E+02  0.51100000000E-03 0.  1.
         23    2    1    2    0    0  0.00000000000E+00  0.00000000000E+00 -0.71054273576E-14  0.91188000000E+02  0.91188000000E+02 0.  0.
    9900012    2    3    3    0    0  0.12198350997E+02  0.95829031882E+01 -0.40533833565E+02  0.47787268854E+02  0.19999990012E+02 0.  0.
         12    1    3    3    0    0 -0.12198350997E+02 -0.95829031882E+01  0.40533833565E+02  0.43400731146E+02  0.00000000000E+00 0. -1.
         11    1    4    4    0    0  0.96410233148E+01  0.45663152705E+01 -0.11310517375E+02  0.15547616192E+02  0.51100000000E-03 0. -1.
        -11    1    4    4    0    0  0.19179682876E+01 -0.39871572323E+01 -0.12087804853E+02  0.12872103619E+02  0.51100000000E-03 0.  1.
         12    1    4    4    0    0  0.63935939499E+00  0.90037451500E+01 -0.17135511336E+02  0.19367549043E+02  0.00000000000E+00 0. -1.
</event>
<event>
 8    1  0.6524083E-011  0.9118800E+02  0.7816164E-02  0.1184000E+00
        -11   -1    0    0    0    0  0.00000000000E+00  0.00000000000E+00  0.45593999997E+02  0.45594000000E+02  0.51100000000E-03 0. -1.
         11   -1    0    0    0    0 -0.00000000000E+00 -0.00000000000E+00 -0.45593999997E+02  0.45594000000E+02  0.51100000000E-03 0.  1.
         23    2    1    2    0    0 -0.71054273576E-14  0.44408920985E-15 -0.17763568394E-14  0.91188000000E+02  0.91188000000E+02 0.  0.
    9900012    2    3    3    0    0  0.41851500576E+02 -0.34670960516E+01 -0.10956941801E+02  0.47787269256E+02  0.19999991846E+02 0.  0.
         12    1    3    3    0    0 -0.41851500576E+02  0.34670960516E+01  0.10956941801E+02  0.43400730744E+02  0.00000000000E+00 0. -1.
         11    1    4    4    0    0  0.17646479181E+02  0.38176885368E+00 -0.96040158601E+01  0.20094305060E+02  0.51100000000E-03 0. -1.
        -11    1    4    4    0    0  0.12340668967E+02 -0.83659457697E+01 -0.16055623728E+01  0.14995298929E+02  0.51100000000E-03 0.  1.
         12    1    4    4    0    0  0.11864352428E+02  0.45170808644E+01  0.25263643233E+00  0.12697665268E+02  0.00000000000E+00 0. -1.
</event>
<event>
 8    1  0.6524083E-011  0.9118800E+02  0.7816164E-02  0.1184000E+00
        -11   -1    0    0    0    0  0.00000000000E+00  0.00000000000E+00  0.45593999997E+02  0.45594000000E+02  0.51100000000E-03 0. -1.
         11   -1    0    0    0    0 -0.00000000000E+00 -0.00000000000E+00 -0.45593999997E+02  0.45594000000E+02  0.51100000000E-03 0.  1.
         23    2    1    2    0    0 -0.35527136788E-14 -0.35527136788E-14  0.35527136788E-14  0.91188000000E+02  0.91188000000E+02 0.  0.
    9900012    2    3    3    0    0 -0.18360450157E+02 -0.25939500029E+02  0.29557733494E+02  0.47787269580E+02  0.19999993323E+02 0.  0.
        -12    1    3    3    0    0  0.18360450157E+02  0.25939500029E+02 -0.29557733494E+02  0.43400730420E+02  0.00000000000E+00 0.  1.
         11    1    4    4    0    0 -0.15877623683E+02 -0.24522601841E+02  0.23908897652E+02  0.37750394992E+02  0.51100000000E-03 0. -1.
        -11    1    4    4    0    0 -0.42771184064E+01 -0.89185203713E-01  0.63857061220E+01  0.76862825085E+01  0.51100000000E-03 0.  1.
        -12    1    4    4    0    0  0.17942919332E+01 -0.13277129847E+01 -0.73687028085E+00  0.23505920790E+01  0.00000000000E+00 0.  1.
</event>
<event>
 8    1  0.6524083E-011  0.9118800E+02  0.7816164E-02  0.1184000E+00
        -11   -1    0    0    0    0  0.00000000000E+00  0.00000000000E+00  0.45593999997E+02  0.45594000000E+02  0.51100000000E-03 0.  1.
         11   -1    0    0    0    0 -0.00000000000E+00 -0.00000000000E+00 -0.45593999997E+02  0.45594000000E+02  0.51100000000E-03 0. -1.
         23    2    1    2    0    0  0.00000000000E+00  0.00000000000E+00  0.00000000000E+00  0.91188000000E+02  0.91188000000E+02 0.  0.
    9900012    2    3    3    0    0 -0.18719753756E+02 -0.24982336348E+02  0.30150869163E+02  0.47787294691E+02  0.20000107813E+02 0.  0.
        -12    1    3    3    0    0  0.18719753756E+02  0.24982336348E+02 -0.30150869163E+02  0.43400705309E+02  0.00000000000E+00 0.  1.
         11    1    4    4    0    0 -0.83137689964E+01 -0.14380357940E+02  0.84531269016E+01  0.18637832601E+02  0.51100000000E-03 0. -1.
        -11    1    4    4    0    0 -0.20716656211E+01 -0.76421694063E+01  0.30032368479E+01  0.84684109197E+01  0.51100000000E-03 0.  1.
        -12    1    4    4    0    0 -0.83343191381E+01 -0.29598090015E+01  0.18694505413E+02  0.20681051170E+02  0.00000000000E+00 0.  1.
</event>
<event>
 8    1  0.6524083E-011  0.9118800E+02  0.7816164E-02  0.1184000E+00
        -11   -1    0    0    0    0  0.00000000000E+00  0.00000000000E+00  0.45593999997E+02  0.45594000000E+02  0.51100000000E-03 0. -1.
         11   -1    0    0    0    0 -0.00000000000E+00 -0.00000000000E+00 -0.45593999997E+02  0.45594000000E+02  0.51100000000E-03 0.  1.
         23    2    1    2    0    0  0.00000000000E+00  0.00000000000E+00  0.00000000000E+00  0.91188000000E+02  0.91188000000E+02 0.  0.
    9900012    2    3    3    0    0  0.18609978576E+02  0.37795121053E+02 -0.10431716167E+02  0.47787272124E+02  0.20000004922E+02 0.  0.
         12    1    3    3    0    0 -0.18609978576E+02 -0.37795121053E+02  0.10431716167E+02  0.43400727876E+02  0.00000000000E+00 0. -1.
         11    1    4    4    0    0  0.62393652048E+01  0.13000441869E+02 -0.63687982558E+01  0.15763970262E+02  0.51100000000E-03 0. -1.
        -11    1    4    4    0    0  0.10233892635E+02  0.25958940102E+02 -0.64233916383E+01  0.28633181626E+02  0.51100000000E-03 0.  1.
         12    1    4    4    0    0  0.21367207367E+01 -0.11642609177E+01  0.23604737276E+01  0.33901202352E+01  0.00000000000E+00 0. -1.
</event>
<event>
 8    1  0.6524083E-011  0.9118800E+02  0.7816164E-02  0.1184000E+00
        -11   -1    0    0    0    0  0.00000000000E+00  0.00000000000E+00  0.45593999997E+02  0.45594000000E+02  0.51100000000E-03 0. -1.
         11   -1    0    0    0    0 -0.00000000000E+00 -0.00000000000E+00 -0.45593999997E+02  0.45594000000E+02  0.51100000000E-03 0.  1.
         23    2    1    2    0    0  0.35527136788E-14  0.00000000000E+00  0.00000000000E+00  0.91188000000E+02  0.91188000000E+02 0.  0.
    9900012    2    3    3    0    0 -0.25290592354E+02 -0.19923834665E+02 -0.29104124799E+02  0.47787270401E+02  0.19999997068E+02 0.  0.
         12    1    3    3    0    0  0.25290592354E+02  0.19923834665E+02  0.29104124799E+02  0.43400729599E+02  0.00000000000E+00 0. -1.
         11    1    4    4    0    0  0.92999582063E+00  0.61684908585E+00 -0.66409470850E+01  0.67340606968E+01  0.51100000000E-03 0. -1.
        -11    1    4    4    0    0 -0.63930892486E+01 -0.10069729713E+02 -0.72844928294E+01  0.13976225623E+02  0.51100000000E-03 0.  1.
        -12    1    4    4    0    0 -0.19827498926E+02 -0.10470954038E+02 -0.15178684885E+02  0.27076984082E+02  0.00000000000E+00 0.  1.
</event>
<event>
 8    1  0.6524083E-011  0.9118800E+02  0.7816164E-02  0.1184000E+00
        -11   -1    0    0    0    0  0.00000000000E+00  0.00000000000E+00  0.45593999997E+02  0.45594000000E+02  0.51100000000E-03 0. -1.
         11   -1    0    0    0    0 -0.00000000000E+00 -0.00000000000E+00 -0.45593999997E+02  0.45594000000E+02  0.51100000000E-03 0.  1.
         23    2    1    2    0    0  0.00000000000E+00 -0.35527136788E-14  0.00000000000E+00  0.91188000000E+02  0.91188000000E+02 0.  0.
    9900012    2    3    3    0    0 -0.16088138278E+02 -0.13044651653E+02 -0.38139632303E+02  0.47787277861E+02  0.20000031077E+02 0.  0.
         12    1    3    3    0    0  0.16088138278E+02  0.13044651653E+02  0.38139632303E+02  0.43400722139E+02  0.00000000000E+00 0. -1.
         11    1    4    4    0    0 -0.82443673096E+01 -0.15884619647E+02 -0.19870373124E+02  0.26741773726E+02  0.51100000000E-03 0. -1.
        -11    1    4    4    0    0 -0.11632263834E+01 -0.18543802559E+01 -0.51077272673E+01  0.55570405659E+01  0.51100000000E-03 0.  1.
        -12    1    4    4    0    0 -0.66805445851E+01  0.46943482503E+01 -0.13161531912E+02  0.15488463569E+02  0.00000000000E+00 0.  1.
</event>
<event>
 8    1  0.6524083E-011  0.9118800E+02  0.7816164E-02  0.1184000E+00
        -11   -1    0    0    0    0  0.00000000000E+00  0.00000000000E+00  0.45593999997E+02  0.45594000000E+02  0.51100000000E-03 0. -1.
         11   -1    0    0    0    0 -0.00000000000E+00 -0.00000000000E+00 -0.45593999997E+02  0.45594000000E+02  0.51100000000E-03 0.  1.
         23    2    1    2    0    0  0.00000000000E+00  0.00000000000E+00  0.00000000000E+00  0.91188000000E+02  0.91188000000E+02 0.  0.
    9900012    2    3    3    0    0 -0.10523511006E+02  0.39200689202E+02 -0.15368340923E+02  0.47787260138E+02  0.19999950275E+02 0.  0.
        -12    1    3    3    0    0  0.10523511006E+02 -0.39200689202E+02  0.15368340923E+02  0.43400739862E+02  0.00000000000E+00 0.  1.
         11    1    4    4    0    0  0.22033491921E+01  0.15345617278E+02 -0.42974379183E+01  0.16087594296E+02  0.51100000000E-03 0. -1.
        -11    1    4    4    0    0 -0.77430129436E+01  0.19093983531E+02 -0.13219064771E+02  0.24480157888E+02  0.51100000000E-03 0.  1.
         12    1    4    4    0    0 -0.49838472542E+01  0.47610883935E+01  0.21481617659E+01  0.72195079552E+01  0.00000000000E+00 0. -1.
</event>
<event>
 8    1  0.6524083E-011  0.9118800E+02  0.7816164E-02  0.1184000E+00
        -11   -1    0    0    0    0  0.00000000000E+00  0.00000000000E+00  0.45593999997E+02  0.45594000000E+02  0.51100000000E-03 0.  1.
         11   -1    0    0    0    0 -0.00000000000E+00 -0.00000000000E+00 -0.45593999997E+02  0.45594000000E+02  0.51100000000E-03 0. -1.
         23    2    1    2    0    0  0.00000000000E+00  0.17763568394E-14  0.00000000000E+00  0.91188000000E+02  0.91188000000E+02 0.  0.
    9900012    2    3    3    0    0  0.41263376953E+02 -0.11031215745E+02  0.76986516042E+01  0.47787271493E+02  0.20000002046E+02 0.  0.
        -12    1    3    3    0    0 -0.41263376953E+02  0.11031215745E+02 -0.76986516042E+01  0.43400728507E+02  0.00000000000E+00 0.  1.
         11    1    4    4    0    0  0.52016697939E+01 -0.23078681000E+01 -0.44603364869E+01  0.72303682928E+01  0.51100000000E-03 0. -1.
        -11    1    4    4    0    0  0.20077287738E+02 -0.99676293351E+01  0.93148948285E+01  0.24273820948E+02  0.51100000000E-03 0.  1.
         12    1    4    4    0    0  0.15984419421E+02  0.12442816899E+01  0.28440932626E+01  0.16283082253E+02  0.00000000000E+00 0. -1.
</event>
<event>
 8    1  0.6524083E-011  0.9118800E+02  0.7816164E-02  0.1184000E+00
        -11   -1    0    0    0    0  0.00000000000E+00  0.00000000000E+00  0.45593999997E+02  0.45594000000E+02  0.51100000000E-03 0. -1.
         11   -1    0    0    0    0 -0.00000000000E+00 -0.00000000000E+00 -0.45593999997E+02  0.45594000000E+02  0.51100000000E-03 0.  1.
         23    2    1    2    0    0 -0.88817841970E-15  0.44408920985E-15  0.00000000000E+00  0.91188000000E+02  0.91188000000E+02 0.  0.
    9900012    2    3    3    0    0  0.57765367823E+01  0.34955699718E+01 -0.42872323932E+02  0.47787267910E+02  0.19999985708E+02 0.  0.
         12    1    3    3    0    0 -0.57765367823E+01 -0.34955699718E+01  0.42872323932E+02  0.43400732090E+02  0.00000000000E+00 0. -1.
         11    1    4    4    0    0  0.46645381133E+00 -0.28668806774E+01 -0.17767116700E+02  0.18002972534E+02  0.51100000000E-03 0.  1.
        -11    1    4    4    0    0 -0.28598208428E+01  0.56719673585E+01 -0.50404702853E+01  0.81090153487E+01  0.51100000000E-03 0. -1.
         12    1    4    4    0    0  0.81699038137E+01  0.69048329077E+00 -0.20064736947E+02  0.21675280027E+02  0.00000000000E+00 0. -1.
</event>
<event>
 8    1  0.6524083E-011  0.9118800E+02  0.7816164E-02  0.1184000E+00
        -11   -1    0    0    0    0  0.00000000000E+00  0.00000000000E+00  0.45593999997E+02  0.45594000000E+02  0.51100000000E-03 0. -1.
         11   -1    0    0    0    0 -0.00000000000E+00 -0.00000000000E+00 -0.45593999997E+02  0.45594000000E+02  0.51100000000E-03 0.  1.
         23    2    1    2    0    0  0.00000000000E+00  0.00000000000E+00  0.00000000000E+00  0.91188000000E+02  0.91188000000E+02 0.  0.
    9900012    2    3    3    0    0  0.14532498402E+02 -0.32096376580E+02  0.25342699910E+02  0.47787270304E+02  0.19999996626E+02 0.  0.
        -12    1    3    3    0    0 -0.14532498402E+02  0.32096376580E+02 -0.25342699910E+02  0.43400729696E+02  0.00000000000E+00 0.  1.
         11    1    4    4    0    0  0.99930624941E+01 -0.10322203250E+02  0.39235242994E+01  0.14893059495E+02  0.51100000000E-03 0. -1.
        -11    1    4    4    0    0 -0.10573325329E+01 -0.78330568492E-01  0.50127521446E+01  0.51236483180E+01  0.51100000000E-03 0.  1.
         12    1    4    4    0    0  0.55967684411E+01 -0.21695842762E+02  0.16406423466E+02  0.27770562491E+02  0.00000000000E+00 0. -1.
</event>
<event>
 8    1  0.6524083E-011  0.9118800E+02  0.7816164E-02  0.1184000E+00
        -11   -1    0    0    0    0  0.00000000000E+00  0.00000000000E+00  0.45593999997E+02  0.45594000000E+02  0.51100000000E-03 0. -1.
         11   -1    0    0    0    0 -0.00000000000E+00 -0.00000000000E+00 -0.45593999997E+02  0.45594000000E+02  0.51100000000E-03 0.  1.
         23    2    1    2    0    0  0.00000000000E+00  0.00000000000E+00  0.00000000000E+00  0.91188000000E+02  0.91188000000E+02 0.  0.
    9900012    2    3    3    0    0  0.34023989213E+02  0.26393563238E+02 -0.54195602136E+01  0.47787266650E+02  0.19999979965E+02 0.  0.
         12    1    3    3    0    0 -0.34023989213E+02 -0.26393563238E+02  0.54195602136E+01  0.43400733350E+02  0.00000000000E+00 0. -1.
         11    1    4    4    0    0  0.20289560943E+02  0.10193841077E+02 -0.29664965390E+01  0.22899362025E+02  0.51100000000E-03 0.  1.
        -11    1    4    4    0    0  0.65315519704E+01  0.85486877085E+01  0.51404256835E+01  0.11923305295E+02  0.51100000000E-03 0. -1.
         12    1    4    4    0    0  0.72028763001E+01  0.76510344521E+01 -0.75934893581E+01  0.12964599331E+02  0.00000000000E+00 0. -1.
</event>
<event>
 8    1  0.6524083E-011  0.9118800E+02  0.7816164E-02  0.1184000E+00
        -11   -1    0    0    0    0  0.00000000000E+00  0.00000000000E+00  0.45593999997E+02  0.45594000000E+02  0.51100000000E-03 0. -1.
         11   -1    0    0    0    0 -0.00000000000E+00 -0.00000000000E+00 -0.45593999997E+02  0.45594000000E+02  0.51100000000E-03 0.  1.
         23    2    1    2    0    0 -0.17763568394E-14  0.00000000000E+00  0.00000000000E+00  0.91188000000E+02  0.91188000000E+02 0.  0.
    9900012    2    3    3    0    0 -0.13108275688E+02 -0.16536739469E+02 -0.37925353759E+02  0.47787273030E+02  0.20000009051E+02 0.  0.
         12    1    3    3    0    0  0.13108275688E+02  0.16536739469E+02  0.37925353759E+02  0.43400726970E+02  0.00000000000E+00 0. -1.
         11    1    4    4    0    0  0.39652284150E+01 -0.44768781631E+01 -0.10857969731E+02  0.12396006672E+02  0.51100000000E-03 0. -1.
        -11    1    4    4    0    0 -0.79930948098E+01 -0.94057924309E+01 -0.20305448151E+02  0.23762780156E+02  0.51100000000E-03 0.  1.
        -12    1    4    4    0    0 -0.90804092929E+01 -0.26540688753E+01 -0.67619358775E+01  0.11628486201E+02  0.00000000000E+00 0.  1.
</event>
<event>
 8    1  0.6524083E-011  0.9118800E+02  0.7816164E-02  0.1184000E+00
        -11   -1    0    0    0    0  0.00000000000E+00  0.00000000000E+00  0.45593999997E+02  0.45594000000E+02  0.51100000000E-03 0. -1.
         11   -1    0    0    0    0 -0.00000000000E+00 -0.00000000000E+00 -0.45593999997E+02  0.45594000000E+02  0.51100000000E-03 0.  1.
         23    2    1    2    0    0  0.00000000000E+00  0.88817841970E-15  0.00000000000E+00  0.91188000000E+02  0.91188000000E+02 0.  0.
    9900012    2    3    3    0    0  0.31862568751E+02 -0.54217335817E+01  0.28965575392E+02  0.47787273736E+02  0.20000012273E+02 0.  0.
        -12    1    3    3    0    0 -0.31862568751E+02  0.54217335817E+01 -0.28965575392E+02  0.43400726264E+02  0.00000000000E+00 0.  1.
         11    1    4    4    0    0  0.14463766885E+01 -0.28385911289E+01  0.25474401668E+01  0.40790999972E+01  0.51100000000E-03 0.  1.
        -11    1    4    4    0    0  0.15233655369E+02 -0.26489132647E+01  0.29256881895E+01  0.15736602207E+02  0.51100000000E-03 0. -1.
         12    1    4    4    0    0  0.15182536694E+02  0.65770811995E-01  0.23492447035E+02  0.27971571532E+02  0.00000000000E+00 0. -1.
</event>
<event>
 8    1  0.6524083E-011  0.9118800E+02  0.7816164E-02  0.1184000E+00
        -11   -1    0    0    0    0  0.00000000000E+00  0.00000000000E+00  0.45593999997E+02  0.45594000000E+02  0.51100000000E-03 0. -1.
         11   -1    0    0    0    0 -0.00000000000E+00 -0.00000000000E+00 -0.45593999997E+02  0.45594000000E+02  0.51100000000E-03 0.  1.
         23    2    1    2    0    0  0.00000000000E+00  0.00000000000E+00  0.00000000000E+00  0.91188000000E+02  0.91188000000E+02 0.  0.
    9900012    2    3    3    0    0  0.35939180350E+02  0.17172654389E+02 -0.17236524761E+02  0.47787279628E+02  0.20000039135E+02 0.  0.
         12    1    3    3    0    0 -0.35939180350E+02 -0.17172654389E+02  0.17236524761E+02  0.43400720372E+02  0.00000000000E+00 0. -1.
         11    1    4    4    0    0  0.34357645987E+01  0.59372835031E+01  0.12596631060E+01  0.69744222109E+01  0.51100000000E-03 0. -1.
        -11    1    4    4    0    0  0.20356593763E+02  0.25275251490E+01 -0.15139875693E+02  0.25495002044E+02  0.51100000000E-03 0.  1.
         12    1    4    4    0    0  0.12146821989E+02  0.87078457366E+01 -0.33563121740E+01  0.15317855373E+02  0.00000000000E+00 0. -1.
</event>
<event>
 8    1  0.6524083E-011  0.9118800E+02  0.7816164E-02  0.1184000E+00
        -11   -1    0    0    0    0  0.00000000000E+00  0.00000000000E+00  0.45593999997E+02  0.45594000000E+02  0.51100000000E-03 0. -1.
         11   -1    0    0    0    0 -0.00000000000E+00 -0.00000000000E+00 -0.45593999997E+02  0.45594000000E+02  0.51100000000E-03 0.  1.
         23    2    1    2    0    0  0.00000000000E+00 -0.88817841970E-15 -0.71054273576E-14  0.91188000000E+02  0.91188000000E+02 0.  0.
    9900012    2    3    3    0    0  0.17417783475E+02  0.54368849069E+01 -0.39378730394E+02  0.47787270673E+02  0.19999998308E+02 0.  0.
         12    1    3    3    0    0 -0.17417783475E+02 -0.54368849069E+01  0.39378730394E+02  0.43400729327E+02  0.00000000000E+00 0. -1.
         11    1    4    4    0    0  0.18033533508E+01 -0.11277971155E+01 -0.62852206638E-01  0.21279004446E+01  0.51100000000E-03 0. -1.
        -11    1    4    4    0    0  0.14268309116E+02  0.81566010467E+01 -0.40173299437E+02  0.43405169894E+02  0.51100000000E-03 0.  1.
        -12    1    4    4    0    0  0.13461210082E+01 -0.15919190244E+01  0.85742124965E+00  0.22542003346E+01  0.00000000000E+00 0.  1.
</event>
<event>
 8    1  0.6524083E-011  0.9118800E+02  0.7816164E-02  0.1184000E+00
        -11   -1    0    0    0    0  0.00000000000E+00  0.00000000000E+00  0.45593999997E+02  0.45594000000E+02  0.51100000000E-03 0. -1.
         11   -1    0    0    0    0 -0.00000000000E+00 -0.00000000000E+00 -0.45593999997E+02  0.45594000000E+02  0.51100000000E-03 0.  1.
         23    2    1    2    0    0 -0.88817841970E-15  0.00000000000E+00  0.00000000000E+00  0.91188000000E+02  0.91188000000E+02 0.  0.
    9900012    2    3    3    0    0 -0.69489822985E+01  0.13478304021E+02 -0.40665345286E+02  0.47787270266E+02  0.19999996450E+02 0.  0.
         12    1    3    3    0    0  0.69489822985E+01 -0.13478304021E+02  0.40665345286E+02  0.43400729734E+02  0.00000000000E+00 0. -1.
         11    1    4    4    0    0 -0.26389273339E+01  0.20261896866E+01 -0.12867201845E+01  0.35672161715E+01  0.51100000000E-03 0. -1.
        -11    1    4    4    0    0  0.40171731852E+01  0.28491911378E+01 -0.25133757948E+02  0.25611742607E+02  0.51100000000E-03 0.  1.
        -12    1    4    4    0    0 -0.83272281497E+01  0.86029231968E+01 -0.14244867153E+02  0.18608311487E+02  0.00000000000E+00 0.  1.
</event>
<event>
 8    1  0.6524083E-011  0.9118800E+02  0.7816164E-02  0.1184000E+00
        -11   -1    0    0    0    0  0.00000000000E+00  0.00000000000E+00  0.45593999997E+02  0.45594000000E+02  0.51100000000E-03 0. -1.
         11   -1    0    0    0    0 -0.00000000000E+00 -0.00000000000E+00 -0.45593999997E+02  0.45594000000E+02  0.51100000000E-03 0.  1.
         23    2    1    2    0    0  0.00000000000E+00  0.00000000000E+00  0.00000000000E+00  0.91188000000E+02  0.91188000000E+02 0.  0.
    9900012    2    3    3    0    0 -0.13109812516E+02 -0.37345781678E+02  0.17805861679E+02  0.47787270703E+02  0.19999998446E+02 0.  0.
        -12    1    3    3    0    0  0.13109812516E+02  0.37345781678E+02 -0.17805861679E+02  0.43400729297E+02  0.00000000000E+00 0.  1.
         11    1    4    4    0    0 -0.26693532552E+00 -0.22802632225E+02  0.79449743123E+01  0.24148579833E+02  0.51100000000E-03 0. -1.
        -11    1    4    4    0    0 -0.35349157819E+01 -0.53673452189E+01  0.82674087310E+01  0.10471584010E+02  0.51100000000E-03 0.  1.
        -12    1    4    4    0    0 -0.93079614090E+01 -0.91758042336E+01  0.15934786359E+01  0.13167106861E+02  0.00000000000E+00 0.  1.
</event>
<event>
 8    1  0.7471994E-011  0.9118800E+02  0.7816164E-02  0.1184000E+00
        -11   -1    0    0    0    0  0.00000000000E+00  0.00000000000E+00  0.45593999997E+02  0.45594000000E+02  0.51100000000E-03 0. -1.
         11   -1    0    0    0    0 -0.00000000000E+00 -0.00000000000E+00 -0.45593999997E+02  0.45594000000E+02  0.51100000000E-03 0.  1.
         23    2    1    2    0    0 -0.44408920985E-15  0.00000000000E+00  0.71054273576E-14  0.91188000000E+02  0.91188000000E+02 0.  0.
    9900012    2    3    3    0    0  0.24929122668E+01 -0.14338429436E+01 -0.43305349959E+02  0.47787264381E+02  0.19999969621E+02 0.  0.
         12    1    3    3    0    0 -0.24929122668E+01  0.14338429436E+01  0.43305349959E+02  0.43400735619E+02  0.00000000000E+00 0. -1.
         11    1    4    4    0    0 -0.16265260896E+01  0.59254822416E+01 -0.29894905861E+02  0.30519867687E+02  0.51100000000E-03 0. -1.
        -11    1    4    4    0    0  0.40091565801E+01 -0.28155491606E+01 -0.11176267548E+02  0.12202852541E+02  0.51100000000E-03 0.  1.
         12    1    4    4    0    0  0.11028177629E+00 -0.45437760246E+01 -0.22341765497E+01  0.50645441539E+01  0.00000000000E+00 0. -1.
</event>
<event>
 8    1  0.6524083E-011  0.9118800E+02  0.7816164E-02  0.1184000E+00
        -11   -1    0    0    0    0  0.00000000000E+00  0.00000000000E+00  0.45593999997E+02  0.45594000000E+02  0.51100000000E-03 0. -1.
         11   -1    0    0    0    0 -0.00000000000E+00 -0.00000000000E+00 -0.45593999997E+02  0.45594000000E+02  0.51100000000E-03 0.  1.
         23    2    1    2    0    0  0.00000000000E+00  0.35527136788E-14  0.00000000000E+00  0.91188000000E+02  0.91188000000E+02 0.  0.
    9900012    2    3    3    0    0  0.37298928372E+02  0.21085693352E+02 -0.69141468395E+01  0.47787286315E+02  0.20000069623E+02 0.  0.
        -12    1    3    3    0    0 -0.37298928372E+02 -0.21085693352E+02  0.69141468395E+01  0.43400713685E+02  0.00000000000E+00 0.  1.
         11    1    4    4    0    0  0.14728387542E+02  0.10929355357E+02  0.43903995599E+01  0.18858733167E+02  0.51100000000E-03 0. -1.
        -11    1    4    4    0    0  0.16460346428E+02  0.11765277120E+02 -0.76594719842E+01  0.21634053286E+02  0.51100000000E-03 0.  1.
        -12    1    4    4    0    0  0.61101944017E+01 -0.16089391247E+01 -0.36450744153E+01  0.72944998613E+01  0.00000000000E+00 0.  1.
</event>
<event>
 8    1  0.6524083E-011  0.9118800E+02  0.7816164E-02  0.1184000E+00
        -11   -1    0    0    0    0  0.00000000000E+00  0.00000000000E+00  0.45593999997E+02  0.45594000000E+02  0.51100000000E-03 0. -1.
         11   -1    0    0    0    0 -0.00000000000E+00 -0.00000000000E+00 -0.45593999997E+02  0.45594000000E+02  0.51100000000E-03 0.  1.
         23    2    1    2    0    0  0.00000000000E+00 -0.44408920985E-15  0.00000000000E+00  0.91188000000E+02  0.91188000000E+02 0.  0.
    9900012    2    3    3    0    0  0.37359276314E+02  0.35799883604E+01 -0.21796590677E+02  0.47787271798E+02  0.20000003435E+02 0.  0.
         12    1    3    3    0    0 -0.37359276314E+02 -0.35799883604E+01  0.21796590677E+02  0.43400728202E+02  0.00000000000E+00 0. -1.
         11    1    4    4    0    0  0.72165770010E+01  0.68454065873E+01 -0.11858715403E+01  0.10017228485E+02  0.51100000000E-03 0. -1.
        -11    1    4    4    0    0  0.84441907938E+01  0.31103700709E+01 -0.50620438507E+01  0.10324875222E+02  0.51100000000E-03 0.  1.
        -12    1    4    4    0    0  0.21698508519E+02 -0.63757882978E+01 -0.15548675286E+02  0.27445168091E+02  0.00000000000E+00 0.  1.
</event>
<event>
 8    1  0.6524083E-011  0.9118800E+02  0.7816164E-02  0.1184000E+00
        -11   -1    0    0    0    0  0.00000000000E+00  0.00000000000E+00  0.45593999997E+02  0.45594000000E+02  0.51100000000E-03 0.  1.
         11   -1    0    0    0    0 -0.00000000000E+00 -0.00000000000E+00 -0.45593999997E+02  0.45594000000E+02  0.51100000000E-03 0. -1.
         23    2    1    2    0    0  0.00000000000E+00  0.00000000000E+00  0.38857805862E-15  0.91188000000E+02  0.91188000000E+02 0.  0.
    9900012    2    3    3    0    0 -0.33016499132E+02  0.28169196110E+02 -0.17585463304E+00  0.47787265568E+02  0.19999975029E+02 0.  0.
        -12    1    3    3    0    0  0.33016499132E+02 -0.28169196110E+02  0.17585463304E+00  0.43400734432E+02  0.00000000000E+00 0.  1.
         11    1    4    4    0    0 -0.96256191282E+01  0.20622069240E+01 -0.63671286009E+01  0.11723718176E+02  0.51100000000E-03 0. -1.
        -11    1    4    4    0    0 -0.11037052852E+02  0.82424304885E+01  0.31609931700E+01  0.14133155136E+02  0.51100000000E-03 0.  1.
         12    1    4    4    0    0 -0.12353827152E+02  0.17864558697E+02  0.30302807978E+01  0.21930392255E+02  0.00000000000E+00 0. -1.
</event>
<event>
 8    1  0.6524083E-011  0.9118800E+02  0.7816164E-02  0.1184000E+00
        -11   -1    0    0    0    0  0.00000000000E+00  0.00000000000E+00  0.45593999997E+02  0.45594000000E+02  0.51100000000E-03 0. -1.
         11   -1    0    0    0    0 -0.00000000000E+00 -0.00000000000E+00 -0.45593999997E+02  0.45594000000E+02  0.51100000000E-03 0.  1.
         23    2    1    2    0    0 -0.35527136788E-14  0.00000000000E+00  0.00000000000E+00  0.91188000000E+02  0.91188000000E+02 0.  0.
    9900012    2    3    3    0    0 -0.29999621423E+02  0.25081053870E+02  0.18830410176E+02  0.47787298437E+02  0.20000124896E+02 0.  0.
        -12    1    3    3    0    0  0.29999621423E+02 -0.25081053870E+02 -0.18830410176E+02  0.43400701563E+02  0.00000000000E+00 0.  1.
         11    1    4    4    0    0 -0.28327424950E+01  0.12532922035E+00  0.74568858309E+01  0.79777994467E+01  0.51100000000E-03 0. -1.
        -11    1    4    4    0    0 -0.49228692400E+01  0.50070155938E+01 -0.16542140138E+01  0.72139636106E+01  0.51100000000E-03 0.  1.
         12    1    4    4    0    0 -0.22244009688E+02  0.19948709056E+02  0.13027738359E+02  0.32595535380E+02  0.00000000000E+00 0. -1.
</event>
<event>
 8    1  0.6524083E-011  0.9118800E+02  0.7816164E-02  0.1184000E+00
        -11   -1    0    0    0    0  0.00000000000E+00  0.00000000000E+00  0.45593999997E+02  0.45594000000E+02  0.51100000000E-03 0. -1.
         11   -1    0    0    0    0 -0.00000000000E+00 -0.00000000000E+00 -0.45593999997E+02  0.45594000000E+02  0.51100000000E-03 0.  1.
         23    2    1    2    0    0  0.00000000000E+00 -0.35527136788E-14 -0.35527136788E-14  0.91188000000E+02  0.91188000000E+02 0.  0.
    9900012    2    3    3    0    0  0.33837031595E+02 -0.25071458339E+02 -0.10492877655E+02  0.47787271759E+02  0.20000003257E+02 0.  0.
         12    1    3    3    0    0 -0.33837031595E+02  0.25071458339E+02  0.10492877655E+02  0.43400728241E+02  0.00000000000E+00 0. -1.
         11    1    4    4    0    0  0.86593570270E+00 -0.40562493204E+01 -0.70458556966E+01  0.81760067239E+01  0.51100000000E-03 0. -1.
        -11    1    4    4    0    0  0.16879034462E+02 -0.12941955639E+02 -0.37884774793E+01  0.21604364883E+02  0.51100000000E-03 0.  1.
         12    1    4    4    0    0  0.16092061430E+02 -0.80732533792E+01  0.34145552130E+00  0.18006900152E+02  0.00000000000E+00 0. -1.
</event>
<event>
 8    1  0.6524083E-011  0.9118800E+02  0.7816164E-02  0.1184000E+00
        -11   -1    0    0    0    0  0.00000000000E+00  0.00000000000E+00  0.45593999997E+02  0.45594000000E+02  0.51100000000E-03 0. -1.
         11   -1    0    0    0    0 -0.00000000000E+00 -0.00000000000E+00 -0.45593999997E+02  0.45594000000E+02  0.51100000000E-03 0.  1.
         23    2    1    2    0    0 -0.35527136788E-14  0.00000000000E+00  0.00000000000E+00  0.91188000000E+02  0.91188000000E+02 0.  0.
    9900012    2    3    3    0    0  0.27673641635E+02 -0.10566285978E+02  0.31719817598E+02  0.47787266491E+02  0.19999979239E+02 0.  0.
        -12    1    3    3    0    0 -0.27673641635E+02  0.10566285978E+02 -0.31719817598E+02  0.43400733509E+02  0.00000000000E+00 0.  1.
         11    1    4    4    0    0  0.49167208096E+01  0.40241508420E+01  0.53281939830E+01  0.82920193500E+01  0.51100000000E-03 0. -1.
        -11    1    4    4    0    0  0.79084854014E+01 -0.65131564001E+01  0.30760432203E+01  0.10697073889E+02  0.51100000000E-03 0.  1.
         12    1    4    4    0    0  0.14848435424E+02 -0.80772804196E+01  0.23315580395E+02  0.28798173252E+02  0.00000000000E+00 0. -1.
</event>
<event>
 8    1  0.6524083E-011  0.9118800E+02  0.7816164E-02  0.1184000E+00
        -11   -1    0    0    0    0  0.00000000000E+00  0.00000000000E+00  0.45593999997E+02  0.45594000000E+02  0.51100000000E-03 0. -1.
         11   -1    0    0    0    0 -0.00000000000E+00 -0.00000000000E+00 -0.45593999997E+02  0.45594000000E+02  0.51100000000E-03 0.  1.
         23    2    1    2    0    0 -0.35527136788E-14  0.35527136788E-14  0.00000000000E+00  0.91188000000E+02  0.91188000000E+02 0.  0.
    9900012    2    3    3    0    0  0.17534868942E+02 -0.17615940607E+02 -0.35578509854E+02  0.47787270102E+02  0.19999995701E+02 0.  0.
         12    1    3    3    0    0 -0.17534868942E+02  0.17615940607E+02  0.35578509854E+02  0.43400729898E+02  0.00000000000E+00 0. -1.
         11    1    4    4    0    0  0.20751009514E+01 -0.36521230389E+01 -0.18340019183E+02  0.18814897038E+02  0.51100000000E-03 0. -1.
        -11    1    4    4    0    0  0.29958544605E+00 -0.23393355068E+01 -0.68112772307E+01  0.72080330068E+01  0.51100000000E-03 0.  1.
         12    1    4    4    0    0  0.15160182545E+02 -0.11624482061E+02 -0.10427213440E+02  0.21764340057E+02  0.00000000000E+00 0. -1.
</event>
<event>
 8    1  0.6524083E-011  0.9118800E+02  0.7816164E-02  0.1184000E+00
        -11   -1    0    0    0    0  0.00000000000E+00  0.00000000000E+00  0.45593999997E+02  0.45594000000E+02  0.51100000000E-03 0. -1.
         11   -1    0    0    0    0 -0.00000000000E+00 -0.00000000000E+00 -0.45593999997E+02  0.45594000000E+02  0.51100000000E-03 0.  1.
         23    2    1    2    0    0 -0.13322676296E-14  0.00000000000E+00 -0.17763568394E-14  0.91188000000E+02  0.91188000000E+02 0.  0.
    9900012    2    3    3    0    0  0.21556943904E+01 -0.42570579891E+02  0.81683529872E+01  0.47787270961E+02  0.19999999621E+02 0.  0.
        -12    1    3    3    0    0 -0.21556943904E+01  0.42570579891E+02 -0.81683529872E+01  0.43400729039E+02  0.00000000000E+00 0.  1.
         11    1    4    4    0    0  0.83857506556E+01 -0.21973968700E+02  0.90481425669E+01  0.25200099180E+02  0.51100000000E-03 0. -1.
        -11    1    4    4    0    0 -0.52184121467E+01 -0.11755701615E+02  0.24366196798E+01  0.13090663143E+02  0.51100000000E-03 0.  1.
        -12    1    4    4    0    0 -0.10116441185E+01 -0.88409095756E+01 -0.33164092594E+01  0.94965086386E+01  0.00000000000E+00 0.  1.
</event>
<event>
 8    1  0.6524083E-011  0.9118800E+02  0.7816164E-02  0.1184000E+00
        -11   -1    0    0    0    0  0.00000000000E+00  0.00000000000E+00  0.45593999997E+02  0.45594000000E+02  0.51100000000E-03 0. -1.
         11   -1    0    0    0    0 -0.00000000000E+00 -0.00000000000E+00 -0.45593999997E+02  0.45594000000E+02  0.51100000000E-03 0.  1.
         23    2    1    2    0    0  0.00000000000E+00  0.00000000000E+00  0.00000000000E+00  0.91188000000E+02  0.91188000000E+02 0.  0.
    9900012    2    3    3    0    0  0.28259521720E+02 -0.34757474089E+01 -0.32755797880E+02  0.47787266335E+02  0.19999978529E+02 0.  0.
         12    1    3    3    0    0 -0.28259521720E+02  0.34757474089E+01  0.32755797880E+02  0.43400733665E+02  0.00000000000E+00 0. -1.
         11    1    4    4    0    0  0.82420790610E+00  0.17542327344E+01 -0.82344650959E+01  0.84594956608E+01  0.51100000000E-03 0. -1.
        -11    1    4    4    0    0  0.20614405356E+02  0.20647804164E+01 -0.17502651969E+02  0.27121206694E+02  0.51100000000E-03 0.  1.
         12    1    4    4    0    0  0.68209084578E+01 -0.72947605597E+01 -0.70186808152E+01  0.12206563980E+02  0.00000000000E+00 0. -1.
</event>
<event>
 8    1  0.6524083E-011  0.9118800E+02  0.7816164E-02  0.1184000E+00
        -11   -1    0    0    0    0  0.00000000000E+00  0.00000000000E+00  0.45593999997E+02  0.45594000000E+02  0.51100000000E-03 0. -1.
         11   -1    0    0    0    0 -0.00000000000E+00 -0.00000000000E+00 -0.45593999997E+02  0.45594000000E+02  0.51100000000E-03 0.  1.
         23    2    1    2    0    0  0.88817841970E-15  0.00000000000E+00  0.00000000000E+00  0.91188000000E+02  0.91188000000E+02 0.  0.
    9900012    2    3    3    0    0  0.75502407554E+01  0.36380540085E+02  0.22429299989E+02  0.47787270394E+02  0.19999997034E+02 0.  0.
        -12    1    3    3    0    0 -0.75502407554E+01 -0.36380540085E+02 -0.22429299989E+02  0.43400729606E+02  0.00000000000E+00 0.  1.
         11    1    4    4    0    0  0.93024132585E+01  0.14912043880E+02  0.99079306961E+01  0.20176001488E+02  0.51100000000E-03 0. -1.
        -11    1    4    4    0    0 -0.18229907366E+01  0.11039803769E+02  0.13023699773E+02  0.17170245150E+02  0.51100000000E-03 0.  1.
        -12    1    4    4    0    0  0.70818233478E-01  0.10428692436E+02 -0.50233048052E+00  0.10441023755E+02  0.00000000000E+00 0.  1.
</event>
<event>
 8    1  0.6524083E-011  0.9118800E+02  0.7816164E-02  0.1184000E+00
        -11   -1    0    0    0    0  0.00000000000E+00  0.00000000000E+00  0.45593999997E+02  0.45594000000E+02  0.51100000000E-03 0. -1.
         11   -1    0    0    0    0 -0.00000000000E+00 -0.00000000000E+00 -0.45593999997E+02  0.45594000000E+02  0.51100000000E-03 0.  1.
         23    2    1    2    0    0  0.00000000000E+00 -0.71054273576E-14 -0.35527136788E-14  0.91188000000E+02  0.91188000000E+02 0.  0.
    9900012    2    3    3    0    0 -0.16611453468E+02  0.33582852506E+02  0.21906097343E+02  0.47787245749E+02  0.19999884668E+02 0.  0.
        -12    1    3    3    0    0  0.16611453468E+02 -0.33582852506E+02 -0.21906097343E+02  0.43400754251E+02  0.00000000000E+00 0.  1.
         11    1    4    4    0    0 -0.13434096159E+02  0.10050010104E+02  0.13328593974E+02  0.21427297083E+02  0.51100000000E-03 0.  1.
        -11    1    4    4    0    0 -0.56684528481E+01  0.15688672718E+02  0.53290493054E+01  0.17511841025E+02  0.51100000000E-03 0. -1.
         12    1    4    4    0    0  0.24910955384E+01  0.78441696847E+01  0.32484540627E+01  0.88481076407E+01  0.00000000000E+00 0. -1.
</event>
<event>
 8    1  0.6524083E-011  0.9118800E+02  0.7816164E-02  0.1184000E+00
        -11   -1    0    0    0    0  0.00000000000E+00  0.00000000000E+00  0.45593999997E+02  0.45594000000E+02  0.51100000000E-03 0. -1.
         11   -1    0    0    0    0 -0.00000000000E+00 -0.00000000000E+00 -0.45593999997E+02  0.45594000000E+02  0.51100000000E-03 0.  1.
         23    2    1    2    0    0  0.00000000000E+00 -0.17763568394E-14  0.71054273576E-14  0.91188000000E+02  0.91188000000E+02 0.  0.
    9900012    2    3    3    0    0  0.34510296450E+01 -0.12025712306E+02 -0.41558342581E+02  0.47787271893E+02  0.20000003871E+02 0.  0.
         12    1    3    3    0    0 -0.34510296450E+01  0.12025712306E+02  0.41558342581E+02  0.43400728107E+02  0.00000000000E+00 0. -1.
         11    1    4    4    0    0  0.27910140843E+01  0.88213172058E+00 -0.11801812650E+01  0.31560646493E+01  0.51100000000E-03 0. -1.
        -11    1    4    4    0    0 -0.39265130064E+01 -0.13780654308E+02 -0.29637453631E+02  0.32919638448E+02  0.51100000000E-03 0.  1.
        -12    1    4    4    0    0  0.45865285671E+01  0.87281028168E+00 -0.10740707685E+02  0.11711568796E+02  0.00000000000E+00 0.  1.
</event>
<event>
 8    1  0.6524083E-011  0.9118800E+02  0.7816164E-02  0.1184000E+00
        -11   -1    0    0    0    0  0.00000000000E+00  0.00000000000E+00  0.45593999997E+02  0.45594000000E+02  0.51100000000E-03 0. -1.
         11   -1    0    0    0    0 -0.00000000000E+00 -0.00000000000E+00 -0.45593999997E+02  0.45594000000E+02  0.51100000000E-03 0.  1.
         23    2    1    2    0    0  0.00000000000E+00  0.00000000000E+00 -0.71054273576E-14  0.91188000000E+02  0.91188000000E+02 0.  0.
    9900012    2    3    3    0    0  0.10490872197E+02 -0.16791945020E+02  0.38621181149E+02  0.47787269011E+02  0.19999990730E+02 0.  0.
        -12    1    3    3    0    0 -0.10490872197E+02  0.16791945020E+02 -0.38621181149E+02  0.43400730989E+02  0.00000000000E+00 0.  1.
         11    1    4    4    0    0 -0.13132094684E+01 -0.39515434614E+01  0.25672789027E+01  0.48918438303E+01  0.51100000000E-03 0. -1.
        -11    1    4    4    0    0  0.12982152036E+02 -0.10597363710E+02  0.36643839559E+02  0.40294061188E+02  0.51100000000E-03 0.  1.
        -12    1    4    4    0    0 -0.11780703712E+01 -0.22430378488E+01 -0.58993731292E+00  0.26013639930E+01  0.00000000000E+00 0.  1.
</event>
<event>
 8    1  0.6524083E-011  0.9118800E+02  0.7816164E-02  0.1184000E+00
        -11   -1    0    0    0    0  0.00000000000E+00  0.00000000000E+00  0.45593999997E+02  0.45594000000E+02  0.51100000000E-03 0. -1.
         11   -1    0    0    0    0 -0.00000000000E+00 -0.00000000000E+00 -0.45593999997E+02  0.45594000000E+02  0.51100000000E-03 0.  1.
         23    2    1    2    0    0 -0.35527136788E-14  0.00000000000E+00  0.00000000000E+00  0.91188000000E+02  0.91188000000E+02 0.  0.
    9900012    2    3    3    0    0  0.17965432382E+02 -0.41816607565E+01 -0.39285878516E+02  0.47787270765E+02  0.19999998727E+02 0.  0.
         12    1    3    3    0    0 -0.17965432382E+02  0.41816607565E+01  0.39285878516E+02  0.43400729235E+02  0.00000000000E+00 0. -1.
         11    1    4    4    0    0  0.20733112730E+01  0.16056374874E+01  0.12064846077E+01  0.28865717981E+01  0.51100000000E-03 0. -1.
        -11    1    4    4    0    0  0.11667855868E+02 -0.13709944185E+01 -0.17266122454E+02  0.20883904594E+02  0.51100000000E-03 0.  1.
        -12    1    4    4    0    0  0.42242652412E+01 -0.44163038254E+01 -0.23226240670E+02  0.24016794373E+02  0.00000000000E+00 0.  1.
</event>
<event>
 8    1  0.6524083E-011  0.9118800E+02  0.7816164E-02  0.1184000E+00
        -11   -1    0    0    0    0  0.00000000000E+00  0.00000000000E+00  0.45593999997E+02  0.45594000000E+02  0.51100000000E-03 0. -1.
         11   -1    0    0    0    0 -0.00000000000E+00 -0.00000000000E+00 -0.45593999997E+02  0.45594000000E+02  0.51100000000E-03 0.  1.
         23    2    1    2    0    0  0.00000000000E+00 -0.35527136788E-14  0.00000000000E+00  0.91188000000E+02  0.91188000000E+02 0.  0.
    9900012    2    3    3    0    0  0.26100476406E+02  0.29661073640E+02 -0.17961308221E+02  0.47787277067E+02  0.20000027461E+02 0.  0.
         12    1    3    3    0    0 -0.26100476406E+02 -0.29661073640E+02  0.17961308221E+02  0.43400722933E+02  0.00000000000E+00 0. -1.
         11    1    4    4    0    0  0.13376961912E+02  0.16405549791E+02 -0.91879100694E+01  0.23076023610E+02  0.51100000000E-03 0. -1.
        -11    1    4    4    0    0 -0.16695192238E+01  0.38998715683E+01 -0.59602713015E+01  0.73158134843E+01  0.51100000000E-03 0.  1.
         12    1    4    4    0    0  0.14393033718E+02  0.93556522805E+01 -0.28131268496E+01  0.17395439973E+02  0.00000000000E+00 0. -1.
</event>
<event>
 8    1  0.6524083E-011  0.9118800E+02  0.7816164E-02  0.1184000E+00
        -11   -1    0    0    0    0  0.00000000000E+00  0.00000000000E+00  0.45593999997E+02  0.45594000000E+02  0.51100000000E-03 0. -1.
         11   -1    0    0    0    0 -0.00000000000E+00 -0.00000000000E+00 -0.45593999997E+02  0.45594000000E+02  0.51100000000E-03 0.  1.
         23    2    1    2    0    0  0.00000000000E+00  0.22204460493E-15  0.00000000000E+00  0.91188000000E+02  0.91188000000E+02 0.  0.
    9900012    2    3    3    0    0 -0.36493441761E+02 -0.68304221136E+00 -0.23481594768E+02  0.47787272689E+02  0.20000007499E+02 0.  0.
         12    1    3    3    0    0  0.36493441761E+02  0.68304221136E+00  0.23481594768E+02  0.43400727311E+02  0.00000000000E+00 0. -1.
         11    1    4    4    0    0 -0.20281354910E+01 -0.35067981350E+01 -0.48837685446E+01  0.63452472125E+01  0.51100000000E-03 0. -1.
        -11    1    4    4    0    0 -0.27387752600E+02 -0.21790780755E+01 -0.10010729122E+02  0.29241273426E+02  0.51100000000E-03 0.  1.
         12    1    4    4    0    0 -0.70775536703E+01  0.50028339992E+01 -0.85870971017E+01  0.12200752051E+02  0.00000000000E+00 0. -1.
</event>
<event>
 8    1  0.6524083E-011  0.9118800E+02  0.7816164E-02  0.1184000E+00
        -11   -1    0    0    0    0  0.00000000000E+00  0.00000000000E+00  0.45593999997E+02  0.45594000000E+02  0.51100000000E-03 0. -1.
         11   -1    0    0    0    0 -0.00000000000E+00 -0.00000000000E+00 -0.45593999997E+02  0.45594000000E+02  0.51100000000E-03 0.  1.
         23    2    1    2    0    0  0.35527136788E-14  0.00000000000E+00  0.17763568394E-14  0.91188000000E+02  0.91188000000E+02 0.  0.
    9900012    2    3    3    0    0 -0.16839166928E+02  0.38819631539E+02  0.96489386821E+01  0.47787270129E+02  0.19999995826E+02 0.  0.
        -12    1    3    3    0    0  0.16839166928E+02 -0.38819631539E+02 -0.96489386821E+01  0.43400729871E+02  0.00000000000E+00 0.  1.
         11    1    4    4    0    0 -0.29919633012E+01  0.16874680027E+01  0.48394083684E+01  0.59345822324E+01  0.51100000000E-03 0. -1.
        -11    1    4    4    0    0 -0.15313950825E+02  0.24785032923E+02  0.37234928381E+01  0.29371403542E+02  0.51100000000E-03 0.  1.
         12    1    4    4    0    0  0.14667471988E+01  0.12347130614E+02  0.10860374755E+01  0.12481284354E+02  0.00000000000E+00 0. -1.
</event>
<event>
 8    1  0.6524083E-011  0.9118800E+02  0.7816164E-02  0.1184000E+00
        -11   -1    0    0    0    0  0.00000000000E+00  0.00000000000E+00  0.45593999997E+02  0.45594000000E+02  0.51100000000E-03 0. -1.
         11   -1    0    0    0    0 -0.00000000000E+00 -0.00000000000E+00 -0.45593999997E+02  0.45594000000E+02  0.51100000000E-03 0.  1.
         23    2    1    2    0    0 -0.88817841970E-15  0.00000000000E+00  0.00000000000E+00  0.91188000000E+02  0.91188000000E+02 0.  0.
    9900012    2    3    3    0    0 -0.52555464937E+01 -0.23519575785E+01 -0.43017095030E+02  0.47787274911E+02  0.20000017631E+02 0.  0.
         12    1    3    3    0    0  0.52555464937E+01  0.23519575785E+01  0.43017095030E+02  0.43400725089E+02  0.00000000000E+00 0. -1.
         11    1    4    4    0    0 -0.12550926404E+01  0.79553475741E+01 -0.20933960800E+02  0.22429746490E+02  0.51100000000E-03 0. -1.
        -11    1    4    4    0    0 -0.28039603358E+01 -0.30123133640E+01 -0.13058674322E+02  0.13691793187E+02  0.51100000000E-03 0.  1.
         12    1    4    4    0    0 -0.11964935174E+01 -0.72949917886E+01 -0.90244599083E+01  0.11665735235E+02  0.00000000000E+00 0. -1.
</event>
<event>
 8    1  0.6524083E-011  0.9118800E+02  0.7816164E-02  0.1184000E+00
        -11   -1    0    0    0    0  0.00000000000E+00  0.00000000000E+00  0.45593999997E+02  0.45594000000E+02  0.51100000000E-03 0. -1.
         11   -1    0    0    0    0 -0.00000000000E+00 -0.00000000000E+00 -0.45593999997E+02  0.45594000000E+02  0.51100000000E-03 0.  1.
         23    2    1    2    0    0  0.00000000000E+00  0.00000000000E+00  0.35527136788E-14  0.91188000000E+02  0.91188000000E+02 0.  0.
    9900012    2    3    3    0    0  0.32477386346E+02 -0.10968877564E+02 -0.26618156800E+02  0.47787272238E+02  0.20000005441E+02 0.  0.
         12    1    3    3    0    0 -0.32477386346E+02  0.10968877564E+02  0.26618156800E+02  0.43400727762E+02  0.00000000000E+00 0. -1.
         11    1    4    4    0    0  0.54949803891E+01 -0.24913023656E+00  0.11720912490E+01  0.56241153534E+01  0.51100000000E-03 0. -1.
        -11    1    4    4    0    0  0.94717088441E+01  0.33319945251E+00 -0.15248657598E+02  0.17953992567E+02  0.51100000000E-03 0.  1.
        -12    1    4    4    0    0  0.17510697113E+02 -0.11052946780E+02 -0.12541590451E+02  0.24209164317E+02  0.00000000000E+00 0.  1.
</event>
<event>
 8    1  0.6524083E-011  0.9118800E+02  0.7816164E-02  0.1184000E+00
        -11   -1    0    0    0    0  0.00000000000E+00  0.00000000000E+00  0.45593999997E+02  0.45594000000E+02  0.51100000000E-03 0. -1.
         11   -1    0    0    0    0 -0.00000000000E+00 -0.00000000000E+00 -0.45593999997E+02  0.45594000000E+02  0.51100000000E-03 0.  1.
         23    2    1    2    0    0 -0.17763568394E-14  0.00000000000E+00  0.00000000000E+00  0.91188000000E+02  0.91188000000E+02 0.  0.
    9900012    2    3    3    0    0  0.78681913129E+01  0.81754673399E+01 -0.41891246839E+02  0.47787271176E+02  0.20000000599E+02 0.  0.
         12    1    3    3    0    0 -0.78681913129E+01 -0.81754673399E+01  0.41891246839E+02  0.43400728824E+02  0.00000000000E+00 0. -1.
         11    1    4    4    0    0  0.23364006039E+01  0.10975378649E+02 -0.31139651250E+02  0.33099782242E+02  0.51100000000E-03 0. -1.
        -11    1    4    4    0    0  0.60824319861E+00 -0.24466796080E+01 -0.91606348362E+01  0.95012331703E+01  0.51100000000E-03 0.  1.
         12    1    4    4    0    0  0.49235475104E+01 -0.35323170132E+00 -0.15909607530E+01  0.51862557631E+01  0.00000000000E+00 0. -1.
</event>
<event>
 8    1  0.6524083E-011  0.9118800E+02  0.7816164E-02  0.1184000E+00
        -11   -1    0    0    0    0  0.00000000000E+00  0.00000000000E+00  0.45593999997E+02  0.45594000000E+02  0.51100000000E-03 0. -1.
         11   -1    0    0    0    0 -0.00000000000E+00 -0.00000000000E+00 -0.45593999997E+02  0.45594000000E+02  0.51100000000E-03 0.  1.
         23    2    1    2    0    0  0.00000000000E+00  0.00000000000E+00 -0.71054273576E-14  0.91188000000E+02  0.91188000000E+02 0.  0.
    9900012    2    3    3    0    0 -0.14641380004E+01  0.85159715829E+01  0.42531844153E+02  0.47787271444E+02  0.20000001824E+02 0.  0.
        -12    1    3    3    0    0  0.14641380004E+01 -0.85159715829E+01 -0.42531844153E+02  0.43400728556E+02  0.00000000000E+00 0.  1.
         11    1    4    4    0    0  0.20890579670E+01 -0.11490083253E+01  0.26423586143E+02  0.26530930783E+02  0.51100000000E-03 0. -1.
        -11    1    4    4    0    0  0.28341038214E+01  0.36861302959E+01  0.31319556658E+01  0.56061437355E+01  0.51100000000E-03 0.  1.
        -12    1    4    4    0    0 -0.63872997888E+01  0.59788496123E+01  0.12976302345E+02  0.15650196926E+02  0.00000000000E+00 0.  1.
</event>
<event>
 8    1  0.6524083E-011  0.9118800E+02  0.7816164E-02  0.1184000E+00
        -11   -1    0    0    0    0  0.00000000000E+00  0.00000000000E+00  0.45593999997E+02  0.45594000000E+02  0.51100000000E-03 0. -1.
         11   -1    0    0    0    0 -0.00000000000E+00 -0.00000000000E+00 -0.45593999997E+02  0.45594000000E+02  0.51100000000E-03 0.  1.
         23    2    1    2    0    0 -0.35527136788E-14 -0.66613381478E-15  0.00000000000E+00  0.91188000000E+02  0.91188000000E+02 0.  0.
    9900012    2    3    3    0    0 -0.31736723913E+02 -0.45039098997E+00 -0.29600657326E+02  0.47787292507E+02  0.20000097855E+02 0.  0.
         12    1    3    3    0    0  0.31736723913E+02  0.45039098997E+00  0.29600657326E+02  0.43400707493E+02  0.00000000000E+00 0. -1.
         11    1    4    4    0    0 -0.94975060048E+01  0.60505069874E+01 -0.14894499710E+02  0.18672369346E+02  0.51100000000E-03 0. -1.
        -11    1    4    4    0    0 -0.68787265451E+01 -0.48963182915E+01 -0.97439816274E+01  0.12893253659E+02  0.51100000000E-03 0.  1.
         12    1    4    4    0    0 -0.15360491363E+02 -0.16045796859E+01 -0.49621759881E+01  0.16221669502E+02  0.00000000000E+00 0. -1.
</event>
<event>
 8    1  0.6524083E-011  0.9118800E+02  0.7816164E-02  0.1184000E+00
        -11   -1    0    0    0    0  0.00000000000E+00  0.00000000000E+00  0.45593999997E+02  0.45594000000E+02  0.51100000000E-03 0. -1.
         11   -1    0    0    0    0 -0.00000000000E+00 -0.00000000000E+00 -0.45593999997E+02  0.45594000000E+02  0.51100000000E-03 0.  1.
         23    2    1    2    0    0  0.44408920985E-15  0.00000000000E+00  0.00000000000E+00  0.91188000000E+02  0.91188000000E+02 0.  0.
    9900012    2    3    3    0    0  0.38933363148E+01  0.11430842877E+02  0.41686940645E+02  0.47787271240E+02  0.20000000893E+02 0.  0.
        -12    1    3    3    0    0 -0.38933363148E+01 -0.11430842877E+02 -0.41686940645E+02  0.43400728760E+02  0.00000000000E+00 0.  1.
         11    1    4    4    0    0  0.38233482201E+01  0.40824001183E+01  0.69656708247E+01  0.89333393889E+01  0.51100000000E-03 0. -1.
        -11    1    4    4    0    0  0.27223092949E+01  0.77460946819E+01  0.64112392713E+01  0.10417146441E+02  0.51100000000E-03 0.  1.
        -12    1    4    4    0    0 -0.26523212002E+01 -0.39765192271E+00  0.28310030549E+02  0.28436785410E+02  0.00000000000E+00 0.  1.
</event>
<event>
 8    1  0.6524083E-011  0.9118800E+02  0.7816164E-02  0.1184000E+00
        -11   -1    0    0    0    0  0.00000000000E+00  0.00000000000E+00  0.45593999997E+02  0.45594000000E+02  0.51100000000E-03 0. -1.
         11   -1    0    0    0    0 -0.00000000000E+00 -0.00000000000E+00 -0.45593999997E+02  0.45594000000E+02  0.51100000000E-03 0.  1.
         23    2    1    2    0    0  0.17763568394E-14 -0.35527136788E-14  0.00000000000E+00  0.91188000000E+02  0.91188000000E+02 0.  0.
    9900012    2    3    3    0    0  0.36130330168E+01  0.29017573047E+02 -0.32071011481E+02  0.47787270391E+02  0.19999997021E+02 0.  0.
         12    1    3    3    0    0 -0.36130330168E+01 -0.29017573047E+02  0.32071011481E+02  0.43400729609E+02  0.00000000000E+00 0. -1.
         11    1    4    4    0    0 -0.30197866907E+01  0.60484717180E+01 -0.53212054627E+01  0.86033917508E+01  0.51100000000E-03 0.  1.
        -11    1    4    4    0    0  0.11603050168E+02  0.13019036398E+02 -0.17663192812E+02  0.24821653098E+02  0.51100000000E-03 0. -1.
         12    1    4    4    0    0 -0.49702304603E+01  0.99500649316E+01 -0.90866132061E+01  0.14362225542E+02  0.00000000000E+00 0. -1.
</event>
<event>
 8    1  0.6524083E-011  0.9118800E+02  0.7816164E-02  0.1184000E+00
        -11   -1    0    0    0    0  0.00000000000E+00  0.00000000000E+00  0.45593999997E+02  0.45594000000E+02  0.51100000000E-03 0. -1.
         11   -1    0    0    0    0 -0.00000000000E+00 -0.00000000000E+00 -0.45593999997E+02  0.45594000000E+02  0.51100000000E-03 0.  1.
         23    2    1    2    0    0  0.00000000000E+00  0.00000000000E+00  0.00000000000E+00  0.91188000000E+02  0.91188000000E+02 0.  0.
    9900012    2    3    3    0    0 -0.21133765635E+02 -0.11505915610E+02  0.36119235386E+02  0.47787293683E+02  0.20000103218E+02 0.  0.
        -12    1    3    3    0    0  0.21133765635E+02  0.11505915610E+02 -0.36119235386E+02  0.43400706317E+02  0.00000000000E+00 0.  1.
         11    1    4    4    0    0 -0.11013506317E+01 -0.24030788289E+01  0.32962521028E+00  0.26639095541E+01  0.51100000000E-03 0.  1.
        -11    1    4    4    0    0 -0.18480704763E+02 -0.97396946470E+00  0.29081034539E+02  0.34470155717E+02  0.51100000000E-03 0. -1.
         12    1    4    4    0    0 -0.15517102403E+01 -0.81288673162E+01  0.67085756372E+01  0.10653228412E+02  0.00000000000E+00 0. -1.
</event>
<event>
 8    1  0.6524083E-011  0.9118800E+02  0.7816164E-02  0.1184000E+00
        -11   -1    0    0    0    0  0.00000000000E+00  0.00000000000E+00  0.45593999997E+02  0.45594000000E+02  0.51100000000E-03 0. -1.
         11   -1    0    0    0    0 -0.00000000000E+00 -0.00000000000E+00 -0.45593999997E+02  0.45594000000E+02  0.51100000000E-03 0.  1.
         23    2    1    2    0    0  0.71054273576E-14  0.00000000000E+00  0.17763568394E-14  0.91188000000E+02  0.91188000000E+02 0.  0.
    9900012    2    3    3    0    0  0.39398147116E+02 -0.10317481761E+02  0.14998627449E+02  0.47787271303E+02  0.20000001180E+02 0.  0.
        -12    1    3    3    0    0 -0.39398147116E+02  0.10317481761E+02 -0.14998627449E+02  0.43400728697E+02  0.00000000000E+00 0.  1.
         11    1    4    4    0    0  0.15605042141E+02 -0.57019719748E+01  0.10486264166E+02  0.19646667938E+02  0.51100000000E-03 0. -1.
        -11    1    4    4    0    0  0.66458184330E+01  0.46568243277E+01  0.27460471042E+01  0.85670117557E+01  0.51100000000E-03 0.  1.
        -12    1    4    4    0    0  0.17147286542E+02 -0.92723341141E+01  0.17663161787E+01  0.19573591610E+02  0.00000000000E+00 0.  1.
</event>
<event>
 8    1  0.6524083E-011  0.9118800E+02  0.7816164E-02  0.1184000E+00
        -11   -1    0    0    0    0  0.00000000000E+00  0.00000000000E+00  0.45593999997E+02  0.45594000000E+02  0.51100000000E-03 0. -1.
         11   -1    0    0    0    0 -0.00000000000E+00 -0.00000000000E+00 -0.45593999997E+02  0.45594000000E+02  0.51100000000E-03 0.  1.
         23    2    1    2    0    0  0.44408920985E-15 -0.35527136788E-14 -0.71054273576E-14  0.91188000000E+02  0.91188000000E+02 0.  0.
    9900012    2    3    3    0    0 -0.28165596995E+01 -0.20330569783E+02  0.38240789055E+02  0.47787273926E+02  0.20000013137E+02 0.  0.
        -12    1    3    3    0    0  0.28165596995E+01  0.20330569783E+02 -0.38240789055E+02  0.43400726074E+02  0.00000000000E+00 0.  1.
         11    1    4    4    0    0 -0.79650542155E+01 -0.17894126423E+02  0.29489375147E+02  0.35401484375E+02  0.51100000000E-03 0. -1.
        -11    1    4    4    0    0  0.24392325626E+01  0.10997355244E+01  0.71794460069E+01  0.76618352204E+01  0.51100000000E-03 0.  1.
        -12    1    4    4    0    0  0.27092619534E+01 -0.35361788848E+01  0.15719679003E+01  0.47239543305E+01  0.00000000000E+00 0.  1.
</event>
<event>
 8    1  0.6524083E-011  0.9118800E+02  0.7816164E-02  0.1184000E+00
        -11   -1    0    0    0    0  0.00000000000E+00  0.00000000000E+00  0.45593999997E+02  0.45594000000E+02  0.51100000000E-03 0. -1.
         11   -1    0    0    0    0 -0.00000000000E+00 -0.00000000000E+00 -0.45593999997E+02  0.45594000000E+02  0.51100000000E-03 0.  1.
         23    2    1    2    0    0  0.00000000000E+00  0.00000000000E+00  0.00000000000E+00  0.91188000000E+02  0.91188000000E+02 0.  0.
    9900012    2    3    3    0    0 -0.84394352437E+01  0.34891929872E+02  0.24391634996E+02  0.47787277711E+02  0.20000030394E+02 0.  0.
        -12    1    3    3    0    0  0.84394352437E+01 -0.34891929872E+02 -0.24391634996E+02  0.43400722289E+02  0.00000000000E+00 0.  1.
         11    1    4    4    0    0 -0.10936158509E+01  0.66732857863E+01  0.92212227810E+01  0.11435020273E+02  0.51100000000E-03 0. -1.
        -11    1    4    4    0    0 -0.57364955435E+01  0.24414076520E+02  0.18403150367E+02  0.31106759026E+02  0.51100000000E-03 0.  1.
        -12    1    4    4    0    0 -0.16093238493E+01  0.38045675665E+01 -0.32327381521E+01  0.52454984110E+01  0.00000000000E+00 0.  1.
</event>
<event>
 8    1  0.6524083E-011  0.9118800E+02  0.7816164E-02  0.1184000E+00
        -11   -1    0    0    0    0  0.00000000000E+00  0.00000000000E+00  0.45593999997E+02  0.45594000000E+02  0.51100000000E-03 0. -1.
         11   -1    0    0    0    0 -0.00000000000E+00 -0.00000000000E+00 -0.45593999997E+02  0.45594000000E+02  0.51100000000E-03 0.  1.
         23    2    1    2    0    0  0.00000000000E+00 -0.66613381478E-15  0.00000000000E+00  0.91188000000E+02  0.91188000000E+02 0.  0.
    9900012    2    3    3    0    0  0.26001673820E+02 -0.12017010781E+01  0.34728835643E+02  0.47787272449E+02  0.20000006402E+02 0.  0.
        -12    1    3    3    0    0 -0.26001673820E+02  0.12017010781E+01 -0.34728835643E+02  0.43400727551E+02  0.00000000000E+00 0.  1.
         11    1    4    4    0    0  0.41673157326E+01  0.41525164105E+01  0.15292040551E+02  0.16384639680E+02  0.51100000000E-03 0. -1.
        -11    1    4    4    0    0  0.77590173596E+01  0.13398381651E+01  0.22241864577E+01  0.81819632335E+01  0.51100000000E-03 0.  1.
         12    1    4    4    0    0  0.14075340727E+02 -0.66940556537E+01  0.17212608634E+02  0.23220669535E+02  0.00000000000E+00 0. -1.
</event>
<event>
 8    1  0.6524083E-011  0.9118800E+02  0.7816164E-02  0.1184000E+00
        -11   -1    0    0    0    0  0.00000000000E+00  0.00000000000E+00  0.45593999997E+02  0.45594000000E+02  0.51100000000E-03 0. -1.
         11   -1    0    0    0    0 -0.00000000000E+00 -0.00000000000E+00 -0.45593999997E+02  0.45594000000E+02  0.51100000000E-03 0.  1.
         23    2    1    2    0    0  0.00000000000E+00  0.00000000000E+00  0.00000000000E+00  0.91188000000E+02  0.91188000000E+02 0.  0.
    9900012    2    3    3    0    0 -0.15975688079E+02 -0.30727131270E+02 -0.26158098707E+02  0.47787247315E+02  0.19999891809E+02 0.  0.
         12    1    3    3    0    0  0.15975688079E+02  0.30727131270E+02  0.26158098707E+02  0.43400752685E+02  0.00000000000E+00 0. -1.
         11    1    4    4    0    0 -0.54972535997E+01 -0.16666635487E+02 -0.12278043798E+02  0.21418377515E+02  0.51100000000E-03 0.  1.
        -11    1    4    4    0    0 -0.12775398736E+02 -0.62303694288E+01 -0.79940229949E+01  0.16307443699E+02  0.51100000000E-03 0. -1.
         12    1    4    4    0    0  0.22969642571E+01 -0.78301263538E+01 -0.58860319134E+01  0.10061426102E+02  0.00000000000E+00 0. -1.
</event>
<event>
 8    1  0.6524083E-011  0.9118800E+02  0.7816164E-02  0.1184000E+00
        -11   -1    0    0    0    0  0.00000000000E+00  0.00000000000E+00  0.45593999997E+02  0.45594000000E+02  0.51100000000E-03 0. -1.
         11   -1    0    0    0    0 -0.00000000000E+00 -0.00000000000E+00 -0.45593999997E+02  0.45594000000E+02  0.51100000000E-03 0.  1.
         23    2    1    2    0    0  0.00000000000E+00  0.11102230246E-15  0.00000000000E+00  0.91188000000E+02  0.91188000000E+02 0.  0.
    9900012    2    3    3    0    0 -0.10442089250E+02 -0.20551531759E+00  0.42125357278E+02  0.47787248966E+02  0.19999899336E+02 0.  0.
        -12    1    3    3    0    0  0.10442089250E+02  0.20551531759E+00 -0.42125357278E+02  0.43400751034E+02  0.00000000000E+00 0.  1.
         11    1    4    4    0    0 -0.14595631115E+01 -0.82590217136E-01 -0.45792426629E+00  0.15319401147E+01  0.51100000000E-03 0.  1.
        -11    1    4    4    0    0 -0.18544431921E+01 -0.46978434387E+01  0.33331531195E+02  0.33712010687E+02  0.51100000000E-03 0. -1.
         12    1    4    4    0    0 -0.71280829467E+01  0.45749183382E+01  0.92517503499E+01  0.12543298164E+02  0.00000000000E+00 0. -1.
</event>
<event>
 8    1  0.1087914E-010  0.9118800E+02  0.7816164E-02  0.1184000E+00
        -11   -1    0    0    0    0  0.00000000000E+00  0.00000000000E+00  0.45593999997E+02  0.45594000000E+02  0.51100000000E-03 0. -1.
         11   -1    0    0    0    0 -0.00000000000E+00 -0.00000000000E+00 -0.45593999997E+02  0.45594000000E+02  0.51100000000E-03 0.  1.
         23    2    1    2    0    0  0.55511151231E-15  0.00000000000E+00  0.00000000000E+00  0.91188000000E+02  0.91188000000E+02 0.  0.
    9900012    2    3    3    0    0  0.56182763267E+00 -0.61222712733E+01 -0.42963072525E+02  0.47787268939E+02  0.19999990401E+02 0.  0.
         12    1    3    3    0    0 -0.56182763267E+00  0.61222712733E+01  0.42963072525E+02  0.43400731061E+02  0.00000000000E+00 0. -1.
         11    1    4    4    0    0  0.80151846012E+01  0.53634010084E+00 -0.79970808916E+01  0.11335084823E+02  0.51100000000E-03 0. -1.
        -11    1    4    4    0    0 -0.25644152793E+01 -0.11804440658E+01 -0.12577201410E+02  0.12890138459E+02  0.51100000000E-03 0.  1.
         12    1    4    4    0    0 -0.48889416892E+01 -0.54781673084E+01 -0.22388790223E+02  0.23562045657E+02  0.00000000000E+00 0. -1.
</event>
<event>
 8    1  0.6524083E-011  0.9118800E+02  0.7816164E-02  0.1184000E+00
        -11   -1    0    0    0    0  0.00000000000E+00  0.00000000000E+00  0.45593999997E+02  0.45594000000E+02  0.51100000000E-03 0. -1.
         11   -1    0    0    0    0 -0.00000000000E+00 -0.00000000000E+00 -0.45593999997E+02  0.45594000000E+02  0.51100000000E-03 0.  1.
         23    2    1    2    0    0 -0.71054273576E-14  0.00000000000E+00  0.00000000000E+00  0.91188000000E+02  0.91188000000E+02 0.  0.
    9900012    2    3    3    0    0  0.33470581282E+02 -0.26204780456E+02  0.87551475959E+01  0.47787274896E+02  0.20000017562E+02 0.  0.
         12    1    3    3    0    0 -0.33470581282E+02  0.26204780456E+02 -0.87551475959E+01  0.43400725104E+02  0.00000000000E+00 0. -1.
         11    1    4    4    0    0  0.15920737323E+02 -0.45786553833E+01  0.11066732608E+01  0.16602972264E+02  0.51100000000E-03 0.  1.
        -11    1    4    4    0    0 -0.78977800609E+00 -0.10166691803E+01  0.29239218737E+01  0.31947902757E+01  0.51100000000E-03 0. -1.
        -12    1    4    4    0    0  0.18339621965E+02 -0.20609455892E+02  0.47245524615E+01  0.27989512357E+02  0.00000000000E+00 0.  1.
</event>
<event>
 8    1  0.6524083E-011  0.9118800E+02  0.7816164E-02  0.1184000E+00
        -11   -1    0    0    0    0  0.00000000000E+00  0.00000000000E+00  0.45593999997E+02  0.45594000000E+02  0.51100000000E-03 0. -1.
         11   -1    0    0    0    0 -0.00000000000E+00 -0.00000000000E+00 -0.45593999997E+02  0.45594000000E+02  0.51100000000E-03 0.  1.
         23    2    1    2    0    0 -0.71054273576E-14  0.00000000000E+00  0.00000000000E+00  0.91188000000E+02  0.91188000000E+02 0.  0.
    9900012    2    3    3    0    0  0.34756650536E+02  0.17161873307E+02 -0.19520978068E+02  0.47787271474E+02  0.20000001958E+02 0.  0.
         12    1    3    3    0    0 -0.34756650536E+02 -0.17161873307E+02  0.19520978068E+02  0.43400728526E+02  0.00000000000E+00 0. -1.
         11    1    4    4    0    0  0.13915915273E+02  0.10921489031E+02 -0.13447303898E+02  0.22220747127E+02  0.51100000000E-03 0. -1.
        -11    1    4    4    0    0  0.20058075873E+02  0.89845831864E+01 -0.52572015590E+01  0.22598391785E+02  0.51100000000E-03 0.  1.
         12    1    4    4    0    0  0.78265939014E+00 -0.27441989102E+01 -0.81647261082E+00  0.29681325617E+01  0.00000000000E+00 0. -1.
</event>
<event>
 8    1  0.6524083E-011  0.9118800E+02  0.7816164E-02  0.1184000E+00
        -11   -1    0    0    0    0  0.00000000000E+00  0.00000000000E+00  0.45593999997E+02  0.45594000000E+02  0.51100000000E-03 0. -1.
         11   -1    0    0    0    0 -0.00000000000E+00 -0.00000000000E+00 -0.45593999997E+02  0.45594000000E+02  0.51100000000E-03 0.  1.
         23    2    1    2    0    0  0.00000000000E+00  0.00000000000E+00  0.00000000000E+00  0.91188000000E+02  0.91188000000E+02 0.  0.
    9900012    2    3    3    0    0 -0.38383966021E+01  0.38344649835E+02  0.19964411214E+02  0.47787272189E+02  0.20000005218E+02 0.  0.
        -12    1    3    3    0    0  0.38383966021E+01 -0.38344649835E+02 -0.19964411214E+02  0.43400727811E+02  0.00000000000E+00 0.  1.
         11    1    4    4    0    0  0.22409993645E+00  0.11656263730E+02  0.10062442191E+02  0.15400371684E+02  0.51100000000E-03 0. -1.
        -11    1    4    4    0    0 -0.18232944884E+01 -0.10646191308E+01 -0.11807459266E+01  0.24190861683E+01  0.51100000000E-03 0.  1.
         12    1    4    4    0    0 -0.22392020502E+01  0.27753005236E+02  0.11082714950E+02  0.29967814336E+02  0.00000000000E+00 0. -1.
</event>
<event>
 8    1  0.6524083E-011  0.9118800E+02  0.7816164E-02  0.1184000E+00
        -11   -1    0    0    0    0  0.00000000000E+00  0.00000000000E+00  0.45593999997E+02  0.45594000000E+02  0.51100000000E-03 0.  1.
         11   -1    0    0    0    0 -0.00000000000E+00 -0.00000000000E+00 -0.45593999997E+02  0.45594000000E+02  0.51100000000E-03 0. -1.
         23    2    1    2    0    0 -0.71054273576E-14  0.35527136788E-14 -0.22204460493E-15  0.91188000000E+02  0.91188000000E+02 0.  0.
    9900012    2    3    3    0    0  0.30125911645E+02 -0.31226313583E+02  0.98290457418E+00  0.47787316667E+02  0.20000208009E+02 0.  0.
         12    1    3    3    0    0 -0.30125911645E+02  0.31226313583E+02 -0.98290457418E+00  0.43400683333E+02  0.00000000000E+00 0. -1.
         11    1    4    4    0    0  0.11167732435E+02 -0.11961687812E+02  0.65121289105E+01  0.17612723987E+02  0.51100000000E-03 0. -1.
        -11    1    4    4    0    0  0.20018907925E+02 -0.19326711514E+02 -0.37158778821E+01  0.28072873047E+02  0.51100000000E-03 0.  1.
         12    1    4    4    0    0 -0.10607287153E+01  0.62085742721E-01 -0.18133464543E+01  0.21017196317E+01  0.00000000000E+00 0. -1.
</event>
<event>
 8    1  0.6524083E-011  0.9118800E+02  0.7816164E-02  0.1184000E+00
        -11   -1    0    0    0    0  0.00000000000E+00  0.00000000000E+00  0.45593999997E+02  0.45594000000E+02  0.51100000000E-03 0. -1.
         11   -1    0    0    0    0 -0.00000000000E+00 -0.00000000000E+00 -0.45593999997E+02  0.45594000000E+02  0.51100000000E-03 0.  1.
         23    2    1    2    0    0  0.35527136788E-14  0.00000000000E+00  0.00000000000E+00  0.91188000000E+02  0.91188000000E+02 0.  0.
    9900012    2    3    3    0    0 -0.18198407119E+02  0.19321706420E+02  0.34338209191E+02  0.47787274533E+02  0.20000015905E+02 0.  0.
        -12    1    3    3    0    0  0.18198407119E+02 -0.19321706420E+02 -0.34338209191E+02  0.43400725467E+02  0.00000000000E+00 0.  1.
         11    1    4    4    0    0 -0.12803855951E+02  0.11819613081E+02  0.20268995212E+02  0.26729649226E+02  0.51100000000E-03 0. -1.
        -11    1    4    4    0    0 -0.65347155176E+01 -0.93930168746E+00  0.34650696352E+01  0.74559709223E+01  0.51100000000E-03 0.  1.
        -12    1    4    4    0    0  0.11401643491E+01  0.84413950258E+01  0.10604144344E+02  0.13601654385E+02  0.00000000000E+00 0.  1.
</event>
<event>
 8    1  0.6524083E-011  0.9118800E+02  0.7816164E-02  0.1184000E+00
        -11   -1    0    0    0    0  0.00000000000E+00  0.00000000000E+00  0.45593999997E+02  0.45594000000E+02  0.51100000000E-03 0. -1.
         11   -1    0    0    0    0 -0.00000000000E+00 -0.00000000000E+00 -0.45593999997E+02  0.45594000000E+02  0.51100000000E-03 0.  1.
         23    2    1    2    0    0 -0.35527136788E-14  0.00000000000E+00  0.00000000000E+00  0.91188000000E+02  0.91188000000E+02 0.  0.
    9900012    2    3    3    0    0 -0.20945837030E+02  0.20315355010E+02  0.32127579721E+02  0.47787272854E+02  0.20000008250E+02 0.  0.
        -12    1    3    3    0    0  0.20945837030E+02 -0.20315355010E+02 -0.32127579721E+02  0.43400727146E+02  0.00000000000E+00 0.  1.
         11    1    4    4    0    0 -0.56948119117E+01  0.16708873155E+02  0.19406761571E+02  0.26234323314E+02  0.51100000000E-03 0. -1.
        -11    1    4    4    0    0 -0.21289403067E+01 -0.21539140435E+01  0.27883777638E+01  0.41166471006E+01  0.51100000000E-03 0.  1.
        -12    1    4    4    0    0 -0.13122084812E+02  0.57603958979E+01  0.99324403867E+01  0.17436302439E+02  0.00000000000E+00 0.  1.
</event>
<event>
 8    1  0.7366178E-011  0.9118800E+02  0.7816164E-02  0.1184000E+00
        -11   -1    0    0    0    0  0.00000000000E+00  0.00000000000E+00  0.45593999997E+02  0.45594000000E+02  0.51100000000E-03 0. -1.
         11   -1    0    0    0    0 -0.00000000000E+00 -0.00000000000E+00 -0.45593999997E+02  0.45594000000E+02  0.51100000000E-03 0.  1.
         23    2    1    2    0    0  0.17763568394E-14  0.00000000000E+00  0.00000000000E+00  0.91188000000E+02  0.91188000000E+02 0.  0.
    9900012    2    3    3    0    0  0.11827613893E+02 -0.13590180505E+02 -0.39484651391E+02  0.47787272448E+02  0.20000006400E+02 0.  0.
         12    1    3    3    0    0 -0.11827613893E+02  0.13590180505E+02  0.39484651391E+02  0.43400727552E+02  0.00000000000E+00 0. -1.
         11    1    4    4    0    0  0.35494510620E+01 -0.15640660661E+02 -0.20516948124E+02  0.26041774696E+02  0.51100000000E-03 0. -1.
        -11    1    4    4    0    0  0.53707921504E+01 -0.12111077233E+01 -0.14437120036E+02  0.15451298503E+02  0.51100000000E-03 0.  1.
         12    1    4    4    0    0  0.29073706808E+01  0.32615878789E+01 -0.45305832315E+01  0.62941992489E+01  0.00000000000E+00 0. -1.
</event>
<event>
 8    1  0.6524083E-011  0.9118800E+02  0.7816164E-02  0.1184000E+00
        -11   -1    0    0    0    0  0.00000000000E+00  0.00000000000E+00  0.45593999997E+02  0.45594000000E+02  0.51100000000E-03 0. -1.
         11   -1    0    0    0    0 -0.00000000000E+00 -0.00000000000E+00 -0.45593999997E+02  0.45594000000E+02  0.51100000000E-03 0.  1.
         23    2    1    2    0    0 -0.17763568394E-14  0.17763568394E-14 -0.71054273576E-14  0.91188000000E+02  0.91188000000E+02 0.  0.
    9900012    2    3    3    0    0  0.90866818098E+01 -0.11840659009E+02  0.40753583615E+02  0.47787267639E+02  0.19999984472E+02 0.  0.
        -12    1    3    3    0    0 -0.90866818098E+01  0.11840659009E+02 -0.40753583615E+02  0.43400732361E+02  0.00000000000E+00 0.  1.
         11    1    4    4    0    0  0.78291810712E+01 -0.10860275489E+02  0.23340862615E+02  0.26907945440E+02  0.51100000000E-03 0. -1.
        -11    1    4    4    0    0 -0.61706577806E+00 -0.26726980931E+01 -0.50106399477E+00  0.27883957142E+01  0.51100000000E-03 0.  1.
         12    1    4    4    0    0  0.18745665167E+01  0.16923145731E+01  0.17913784994E+02  0.18090926484E+02  0.00000000000E+00 0. -1.
</event>
<event>
 8    1  0.6524083E-011  0.9118800E+02  0.7816164E-02  0.1184000E+00
        -11   -1    0    0    0    0  0.00000000000E+00  0.00000000000E+00  0.45593999997E+02  0.45594000000E+02  0.51100000000E-03 0. -1.
         11   -1    0    0    0    0 -0.00000000000E+00 -0.00000000000E+00 -0.45593999997E+02  0.45594000000E+02  0.51100000000E-03 0.  1.
         23    2    1    2    0    0 -0.17763568394E-14  0.35527136788E-14  0.00000000000E+00  0.91188000000E+02  0.91188000000E+02 0.  0.
    9900012    2    3    3    0    0  0.63473359340E+01 -0.19857913493E+02 -0.38065709417E+02  0.47787266882E+02  0.19999981023E+02 0.  0.
         12    1    3    3    0    0 -0.63473359340E+01  0.19857913493E+02  0.38065709417E+02  0.43400733118E+02  0.00000000000E+00 0. -1.
         11    1    4    4    0    0  0.85470292234E+01 -0.18410932224E+02 -0.35985560943E+02  0.41315550711E+02  0.51100000000E-03 0. -1.
        -11    1    4    4    0    0  0.32672899016E+00  0.15765683867E+01 -0.19508592317E+01  0.25294607556E+01  0.51100000000E-03 0.  1.
         12    1    4    4    0    0 -0.25264222796E+01 -0.30235496554E+01 -0.12928924196E+00  0.39422554156E+01  0.00000000000E+00 0. -1.
</event>
<event>
 8    1  0.6524083E-011  0.9118800E+02  0.7816164E-02  0.1184000E+00
        -11   -1    0    0    0    0  0.00000000000E+00  0.00000000000E+00  0.45593999997E+02  0.45594000000E+02  0.51100000000E-03 0. -1.
         11   -1    0    0    0    0 -0.00000000000E+00 -0.00000000000E+00 -0.45593999997E+02  0.45594000000E+02  0.51100000000E-03 0.  1.
         23    2    1    2    0    0  0.00000000000E+00  0.00000000000E+00 -0.71054273576E-14  0.91188000000E+02  0.91188000000E+02 0.  0.
    9900012    2    3    3    0    0 -0.16101739542E+02  0.26420700808E+02 -0.30435227340E+02  0.47787279837E+02  0.20000040089E+02 0.  0.
         12    1    3    3    0    0  0.16101739542E+02 -0.26420700808E+02  0.30435227340E+02  0.43400720163E+02  0.00000000000E+00 0. -1.
         11    1    4    4    0    0 -0.12099376874E+02  0.39254147314E+01 -0.12802850062E+02  0.18047625094E+02  0.51100000000E-03 0. -1.
        -11    1    4    4    0    0 -0.48761940789E+01  0.12364590501E+02 -0.69779160200E+01  0.15011718063E+02  0.51100000000E-03 0.  1.
         12    1    4    4    0    0  0.87383141080E+00  0.10130695575E+02 -0.10654461258E+02  0.14727936680E+02  0.00000000000E+00 0. -1.
</event>
<event>
 8    1  0.6524083E-011  0.9118800E+02  0.7816164E-02  0.1184000E+00
        -11   -1    0    0    0    0  0.00000000000E+00  0.00000000000E+00  0.45593999997E+02  0.45594000000E+02  0.51100000000E-03 0. -1.
         11   -1    0    0    0    0 -0.00000000000E+00 -0.00000000000E+00 -0.45593999997E+02  0.45594000000E+02  0.51100000000E-03 0.  1.
         23    2    1    2    0    0  0.22204460493E-15  0.00000000000E+00  0.00000000000E+00  0.91188000000E+02  0.91188000000E+02 0.  0.
    9900012    2    3    3    0    0 -0.78981260113E+00  0.37129298279E+02 -0.22459171794E+02  0.47787274288E+02  0.20000014791E+02 0.  0.
         12    1    3    3    0    0  0.78981260113E+00 -0.37129298279E+02  0.22459171794E+02  0.43400725712E+02  0.00000000000E+00 0. -1.
         11    1    4    4    0    0  0.15618616944E+00 -0.10157857884E+01 -0.42742454280E+01  0.43960651869E+01  0.51100000000E-03 0. -1.
        -11    1    4    4    0    0 -0.45257128594E+01  0.14474603050E+02 -0.96506967371E+01  0.17975877117E+02  0.51100000000E-03 0.  1.
         12    1    4    4    0    0  0.35797140888E+01  0.23670481017E+02 -0.85342296287E+01  0.25415331984E+02  0.00000000000E+00 0. -1.
</event>
<event>
 8    1  0.6524083E-011  0.9118800E+02  0.7816164E-02  0.1184000E+00
        -11   -1    0    0    0    0  0.00000000000E+00  0.00000000000E+00  0.45593999997E+02  0.45594000000E+02  0.51100000000E-03 0. -1.
         11   -1    0    0    0    0 -0.00000000000E+00 -0.00000000000E+00 -0.45593999997E+02  0.45594000000E+02  0.51100000000E-03 0.  1.
         23    2    1    2    0    0  0.35527136788E-14 -0.17763568394E-14 -0.71054273576E-14  0.91188000000E+02  0.91188000000E+02 0.  0.
    9900012    2    3    3    0    0  0.21373051070E+02 -0.14457887598E+02 -0.34896788048E+02  0.47787266805E+02  0.19999980670E+02 0.  0.
         12    1    3    3    0    0 -0.21373051070E+02  0.14457887598E+02  0.34896788048E+02  0.43400733195E+02  0.00000000000E+00 0. -1.
         11    1    4    4    0    0  0.55374478795E+00  0.16633022101E+01 -0.79118049767E+01  0.81036945761E+01  0.51100000000E-03 0. -1.
        -11    1    4    4    0    0  0.17454176061E+02 -0.78972334762E+01 -0.23032174777E+02  0.29958231486E+02  0.51100000000E-03 0.  1.
        -12    1    4    4    0    0  0.33651302211E+01 -0.82239563317E+01 -0.39528082936E+01  0.97253407425E+01  0.00000000000E+00 0.  1.
</event>
<event>
 8    1  0.6524083E-011  0.9118800E+02  0.7816164E-02  0.1184000E+00
        -11   -1    0    0    0    0  0.00000000000E+00  0.00000000000E+00  0.45593999997E+02  0.45594000000E+02  0.51100000000E-03 0. -1.
         11   -1    0    0    0    0 -0.00000000000E+00 -0.00000000000E+00 -0.45593999997E+02  0.45594000000E+02  0.51100000000E-03 0.  1.
         23    2    1    2    0    0  0.00000000000E+00  0.00000000000E+00 -0.71054273576E-14  0.91188000000E+02  0.91188000000E+02 0.  0.
    9900012    2    3    3    0    0  0.12947780080E+02  0.17031431231E+02  0.37761196920E+02  0.47787278213E+02  0.20000032685E+02 0.  0.
        -12    1    3    3    0    0 -0.12947780080E+02 -0.17031431231E+02 -0.37761196920E+02  0.43400721787E+02  0.00000000000E+00 0.  1.
         11    1    4    4    0    0  0.82869756384E+01  0.91008891903E+01  0.15853950031E+02  0.20071070752E+02  0.51100000000E-03 0. -1.
        -11    1    4    4    0    0 -0.51062363905E+00  0.46947976704E+01 -0.25534312602E+00  0.47293828392E+01  0.51100000000E-03 0.  1.
        -12    1    4    4    0    0  0.51714280803E+01  0.32357443705E+01  0.22162590015E+02  0.22986824622E+02  0.00000000000E+00 0.  1.
</event>
<event>
 8    1  0.6524083E-011  0.9118800E+02  0.7816164E-02  0.1184000E+00
        -11   -1    0    0    0    0  0.00000000000E+00  0.00000000000E+00  0.45593999997E+02  0.45594000000E+02  0.51100000000E-03 0. -1.
         11   -1    0    0    0    0 -0.00000000000E+00 -0.00000000000E+00 -0.45593999997E+02  0.45594000000E+02  0.51100000000E-03 0.  1.
         23    2    1    2    0    0  0.00000000000E+00  0.00000000000E+00  0.71054273576E-14  0.91188000000E+02  0.91188000000E+02 0.  0.
    9900012    2    3    3    0    0 -0.19228351893E+02 -0.99959267975E+01 -0.37602863070E+02  0.47787269821E+02  0.19999994420E+02 0.  0.
         12    1    3    3    0    0  0.19228351893E+02  0.99959267975E+01  0.37602863070E+02  0.43400730179E+02  0.00000000000E+00 0. -1.
         11    1    4    4    0    0 -0.65313234102E+01  0.27310529956E+01 -0.84142085839E+01  0.10996169438E+02  0.51100000000E-03 0. -1.
        -11    1    4    4    0    0 -0.14590054334E+02 -0.12062131285E+02 -0.29182378657E+02  0.34784708148E+02  0.51100000000E-03 0.  1.
         12    1    4    4    0    0  0.18930258516E+01 -0.66484850771E+00 -0.62758291958E-02  0.20063922346E+01  0.00000000000E+00 0. -1.
</event>
<event>
 8    1  0.6524083E-011  0.9118800E+02  0.7816164E-02  0.1184000E+00
        -11   -1    0    0    0    0  0.00000000000E+00  0.00000000000E+00  0.45593999997E+02  0.45594000000E+02  0.51100000000E-03 0. -1.
         11   -1    0    0    0    0 -0.00000000000E+00 -0.00000000000E+00 -0.45593999997E+02  0.45594000000E+02  0.51100000000E-03 0.  1.
         23    2    1    2    0    0  0.88817841970E-15  0.00000000000E+00 -0.71054273576E-14  0.91188000000E+02  0.91188000000E+02 0.  0.
    9900012    2    3    3    0    0 -0.69453068975E+01 -0.22193643011E+02  0.36644616797E+02  0.47787273990E+02  0.20000013431E+02 0.  0.
        -12    1    3    3    0    0  0.69453068975E+01  0.22193643011E+02 -0.36644616797E+02  0.43400726010E+02  0.00000000000E+00 0.  1.
         11    1    4    4    0    0 -0.67875609039E+01 -0.11587171190E+02  0.22515950060E+02  0.26216436191E+02  0.51100000000E-03 0.  1.
        -11    1    4    4    0    0  0.43167142962E+01 -0.55663271970E+01  0.12931599191E+02  0.14725633388E+02  0.51100000000E-03 0. -1.
        -12    1    4    4    0    0 -0.44744602898E+01 -0.50401446238E+01  0.11970675455E+01  0.68452044105E+01  0.00000000000E+00 0.  1.
</event>
<event>
 8    1  0.6524083E-011  0.9118800E+02  0.7816164E-02  0.1184000E+00
        -11   -1    0    0    0    0  0.00000000000E+00  0.00000000000E+00  0.45593999997E+02  0.45594000000E+02  0.51100000000E-03 0. -1.
         11   -1    0    0    0    0 -0.00000000000E+00 -0.00000000000E+00 -0.45593999997E+02  0.45594000000E+02  0.51100000000E-03 0.  1.
         23    2    1    2    0    0  0.00000000000E+00 -0.71054273576E-14  0.00000000000E+00  0.91188000000E+02  0.91188000000E+02 0.  0.
    9900012    2    3    3    0    0  0.24550922472E+02  0.31914885498E+02 -0.16196124269E+02  0.47787283970E+02  0.20000058934E+02 0.  0.
         12    1    3    3    0    0 -0.24550922472E+02 -0.31914885498E+02  0.16196124269E+02  0.43400716030E+02  0.00000000000E+00 0. -1.
         11    1    4    4    0    0  0.34759222537E+01  0.11390123418E+02 -0.54509766878E+01  0.13096949802E+02  0.51100000000E-03 0. -1.
        -11    1    4    4    0    0  0.63812268097E+01 -0.11846274235E+01 -0.38132504230E+00  0.65014465143E+01  0.51100000000E-03 0.  1.
        -12    1    4    4    0    0  0.14693773408E+02  0.21709389503E+02 -0.10363822539E+02  0.28188887654E+02  0.00000000000E+00 0.  1.
</event>
<event>
 8    1  0.6524083E-011  0.9118800E+02  0.7816164E-02  0.1184000E+00
        -11   -1    0    0    0    0  0.00000000000E+00  0.00000000000E+00  0.45593999997E+02  0.45594000000E+02  0.51100000000E-03 0. -1.
         11   -1    0    0    0    0 -0.00000000000E+00 -0.00000000000E+00 -0.45593999997E+02  0.45594000000E+02  0.51100000000E-03 0.  1.
         23    2    1    2    0    0  0.00000000000E+00  0.00000000000E+00  0.00000000000E+00  0.91188000000E+02  0.91188000000E+02 0.  0.
    9900012    2    3    3    0    0  0.17362406593E+02 -0.18640255189E+02  0.35138455342E+02  0.47787270513E+02  0.19999997576E+02 0.  0.
        -12    1    3    3    0    0 -0.17362406593E+02  0.18640255189E+02 -0.35138455342E+02  0.43400729487E+02  0.00000000000E+00 0.  1.
         11    1    4    4    0    0  0.31826272019E+01  0.10855709344E+01  0.85138346002E+01  0.91538494646E+01  0.51100000000E-03 0. -1.
        -11    1    4    4    0    0  0.76799309636E+01 -0.17227026302E+02  0.25280393366E+02  0.31541243853E+02  0.51100000000E-03 0.  1.
        -12    1    4    4    0    0  0.64998484277E+01 -0.24987998210E+01  0.13442273761E+01  0.70921771951E+01  0.00000000000E+00 0.  1.
</event>
<event>
 8    1  0.6524083E-011  0.9118800E+02  0.7816164E-02  0.1184000E+00
        -11   -1    0    0    0    0  0.00000000000E+00  0.00000000000E+00  0.45593999997E+02  0.45594000000E+02  0.51100000000E-03 0. -1.
         11   -1    0    0    0    0 -0.00000000000E+00 -0.00000000000E+00 -0.45593999997E+02  0.45594000000E+02  0.51100000000E-03 0.  1.
         23    2    1    2    0    0  0.00000000000E+00  0.17763568394E-14  0.00000000000E+00  0.91188000000E+02  0.91188000000E+02 0.  0.
    9900012    2    3    3    0    0  0.39669150153E+02 -0.14053600927E+02 -0.10605578736E+02  0.47787268748E+02  0.19999989529E+02 0.  0.
        -12    1    3    3    0    0 -0.39669150153E+02  0.14053600927E+02  0.10605578736E+02  0.43400731252E+02  0.00000000000E+00 0.  1.
         11    1    4    4    0    0  0.66046866197E+01 -0.56084096397E+01  0.27342845740E+01  0.90858382345E+01  0.51100000000E-03 0. -1.
        -11    1    4    4    0    0 -0.34549084958E+00  0.81500095355E+00  0.86226677140E+00  0.12357567429E+01  0.51100000000E-03 0.  1.
         12    1    4    4    0    0  0.33409954383E+02 -0.92601922406E+01 -0.14202130081E+02  0.37465673770E+02  0.00000000000E+00 0. -1.
</event>
<event>
 8    1  0.6524083E-011  0.9118800E+02  0.7816164E-02  0.1184000E+00
        -11   -1    0    0    0    0  0.00000000000E+00  0.00000000000E+00  0.45593999997E+02  0.45594000000E+02  0.51100000000E-03 0. -1.
         11   -1    0    0    0    0 -0.00000000000E+00 -0.00000000000E+00 -0.45593999997E+02  0.45594000000E+02  0.51100000000E-03 0.  1.
         23    2    1    2    0    0  0.00000000000E+00  0.00000000000E+00  0.00000000000E+00  0.91188000000E+02  0.91188000000E+02 0.  0.
    9900012    2    3    3    0    0 -0.30430627840E+02 -0.10397185907E+02 -0.29146168347E+02  0.47787265965E+02  0.19999976839E+02 0.  0.
         12    1    3    3    0    0  0.30430627840E+02  0.10397185907E+02  0.29146168347E+02  0.43400734035E+02  0.00000000000E+00 0. -1.
         11    1    4    4    0    0 -0.21873041408E+02 -0.16540025262E+01 -0.12644855821E+02  0.25319124073E+02  0.51100000000E-03 0. -1.
        -11    1    4    4    0    0 -0.24736240770E+01  0.27357961966E+00 -0.87878306435E+01  0.91334347078E+01  0.51100000000E-03 0.  1.
        -12    1    4    4    0    0 -0.60839623543E+01 -0.90167630004E+01 -0.77134818825E+01  0.13334707184E+02  0.00000000000E+00 0.  1.
</event>
<event>
 8    1  0.6524083E-011  0.9118800E+02  0.7816164E-02  0.1184000E+00
        -11   -1    0    0    0    0  0.00000000000E+00  0.00000000000E+00  0.45593999997E+02  0.45594000000E+02  0.51100000000E-03 0. -1.
         11   -1    0    0    0    0 -0.00000000000E+00 -0.00000000000E+00 -0.45593999997E+02  0.45594000000E+02  0.51100000000E-03 0.  1.
         23    2    1    2    0    0  0.00000000000E+00  0.22204460493E-15  0.71054273576E-14  0.91188000000E+02  0.91188000000E+02 0.  0.
    9900012    2    3    3    0    0  0.15926382039E+01  0.15065837832E+01  0.43345332299E+02  0.47787261259E+02  0.19999955384E+02 0.  0.
        -12    1    3    3    0    0 -0.15926382039E+01 -0.15065837832E+01 -0.43345332299E+02  0.43400738741E+02  0.00000000000E+00 0.  1.
         11    1    4    4    0    0  0.51809517014E+01  0.77238931391E+00  0.25960438814E+02  0.26483640790E+02  0.51100000000E-03 0. -1.
        -11    1    4    4    0    0 -0.69807016158E+00  0.61307937539E+01  0.81085085429E+01  0.10189300518E+02  0.51100000000E-03 0.  1.
         12    1    4    4    0    0 -0.28902433360E+01 -0.53965992846E+01  0.92763849420E+01  0.11114319951E+02  0.00000000000E+00 0. -1.
</event>
<event>
 8    1  0.6524083E-011  0.9118800E+02  0.7816164E-02  0.1184000E+00
        -11   -1    0    0    0    0  0.00000000000E+00  0.00000000000E+00  0.45593999997E+02  0.45594000000E+02  0.51100000000E-03 0. -1.
         11   -1    0    0    0    0 -0.00000000000E+00 -0.00000000000E+00 -0.45593999997E+02  0.45594000000E+02  0.51100000000E-03 0.  1.
         23    2    1    2    0    0  0.88817841970E-15  0.00000000000E+00  0.00000000000E+00  0.91188000000E+02  0.91188000000E+02 0.  0.
    9900012    2    3    3    0    0  0.77291211901E+01 -0.36052425564E+02 -0.22893374696E+02  0.47787270647E+02  0.19999998187E+02 0.  0.
         12    1    3    3    0    0 -0.77291211901E+01  0.36052425564E+02  0.22893374696E+02  0.43400729353E+02  0.00000000000E+00 0. -1.
         11    1    4    4    0    0 -0.16348539453E+01  0.89667431783E+00  0.11922718866E+00  0.18684184859E+01  0.51100000000E-03 0. -1.
        -11    1    4    4    0    0  0.22544911387E+01 -0.22071402235E+02 -0.78967819476E+01  0.23549706841E+02  0.51100000000E-03 0.  1.
        -12    1    4    4    0    0  0.71094839967E+01 -0.14877697646E+02 -0.15115819937E+02  0.22369145320E+02  0.00000000000E+00 0.  1.
</event>
<event>
 8    1  0.6524083E-011  0.9118800E+02  0.7816164E-02  0.1184000E+00
        -11   -1    0    0    0    0  0.00000000000E+00  0.00000000000E+00  0.45593999997E+02  0.45594000000E+02  0.51100000000E-03 0.  1.
         11   -1    0    0    0    0 -0.00000000000E+00 -0.00000000000E+00 -0.45593999997E+02  0.45594000000E+02  0.51100000000E-03 0. -1.
         23    2    1    2    0    0 -0.71054273576E-14 -0.88817841970E-15 -0.17763568394E-14  0.91188000000E+02  0.91188000000E+02 0.  0.
    9900012    2    3    3    0    0 -0.42136200301E+02 -0.53686148057E+01 -0.89074038237E+01  0.47787271393E+02  0.20000001590E+02 0.  0.
        -12    1    3    3    0    0  0.42136200301E+02  0.53686148057E+01  0.89074038237E+01  0.43400728607E+02  0.00000000000E+00 0.  1.
         11    1    4    4    0    0 -0.17947028232E+02 -0.21573536175E+01 -0.13328801473E+02  0.22459005899E+02  0.51100000000E-03 0. -1.
        -11    1    4    4    0    0 -0.48956242156E+01 -0.21778351098E+01  0.24970705014E+01  0.59114688171E+01  0.51100000000E-03 0.  1.
         12    1    4    4    0    0 -0.19293547853E+02 -0.10334260784E+01  0.19243271483E+01  0.19416796677E+02  0.00000000000E+00 0. -1.
</event>
<event>
 8    1  0.6524083E-011  0.9118800E+02  0.7816164E-02  0.1184000E+00
        -11   -1    0    0    0    0  0.00000000000E+00  0.00000000000E+00  0.45593999997E+02  0.45594000000E+02  0.51100000000E-03 0. -1.
         11   -1    0    0    0    0 -0.00000000000E+00 -0.00000000000E+00 -0.45593999997E+02  0.45594000000E+02  0.51100000000E-03 0.  1.
         23    2    1    2    0    0  0.00000000000E+00  0.00000000000E+00  0.00000000000E+00  0.91188000000E+02  0.91188000000E+02 0.  0.
    9900012    2    3    3    0    0  0.49601212012E+01 -0.11629724267E+02 -0.41518315436E+02  0.47787264919E+02  0.19999972074E+02 0.  0.
         12    1    3    3    0    0 -0.49601212012E+01  0.11629724267E+02  0.41518315436E+02  0.43400735081E+02  0.00000000000E+00 0. -1.
         11    1    4    4    0    0 -0.28010516476E+01  0.40407801710E+00 -0.99622339608E+01  0.10356412271E+02  0.51100000000E-03 0. -1.
        -11    1    4    4    0    0  0.39744017129E+00  0.31365822215E+01 -0.36857990524E+01  0.48560500036E+01  0.51100000000E-03 0.  1.
        -12    1    4    4    0    0  0.73637326775E+01 -0.15170384506E+02 -0.27870282423E+02  0.32574802645E+02  0.00000000000E+00 0.  1.
</event>
<event>
 8    1  0.6524083E-011  0.9118800E+02  0.7816164E-02  0.1184000E+00
        -11   -1    0    0    0    0  0.00000000000E+00  0.00000000000E+00  0.45593999997E+02  0.45594000000E+02  0.51100000000E-03 0.  1.
         11   -1    0    0    0    0 -0.00000000000E+00 -0.00000000000E+00 -0.45593999997E+02  0.45594000000E+02  0.51100000000E-03 0. -1.
         23    2    1    2    0    0  0.00000000000E+00  0.38857805862E-15  0.35527136788E-14  0.91188000000E+02  0.91188000000E+02 0.  0.
    9900012    2    3    3    0    0 -0.37338748587E+02  0.26269216476E+00  0.22121749312E+02  0.47787274823E+02  0.20000017228E+02 0.  0.
        -12    1    3    3    0    0  0.37338748587E+02 -0.26269216476E+00 -0.22121749312E+02  0.43400725177E+02  0.00000000000E+00 0.  1.
         11    1    4    4    0    0 -0.18981853210E+02  0.81719307620E+01  0.88163549278E+01  0.22468184576E+02  0.51100000000E-03 0. -1.
        -11    1    4    4    0    0 -0.15930083141E+01 -0.14497524687E+01  0.51638187747E+01  0.55950408675E+01  0.51100000000E-03 0.  1.
         12    1    4    4    0    0 -0.16763887064E+02 -0.64594861285E+01  0.81415756099E+01  0.19724049380E+02  0.00000000000E+00 0. -1.
</event>
<event>
 8    1  0.6524083E-011  0.9118800E+02  0.7816164E-02  0.1184000E+00
        -11   -1    0    0    0    0  0.00000000000E+00  0.00000000000E+00  0.45593999997E+02  0.45594000000E+02  0.51100000000E-03 0. -1.
         11   -1    0    0    0    0 -0.00000000000E+00 -0.00000000000E+00 -0.45593999997E+02  0.45594000000E+02  0.51100000000E-03 0.  1.
         23    2    1    2    0    0  0.17763568394E-14 -0.49960036108E-15  0.71054273576E-14  0.91188000000E+02  0.91188000000E+02 0.  0.
    9900012    2    3    3    0    0 -0.30412378719E+01 -0.25982759011E+00 -0.43293261750E+02  0.47787272458E+02  0.20000006446E+02 0.  0.
         12    1    3    3    0    0  0.30412378719E+01  0.25982759011E+00  0.43293261750E+02  0.43400727542E+02  0.00000000000E+00 0. -1.
         11    1    4    4    0    0  0.93702352626E+00 -0.30065394086E+01 -0.68985261747E+01  0.75833340918E+01  0.51100000000E-03 0. -1.
        -11    1    4    4    0    0 -0.91778302484E+01  0.59596056177E+01 -0.22263867892E+02  0.24807847165E+02  0.51100000000E-03 0.  1.
        -12    1    4    4    0    0  0.51995688503E+01 -0.32128937992E+01 -0.14130867684E+02  0.15396091202E+02  0.00000000000E+00 0.  1.
</event>
<event>
 8    1  0.6524083E-011  0.9118800E+02  0.7816164E-02  0.1184000E+00
        -11   -1    0    0    0    0  0.00000000000E+00  0.00000000000E+00  0.45593999997E+02  0.45594000000E+02  0.51100000000E-03 0. -1.
         11   -1    0    0    0    0 -0.00000000000E+00 -0.00000000000E+00 -0.45593999997E+02  0.45594000000E+02  0.51100000000E-03 0.  1.
         23    2    1    2    0    0  0.88817841970E-15  0.88817841970E-15  0.00000000000E+00  0.91188000000E+02  0.91188000000E+02 0.  0.
    9900012    2    3    3    0    0 -0.53036921570E+01 -0.33771665650E+01 -0.42942852997E+02  0.47787273877E+02  0.20000012915E+02 0.  0.
         12    1    3    3    0    0  0.53036921570E+01  0.33771665650E+01  0.42942852997E+02  0.43400726123E+02  0.00000000000E+00 0. -1.
         11    1    4    4    0    0  0.34671453574E+01 -0.22657777627E+01 -0.13695635519E+02  0.14308224150E+02  0.51100000000E-03 0. -1.
        -11    1    4    4    0    0 -0.56557340605E+01  0.61625307385E+01 -0.14305825678E+02  0.16571685535E+02  0.51100000000E-03 0.  1.
         12    1    4    4    0    0 -0.31151034539E+01 -0.72739195407E+01 -0.14941391800E+02  0.16907364192E+02  0.00000000000E+00 0. -1.
</event>
<event>
 8    1  0.6524083E-011  0.9118800E+02  0.7816164E-02  0.1184000E+00
        -11   -1    0    0    0    0  0.00000000000E+00  0.00000000000E+00  0.45593999997E+02  0.45594000000E+02  0.51100000000E-03 0. -1.
         11   -1    0    0    0    0 -0.00000000000E+00 -0.00000000000E+00 -0.45593999997E+02  0.45594000000E+02  0.51100000000E-03 0.  1.
         23    2    1    2    0    0  0.00000000000E+00  0.00000000000E+00 -0.17763568394E-14  0.91188000000E+02  0.91188000000E+02 0.  0.
    9900012    2    3    3    0    0  0.38840439744E+02  0.16786173232E+02 -0.96574722710E+01  0.47787284085E+02  0.20000059457E+02 0.  0.
         12    1    3    3    0    0 -0.38840439744E+02 -0.16786173232E+02  0.96574722710E+01  0.43400715915E+02  0.00000000000E+00 0. -1.
         11    1    4    4    0    0  0.26475935429E+02  0.15544632485E+02 -0.10840751181E+02  0.32559678167E+02  0.51100000000E-03 0. -1.
        -11    1    4    4    0    0  0.30848442815E+01 -0.18788540356E+01 -0.28879777425E+01  0.46245834873E+01  0.51100000000E-03 0.  1.
         12    1    4    4    0    0  0.92796600335E+01  0.31203947828E+01  0.40712566521E+01  0.10603022431E+02  0.00000000000E+00 0. -1.
</event>
<event>
 8    1  0.6524083E-011  0.9118800E+02  0.7816164E-02  0.1184000E+00
        -11   -1    0    0    0    0  0.00000000000E+00  0.00000000000E+00  0.45593999997E+02  0.45594000000E+02  0.51100000000E-03 0. -1.
         11   -1    0    0    0    0 -0.00000000000E+00 -0.00000000000E+00 -0.45593999997E+02  0.45594000000E+02  0.51100000000E-03 0.  1.
         23    2    1    2    0    0  0.00000000000E+00  0.00000000000E+00  0.00000000000E+00  0.91188000000E+02  0.91188000000E+02 0.  0.
    9900012    2    3    3    0    0  0.26437282829E+02 -0.15415217634E+02  0.30774366377E+02  0.47787303185E+02  0.20000146543E+02 0.  0.
        -12    1    3    3    0    0 -0.26437282829E+02  0.15415217634E+02 -0.30774366377E+02  0.43400696815E+02  0.00000000000E+00 0.  1.
         11    1    4    4    0    0  0.11881790039E+02 -0.12934913351E+02  0.12597547113E+02  0.21614511594E+02  0.51100000000E-03 0. -1.
        -11    1    4    4    0    0  0.82723642394E+01 -0.38715747212E+01  0.17451010011E+02  0.19696671079E+02  0.51100000000E-03 0.  1.
        -12    1    4    4    0    0  0.62831285511E+01  0.13912704384E+01  0.72580925327E+00  0.64761205127E+01  0.00000000000E+00 0.  1.
</event>
<event>
 8    1  0.6524083E-011  0.9118800E+02  0.7816164E-02  0.1184000E+00
        -11   -1    0    0    0    0  0.00000000000E+00  0.00000000000E+00  0.45593999997E+02  0.45594000000E+02  0.51100000000E-03 0. -1.
         11   -1    0    0    0    0 -0.00000000000E+00 -0.00000000000E+00 -0.45593999997E+02  0.45594000000E+02  0.51100000000E-03 0.  1.
         23    2    1    2    0    0 -0.17763568394E-14  0.35527136788E-14  0.00000000000E+00  0.91188000000E+02  0.91188000000E+02 0.  0.
    9900012    2    3    3    0    0 -0.55855372541E+01  0.26221080742E+02 -0.34130346844E+02  0.47787264091E+02  0.19999968298E+02 0.  0.
         12    1    3    3    0    0  0.55855372541E+01 -0.26221080742E+02  0.34130346844E+02  0.43400735909E+02  0.00000000000E+00 0. -1.
         11    1    4    4    0    0 -0.17294290621E+01  0.29705266717E+01  0.57035734168E+00  0.34842877818E+01  0.51100000000E-03 0. -1.
        -11    1    4    4    0    0 -0.73658602958E+01  0.49981311611E+01 -0.99559072115E+01  0.13355047797E+02  0.51100000000E-03 0.  1.
         12    1    4    4    0    0  0.35097521038E+01  0.18252422909E+02 -0.24744796974E+02  0.30947928512E+02  0.00000000000E+00 0. -1.
</event>
<event>
 8    1  0.6524083E-011  0.9118800E+02  0.7816164E-02  0.1184000E+00
        -11   -1    0    0    0    0  0.00000000000E+00  0.00000000000E+00  0.45593999997E+02  0.45594000000E+02  0.51100000000E-03 0. -1.
         11   -1    0    0    0    0 -0.00000000000E+00 -0.00000000000E+00 -0.45593999997E+02  0.45594000000E+02  0.51100000000E-03 0.  1.
         23    2    1    2    0    0  0.88817841970E-15  0.13322676296E-14 -0.71054273576E-14  0.91188000000E+02  0.91188000000E+02 0.  0.
    9900012    2    3    3    0    0 -0.67561099251E+01  0.21267065411E+01 -0.42818866277E+02  0.47787271766E+02  0.20000003289E+02 0.  0.
         12    1    3    3    0    0  0.67561099251E+01 -0.21267065411E+01  0.42818866277E+02  0.43400728234E+02  0.00000000000E+00 0. -1.
         11    1    4    4    0    0 -0.77038864245E+01  0.90867263428E+00 -0.93883464376E+01  0.12178530334E+02  0.51100000000E-03 0. -1.
        -11    1    4    4    0    0  0.18970921679E+01  0.60350175463E+01 -0.11398758807E+02  0.13036567726E+02  0.51100000000E-03 0.  1.
        -12    1    4    4    0    0 -0.94931566851E+00 -0.48169836394E+01 -0.22031761032E+02  0.22572173705E+02  0.00000000000E+00 0.  1.
</event>
<event>
 8    1  0.6524083E-011  0.9118800E+02  0.7816164E-02  0.1184000E+00
        -11   -1    0    0    0    0  0.00000000000E+00  0.00000000000E+00  0.45593999997E+02  0.45594000000E+02  0.51100000000E-03 0. -1.
         11   -1    0    0    0    0 -0.00000000000E+00 -0.00000000000E+00 -0.45593999997E+02  0.45594000000E+02  0.51100000000E-03 0.  1.
         23    2    1    2    0    0  0.17763568394E-14  0.00000000000E+00  0.00000000000E+00  0.91188000000E+02  0.91188000000E+02 0.  0.
    9900012    2    3    3    0    0  0.15007011119E+02 -0.17767709223E+02 -0.36643164140E+02  0.47787270145E+02  0.19999995898E+02 0.  0.
         12    1    3    3    0    0 -0.15007011119E+02  0.17767709223E+02  0.36643164140E+02  0.43400729855E+02  0.00000000000E+00 0. -1.
         11    1    4    4    0    0  0.47379166725E+01 -0.52370296692E+01 -0.17981200774E+01  0.72874940978E+01  0.51100000000E-03 0. -1.
        -11    1    4    4    0    0  0.53222335530E+01 -0.10823542996E+02 -0.11819909030E+02  0.16887436239E+02  0.51100000000E-03 0.  1.
         12    1    4    4    0    0  0.49468608935E+01 -0.17071365576E+01 -0.23025135033E+02  0.23612339808E+02  0.00000000000E+00 0. -1.
</event>
<event>
 8    1  0.6524083E-011  0.9118800E+02  0.7816164E-02  0.1184000E+00
        -11   -1    0    0    0    0  0.00000000000E+00  0.00000000000E+00  0.45593999997E+02  0.45594000000E+02  0.51100000000E-03 0. -1.
         11   -1    0    0    0    0 -0.00000000000E+00 -0.00000000000E+00 -0.45593999997E+02  0.45594000000E+02  0.51100000000E-03 0.  1.
         23    2    1    2    0    0 -0.35527136788E-14  0.00000000000E+00 -0.71054273576E-14  0.91188000000E+02  0.91188000000E+02 0.  0.
    9900012    2    3    3    0    0 -0.20503334639E+02  0.31223361828E+02 -0.22098359793E+02  0.47787279260E+02  0.20000037460E+02 0.  0.
         12    1    3    3    0    0  0.20503334639E+02 -0.31223361828E+02  0.22098359793E+02  0.43400720740E+02  0.00000000000E+00 0. -1.
         11    1    4    4    0    0 -0.49423177827E+01  0.64694913525E+01 -0.37771740308E+01  0.89748463689E+01  0.51100000000E-03 0. -1.
        -11    1    4    4    0    0 -0.16703283307E+02  0.26636358333E+02 -0.18695486974E+02  0.36578907746E+02  0.51100000000E-03 0.  1.
         12    1    4    4    0    0  0.11422664498E+01 -0.18824878574E+01  0.37430121217E+00  0.22335251450E+01  0.00000000000E+00 0. -1.
</event>
<event>
 8    1  0.6524083E-011  0.9118800E+02  0.7816164E-02  0.1184000E+00
        -11   -1    0    0    0    0  0.00000000000E+00  0.00000000000E+00  0.45593999997E+02  0.45594000000E+02  0.51100000000E-03 0. -1.
         11   -1    0    0    0    0 -0.00000000000E+00 -0.00000000000E+00 -0.45593999997E+02  0.45594000000E+02  0.51100000000E-03 0.  1.
         23    2    1    2    0    0  0.00000000000E+00  0.00000000000E+00 -0.71054273576E-14  0.91188000000E+02  0.91188000000E+02 0.  0.
    9900012    2    3    3    0    0 -0.24226207552E+02 -0.12599605264E+02 -0.33733722876E+02  0.47787271386E+02  0.20000001555E+02 0.  0.
         12    1    3    3    0    0  0.24226207552E+02  0.12599605264E+02  0.33733722876E+02  0.43400728614E+02  0.00000000000E+00 0. -1.
         11    1    4    4    0    0  0.14728990515E+01  0.22719059810E-01 -0.14303675663E+00  0.14800025495E+01  0.51100000000E-03 0. -1.
        -11    1    4    4    0    0 -0.21762731928E+02 -0.44541440887E+01 -0.19539841836E+02  0.29584815696E+02  0.51100000000E-03 0.  1.
         12    1    4    4    0    0 -0.39363746762E+01 -0.81681802355E+01 -0.14050844284E+02  0.16722453140E+02  0.00000000000E+00 0. -1.
</event>
<event>
 8    1  0.6524083E-011  0.9118800E+02  0.7816164E-02  0.1184000E+00
        -11   -1    0    0    0    0  0.00000000000E+00  0.00000000000E+00  0.45593999997E+02  0.45594000000E+02  0.51100000000E-03 0. -1.
         11   -1    0    0    0    0 -0.00000000000E+00 -0.00000000000E+00 -0.45593999997E+02  0.45594000000E+02  0.51100000000E-03 0.  1.
         23    2    1    2    0    0  0.17763568394E-14  0.00000000000E+00  0.00000000000E+00  0.91188000000E+02  0.91188000000E+02 0.  0.
    9900012    2    3    3    0    0  0.96997889239E+01  0.21867044399E+02 -0.36212842470E+02  0.47787268489E+02  0.19999988347E+02 0.  0.
         12    1    3    3    0    0 -0.96997889239E+01 -0.21867044399E+02  0.36212842470E+02  0.43400731511E+02  0.00000000000E+00 0. -1.
         11    1    4    4    0    0  0.12754484752E+02  0.86742053241E+01 -0.13195007999E+02  0.20298447124E+02  0.51100000000E-03 0. -1.
        -11    1    4    4    0    0  0.47336183028E+00  0.99060389143E+01 -0.12817604576E+02  0.16206315612E+02  0.51100000000E-03 0.  1.
         12    1    4    4    0    0 -0.35280576582E+01  0.32868001611E+01 -0.10200229895E+02  0.11282505752E+02  0.00000000000E+00 0. -1.
</event>
<event>
 8    1  0.6524083E-011  0.9118800E+02  0.7816164E-02  0.1184000E+00
        -11   -1    0    0    0    0  0.00000000000E+00  0.00000000000E+00  0.45593999997E+02  0.45594000000E+02  0.51100000000E-03 0. -1.
         11   -1    0    0    0    0 -0.00000000000E+00 -0.00000000000E+00 -0.45593999997E+02  0.45594000000E+02  0.51100000000E-03 0.  1.
         23    2    1    2    0    0  0.00000000000E+00  0.00000000000E+00 -0.14210854715E-13  0.91188000000E+02  0.91188000000E+02 0.  0.
    9900012    2    3    3    0    0 -0.59057776540E+01 -0.80512921489E+01 -0.42236528357E+02  0.47787241451E+02  0.19999865073E+02 0.  0.
         12    1    3    3    0    0  0.59057776540E+01  0.80512921489E+01  0.42236528357E+02  0.43400758549E+02  0.00000000000E+00 0. -1.
         11    1    4    4    0    0 -0.31086739247E+00  0.22364985682E+01 -0.91328815787E+00  0.24357052165E+01  0.51100000000E-03 0. -1.
        -11    1    4    4    0    0 -0.30909509651E+01 -0.11576043337E+02 -0.40753828893E+02  0.42478621999E+02  0.51100000000E-03 0.  1.
        -12    1    4    4    0    0 -0.25039592965E+01  0.12882526198E+01 -0.56941130555E+00  0.28729142357E+01  0.00000000000E+00 0.  1.
</event>
<event>
 8    1  0.6524083E-011  0.9118800E+02  0.7816164E-02  0.1184000E+00
        -11   -1    0    0    0    0  0.00000000000E+00  0.00000000000E+00  0.45593999997E+02  0.45594000000E+02  0.51100000000E-03 0. -1.
         11   -1    0    0    0    0 -0.00000000000E+00 -0.00000000000E+00 -0.45593999997E+02  0.45594000000E+02  0.51100000000E-03 0.  1.
         23    2    1    2    0    0  0.00000000000E+00  0.00000000000E+00  0.00000000000E+00  0.91188000000E+02  0.91188000000E+02 0.  0.
    9900012    2    3    3    0    0 -0.95704986727E+01 -0.81742908597E+01 -0.41535645493E+02  0.47787270485E+02  0.19999997451E+02 0.  0.
         12    1    3    3    0    0  0.95704986727E+01  0.81742908597E+01  0.41535645493E+02  0.43400729515E+02  0.00000000000E+00 0. -1.
         11    1    4    4    0    0  0.27933360329E+01  0.34341126981E+01 -0.16122452725E+02  0.16719130909E+02  0.51100000000E-03 0. -1.
        -11    1    4    4    0    0 -0.19817991321E+01 -0.52778266754E+01 -0.94052096231E+01  0.10965443472E+02  0.51100000000E-03 0.  1.
         12    1    4    4    0    0 -0.10382035574E+02 -0.63305768824E+01 -0.16007983145E+02  0.20102696105E+02  0.00000000000E+00 0. -1.
</event>
<event>
 8    1  0.6524083E-011  0.9118800E+02  0.7816164E-02  0.1184000E+00
        -11   -1    0    0    0    0  0.00000000000E+00  0.00000000000E+00  0.45593999997E+02  0.45594000000E+02  0.51100000000E-03 0.  1.
         11   -1    0    0    0    0 -0.00000000000E+00 -0.00000000000E+00 -0.45593999997E+02  0.45594000000E+02  0.51100000000E-03 0. -1.
         23    2    1    2    0    0  0.00000000000E+00  0.00000000000E+00  0.00000000000E+00  0.91188000000E+02  0.91188000000E+02 0.  0.
    9900012    2    3    3    0    0  0.26650166454E+02 -0.29207563874E+02 -0.17897210648E+02  0.47787270646E+02  0.19999998184E+02 0.  0.
        -12    1    3    3    0    0 -0.26650166454E+02  0.29207563874E+02  0.17897210648E+02  0.43400729354E+02  0.00000000000E+00 0.  1.
         11    1    4    4    0    0  0.64113290756E+01 -0.35604459041E+01 -0.67618984626E+01  0.99752286506E+01  0.51100000000E-03 0.  1.
        -11    1    4    4    0    0  0.13314454291E+01 -0.56055460398E+01 -0.83140145382E+01  0.10115222753E+02  0.51100000000E-03 0. -1.
        -12    1    4    4    0    0  0.18907391950E+02 -0.20041571930E+02 -0.28212976469E+01  0.27696819243E+02  0.00000000000E+00 0.  1.
</event>
<event>
 8    1  0.6524083E-011  0.9118800E+02  0.7816164E-02  0.1184000E+00
        -11   -1    0    0    0    0  0.00000000000E+00  0.00000000000E+00  0.45593999997E+02  0.45594000000E+02  0.51100000000E-03 0. -1.
         11   -1    0    0    0    0 -0.00000000000E+00 -0.00000000000E+00 -0.45593999997E+02  0.45594000000E+02  0.51100000000E-03 0.  1.
         23    2    1    2    0    0  0.00000000000E+00  0.44408920985E-15 -0.35527136788E-14  0.91188000000E+02  0.91188000000E+02 0.  0.
    9900012    2    3    3    0    0 -0.37426289404E+02 -0.36810021846E+01 -0.21664406533E+02  0.47787269291E+02  0.19999992006E+02 0.  0.
         12    1    3    3    0    0  0.37426289404E+02  0.36810021846E+01  0.21664406533E+02  0.43400730709E+02  0.00000000000E+00 0. -1.
         11    1    4    4    0    0 -0.19794795535E+01  0.29278882352E+01 -0.62874949766E+00  0.35897346716E+01  0.51100000000E-03 0. -1.
        -11    1    4    4    0    0 -0.17646749253E+01 -0.11858763017E+00  0.21581180728E+01  0.27902714017E+01  0.51100000000E-03 0.  1.
        -12    1    4    4    0    0 -0.33682134925E+02 -0.64903027896E+01 -0.23193775109E+02  0.41407263218E+02  0.00000000000E+00 0.  1.
</event>
<event>
 8    1  0.6524083E-011  0.9118800E+02  0.7816164E-02  0.1184000E+00
        -11   -1    0    0    0    0  0.00000000000E+00  0.00000000000E+00  0.45593999997E+02  0.45594000000E+02  0.51100000000E-03 0. -1.
         11   -1    0    0    0    0 -0.00000000000E+00 -0.00000000000E+00 -0.45593999997E+02  0.45594000000E+02  0.51100000000E-03 0.  1.
         23    2    1    2    0    0  0.00000000000E+00  0.35527136788E-14  0.00000000000E+00  0.91188000000E+02  0.91188000000E+02 0.  0.
    9900012    2    3    3    0    0 -0.21323419629E+02 -0.25629867925E+02  0.27785680817E+02  0.47787280962E+02  0.20000045219E+02 0.  0.
        -12    1    3    3    0    0  0.21323419629E+02  0.25629867925E+02 -0.27785680817E+02  0.43400719038E+02  0.00000000000E+00 0.  1.
         11    1    4    4    0    0 -0.49202524650E+01 -0.11036719967E+02  0.97736515273E+01  0.15541632359E+02  0.51100000000E-03 0. -1.
        -11    1    4    4    0    0 -0.59200508395E+01  0.97606190047E+00  0.10368609662E+02  0.11979472666E+02  0.51100000000E-03 0.  1.
        -12    1    4    4    0    0 -0.10483116324E+02 -0.15569209859E+02  0.76434196272E+01  0.20266175937E+02  0.00000000000E+00 0.  1.
</event>
<event>
 8    1  0.6524083E-011  0.9118800E+02  0.7816164E-02  0.1184000E+00
        -11   -1    0    0    0    0  0.00000000000E+00  0.00000000000E+00  0.45593999997E+02  0.45594000000E+02  0.51100000000E-03 0. -1.
         11   -1    0    0    0    0 -0.00000000000E+00 -0.00000000000E+00 -0.45593999997E+02  0.45594000000E+02  0.51100000000E-03 0.  1.
         23    2    1    2    0    0 -0.35527136788E-14  0.17763568394E-14 -0.71054273576E-14  0.91188000000E+02  0.91188000000E+02 0.  0.
    9900012    2    3    3    0    0  0.24452293349E+02 -0.12504091403E+02  0.33605939016E+02  0.47787238613E+02  0.19999852131E+02 0.  0.
        -12    1    3    3    0    0 -0.24452293349E+02  0.12504091403E+02 -0.33605939016E+02  0.43400761387E+02  0.00000000000E+00 0.  1.
         11    1    4    4    0    0  0.13951190206E+02 -0.33894487814E+01  0.73096114563E+01  0.16110694930E+02  0.51100000000E-03 0.  1.
        -11    1    4    4    0    0  0.16768495660E+01  0.31421508863E+00  0.13107464407E+02  0.13218024778E+02  0.51100000000E-03 0. -1.
         12    1    4    4    0    0  0.88242535762E+01 -0.94288577107E+01  0.13188863153E+02  0.18458518905E+02  0.00000000000E+00 0. -1.
</event>
<event>
 8    1  0.6524083E-011  0.9118800E+02  0.7816164E-02  0.1184000E+00
        -11   -1    0    0    0    0  0.00000000000E+00  0.00000000000E+00  0.45593999997E+02  0.45594000000E+02  0.51100000000E-03 0. -1.
         11   -1    0    0    0    0 -0.00000000000E+00 -0.00000000000E+00 -0.45593999997E+02  0.45594000000E+02  0.51100000000E-03 0.  1.
         23    2    1    2    0    0  0.00000000000E+00  0.88817841970E-15  0.00000000000E+00  0.91188000000E+02  0.91188000000E+02 0.  0.
    9900012    2    3    3    0    0 -0.10334262560E+02  0.79727891424E+01  0.41391555892E+02  0.47787271336E+02  0.20000001331E+02 0.  0.
        -12    1    3    3    0    0  0.10334262560E+02 -0.79727891424E+01 -0.41391555892E+02  0.43400728664E+02  0.00000000000E+00 0.  1.
         11    1    4    4    0    0 -0.46849768091E+01 -0.22729972068E+01  0.19890063781E+02  0.20560402756E+02  0.51100000000E-03 0.  1.
        -11    1    4    4    0    0  0.30485775863E+01  0.54669625868E+00  0.74343921130E+01  0.80537499620E+01  0.51100000000E-03 0. -1.
         12    1    4    4    0    0 -0.86978633370E+01  0.96990900906E+01  0.14067099998E+02  0.19173118619E+02  0.00000000000E+00 0. -1.
</event>
<event>
 8    1  0.6524083E-011  0.9118800E+02  0.7816164E-02  0.1184000E+00
        -11   -1    0    0    0    0  0.00000000000E+00  0.00000000000E+00  0.45593999997E+02  0.45594000000E+02  0.51100000000E-03 0. -1.
         11   -1    0    0    0    0 -0.00000000000E+00 -0.00000000000E+00 -0.45593999997E+02  0.45594000000E+02  0.51100000000E-03 0.  1.
         23    2    1    2    0    0  0.00000000000E+00  0.35527136788E-14  0.00000000000E+00  0.91188000000E+02  0.91188000000E+02 0.  0.
    9900012    2    3    3    0    0 -0.34905022031E+01  0.83202822884E+01  0.42452471755E+02  0.47787273495E+02  0.20000011175E+02 0.  0.
        -12    1    3    3    0    0  0.34905022031E+01 -0.83202822884E+01 -0.42452471755E+02  0.43400726505E+02  0.00000000000E+00 0.  1.
         11    1    4    4    0    0 -0.30815908874E+01  0.56324883056E+01  0.29196445442E+02  0.29894038764E+02  0.51100000000E-03 0. -1.
        -11    1    4    4    0    0 -0.83485081463E+00  0.70411108245E+01  0.54414308292E+01  0.89377506821E+01  0.51100000000E-03 0.  1.
        -12    1    4    4    0    0  0.42593949889E+00 -0.43533168417E+01  0.78145954841E+01  0.89554840495E+01  0.00000000000E+00 0.  1.
</event>
<event>
 8    1  0.6524083E-011  0.9118800E+02  0.7816164E-02  0.1184000E+00
        -11   -1    0    0    0    0  0.00000000000E+00  0.00000000000E+00  0.45593999997E+02  0.45594000000E+02  0.51100000000E-03 0. -1.
         11   -1    0    0    0    0 -0.00000000000E+00 -0.00000000000E+00 -0.45593999997E+02  0.45594000000E+02  0.51100000000E-03 0.  1.
         23    2    1    2    0    0  0.00000000000E+00 -0.88817841970E-15  0.35527136788E-14  0.91188000000E+02  0.91188000000E+02 0.  0.
    9900012    2    3    3    0    0 -0.30088006169E+02 -0.74369551461E+01  0.30381354775E+02  0.47787272644E+02  0.20000007294E+02 0.  0.
        -12    1    3    3    0    0  0.30088006169E+02  0.74369551461E+01 -0.30381354775E+02  0.43400727356E+02  0.00000000000E+00 0.  1.
         11    1    4    4    0    0 -0.16245852036E+02 -0.54217914185E+01  0.17380041708E+02  0.24400602054E+02  0.51100000000E-03 0. -1.
        -11    1    4    4    0    0 -0.11571601553E+02  0.25999086798E+01  0.31464626753E+01  0.12270359215E+02  0.51100000000E-03 0.  1.
         12    1    4    4    0    0 -0.22705525793E+01 -0.46150724074E+01  0.98548503917E+01  0.11116311375E+02  0.00000000000E+00 0. -1.
</event>
<event>
 8    1  0.6524083E-011  0.9118800E+02  0.7816164E-02  0.1184000E+00
        -11   -1    0    0    0    0  0.00000000000E+00  0.00000000000E+00  0.45593999997E+02  0.45594000000E+02  0.51100000000E-03 0. -1.
         11   -1    0    0    0    0 -0.00000000000E+00 -0.00000000000E+00 -0.45593999997E+02  0.45594000000E+02  0.51100000000E-03 0.  1.
         23    2    1    2    0    0 -0.88817841970E-15  0.00000000000E+00  0.00000000000E+00  0.91188000000E+02  0.91188000000E+02 0.  0.
    9900012    2    3    3    0    0 -0.40339743033E+01 -0.30208718576E+02 -0.30899570335E+02  0.47787273352E+02  0.20000010520E+02 0.  0.
         12    1    3    3    0    0  0.40339743033E+01  0.30208718576E+02  0.30899570335E+02  0.43400726648E+02  0.00000000000E+00 0. -1.
         11    1    4    4    0    0 -0.41057001846E+01 -0.42151962841E+00 -0.15614339931E+01  0.44127688790E+01  0.51100000000E-03 0. -1.
        -11    1    4    4    0    0  0.50407115810E+01 -0.13654697408E+02 -0.97640981859E+01  0.17527040486E+02  0.51100000000E-03 0.  1.
         12    1    4    4    0    0 -0.49689856996E+01 -0.16132501540E+02 -0.19574038156E+02  0.25847463987E+02  0.00000000000E+00 0. -1.
</event>
<event>
 8    1  0.6524083E-011  0.9118800E+02  0.7816164E-02  0.1184000E+00
        -11   -1    0    0    0    0  0.00000000000E+00  0.00000000000E+00  0.45593999997E+02  0.45594000000E+02  0.51100000000E-03 0. -1.
         11   -1    0    0    0    0 -0.00000000000E+00 -0.00000000000E+00 -0.45593999997E+02  0.45594000000E+02  0.51100000000E-03 0.  1.
         23    2    1    2    0    0 -0.44408920985E-15  0.17763568394E-14  0.00000000000E+00  0.91188000000E+02  0.91188000000E+02 0.  0.
    9900012    2    3    3    0    0 -0.23009008760E+01 -0.10028375408E+02 -0.42163496525E+02  0.47787275382E+02  0.20000019775E+02 0.  0.
         12    1    3    3    0    0  0.23009008760E+01  0.10028375408E+02  0.42163496525E+02  0.43400724618E+02  0.00000000000E+00 0. -1.
         11    1    4    4    0    0  0.42618401435E+01  0.14969516221E+01 -0.60488771626E+01  0.75493748587E+01  0.51100000000E-03 0. -1.
        -11    1    4    4    0    0 -0.45533246732E+01 -0.16519975507E+01 -0.23985547535E+02  0.24469743609E+02  0.51100000000E-03 0.  1.
         12    1    4    4    0    0 -0.20094163463E+01 -0.98733294792E+01 -0.12129071828E+02  0.15768156914E+02  0.00000000000E+00 0. -1.
</event>
<event>
 8    1  0.6524083E-011  0.9118800E+02  0.7816164E-02  0.1184000E+00
        -11   -1    0    0    0    0  0.00000000000E+00  0.00000000000E+00  0.45593999997E+02  0.45594000000E+02  0.51100000000E-03 0. -1.
         11   -1    0    0    0    0 -0.00000000000E+00 -0.00000000000E+00 -0.45593999997E+02  0.45594000000E+02  0.51100000000E-03 0.  1.
         23    2    1    2    0    0  0.00000000000E+00  0.00000000000E+00  0.00000000000E+00  0.91188000000E+02  0.91188000000E+02 0.  0.
    9900012    2    3    3    0    0 -0.22372827921E+02 -0.63268802557E+01  0.36647651700E+02  0.47787271687E+02  0.20000002931E+02 0.  0.
        -12    1    3    3    0    0  0.22372827921E+02  0.63268802557E+01 -0.36647651700E+02  0.43400728313E+02  0.00000000000E+00 0.  1.
         11    1    4    4    0    0 -0.84088060871E+01  0.68051310386E+00  0.14979179229E+02  0.17191478370E+02  0.51100000000E-03 0. -1.
        -11    1    4    4    0    0  0.27792034353E+01  0.80605693819E+00  0.15593301395E+01  0.32871279664E+01  0.51100000000E-03 0.  1.
         12    1    4    4    0    0 -0.16743225270E+02 -0.78134502978E+01  0.20109142331E+02  0.27308665351E+02  0.00000000000E+00 0. -1.
</event>
<event>
 8    1  0.7683077E-011  0.9118800E+02  0.7816164E-02  0.1184000E+00
        -11   -1    0    0    0    0  0.00000000000E+00  0.00000000000E+00  0.45593999997E+02  0.45594000000E+02  0.51100000000E-03 0. -1.
         11   -1    0    0    0    0 -0.00000000000E+00 -0.00000000000E+00 -0.45593999997E+02  0.45594000000E+02  0.51100000000E-03 0.  1.
         23    2    1    2    0    0  0.00000000000E+00  0.00000000000E+00  0.00000000000E+00  0.91188000000E+02  0.91188000000E+02 0.  0.
    9900012    2    3    3    0    0  0.20593010628E+02 -0.95223473931E+01 -0.36998355332E+02  0.47787245584E+02  0.19999883915E+02 0.  0.
         12    1    3    3    0    0 -0.20593010628E+02  0.95223473931E+01  0.36998355332E+02  0.43400754416E+02  0.00000000000E+00 0. -1.
         11    1    4    4    0    0  0.12110685367E+02 -0.23157786914E+01 -0.24178597520E+02  0.27141041050E+02  0.51100000000E-03 0.  1.
        -11    1    4    4    0    0  0.71663394284E+01 -0.49523723970E+00 -0.11680813777E+02  0.13712880495E+02  0.51100000000E-03 0. -1.
         12    1    4    4    0    0  0.13159858319E+01 -0.67113314619E+01 -0.11389440357E+01  0.69333240382E+01  0.00000000000E+00 0. -1.
</event>
<event>
 8    1  0.6524083E-011  0.9118800E+02  0.7816164E-02  0.1184000E+00
        -11   -1    0    0    0    0  0.00000000000E+00  0.00000000000E+00  0.45593999997E+02  0.45594000000E+02  0.51100000000E-03 0. -1.
         11   -1    0    0    0    0 -0.00000000000E+00 -0.00000000000E+00 -0.45593999997E+02  0.45594000000E+02  0.51100000000E-03 0.  1.
         23    2    1    2    0    0 -0.35527136788E-14  0.00000000000E+00  0.00000000000E+00  0.91188000000E+02  0.91188000000E+02 0.  0.
    9900012    2    3    3    0    0 -0.30102680390E+02 -0.18408919968E+02 -0.25269817594E+02  0.47787269796E+02  0.19999994306E+02 0.  0.
         12    1    3    3    0    0  0.30102680390E+02  0.18408919968E+02  0.25269817594E+02  0.43400730204E+02  0.00000000000E+00 0. -1.
         11    1    4    4    0    0 -0.11398469705E+02 -0.13455948706E+02 -0.14313592907E+02  0.22712697096E+02  0.51100000000E-03 0. -1.
        -11    1    4    4    0    0 -0.12231896202E+02 -0.85700367528E+01 -0.88762356687E+01  0.17373899233E+02  0.51100000000E-03 0.  1.
         12    1    4    4    0    0 -0.64723144818E+01  0.36170654913E+01 -0.20799890186E+01  0.77006734665E+01  0.00000000000E+00 0. -1.
</event>
<event>
 8    1  0.6524083E-011  0.9118800E+02  0.7816164E-02  0.1184000E+00
        -11   -1    0    0    0    0  0.00000000000E+00  0.00000000000E+00  0.45593999997E+02  0.45594000000E+02  0.51100000000E-03 0. -1.
         11   -1    0    0    0    0 -0.00000000000E+00 -0.00000000000E+00 -0.45593999997E+02  0.45594000000E+02  0.51100000000E-03 0.  1.
         23    2    1    2    0    0 -0.71054273576E-14  0.35527136788E-14  0.00000000000E+00  0.91188000000E+02  0.91188000000E+02 0.  0.
    9900012    2    3    3    0    0 -0.33876522234E+02  0.16826643410E+02  0.21280703884E+02  0.47787273682E+02  0.20000012027E+02 0.  0.
        -12    1    3    3    0    0  0.33876522234E+02 -0.16826643410E+02 -0.21280703884E+02  0.43400726318E+02  0.00000000000E+00 0.  1.
         11    1    4    4    0    0 -0.33787221129E+01  0.66394663473E+01  0.14214752178E+01  0.75841194972E+01  0.51100000000E-03 0. -1.
        -11    1    4    4    0    0 -0.26045469218E+02  0.13188794196E+02  0.18817515066E+02  0.34733408020E+02  0.51100000000E-03 0.  1.
        -12    1    4    4    0    0 -0.44523309031E+01 -0.30016171339E+01  0.10417135997E+01  0.54697461653E+01  0.00000000000E+00 0.  1.
</event>
<event>
 8    1  0.6524083E-011  0.9118800E+02  0.7816164E-02  0.1184000E+00
        -11   -1    0    0    0    0  0.00000000000E+00  0.00000000000E+00  0.45593999997E+02  0.45594000000E+02  0.51100000000E-03 0.  1.
         11   -1    0    0    0    0 -0.00000000000E+00 -0.00000000000E+00 -0.45593999997E+02  0.45594000000E+02  0.51100000000E-03 0. -1.
         23    2    1    2    0    0 -0.35527136788E-14  0.00000000000E+00  0.17763568394E-14  0.91188000000E+02  0.91188000000E+02 0.  0.
    9900012    2    3    3    0    0 -0.25706288709E+02 -0.31617390305E+02  0.14938219255E+02  0.47787273699E+02  0.20000012105E+02 0.  0.
         12    1    3    3    0    0  0.25706288709E+02  0.31617390305E+02 -0.14938219255E+02  0.43400726301E+02  0.00000000000E+00 0. -1.
         11    1    4    4    0    0 -0.45281133938E+01 -0.37087137860E+00  0.10332969430E+01  0.46592981574E+01  0.51100000000E-03 0. -1.
        -11    1    4    4    0    0 -0.16292439732E+02 -0.28332551323E+02  0.57500167967E+01  0.33184932579E+02  0.51100000000E-03 0.  1.
        -12    1    4    4    0    0 -0.48857355829E+01 -0.29139676040E+01  0.81549055156E+01  0.99430429624E+01  0.00000000000E+00 0.  1.
</event>
<event>
 8    1  0.6524083E-011  0.9118800E+02  0.7816164E-02  0.1184000E+00
        -11   -1    0    0    0    0  0.00000000000E+00  0.00000000000E+00  0.45593999997E+02  0.45594000000E+02  0.51100000000E-03 0. -1.
         11   -1    0    0    0    0 -0.00000000000E+00 -0.00000000000E+00 -0.45593999997E+02  0.45594000000E+02  0.51100000000E-03 0.  1.
         23    2    1    2    0    0  0.00000000000E+00  0.00000000000E+00  0.17763568394E-14  0.91188000000E+02  0.91188000000E+02 0.  0.
    9900012    2    3    3    0    0 -0.24237681455E+02  0.34773194870E+02 -0.93266732428E+01  0.47787226763E+02  0.19999798103E+02 0.  0.
         12    1    3    3    0    0  0.24237681455E+02 -0.34773194870E+02  0.93266732428E+01  0.43400773237E+02  0.00000000000E+00 0. -1.
         11    1    4    4    0    0 -0.32638134782E+01  0.10830482813E+02  0.35957481145E+01  0.11869340384E+02  0.51100000000E-03 0. -1.
        -11    1    4    4    0    0 -0.10557945296E+02  0.19278136299E+02 -0.70493855138E+01  0.23082690147E+02  0.51100000000E-03 0.  1.
         12    1    4    4    0    0 -0.10415922681E+02  0.46645757571E+01 -0.58730358435E+01  0.12835196232E+02  0.00000000000E+00 0. -1.
</event>
<event>
 8    1  0.6524083E-011  0.9118800E+02  0.7816164E-02  0.1184000E+00
        -11   -1    0    0    0    0  0.00000000000E+00  0.00000000000E+00  0.45593999997E+02  0.45594000000E+02  0.51100000000E-03 0. -1.
         11   -1    0    0    0    0 -0.00000000000E+00 -0.00000000000E+00 -0.45593999997E+02  0.45594000000E+02  0.51100000000E-03 0.  1.
         23    2    1    2    0    0  0.00000000000E+00  0.00000000000E+00  0.71054273576E-14  0.91188000000E+02  0.91188000000E+02 0.  0.
    9900012    2    3    3    0    0  0.92983475216E+01 -0.11948280888E+02  0.40674341690E+02  0.47787277026E+02  0.20000027270E+02 0.  0.
        -12    1    3    3    0    0 -0.92983475216E+01  0.11948280888E+02 -0.40674341690E+02  0.43400722974E+02  0.00000000000E+00 0.  1.
         11    1    4    4    0    0  0.26940112524E+01 -0.11096642758E+02  0.23018441093E+02  0.25695170903E+02  0.51100000000E-03 0. -1.
        -11    1    4    4    0    0  0.12174481057E+01 -0.55843490210E+01  0.52383173899E+01  0.77528770928E+01  0.51100000000E-03 0.  1.
        -12    1    4    4    0    0  0.53868881634E+01  0.47327108909E+01  0.12417583207E+02  0.14339229029E+02  0.00000000000E+00 0.  1.
</event>
<event>
 8    1  0.6524083E-011  0.9118800E+02  0.7816164E-02  0.1184000E+00
        -11   -1    0    0    0    0  0.00000000000E+00  0.00000000000E+00  0.45593999997E+02  0.45594000000E+02  0.51100000000E-03 0. -1.
         11   -1    0    0    0    0 -0.00000000000E+00 -0.00000000000E+00 -0.45593999997E+02  0.45594000000E+02  0.51100000000E-03 0.  1.
         23    2    1    2    0    0  0.00000000000E+00  0.00000000000E+00  0.00000000000E+00  0.91188000000E+02  0.91188000000E+02 0.  0.
    9900012    2    3    3    0    0 -0.89803220446E+01  0.54815404947E+01 -0.42106179254E+02  0.47787264965E+02  0.19999972280E+02 0.  0.
         12    1    3    3    0    0  0.89803220446E+01 -0.54815404947E+01  0.42106179254E+02  0.43400735035E+02  0.00000000000E+00 0. -1.
         11    1    4    4    0    0  0.60667560025E+01  0.26635270236E+01 -0.12188076800E+02  0.13872603251E+02  0.51100000000E-03 0.  1.
        -11    1    4    4    0    0 -0.41061915879E+01 -0.11581980830E+01 -0.94336333682E+01  0.10353534225E+02  0.51100000000E-03 0. -1.
         12    1    4    4    0    0 -0.10940886459E+02  0.39762115541E+01 -0.20484469086E+02  0.23561127489E+02  0.00000000000E+00 0. -1.
</event>
<event>
 8    1  0.6524083E-011  0.9118800E+02  0.7816164E-02  0.1184000E+00
        -11   -1    0    0    0    0  0.00000000000E+00  0.00000000000E+00  0.45593999997E+02  0.45594000000E+02  0.51100000000E-03 0. -1.
         11   -1    0    0    0    0 -0.00000000000E+00 -0.00000000000E+00 -0.45593999997E+02  0.45594000000E+02  0.51100000000E-03 0.  1.
         23    2    1    2    0    0  0.00000000000E+00  0.00000000000E+00  0.00000000000E+00  0.91188000000E+02  0.91188000000E+02 0.  0.
    9900012    2    3    3    0    0 -0.24270332864E+02 -0.18369819987E+02  0.30937417056E+02  0.47787272842E+02  0.20000008197E+02 0.  0.
        -12    1    3    3    0    0  0.24270332864E+02  0.18369819987E+02 -0.30937417056E+02  0.43400727158E+02  0.00000000000E+00 0.  1.
         11    1    4    4    0    0 -0.28625054351E+01 -0.20322551691E+01  0.13232532606E+02  0.13690285529E+02  0.51100000000E-03 0. -1.
        -11    1    4    4    0    0 -0.96291082909E+01 -0.18999339385E+01  0.27160561448E+01  0.10183635730E+02  0.51100000000E-03 0.  1.
         12    1    4    4    0    0 -0.11778719139E+02 -0.14437630880E+02  0.14988828306E+02  0.23913351583E+02  0.00000000000E+00 0. -1.
</event>
<event>
 8    1  0.6524083E-011  0.9118800E+02  0.7816164E-02  0.1184000E+00
        -11   -1    0    0    0    0  0.00000000000E+00  0.00000000000E+00  0.45593999997E+02  0.45594000000E+02  0.51100000000E-03 0. -1.
         11   -1    0    0    0    0 -0.00000000000E+00 -0.00000000000E+00 -0.45593999997E+02  0.45594000000E+02  0.51100000000E-03 0.  1.
         23    2    1    2    0    0  0.71054273576E-14 -0.22204460493E-15  0.00000000000E+00  0.91188000000E+02  0.91188000000E+02 0.  0.
    9900012    2    3    3    0    0 -0.37975014521E+02 -0.11737564704E+01  0.20979604961E+02  0.47787271245E+02  0.20000000914E+02 0.  0.
        -12    1    3    3    0    0  0.37975014521E+02  0.11737564704E+01 -0.20979604961E+02  0.43400728755E+02  0.00000000000E+00 0.  1.
         11    1    4    4    0    0 -0.21858813624E+02 -0.22158977655E+01  0.91449613838E+01  0.23798072505E+02  0.51100000000E-03 0. -1.
        -11    1    4    4    0    0 -0.13609166227E+02  0.60486371274E+01  0.64789740544E+01  0.16241075136E+02  0.51100000000E-03 0.  1.
        -12    1    4    4    0    0 -0.25070346697E+01 -0.50064958322E+01  0.53556695230E+01  0.77481236046E+01  0.00000000000E+00 0.  1.
</event>
<event>
 8    1  0.6524083E-011  0.9118800E+02  0.7816164E-02  0.1184000E+00
        -11   -1    0    0    0    0  0.00000000000E+00  0.00000000000E+00  0.45593999997E+02  0.45594000000E+02  0.51100000000E-03 0. -1.
         11   -1    0    0    0    0 -0.00000000000E+00 -0.00000000000E+00 -0.45593999997E+02  0.45594000000E+02  0.51100000000E-03 0.  1.
         23    2    1    2    0    0  0.00000000000E+00  0.00000000000E+00  0.71054273576E-14  0.91188000000E+02  0.91188000000E+02 0.  0.
    9900012    2    3    3    0    0 -0.90939676010E+01  0.24501695582E+01  0.42366492954E+02  0.47787270711E+02  0.19999998481E+02 0.  0.
        -12    1    3    3    0    0  0.90939676010E+01 -0.24501695582E+01 -0.42366492954E+02  0.43400729289E+02  0.00000000000E+00 0.  1.
         11    1    4    4    0    0 -0.11914964639E+00  0.27720257472E+00  0.26802042832E+02  0.26803741122E+02  0.51100000000E-03 0. -1.
        -11    1    4    4    0    0  0.11017194223E+01 -0.12967278014E+01  0.73046634306E+01  0.75002264481E+01  0.51100000000E-03 0.  1.
        -12    1    4    4    0    0 -0.10076537377E+02  0.34696947849E+01  0.82597866909E+01  0.13483303141E+02  0.00000000000E+00 0.  1.
</event>
<event>
 8    1  0.6524083E-011  0.9118800E+02  0.7816164E-02  0.1184000E+00
        -11   -1    0    0    0    0  0.00000000000E+00  0.00000000000E+00  0.45593999997E+02  0.45594000000E+02  0.51100000000E-03 0. -1.
         11   -1    0    0    0    0 -0.00000000000E+00 -0.00000000000E+00 -0.45593999997E+02  0.45594000000E+02  0.51100000000E-03 0.  1.
         23    2    1    2    0    0  0.35527136788E-14  0.00000000000E+00  0.35527136788E-14  0.91188000000E+02  0.91188000000E+02 0.  0.
    9900012    2    3    3    0    0  0.29693347463E+02 -0.45823174560E+01  0.31319814824E+02  0.47787270542E+02  0.19999997711E+02 0.  0.
        -12    1    3    3    0    0 -0.29693347463E+02  0.45823174560E+01 -0.31319814824E+02  0.43400729458E+02  0.00000000000E+00 0.  1.
         11    1    4    4    0    0  0.10030982791E+02  0.34262760608E+01  0.15726757553E+02  0.18965518364E+02  0.51100000000E-03 0. -1.
        -11    1    4    4    0    0  0.32892075819E+01  0.26210883086E+01  0.68966470986E+00  0.42619981360E+01  0.51100000000E-03 0.  1.
         12    1    4    4    0    0  0.16373157090E+02 -0.10629681825E+02  0.14903392561E+02  0.24559754042E+02  0.00000000000E+00 0. -1.
</event>
<event>
 8    1  0.6524083E-011  0.9118800E+02  0.7816164E-02  0.1184000E+00
        -11   -1    0    0    0    0  0.00000000000E+00  0.00000000000E+00  0.45593999997E+02  0.45594000000E+02  0.51100000000E-03 0. -1.
         11   -1    0    0    0    0 -0.00000000000E+00 -0.00000000000E+00 -0.45593999997E+02  0.45594000000E+02  0.51100000000E-03 0.  1.
         23    2    1    2    0    0  0.00000000000E+00  0.00000000000E+00  0.00000000000E+00  0.91188000000E+02  0.91188000000E+02 0.  0.
    9900012    2    3    3    0    0 -0.37542149361E+02 -0.12662121223E+02 -0.17716687467E+02  0.47787270659E+02  0.19999998243E+02 0.  0.
         12    1    3    3    0    0  0.37542149361E+02  0.12662121223E+02  0.17716687467E+02  0.43400729341E+02  0.00000000000E+00 0. -1.
         11    1    4    4    0    0 -0.63144083573E+01 -0.17058116318E+01  0.21766682125E+01  0.68934339044E+01  0.51100000000E-03 0. -1.
        -11    1    4    4    0    0 -0.21150169419E+02 -0.87663418232E+01 -0.61408899021E+01  0.23704196769E+02  0.51100000000E-03 0.  1.
        -12    1    4    4    0    0 -0.10077571585E+02 -0.21899677684E+01 -0.13752465777E+02  0.17189639985E+02  0.00000000000E+00 0.  1.
</event>
<event>
 8    1  0.6524083E-011  0.9118800E+02  0.7816164E-02  0.1184000E+00
        -11   -1    0    0    0    0  0.00000000000E+00  0.00000000000E+00  0.45593999997E+02  0.45594000000E+02  0.51100000000E-03 0. -1.
         11   -1    0    0    0    0 -0.00000000000E+00 -0.00000000000E+00 -0.45593999997E+02  0.45594000000E+02  0.51100000000E-03 0.  1.
         23    2    1    2    0    0 -0.17763568394E-14  0.00000000000E+00  0.00000000000E+00  0.91188000000E+02  0.91188000000E+02 0.  0.
    9900012    2    3    3    0    0 -0.14945213412E+02 -0.38990631328E+02 -0.11831926265E+02  0.47787271730E+02  0.20000003124E+02 0.  0.
         12    1    3    3    0    0  0.14945213412E+02  0.38990631328E+02  0.11831926265E+02  0.43400728270E+02  0.00000000000E+00 0. -1.
         11    1    4    4    0    0  0.15342150656E+01 -0.13909041283E+02  0.31294273298E+00  0.13996898896E+02  0.51100000000E-03 0. -1.
        -11    1    4    4    0    0 -0.78923932772E+01 -0.78959079439E+01 -0.19539842598E+00  0.11165724997E+02  0.51100000000E-03 0.  1.
         12    1    4    4    0    0 -0.85870352003E+01 -0.17185682101E+02 -0.11949470572E+02  0.22624647837E+02  0.00000000000E+00 0. -1.
</event>
<event>
 8    1  0.6524083E-011  0.9118800E+02  0.7816164E-02  0.1184000E+00
        -11   -1    0    0    0    0  0.00000000000E+00  0.00000000000E+00  0.45593999997E+02  0.45594000000E+02  0.51100000000E-03 0. -1.
         11   -1    0    0    0    0 -0.00000000000E+00 -0.00000000000E+00 -0.45593999997E+02  0.45594000000E+02  0.51100000000E-03 0.  1.
         23    2    1    2    0    0  0.00000000000E+00  0.00000000000E+00  0.00000000000E+00  0.91188000000E+02  0.91188000000E+02 0.  0.
    9900012    2    3    3    0    0  0.15760013001E+02 -0.17268737036E+02 -0.36565477315E+02  0.47787292403E+02  0.20000097384E+02 0.  0.
         12    1    3    3    0    0 -0.15760013001E+02  0.17268737036E+02  0.36565477315E+02  0.43400707597E+02  0.00000000000E+00 0. -1.
         11    1    4    4    0    0 -0.16123339969E+00 -0.89560133900E+01 -0.21312885672E+02  0.23118721158E+02  0.51100000000E-03 0. -1.
        -11    1    4    4    0    0  0.95532852554E+01 -0.79813830030E+01 -0.12747448462E+02  0.17817552480E+02  0.51100000000E-03 0.  1.
         12    1    4    4    0    0  0.63679611453E+01 -0.33134064260E+00 -0.25051431806E+01  0.68510187654E+01  0.00000000000E+00 0. -1.
</event>
<event>
 8    1  0.6524083E-011  0.9118800E+02  0.7816164E-02  0.1184000E+00
        -11   -1    0    0    0    0  0.00000000000E+00  0.00000000000E+00  0.45593999997E+02  0.45594000000E+02  0.51100000000E-03 0. -1.
         11   -1    0    0    0    0 -0.00000000000E+00 -0.00000000000E+00 -0.45593999997E+02  0.45594000000E+02  0.51100000000E-03 0.  1.
         23    2    1    2    0    0  0.00000000000E+00  0.71054273576E-14  0.00000000000E+00  0.91188000000E+02  0.91188000000E+02 0.  0.
    9900012    2    3    3    0    0 -0.53512293744E+01 -0.38429338380E+02  0.19446782874E+02  0.47787227331E+02  0.19999800692E+02 0.  0.
        -12    1    3    3    0    0  0.53512293744E+01  0.38429338380E+02 -0.19446782874E+02  0.43400772669E+02  0.00000000000E+00 0.  1.
         11    1    4    4    0    0  0.19026692027E+00 -0.59642617187E+01 -0.12512299225E+01  0.60970645339E+01  0.51100000000E-03 0. -1.
        -11    1    4    4    0    0  0.17516384399E+01 -0.13896204174E+02  0.16427133899E+01  0.14102171295E+02  0.51100000000E-03 0.  1.
        -12    1    4    4    0    0 -0.72931347346E+01 -0.18568872487E+02  0.19055299406E+02  0.27587991503E+02  0.00000000000E+00 0.  1.
</event>
<event>
 8    1  0.6757565E-011  0.9118800E+02  0.7816164E-02  0.1184000E+00
        -11   -1    0    0    0    0  0.00000000000E+00  0.00000000000E+00  0.45593999997E+02  0.45594000000E+02  0.51100000000E-03 0. -1.
         11   -1    0    0    0    0 -0.00000000000E+00 -0.00000000000E+00 -0.45593999997E+02  0.45594000000E+02  0.51100000000E-03 0.  1.
         23    2    1    2    0    0  0.71054273576E-14  0.35527136788E-14 -0.71054273576E-14  0.91188000000E+02  0.91188000000E+02 0.  0.
    9900012    2    3    3    0    0  0.32243140924E+02  0.17333416079E+02 -0.23314317617E+02  0.47787252822E+02  0.19999916918E+02 0.  0.
         12    1    3    3    0    0 -0.32243140924E+02 -0.17333416079E+02  0.23314317617E+02  0.43400747178E+02  0.00000000000E+00 0. -1.
         11    1    4    4    0    0  0.33048578665E+01  0.70916671363E+01 -0.64524200469E+01  0.10141378260E+02  0.51100000000E-03 0.  1.
        -11    1    4    4    0    0  0.27772386278E+02  0.12204346974E+02 -0.17806241929E+02  0.35175471234E+02  0.51100000000E-03 0. -1.
         12    1    4    4    0    0  0.11658967803E+01 -0.19625980319E+01  0.94434435885E+00  0.24704033285E+01  0.00000000000E+00 0. -1.
</event>
<event>
 8    1  0.6524083E-011  0.9118800E+02  0.7816164E-02  0.1184000E+00
        -11   -1    0    0    0    0  0.00000000000E+00  0.00000000000E+00  0.45593999997E+02  0.45594000000E+02  0.51100000000E-03 0. -1.
         11   -1    0    0    0    0 -0.00000000000E+00 -0.00000000000E+00 -0.45593999997E+02  0.45594000000E+02  0.51100000000E-03 0.  1.
         23    2    1    2    0    0  0.00000000000E+00  0.00000000000E+00 -0.35527136788E-14  0.91188000000E+02  0.91188000000E+02 0.  0.
    9900012    2    3    3    0    0 -0.23152681096E+01 -0.30740151634E+02 -0.30550055207E+02  0.47787271181E+02  0.20000000622E+02 0.  0.
         12    1    3    3    0    0  0.23152681096E+01  0.30740151634E+02  0.30550055207E+02  0.43400728819E+02  0.00000000000E+00 0. -1.
         11    1    4    4    0    0 -0.18052428091E+01 -0.17088413780E+02 -0.11421950521E+02  0.20633316289E+02  0.51100000000E-03 0.  1.
        -11    1    4    4    0    0  0.39333711996E+01 -0.11460115387E+02 -0.18563011037E+02  0.22167341580E+02  0.51100000000E-03 0. -1.
         12    1    4    4    0    0 -0.44433965000E+01 -0.21916224668E+01 -0.56509364904E+00  0.49866133122E+01  0.00000000000E+00 0. -1.
</event>
<event>
 8    1  0.6524083E-011  0.9118800E+02  0.7816164E-02  0.1184000E+00
        -11   -1    0    0    0    0  0.00000000000E+00  0.00000000000E+00  0.45593999997E+02  0.45594000000E+02  0.51100000000E-03 0. -1.
         11   -1    0    0    0    0 -0.00000000000E+00 -0.00000000000E+00 -0.45593999997E+02  0.45594000000E+02  0.51100000000E-03 0.  1.
         23    2    1    2    0    0 -0.44408920985E-15  0.00000000000E+00  0.00000000000E+00  0.91188000000E+02  0.91188000000E+02 0.  0.
    9900012    2    3    3    0    0  0.25609495821E+01  0.24092932263E+02 -0.36008267099E+02  0.47787272503E+02  0.20000006649E+02 0.  0.
         12    1    3    3    0    0 -0.25609495821E+01 -0.24092932263E+02  0.36008267099E+02  0.43400727497E+02  0.00000000000E+00 0. -1.
         11    1    4    4    0    0 -0.32390078022E+01  0.15300528887E+02 -0.11455259356E+02  0.19386085808E+02  0.51100000000E-03 0. -1.
        -11    1    4    4    0    0  0.19081945828E+01  0.95778440639E+01 -0.20604397147E+02  0.22801699181E+02  0.51100000000E-03 0.  1.
         12    1    4    4    0    0  0.38917628015E+01 -0.78544068821E+00 -0.39486105965E+01  0.55994875141E+01  0.00000000000E+00 0. -1.
</event>
<event>
 8    1  0.6524083E-011  0.9118800E+02  0.7816164E-02  0.1184000E+00
        -11   -1    0    0    0    0  0.00000000000E+00  0.00000000000E+00  0.45593999997E+02  0.45594000000E+02  0.51100000000E-03 0. -1.
         11   -1    0    0    0    0 -0.00000000000E+00 -0.00000000000E+00 -0.45593999997E+02  0.45594000000E+02  0.51100000000E-03 0.  1.
         23    2    1    2    0    0  0.17763568394E-14  0.00000000000E+00  0.00000000000E+00  0.91188000000E+02  0.91188000000E+02 0.  0.
    9900012    2    3    3    0    0 -0.13288792814E+02  0.13139341553E+02  0.39171282671E+02  0.47787266170E+02  0.19999977778E+02 0.  0.
        -12    1    3    3    0    0  0.13288792814E+02 -0.13139341553E+02 -0.39171282671E+02  0.43400733830E+02  0.00000000000E+00 0.  1.
         11    1    4    4    0    0 -0.16974895404E+02  0.14209418359E+02  0.32522550147E+02  0.39341719744E+02  0.51100000000E-03 0. -1.
        -11    1    4    4    0    0  0.87799425315E+00 -0.17032434967E+01  0.11390612474E+01  0.22292090760E+01  0.51100000000E-03 0.  1.
         12    1    4    4    0    0  0.28081083369E+01  0.63316669092E+00  0.55096712760E+01  0.62163373508E+01  0.00000000000E+00 0. -1.
</event>
<event>
 8    1  0.9114594E-011  0.9118800E+02  0.7816164E-02  0.1184000E+00
        -11   -1    0    0    0    0  0.00000000000E+00  0.00000000000E+00  0.45593999997E+02  0.45594000000E+02  0.51100000000E-03 0. -1.
         11   -1    0    0    0    0 -0.00000000000E+00 -0.00000000000E+00 -0.45593999997E+02  0.45594000000E+02  0.51100000000E-03 0.  1.
         23    2    1    2    0    0  0.00000000000E+00  0.00000000000E+00  0.00000000000E+00  0.91188000000E+02  0.91188000000E+02 0.  0.
    9900012    2    3    3    0    0  0.22840821545E+02 -0.46471697771E+01 -0.36610434795E+02  0.47787271301E+02  0.20000001169E+02 0.  0.
         12    1    3    3    0    0 -0.22840821545E+02  0.46471697771E+01  0.36610434795E+02  0.43400728699E+02  0.00000000000E+00 0. -1.
         11    1    4    4    0    0  0.57454279774E+01 -0.19066084375E+01 -0.20777098071E+02  0.21641000506E+02  0.51100000000E-03 0. -1.
        -11    1    4    4    0    0  0.16624656134E+02  0.65145367334E+00 -0.15442254195E+02  0.22699488944E+02  0.51100000000E-03 0.  1.
         12    1    4    4    0    0  0.47073743334E+00 -0.33920150129E+01 -0.39108252854E+00  0.34467818503E+01  0.00000000000E+00 0. -1.
</event>
<event>
 8    1  0.6524083E-011  0.9118800E+02  0.7816164E-02  0.1184000E+00
        -11   -1    0    0    0    0  0.00000000000E+00  0.00000000000E+00  0.45593999997E+02  0.45594000000E+02  0.51100000000E-03 0. -1.
         11   -1    0    0    0    0 -0.00000000000E+00 -0.00000000000E+00 -0.45593999997E+02  0.45594000000E+02  0.51100000000E-03 0.  1.
         23    2    1    2    0    0  0.17763568394E-14 -0.35527136788E-14  0.00000000000E+00  0.91188000000E+02  0.91188000000E+02 0.  0.
    9900012    2    3    3    0    0  0.10457752277E+02 -0.28935316657E+02 -0.30610561942E+02  0.47787266883E+02  0.19999981025E+02 0.  0.
         12    1    3    3    0    0 -0.10457752277E+02  0.28935316657E+02  0.30610561942E+02  0.43400733117E+02  0.00000000000E+00 0. -1.
         11    1    4    4    0    0 -0.35584310451E+01 -0.95315450331E+01 -0.63352924393E+01  0.11985354095E+02  0.51100000000E-03 0. -1.
        -11    1    4    4    0    0  0.65052389947E+01 -0.68371624787E+01 -0.28610961958E+01  0.98615818630E+01  0.51100000000E-03 0.  1.
        -12    1    4    4    0    0  0.75109443271E+01 -0.12566609146E+02 -0.21414173307E+02  0.25940330925E+02  0.00000000000E+00 0.  1.
</event>
<event>
 8    1  0.6524083E-011  0.9118800E+02  0.7816164E-02  0.1184000E+00
        -11   -1    0    0    0    0  0.00000000000E+00  0.00000000000E+00  0.45593999997E+02  0.45594000000E+02  0.51100000000E-03 0. -1.
         11   -1    0    0    0    0 -0.00000000000E+00 -0.00000000000E+00 -0.45593999997E+02  0.45594000000E+02  0.51100000000E-03 0.  1.
         23    2    1    2    0    0  0.35527136788E-14  0.00000000000E+00  0.35527136788E-14  0.91188000000E+02  0.91188000000E+02 0.  0.
    9900012    2    3    3    0    0 -0.27379313452E+02  0.20029916484E+02  0.27070242393E+02  0.47787281312E+02  0.20000046814E+02 0.  0.
        -12    1    3    3    0    0  0.27379313452E+02 -0.20029916484E+02 -0.27070242393E+02  0.43400718688E+02  0.00000000000E+00 0.  1.
         11    1    4    4    0    0 -0.11890259691E+02  0.18538182639E+02  0.18195568706E+02  0.28567835268E+02  0.51100000000E-03 0. -1.
        -11    1    4    4    0    0  0.44793578027E+00  0.72632063353E+00  0.13056659428E+01  0.15597922750E+01  0.51100000000E-03 0.  1.
         12    1    4    4    0    0 -0.15936989541E+02  0.76541321093E+00  0.75690077439E+01  0.17659653769E+02  0.00000000000E+00 0. -1.
</event>
<event>
 8    1  0.6524083E-011  0.9118800E+02  0.7816164E-02  0.1184000E+00
        -11   -1    0    0    0    0  0.00000000000E+00  0.00000000000E+00  0.45593999997E+02  0.45594000000E+02  0.51100000000E-03 0. -1.
         11   -1    0    0    0    0 -0.00000000000E+00 -0.00000000000E+00 -0.45593999997E+02  0.45594000000E+02  0.51100000000E-03 0.  1.
         23    2    1    2    0    0 -0.88817841970E-15  0.17763568394E-14  0.00000000000E+00  0.91188000000E+02  0.91188000000E+02 0.  0.
    9900012    2    3    3    0    0  0.74503111340E+01 -0.10851832266E+02  0.41356452717E+02  0.47787244467E+02  0.19999878822E+02 0.  0.
        -12    1    3    3    0    0 -0.74503111340E+01  0.10851832266E+02 -0.41356452717E+02  0.43400755533E+02  0.00000000000E+00 0.  1.
         11    1    4    4    0    0  0.10236369216E+02 -0.37965993205E+01  0.20100559556E+02  0.22874219459E+02  0.51100000000E-03 0. -1.
        -11    1    4    4    0    0  0.10963313098E+01 -0.86818017260E+01  0.13489401071E+02  0.16079165559E+02  0.51100000000E-03 0.  1.
         12    1    4    4    0    0 -0.38823893920E+01  0.16265687803E+01  0.77664920903E+01  0.88338594496E+01  0.00000000000E+00 0. -1.
</event>
<event>
 8    1  0.6524083E-011  0.9118800E+02  0.7816164E-02  0.1184000E+00
        -11   -1    0    0    0    0  0.00000000000E+00  0.00000000000E+00  0.45593999997E+02  0.45594000000E+02  0.51100000000E-03 0.  1.
         11   -1    0    0    0    0 -0.00000000000E+00 -0.00000000000E+00 -0.45593999997E+02  0.45594000000E+02  0.51100000000E-03 0. -1.
         23    2    1    2    0    0  0.00000000000E+00 -0.71054273576E-14  0.33306690739E-15  0.91188000000E+02  0.91188000000E+02 0.  0.
    9900012    2    3    3    0    0  0.18645669434E+02  0.39183884089E+02  0.76529988440E+00  0.47787269075E+02  0.19999991018E+02 0.  0.
         12    1    3    3    0    0 -0.18645669434E+02 -0.39183884089E+02 -0.76529988440E+00  0.43400730925E+02  0.00000000000E+00 0. -1.
         11    1    4    4    0    0 -0.17550863898E+01  0.53498320647E+01  0.16945978969E+01  0.58798549004E+01  0.51100000000E-03 0. -1.
        -11    1    4    4    0    0  0.13860737275E+02  0.32071347655E+02 -0.22330383429E+01  0.35009682071E+02  0.51100000000E-03 0.  1.
        -12    1    4    4    0    0  0.65400185490E+01  0.17627043691E+01  0.13037403304E+01  0.68977321029E+01  0.00000000000E+00 0.  1.
</event>
<event>
 8    1  0.6524083E-011  0.9118800E+02  0.7816164E-02  0.1184000E+00
        -11   -1    0    0    0    0  0.00000000000E+00  0.00000000000E+00  0.45593999997E+02  0.45594000000E+02  0.51100000000E-03 0. -1.
         11   -1    0    0    0    0 -0.00000000000E+00 -0.00000000000E+00 -0.45593999997E+02  0.45594000000E+02  0.51100000000E-03 0.  1.
         23    2    1    2    0    0  0.00000000000E+00 -0.35527136788E-14  0.00000000000E+00  0.91188000000E+02  0.91188000000E+02 0.  0.
    9900012    2    3    3    0    0 -0.16373990611E+02 -0.21923372264E+02 -0.33688001855E+02  0.47787270871E+02  0.19999999211E+02 0.  0.
         12    1    3    3    0    0  0.16373990611E+02  0.21923372264E+02  0.33688001855E+02  0.43400729129E+02  0.00000000000E+00 0. -1.
         11    1    4    4    0    0 -0.12460564120E+02 -0.16408570359E+02 -0.19266543360E+02  0.28208270644E+02  0.51100000000E-03 0. -1.
        -11    1    4    4    0    0  0.13125450503E+01 -0.71215052851E+01 -0.10863669239E+02  0.13055953494E+02  0.51100000000E-03 0.  1.
         12    1    4    4    0    0 -0.52259715407E+01  0.16067033806E+01 -0.35577892556E+01  0.65230467333E+01  0.00000000000E+00 0. -1.
</event>
<event>
 8    1  0.6524083E-011  0.9118800E+02  0.7816164E-02  0.1184000E+00
        -11   -1    0    0    0    0  0.00000000000E+00  0.00000000000E+00  0.45593999997E+02  0.45594000000E+02  0.51100000000E-03 0. -1.
         11   -1    0    0    0    0 -0.00000000000E+00 -0.00000000000E+00 -0.45593999997E+02  0.45594000000E+02  0.51100000000E-03 0.  1.
         23    2    1    2    0    0  0.35527136788E-14  0.17763568394E-14  0.00000000000E+00  0.91188000000E+02  0.91188000000E+02 0.  0.
    9900012    2    3    3    0    0 -0.27097664935E+02 -0.15886632303E+02 -0.29949201857E+02  0.47787271634E+02  0.20000002688E+02 0.  0.
         12    1    3    3    0    0  0.27097664935E+02  0.15886632303E+02  0.29949201857E+02  0.43400728366E+02  0.00000000000E+00 0. -1.
         11    1    4    4    0    0 -0.10084401704E+02 -0.23986268068E+01 -0.71329557256E+01  0.12582830601E+02  0.51100000000E-03 0. -1.
        -11    1    4    4    0    0 -0.50726892104E+01 -0.13609414400E+02 -0.96927344648E+01  0.17461312602E+02  0.51100000000E-03 0.  1.
         12    1    4    4    0    0 -0.11940574020E+02  0.12140890371E+00 -0.13123511667E+02  0.17743128431E+02  0.00000000000E+00 0. -1.
</event>
<event>
 8    1  0.6524083E-011  0.9118800E+02  0.7816164E-02  0.1184000E+00
        -11   -1    0    0    0    0  0.00000000000E+00  0.00000000000E+00  0.45593999997E+02  0.45594000000E+02  0.51100000000E-03 0. -1.
         11   -1    0    0    0    0 -0.00000000000E+00 -0.00000000000E+00 -0.45593999997E+02  0.45594000000E+02  0.51100000000E-03 0.  1.
         23    2    1    2    0    0 -0.35527136788E-14  0.00000000000E+00  0.00000000000E+00  0.91188000000E+02  0.91188000000E+02 0.  0.
    9900012    2    3    3    0    0 -0.23069153421E+02 -0.12887496280E+02  0.34428902496E+02  0.47787277345E+02  0.20000028726E+02 0.  0.
        -12    1    3    3    0    0  0.23069153421E+02  0.12887496280E+02 -0.34428902496E+02  0.43400722655E+02  0.00000000000E+00 0.  1.
         11    1    4    4    0    0 -0.74476483531E+01  0.14154515185E+01  0.21227632808E+01  0.78725531564E+01  0.51100000000E-03 0.  1.
        -11    1    4    4    0    0 -0.14179814389E+02 -0.84391969104E+01  0.18179247182E+02  0.24551419694E+02  0.51100000000E-03 0. -1.
        -12    1    4    4    0    0 -0.14416906784E+01 -0.58637508879E+01  0.14126892033E+02  0.15363304495E+02  0.00000000000E+00 0.  1.
</event>
<event>
 8    1  0.6524083E-011  0.9118800E+02  0.7816164E-02  0.1184000E+00
        -11   -1    0    0    0    0  0.00000000000E+00  0.00000000000E+00  0.45593999997E+02  0.45594000000E+02  0.51100000000E-03 0. -1.
         11   -1    0    0    0    0 -0.00000000000E+00 -0.00000000000E+00 -0.45593999997E+02  0.45594000000E+02  0.51100000000E-03 0.  1.
         23    2    1    2    0    0  0.00000000000E+00  0.00000000000E+00  0.00000000000E+00  0.91188000000E+02  0.91188000000E+02 0.  0.
    9900012    2    3    3    0    0 -0.35834507391E+02 -0.17636608150E+02  0.16984151084E+02  0.47787271261E+02  0.20000000989E+02 0.  0.
        -12    1    3    3    0    0  0.35834507391E+02  0.17636608150E+02 -0.16984151084E+02  0.43400728739E+02  0.00000000000E+00 0.  1.
         11    1    4    4    0    0 -0.22857773110E+02 -0.17943001676E+02  0.13147993372E+02  0.31895122365E+02  0.51100000000E-03 0. -1.
        -11    1    4    4    0    0 -0.13655277794E+02 -0.95141887370E+00  0.24591150420E+01  0.13907517987E+02  0.51100000000E-03 0.  1.
        -12    1    4    4    0    0  0.67854351291E+00  0.12578123998E+01  0.13770426702E+01  0.19846309097E+01  0.00000000000E+00 0.  1.
</event>
<event>
 8    1  0.6524083E-011  0.9118800E+02  0.7816164E-02  0.1184000E+00
        -11   -1    0    0    0    0  0.00000000000E+00  0.00000000000E+00  0.45593999997E+02  0.45594000000E+02  0.51100000000E-03 0. -1.
         11   -1    0    0    0    0 -0.00000000000E+00 -0.00000000000E+00 -0.45593999997E+02  0.45594000000E+02  0.51100000000E-03 0.  1.
         23    2    1    2    0    0 -0.17763568394E-14  0.00000000000E+00  0.00000000000E+00  0.91188000000E+02  0.91188000000E+02 0.  0.
    9900012    2    3    3    0    0 -0.15865122661E+02  0.34057667320E+01  0.40253221968E+02  0.47787271401E+02  0.20000001626E+02 0.  0.
        -12    1    3    3    0    0  0.15865122661E+02 -0.34057667320E+01 -0.40253221968E+02  0.43400728599E+02  0.00000000000E+00 0.  1.
         11    1    4    4    0    0 -0.10659947253E+02  0.13527362264E+01  0.13631108352E+02  0.17357173903E+02  0.51100000000E-03 0. -1.
        -11    1    4    4    0    0 -0.85266006757E+01  0.24958842140E+01  0.95956134533E+01  0.13077008637E+02  0.51100000000E-03 0.  1.
         12    1    4    4    0    0  0.33214252675E+01 -0.44285370836E+00  0.17026500163E+02  0.17353088861E+02  0.00000000000E+00 0. -1.
</event>
<event>
 8    1  0.6524083E-011  0.9118800E+02  0.7816164E-02  0.1184000E+00
        -11   -1    0    0    0    0  0.00000000000E+00  0.00000000000E+00  0.45593999997E+02  0.45594000000E+02  0.51100000000E-03 0.  1.
         11   -1    0    0    0    0 -0.00000000000E+00 -0.00000000000E+00 -0.45593999997E+02  0.45594000000E+02  0.51100000000E-03 0. -1.
         23    2    1    2    0    0  0.00000000000E+00  0.00000000000E+00 -0.88817841970E-15  0.91188000000E+02  0.91188000000E+02 0.  0.
    9900012    2    3    3    0    0 -0.91362371565E+01 -0.41939688292E+02  0.64198982456E+01  0.47787269857E+02  0.19999994588E+02 0.  0.
         12    1    3    3    0    0  0.91362371565E+01  0.41939688292E+02 -0.64198982456E+01  0.43400730143E+02  0.00000000000E+00 0. -1.
         11    1    4    4    0    0  0.19452066783E+01 -0.12773204583E+01 -0.27766047604E+01  0.36228318801E+01  0.51100000000E-03 0. -1.
        -11    1    4    4    0    0  0.16643648866E+01 -0.42029994568E+01  0.30310869657E+00  0.45306942131E+01  0.51100000000E-03 0.  1.
        -12    1    4    4    0    0 -0.12745808721E+02 -0.36459368377E+02  0.88933943094E+01  0.39633743764E+02  0.00000000000E+00 0.  1.
</event>
<event>
 8    1  0.6524083E-011  0.9118800E+02  0.7816164E-02  0.1184000E+00
        -11   -1    0    0    0    0  0.00000000000E+00  0.00000000000E+00  0.45593999997E+02  0.45594000000E+02  0.51100000000E-03 0. -1.
         11   -1    0    0    0    0 -0.00000000000E+00 -0.00000000000E+00 -0.45593999997E+02  0.45594000000E+02  0.51100000000E-03 0.  1.
         23    2    1    2    0    0  0.00000000000E+00  0.17763568394E-14  0.00000000000E+00  0.91188000000E+02  0.91188000000E+02 0.  0.
    9900012    2    3    3    0    0  0.22804246886E+02 -0.10561806605E+02  0.35384154336E+02  0.47787264835E+02  0.19999971687E+02 0.  0.
        -12    1    3    3    0    0 -0.22804246886E+02  0.10561806605E+02 -0.35384154336E+02  0.43400735165E+02  0.00000000000E+00 0.  1.
         11    1    4    4    0    0  0.10483869894E+02  0.19296187071E+01  0.69193341727E+01  0.12708742737E+02  0.51100000000E-03 0. -1.
        -11    1    4    4    0    0 -0.17040824611E+01 -0.70468036902E+00  0.48646443255E+01  0.52024259852E+01  0.51100000000E-03 0.  1.
         12    1    4    4    0    0  0.14024459453E+02 -0.11786744943E+02  0.23600175838E+02  0.29876096112E+02  0.00000000000E+00 0. -1.
</event>
<event>
 8    1  0.6524083E-011  0.9118800E+02  0.7816164E-02  0.1184000E+00
        -11   -1    0    0    0    0  0.00000000000E+00  0.00000000000E+00  0.45593999997E+02  0.45594000000E+02  0.51100000000E-03 0. -1.
         11   -1    0    0    0    0 -0.00000000000E+00 -0.00000000000E+00 -0.45593999997E+02  0.45594000000E+02  0.51100000000E-03 0.  1.
         23    2    1    2    0    0  0.00000000000E+00  0.00000000000E+00 -0.35527136788E-14  0.91188000000E+02  0.91188000000E+02 0.  0.
    9900012    2    3    3    0    0  0.16397487098E+02  0.33467909173E+02 -0.22240602157E+02  0.47787275215E+02  0.20000019015E+02 0.  0.
         12    1    3    3    0    0 -0.16397487098E+02 -0.33467909173E+02  0.22240602157E+02  0.43400724785E+02  0.00000000000E+00 0. -1.
         11    1    4    4    0    0  0.29877591815E+01 -0.29889053806E+00 -0.42109103846E+00  0.30320551453E+01  0.51100000000E-03 0. -1.
        -11    1    4    4    0    0 -0.18861978847E+01  0.10646371860E+02 -0.96015417010E+01  0.14460033871E+02  0.51100000000E-03 0.  1.
        -12    1    4    4    0    0  0.15295925801E+02  0.23120427852E+02 -0.12217969417E+02  0.30295186199E+02  0.00000000000E+00 0.  1.
</event>
<event>
 8    1  0.6524083E-011  0.9118800E+02  0.7816164E-02  0.1184000E+00
        -11   -1    0    0    0    0  0.00000000000E+00  0.00000000000E+00  0.45593999997E+02  0.45594000000E+02  0.51100000000E-03 0. -1.
         11   -1    0    0    0    0 -0.00000000000E+00 -0.00000000000E+00 -0.45593999997E+02  0.45594000000E+02  0.51100000000E-03 0.  1.
         23    2    1    2    0    0  0.00000000000E+00  0.17763568394E-14 -0.71054273576E-14  0.91188000000E+02  0.91188000000E+02 0.  0.
    9900012    2    3    3    0    0  0.16104524424E+02 -0.11618093877E+02 -0.38591289009E+02  0.47787269595E+02  0.19999993392E+02 0.  0.
         12    1    3    3    0    0 -0.16104524424E+02  0.11618093877E+02  0.38591289009E+02  0.43400730405E+02  0.00000000000E+00 0. -1.
         11    1    4    4    0    0  0.31504238286E+01 -0.11024357947E+02 -0.17514998123E+02  0.20934106094E+02  0.51100000000E-03 0. -1.
        -11    1    4    4    0    0  0.48086018877E+01 -0.50136666259E+01 -0.12093422903E+02  0.13946697922E+02  0.51100000000E-03 0.  1.
        -12    1    4    4    0    0  0.81454987075E+01  0.44199306955E+01 -0.89828679840E+01  0.12906465580E+02  0.00000000000E+00 0.  1.
</event>
<event>
 8    1  0.6524083E-011  0.9118800E+02  0.7816164E-02  0.1184000E+00
        -11   -1    0    0    0    0  0.00000000000E+00  0.00000000000E+00  0.45593999997E+02  0.45594000000E+02  0.51100000000E-03 0. -1.
         11   -1    0    0    0    0 -0.00000000000E+00 -0.00000000000E+00 -0.45593999997E+02  0.45594000000E+02  0.51100000000E-03 0.  1.
         23    2    1    2    0    0  0.00000000000E+00  0.00000000000E+00  0.71054273576E-14  0.91188000000E+02  0.91188000000E+02 0.  0.
    9900012    2    3    3    0    0  0.23616633270E+02 -0.11045712638E+01  0.36395849126E+02  0.47787270993E+02  0.19999999767E+02 0.  0.
        -12    1    3    3    0    0 -0.23616633270E+02  0.11045712638E+01 -0.36395849126E+02  0.43400729007E+02  0.00000000000E+00 0.  1.
         11    1    4    4    0    0  0.79057336476E+01 -0.47530313803E+00  0.16074424197E+02  0.17919644280E+02  0.51100000000E-03 0. -1.
        -11    1    4    4    0    0  0.22161711665E+01  0.38910348840E+01 -0.64829218774E+00  0.45245828680E+01  0.51100000000E-03 0.  1.
         12    1    4    4    0    0  0.13494728456E+02 -0.45203030098E+01  0.20969717117E+02  0.25343043846E+02  0.00000000000E+00 0. -1.
</event>
<event>
 8    1  0.6524083E-011  0.9118800E+02  0.7816164E-02  0.1184000E+00
        -11   -1    0    0    0    0  0.00000000000E+00  0.00000000000E+00  0.45593999997E+02  0.45594000000E+02  0.51100000000E-03 0. -1.
         11   -1    0    0    0    0 -0.00000000000E+00 -0.00000000000E+00 -0.45593999997E+02  0.45594000000E+02  0.51100000000E-03 0.  1.
         23    2    1    2    0    0  0.00000000000E+00  0.88817841970E-15 -0.71054273576E-14  0.91188000000E+02  0.91188000000E+02 0.  0.
    9900012    2    3    3    0    0  0.16211153215E+02  0.37261795890E+01 -0.40086619775E+02  0.47787274340E+02  0.20000015024E+02 0.  0.
         12    1    3    3    0    0 -0.16211153215E+02 -0.37261795890E+01  0.40086619775E+02  0.43400725660E+02  0.00000000000E+00 0. -1.
         11    1    4    4    0    0  0.39084879338E+01  0.94623189020E+01 -0.10484932335E+02  0.14654199509E+02  0.51100000000E-03 0. -1.
        -11    1    4    4    0    0  0.40449306442E+01 -0.16755756897E+01 -0.16839084360E+02  0.17398959169E+02  0.51100000000E-03 0.  1.
         12    1    4    4    0    0  0.82577346374E+01 -0.40605636233E+01 -0.12762603079E+02  0.15734115661E+02  0.00000000000E+00 0. -1.
</event>
<event>
 8    1  0.6524083E-011  0.9118800E+02  0.7816164E-02  0.1184000E+00
        -11   -1    0    0    0    0  0.00000000000E+00  0.00000000000E+00  0.45593999997E+02  0.45594000000E+02  0.51100000000E-03 0. -1.
         11   -1    0    0    0    0 -0.00000000000E+00 -0.00000000000E+00 -0.45593999997E+02  0.45594000000E+02  0.51100000000E-03 0.  1.
         23    2    1    2    0    0  0.35527136788E-14  0.44408920985E-15  0.00000000000E+00  0.91188000000E+02  0.91188000000E+02 0.  0.
    9900012    2    3    3    0    0 -0.20276079414E+02  0.27568018686E+01 -0.38274062737E+02  0.47787271535E+02  0.20000002236E+02 0.  0.
         12    1    3    3    0    0  0.20276079414E+02 -0.27568018686E+01  0.38274062737E+02  0.43400728465E+02  0.00000000000E+00 0. -1.
         11    1    4    4    0    0 -0.10238884661E+02 -0.15364605669E+01 -0.27522209697E+02  0.29405229077E+02  0.51100000000E-03 0. -1.
        -11    1    4    4    0    0 -0.56793095730E+01  0.69408039392E+01 -0.96333736038E+01  0.13161732553E+02  0.51100000000E-03 0.  1.
         12    1    4    4    0    0 -0.43578851803E+01 -0.26475415037E+01 -0.11184794355E+01  0.52203099052E+01  0.00000000000E+00 0. -1.
</event>
<event>
 8    1  0.6524083E-011  0.9118800E+02  0.7816164E-02  0.1184000E+00
        -11   -1    0    0    0    0  0.00000000000E+00  0.00000000000E+00  0.45593999997E+02  0.45594000000E+02  0.51100000000E-03 0. -1.
         11   -1    0    0    0    0 -0.00000000000E+00 -0.00000000000E+00 -0.45593999997E+02  0.45594000000E+02  0.51100000000E-03 0.  1.
         23    2    1    2    0    0  0.00000000000E+00  0.00000000000E+00  0.00000000000E+00  0.91188000000E+02  0.91188000000E+02 0.  0.
    9900012    2    3    3    0    0 -0.10576314784E+02  0.20072358873E+02 -0.36998179044E+02  0.47787271000E+02  0.19999999799E+02 0.  0.
         12    1    3    3    0    0  0.10576314784E+02 -0.20072358873E+02  0.36998179044E+02  0.43400729000E+02  0.00000000000E+00 0. -1.
         11    1    4    4    0    0 -0.21468355260E+01  0.15758918521E+01  0.14389411552E+01  0.30270265632E+01  0.51100000000E-03 0. -1.
        -11    1    4    4    0    0 -0.16097461265E+01 -0.12545537855E+01 -0.34015490747E+01  0.39668279723E+01  0.51100000000E-03 0.  1.
        -12    1    4    4    0    0 -0.68197331312E+01  0.19751020807E+02 -0.35035571124E+02  0.40793416465E+02  0.00000000000E+00 0.  1.
</event>
<event>
 8    1  0.6524083E-011  0.9118800E+02  0.7816164E-02  0.1184000E+00
        -11   -1    0    0    0    0  0.00000000000E+00  0.00000000000E+00  0.45593999997E+02  0.45594000000E+02  0.51100000000E-03 0. -1.
         11   -1    0    0    0    0 -0.00000000000E+00 -0.00000000000E+00 -0.45593999997E+02  0.45594000000E+02  0.51100000000E-03 0.  1.
         23    2    1    2    0    0  0.00000000000E+00 -0.88817841970E-15  0.00000000000E+00  0.91188000000E+02  0.91188000000E+02 0.  0.
    9900012    2    3    3    0    0 -0.89710308313E+01  0.77348667921E+01 -0.41753021845E+02  0.47787281208E+02  0.20000046339E+02 0.  0.
         12    1    3    3    0    0  0.89710308313E+01 -0.77348667921E+01  0.41753021845E+02  0.43400718792E+02  0.00000000000E+00 0. -1.
         11    1    4    4    0    0  0.17534036732E+01  0.50978854736E+01 -0.97810150311E+01  0.11168308558E+02  0.51100000000E-03 0. -1.
        -11    1    4    4    0    0 -0.46821215544E+01 -0.19249616573E+01 -0.27205376975E+02  0.27672373881E+02  0.51100000000E-03 0.  1.
        -12    1    4    4    0    0 -0.60423129501E+01  0.45619429757E+01 -0.47666298394E+01  0.89465987686E+01  0.00000000000E+00 0.  1.
</event>
<event>
 8    1  0.6524083E-011  0.9118800E+02  0.7816164E-02  0.1184000E+00
        -11   -1    0    0    0    0  0.00000000000E+00  0.00000000000E+00  0.45593999997E+02  0.45594000000E+02  0.51100000000E-03 0. -1.
         11   -1    0    0    0    0 -0.00000000000E+00 -0.00000000000E+00 -0.45593999997E+02  0.45594000000E+02  0.51100000000E-03 0.  1.
         23    2    1    2    0    0  0.00000000000E+00  0.35527136788E-14 -0.71054273576E-14  0.91188000000E+02  0.91188000000E+02 0.  0.
    9900012    2    3    3    0    0  0.13410953561E+02  0.21329509166E+02 -0.35338669310E+02  0.47787272065E+02  0.20000004651E+02 0.  0.
         12    1    3    3    0    0 -0.13410953561E+02 -0.21329509166E+02  0.35338669310E+02  0.43400727935E+02  0.00000000000E+00 0. -1.
         11    1    4    4    0    0  0.86514473825E+01  0.15096235436E+01 -0.47241022996E+01  0.99721435937E+01  0.51100000000E-03 0. -1.
        -11    1    4    4    0    0  0.21557340056E+01  0.97945507246E+01 -0.76202457738E+01  0.12595576958E+02  0.51100000000E-03 0.  1.
        -12    1    4    4    0    0  0.26037721731E+01  0.10025334898E+02 -0.22994321237E+02  0.25219551513E+02  0.00000000000E+00 0.  1.
</event>
<event>
 8    1  0.6524083E-011  0.9118800E+02  0.7816164E-02  0.1184000E+00
        -11   -1    0    0    0    0  0.00000000000E+00  0.00000000000E+00  0.45593999997E+02  0.45594000000E+02  0.51100000000E-03 0.  1.
         11   -1    0    0    0    0 -0.00000000000E+00 -0.00000000000E+00 -0.45593999997E+02  0.45594000000E+02  0.51100000000E-03 0. -1.
         23    2    1    2    0    0  0.00000000000E+00  0.00000000000E+00  0.00000000000E+00  0.91188000000E+02  0.91188000000E+02 0.  0.
    9900012    2    3    3    0    0  0.98191035829E+01 -0.38456670540E+02  0.17558274363E+02  0.47787270711E+02  0.19999998480E+02 0.  0.
        -12    1    3    3    0    0 -0.98191035829E+01  0.38456670540E+02 -0.17558274363E+02  0.43400729289E+02  0.00000000000E+00 0.  1.
         11    1    4    4    0    0  0.59576546880E+01 -0.16492925247E+02  0.51544552590E+01  0.18277818302E+02  0.51100000000E-03 0. -1.
        -11    1    4    4    0    0  0.57396494766E+01 -0.10146939539E+02 -0.80687702464E+00  0.11685675373E+02  0.51100000000E-03 0.  1.
        -12    1    4    4    0    0 -0.18782005816E+01 -0.11816805754E+02  0.13210696128E+02  0.17823777037E+02  0.00000000000E+00 0.  1.
</event>
<event>
 8    1  0.6524083E-011  0.9118800E+02  0.7816164E-02  0.1184000E+00
        -11   -1    0    0    0    0  0.00000000000E+00  0.00000000000E+00  0.45593999997E+02  0.45594000000E+02  0.51100000000E-03 0. -1.
         11   -1    0    0    0    0 -0.00000000000E+00 -0.00000000000E+00 -0.45593999997E+02  0.45594000000E+02  0.51100000000E-03 0.  1.
         23    2    1    2    0    0  0.00000000000E+00  0.88817841970E-15  0.00000000000E+00  0.91188000000E+02  0.91188000000E+02 0.  0.
    9900012    2    3    3    0    0 -0.26171688575E+02 -0.43842224893E+01  0.34343046659E+02  0.47787267937E+02  0.19999985834E+02 0.  0.
        -12    1    3    3    0    0  0.26171688575E+02  0.43842224893E+01 -0.34343046659E+02  0.43400732063E+02  0.00000000000E+00 0.  1.
         11    1    4    4    0    0 -0.87121188859E+01 -0.64604717260E+01  0.98777295126E+01  0.14669977880E+02  0.51100000000E-03 0. -1.
        -11    1    4    4    0    0 -0.79291217454E+01 -0.45418450271E+01  0.17058442911E+02  0.19351739010E+02  0.51100000000E-03 0.  1.
        -12    1    4    4    0    0 -0.95304479441E+01  0.66180942638E+01  0.74068742355E+01  0.13765551047E+02  0.00000000000E+00 0.  1.
</event>
<event>
 8    1  0.6524083E-011  0.9118800E+02  0.7816164E-02  0.1184000E+00
        -11   -1    0    0    0    0  0.00000000000E+00  0.00000000000E+00  0.45593999997E+02  0.45594000000E+02  0.51100000000E-03 0. -1.
         11   -1    0    0    0    0 -0.00000000000E+00 -0.00000000000E+00 -0.45593999997E+02  0.45594000000E+02  0.51100000000E-03 0.  1.
         23    2    1    2    0    0  0.00000000000E+00  0.00000000000E+00  0.71054273576E-14  0.91188000000E+02  0.91188000000E+02 0.  0.
    9900012    2    3    3    0    0  0.18296259077E+02  0.26023486013E+02 -0.29523695408E+02  0.47787268312E+02  0.19999987543E+02 0.  0.
         12    1    3    3    0    0 -0.18296259077E+02 -0.26023486013E+02  0.29523695408E+02  0.43400731688E+02  0.00000000000E+00 0. -1.
         11    1    4    4    0    0  0.54554218564E+01  0.69940567945E+01 -0.12738405266E+02  0.15522416920E+02  0.51100000000E-03 0.  1.
        -11    1    4    4    0    0 -0.32739635953E+00  0.26767795275E+01  0.25581076669E+01  0.37170219412E+01  0.51100000000E-03 0. -1.
         12    1    4    4    0    0  0.13168233580E+02  0.16352649691E+02 -0.19343397809E+02  0.28547829451E+02  0.00000000000E+00 0. -1.
</event>
<event>
 8    1  0.6524083E-011  0.9118800E+02  0.7816164E-02  0.1184000E+00
        -11   -1    0    0    0    0  0.00000000000E+00  0.00000000000E+00  0.45593999997E+02  0.45594000000E+02  0.51100000000E-03 0. -1.
         11   -1    0    0    0    0 -0.00000000000E+00 -0.00000000000E+00 -0.45593999997E+02  0.45594000000E+02  0.51100000000E-03 0.  1.
         23    2    1    2    0    0 -0.88817841970E-15  0.00000000000E+00 -0.71054273576E-14  0.91188000000E+02  0.91188000000E+02 0.  0.
    9900012    2    3    3    0    0 -0.55963534078E+01  0.21875300557E+02 -0.37064473229E+02  0.47787272798E+02  0.20000007994E+02 0.  0.
         12    1    3    3    0    0  0.55963534078E+01 -0.21875300557E+02  0.37064473229E+02  0.43400727202E+02  0.00000000000E+00 0. -1.
         11    1    4    4    0    0 -0.21505020806E+01  0.42119467508E+01 -0.11554836943E+02  0.12485167667E+02  0.51100000000E-03 0. -1.
        -11    1    4    4    0    0 -0.89549707017E+01  0.64663731589E+01 -0.16717477863E+02  0.20036954570E+02  0.51100000000E-03 0.  1.
         12    1    4    4    0    0  0.55091193745E+01  0.11196980647E+02 -0.87921584239E+01  0.15265150561E+02  0.00000000000E+00 0. -1.
</event>
<event>
 8    1  0.6524083E-011  0.9118800E+02  0.7816164E-02  0.1184000E+00
        -11   -1    0    0    0    0  0.00000000000E+00  0.00000000000E+00  0.45593999997E+02  0.45594000000E+02  0.51100000000E-03 0. -1.
         11   -1    0    0    0    0 -0.00000000000E+00 -0.00000000000E+00 -0.45593999997E+02  0.45594000000E+02  0.51100000000E-03 0.  1.
         23    2    1    2    0    0  0.44408920985E-15 -0.44408920985E-15 -0.71054273576E-14  0.91188000000E+02  0.91188000000E+02 0.  0.
    9900012    2    3    3    0    0  0.34976584110E+01 -0.36004091913E+01 -0.43109475305E+02  0.47787269340E+02  0.19999992229E+02 0.  0.
         12    1    3    3    0    0 -0.34976584110E+01  0.36004091913E+01  0.43109475305E+02  0.43400730660E+02  0.00000000000E+00 0. -1.
         11    1    4    4    0    0  0.11229529504E+01 -0.37215139205E+01 -0.30943850542E+01  0.49684915532E+01  0.51100000000E-03 0. -1.
        -11    1    4    4    0    0 -0.54977984664E+01  0.12449071096E+01 -0.26874113642E+02  0.27458943279E+02  0.51100000000E-03 0.  1.
         12    1    4    4    0    0  0.78725039271E+01 -0.11238023804E+01 -0.13140976610E+02  0.15359834508E+02  0.00000000000E+00 0. -1.
</event>
<event>
 8    1  0.6524083E-011  0.9118800E+02  0.7816164E-02  0.1184000E+00
        -11   -1    0    0    0    0  0.00000000000E+00  0.00000000000E+00  0.45593999997E+02  0.45594000000E+02  0.51100000000E-03 0. -1.
         11   -1    0    0    0    0 -0.00000000000E+00 -0.00000000000E+00 -0.45593999997E+02  0.45594000000E+02  0.51100000000E-03 0.  1.
         23    2    1    2    0    0 -0.71054273576E-14  0.00000000000E+00 -0.71054273576E-14  0.91188000000E+02  0.91188000000E+02 0.  0.
    9900012    2    3    3    0    0  0.25852760712E+02 -0.96251804032E+01  0.33505426878E+02  0.47787274609E+02  0.20000016251E+02 0.  0.
        -12    1    3    3    0    0 -0.25852760712E+02  0.96251804032E+01 -0.33505426878E+02  0.43400725391E+02  0.00000000000E+00 0.  1.
         11    1    4    4    0    0  0.15768817815E+02 -0.45929101334E+01  0.11977086578E+02  0.20327347145E+02  0.51100000000E-03 0. -1.
        -11    1    4    4    0    0  0.10716740301E+02 -0.30511479614E+01  0.78639427358E+01  0.13638167845E+02  0.51100000000E-03 0.  1.
         12    1    4    4    0    0 -0.63279740485E+00 -0.19811223083E+01  0.13664397564E+02  0.13821759618E+02  0.00000000000E+00 0. -1.
</event>
<event>
 8    1  0.6524083E-011  0.9118800E+02  0.7816164E-02  0.1184000E+00
        -11   -1    0    0    0    0  0.00000000000E+00  0.00000000000E+00  0.45593999997E+02  0.45594000000E+02  0.51100000000E-03 0. -1.
         11   -1    0    0    0    0 -0.00000000000E+00 -0.00000000000E+00 -0.45593999997E+02  0.45594000000E+02  0.51100000000E-03 0.  1.
         23    2    1    2    0    0  0.00000000000E+00  0.00000000000E+00  0.00000000000E+00  0.91188000000E+02  0.91188000000E+02 0.  0.
    9900012    2    3    3    0    0  0.21629074553E+02 -0.48572672978E+01  0.37312389768E+02  0.47787258742E+02  0.19999943907E+02 0.  0.
        -12    1    3    3    0    0 -0.21629074553E+02  0.48572672978E+01 -0.37312389768E+02  0.43400741258E+02  0.00000000000E+00 0.  1.
         11    1    4    4    0    0 -0.11461305910E+01 -0.31301608716E+00 -0.32108550109E+00  0.12307276557E+01  0.51100000000E-03 0. -1.
        -11    1    4    4    0    0  0.19318711077E+02 -0.57445165522E+01  0.19452149374E+02  0.28010679813E+02  0.51100000000E-03 0.  1.
         12    1    4    4    0    0  0.34564940669E+01  0.12002653415E+01  0.18181325895E+02  0.18545851273E+02  0.00000000000E+00 0. -1.
</event>
<event>
 8    1  0.6524083E-011  0.9118800E+02  0.7816164E-02  0.1184000E+00
        -11   -1    0    0    0    0  0.00000000000E+00  0.00000000000E+00  0.45593999997E+02  0.45594000000E+02  0.51100000000E-03 0. -1.
         11   -1    0    0    0    0 -0.00000000000E+00 -0.00000000000E+00 -0.45593999997E+02  0.45594000000E+02  0.51100000000E-03 0.  1.
         23    2    1    2    0    0 -0.92981178312E-15  0.00000000000E+00 -0.71054273576E-14  0.91188000000E+02  0.91188000000E+02 0.  0.
    9900012    2    3    3    0    0  0.11231206446E+00 -0.30377988928E+02  0.30996585767E+02  0.47787272420E+02  0.20000006270E+02 0.  0.
        -12    1    3    3    0    0 -0.11231206446E+00  0.30377988928E+02 -0.30996585767E+02  0.43400727580E+02  0.00000000000E+00 0.  1.
         11    1    4    4    0    0  0.48957455204E+01 -0.19345412539E+02  0.83322815105E+01  0.21624990773E+02  0.51100000000E-03 0. -1.
        -11    1    4    4    0    0 -0.50011174399E+00 -0.59495238355E-01  0.44010652824E+01  0.44297886316E+01  0.51100000000E-03 0.  1.
         12    1    4    4    0    0 -0.42833217120E+01 -0.10973081151E+02  0.18263238974E+02  0.21732493015E+02  0.00000000000E+00 0. -1.
</event>
<event>
 8    1  0.6524083E-011  0.9118800E+02  0.7816164E-02  0.1184000E+00
        -11   -1    0    0    0    0  0.00000000000E+00  0.00000000000E+00  0.45593999997E+02  0.45594000000E+02  0.51100000000E-03 0. -1.
         11   -1    0    0    0    0 -0.00000000000E+00 -0.00000000000E+00 -0.45593999997E+02  0.45594000000E+02  0.51100000000E-03 0.  1.
         23    2    1    2    0    0  0.00000000000E+00 -0.35527136788E-14  0.00000000000E+00  0.91188000000E+02  0.91188000000E+02 0.  0.
    9900012    2    3    3    0    0  0.12736325460E+02 -0.19604648201E+02 -0.36565926316E+02  0.47787272072E+02  0.20000004685E+02 0.  0.
         12    1    3    3    0    0 -0.12736325460E+02  0.19604648201E+02  0.36565926316E+02  0.43400727928E+02  0.00000000000E+00 0. -1.
         11    1    4    4    0    0 -0.10010801219E+01 -0.16194421553E+01 -0.14226876845E+00  0.19091869915E+01  0.51100000000E-03 0. -1.
        -11    1    4    4    0    0  0.14821143086E+02 -0.77558691266E+01 -0.27847320871E+02  0.32485274637E+02  0.51100000000E-03 0.  1.
        -12    1    4    4    0    0 -0.10837375035E+01 -0.10229336919E+02 -0.85763366766E+01  0.13392810443E+02  0.00000000000E+00 0.  1.
</event>
<event>
 8    1  0.6524083E-011  0.9118800E+02  0.7816164E-02  0.1184000E+00
        -11   -1    0    0    0    0  0.00000000000E+00  0.00000000000E+00  0.45593999997E+02  0.45594000000E+02  0.51100000000E-03 0. -1.
         11   -1    0    0    0    0 -0.00000000000E+00 -0.00000000000E+00 -0.45593999997E+02  0.45594000000E+02  0.51100000000E-03 0.  1.
         23    2    1    2    0    0 -0.35527136788E-14  0.00000000000E+00  0.00000000000E+00  0.91188000000E+02  0.91188000000E+02 0.  0.
    9900012    2    3    3    0    0  0.28526597450E+02  0.13461093363E+02 -0.29810323263E+02  0.47787272246E+02  0.20000005476E+02 0.  0.
         12    1    3    3    0    0 -0.28526597450E+02 -0.13461093363E+02  0.29810323263E+02  0.43400727754E+02  0.00000000000E+00 0. -1.
         11    1    4    4    0    0  0.10389341031E+02  0.97744999070E+01 -0.89975731465E+01  0.16865218003E+02  0.51100000000E-03 0. -1.
        -11    1    4    4    0    0  0.68325971858E+01  0.40603472431E+01 -0.17364889461E+02  0.19097387002E+02  0.51100000000E-03 0.  1.
         12    1    4    4    0    0  0.11304659232E+02 -0.37375378761E+00 -0.34478606555E+01  0.11824667241E+02  0.00000000000E+00 0. -1.
</event>
<event>
 8    1  0.6524083E-011  0.9118800E+02  0.7816164E-02  0.1184000E+00
        -11   -1    0    0    0    0  0.00000000000E+00  0.00000000000E+00  0.45593999997E+02  0.45594000000E+02  0.51100000000E-03 0. -1.
         11   -1    0    0    0    0 -0.00000000000E+00 -0.00000000000E+00 -0.45593999997E+02  0.45594000000E+02  0.51100000000E-03 0.  1.
         23    2    1    2    0    0 -0.88817841970E-15 -0.44408920985E-15 -0.71054273576E-14  0.91188000000E+02  0.91188000000E+02 0.  0.
    9900012    2    3    3    0    0  0.58056282287E+01  0.10838199830E+01  0.42997011703E+02  0.47787274197E+02  0.20000014373E+02 0.  0.
        -12    1    3    3    0    0 -0.58056282287E+01 -0.10838199830E+01 -0.42997011703E+02  0.43400725803E+02  0.00000000000E+00 0.  1.
         11    1    4    4    0    0  0.87149770784E+01 -0.27938755942E+01  0.13690048007E+02  0.16467361082E+02  0.51100000000E-03 0. -1.
        -11    1    4    4    0    0  0.20414710465E+01  0.51896806888E+01  0.19137868096E+02  0.19933850235E+02  0.51100000000E-03 0.  1.
        -12    1    4    4    0    0 -0.49508198962E+01 -0.13119851116E+01  0.10169095600E+02  0.11386062880E+02  0.00000000000E+00 0.  1.
</event>
<event>
 8    1  0.6524083E-011  0.9118800E+02  0.7816164E-02  0.1184000E+00
        -11   -1    0    0    0    0  0.00000000000E+00  0.00000000000E+00  0.45593999997E+02  0.45594000000E+02  0.51100000000E-03 0. -1.
         11   -1    0    0    0    0 -0.00000000000E+00 -0.00000000000E+00 -0.45593999997E+02  0.45594000000E+02  0.51100000000E-03 0.  1.
         23    2    1    2    0    0  0.16653345369E-15  0.00000000000E+00  0.00000000000E+00  0.91188000000E+02  0.91188000000E+02 0.  0.
    9900012    2    3    3    0    0 -0.26438910803E+00  0.42696840176E+01 -0.43189390682E+02  0.47787267625E+02  0.19999984408E+02 0.  0.
         12    1    3    3    0    0  0.26438910803E+00 -0.42696840176E+01  0.43189390682E+02  0.43400732375E+02  0.00000000000E+00 0. -1.
         11    1    4    4    0    0 -0.24419413760E+01 -0.37288935480E+01 -0.27847600322E+02  0.28202066746E+02  0.51100000000E-03 0. -1.
        -11    1    4    4    0    0 -0.10931527930E+01  0.12663669204E+01 -0.10586084148E+02  0.10717455205E+02  0.51100000000E-03 0.  1.
        -12    1    4    4    0    0  0.32707050610E+01  0.67322106451E+01 -0.47557062114E+01  0.88677456738E+01  0.00000000000E+00 0.  1.
</event>
<event>
 8    1  0.6524083E-011  0.9118800E+02  0.7816164E-02  0.1184000E+00
        -11   -1    0    0    0    0  0.00000000000E+00  0.00000000000E+00  0.45593999997E+02  0.45594000000E+02  0.51100000000E-03 0. -1.
         11   -1    0    0    0    0 -0.00000000000E+00 -0.00000000000E+00 -0.45593999997E+02  0.45594000000E+02  0.51100000000E-03 0.  1.
         23    2    1    2    0    0  0.00000000000E+00  0.00000000000E+00  0.00000000000E+00  0.91188000000E+02  0.91188000000E+02 0.  0.
    9900012    2    3    3    0    0  0.25672672918E+02 -0.27791694519E+02 -0.21264025716E+02  0.47787271796E+02  0.20000003428E+02 0.  0.
         12    1    3    3    0    0 -0.25672672918E+02  0.27791694519E+02  0.21264025716E+02  0.43400728204E+02  0.00000000000E+00 0. -1.
         11    1    4    4    0    0  0.19662280340E+02 -0.24603810567E+02 -0.20037476341E+02  0.37328986337E+02  0.51100000000E-03 0.  1.
        -11    1    4    4    0    0  0.24211395862E+01 -0.49759674904E+01  0.13446717481E+01  0.56947617802E+01  0.51100000000E-03 0. -1.
         12    1    4    4    0    0  0.35892529915E+01  0.17880835384E+01 -0.25712211228E+01  0.47635236789E+01  0.00000000000E+00 0. -1.
</event>
<event>
 8    1  0.6524083E-011  0.9118800E+02  0.7816164E-02  0.1184000E+00
        -11   -1    0    0    0    0  0.00000000000E+00  0.00000000000E+00  0.45593999997E+02  0.45594000000E+02  0.51100000000E-03 0. -1.
         11   -1    0    0    0    0 -0.00000000000E+00 -0.00000000000E+00 -0.45593999997E+02  0.45594000000E+02  0.51100000000E-03 0.  1.
         23    2    1    2    0    0  0.00000000000E+00  0.00000000000E+00  0.00000000000E+00  0.91188000000E+02  0.91188000000E+02 0.  0.
    9900012    2    3    3    0    0  0.70202167166E+01  0.53789732989E+01 -0.42490075845E+02  0.47787270262E+02  0.19999996431E+02 0.  0.
         12    1    3    3    0    0 -0.70202167166E+01 -0.53789732989E+01  0.42490075845E+02  0.43400729738E+02  0.00000000000E+00 0. -1.
         11    1    4    4    0    0  0.16970171187E+00  0.10152446920E+02 -0.12070995196E+02  0.15773709216E+02  0.51100000000E-03 0.  1.
        -11    1    4    4    0    0  0.34674356517E+01 -0.41793627540E+01 -0.10717316189E+02  0.12014618162E+02  0.51100000000E-03 0. -1.
        -12    1    4    4    0    0  0.33830793530E+01 -0.59411086728E+00 -0.19701764460E+02  0.19998942884E+02  0.00000000000E+00 0.  1.
</event>
<event>
 8    1  0.6524083E-011  0.9118800E+02  0.7816164E-02  0.1184000E+00
        -11   -1    0    0    0    0  0.00000000000E+00  0.00000000000E+00  0.45593999997E+02  0.45594000000E+02  0.51100000000E-03 0. -1.
         11   -1    0    0    0    0 -0.00000000000E+00 -0.00000000000E+00 -0.45593999997E+02  0.45594000000E+02  0.51100000000E-03 0.  1.
         23    2    1    2    0    0  0.00000000000E+00 -0.17763568394E-14  0.00000000000E+00  0.91188000000E+02  0.91188000000E+02 0.  0.
    9900012    2    3    3    0    0  0.14643785007E+02  0.13082764863E+02  0.38704313783E+02  0.47787273264E+02  0.20000010122E+02 0.  0.
        -12    1    3    3    0    0 -0.14643785007E+02 -0.13082764863E+02 -0.38704313783E+02  0.43400726736E+02  0.00000000000E+00 0.  1.
         11    1    4    4    0    0  0.45065246623E+01  0.97273744518E+01  0.74478618545E+01  0.13053782008E+02  0.51100000000E-03 0.  1.
        -11    1    4    4    0    0  0.58682856111E+01  0.66005634714E+01  0.13080526378E+02  0.15783041049E+02  0.51100000000E-03 0. -1.
        -12    1    4    4    0    0  0.42689747332E+01 -0.32451730599E+01  0.18175925550E+02  0.18950450207E+02  0.00000000000E+00 0.  1.
</event>
<event>
 8    1  0.6524083E-011  0.9118800E+02  0.7816164E-02  0.1184000E+00
        -11   -1    0    0    0    0  0.00000000000E+00  0.00000000000E+00  0.45593999997E+02  0.45594000000E+02  0.51100000000E-03 0. -1.
         11   -1    0    0    0    0 -0.00000000000E+00 -0.00000000000E+00 -0.45593999997E+02  0.45594000000E+02  0.51100000000E-03 0.  1.
         23    2    1    2    0    0 -0.88817841970E-15  0.00000000000E+00  0.00000000000E+00  0.91188000000E+02  0.91188000000E+02 0.  0.
    9900012    2    3    3    0    0 -0.77650326508E+01  0.42293771881E+01  0.42490499552E+02  0.47787240610E+02  0.19999861235E+02 0.  0.
        -12    1    3    3    0    0  0.77650326508E+01 -0.42293771881E+01 -0.42490499552E+02  0.43400759390E+02  0.00000000000E+00 0.  1.
         11    1    4    4    0    0 -0.16230683807E+00 -0.13052328467E+01  0.14145436470E+02  0.14206454501E+02  0.51100000000E-03 0. -1.
        -11    1    4    4    0    0  0.41151610779E+01  0.31892947619E+01  0.13840771588E+02  0.14787599879E+02  0.51100000000E-03 0.  1.
         12    1    4    4    0    0 -0.11717886891E+02  0.23453152730E+01  0.14504291494E+02  0.18793186229E+02  0.00000000000E+00 0. -1.
</event>
<event>
 8    1  0.6524083E-011  0.9118800E+02  0.7816164E-02  0.1184000E+00
        -11   -1    0    0    0    0  0.00000000000E+00  0.00000000000E+00  0.45593999997E+02  0.45594000000E+02  0.51100000000E-03 0. -1.
         11   -1    0    0    0    0 -0.00000000000E+00 -0.00000000000E+00 -0.45593999997E+02  0.45594000000E+02  0.51100000000E-03 0.  1.
         23    2    1    2    0    0  0.00000000000E+00  0.00000000000E+00 -0.17763568394E-14  0.91188000000E+02  0.91188000000E+02 0.  0.
    9900012    2    3    3    0    0 -0.35453611336E+02  0.19402329010E+02 -0.15818166678E+02  0.47787270458E+02  0.19999997324E+02 0.  0.
         12    1    3    3    0    0  0.35453611336E+02 -0.19402329010E+02  0.15818166678E+02  0.43400729542E+02  0.00000000000E+00 0. -1.
         11    1    4    4    0    0 -0.29972642696E+02  0.91684634145E+01 -0.15671713306E+02  0.35043153822E+02  0.51100000000E-03 0.  1.
        -11    1    4    4    0    0  0.29510600329E+00  0.11461350326E+00  0.98783791102E+00  0.10373272424E+01  0.51100000000E-03 0. -1.
        -12    1    4    4    0    0 -0.57760746432E+01  0.10119252092E+02 -0.11342912829E+01  0.11706789393E+02  0.00000000000E+00 0.  1.
</event>
