<event>
 7    1  0.1789107E-013  0.7246161E+02  0.7816164E-02  0.1226708E+00
        -11   -1    0    0    0    0  0.00000000000E+00  0.00000000000E+00  0.45593999997E+02  0.45594000000E+02  0.51100000000E-03 0.  1.
         11   -1    0    0    0    0 -0.00000000000E+00 -0.00000000000E+00 -0.45593999997E+02  0.45594000000E+02  0.51100000000E-03 0. -1.
    9900012    2    1    2    0    0 -0.51140238553E+01 -0.92503896148E+01 -0.15458164977E+02  0.72461606528E+02  0.70000047201E+02 0.  0.
        -12    1    1    2    0    0  0.51140238553E+01  0.92503896148E+01  0.15458164977E+02  0.18726393472E+02  0.00000000000E+00 0.  1.
         11    1    3    3    0    0 -0.23601223931E+01 -0.33571358685E+02 -0.57332121692E+01  0.34139068876E+02  0.51100000000E-03 0. -1.
        -11    1    3    3    0    0  0.82452015994E+01 -0.20407385946E+01 -0.26002061368E+01  0.88830757984E+01  0.51100000000E-03 0.  1.
         12    1    3    3    0    0 -0.10999103062E+02  0.26361707665E+02 -0.71247466706E+01  0.29439461854E+02  0.00000000000E+00 0. -1.
</event>
<event>
 7    1  0.1789107E-013  0.7246158E+02  0.7816164E-02  0.1226708E+00
        -11   -1    0    0    0    0  0.00000000000E+00  0.00000000000E+00  0.45593999997E+02  0.45594000000E+02  0.51100000000E-03 0. -1.
         11   -1    0    0    0    0 -0.00000000000E+00 -0.00000000000E+00 -0.45593999997E+02  0.45594000000E+02  0.51100000000E-03 0.  1.
    9900012    2    1    2    0    0  0.85830011878E+01  0.16394189761E+02 -0.28708130520E+01  0.72461576559E+02  0.70000008161E+02 0.  0.
        -12    1    1    2    0    0 -0.85830011878E+01 -0.16394189761E+02  0.28708130520E+01  0.18726423441E+02  0.00000000000E+00 0.  1.
         11    1    3    3    0    0 -0.53704014596E+00  0.15556716656E+02 -0.15401371287E+01  0.15641990534E+02  0.51100000000E-03 0. -1.
        -11    1    3    3    0    0  0.77952489721E+01  0.23597437359E+02  0.14769528595E+02  0.28909236096E+02  0.51100000000E-03 0.  1.
        -12    1    3    3    0    0  0.13247923617E+01 -0.22759964254E+02 -0.16100204519E+02  0.27910349929E+02  0.00000000000E+00 0.  1.
</event>
<event>
 7    1  0.1789107E-013  0.7246159E+02  0.7816164E-02  0.1226708E+00
        -11   -1    0    0    0    0  0.00000000000E+00  0.00000000000E+00  0.45593999997E+02  0.45594000000E+02  0.51100000000E-03 0.  1.
         11   -1    0    0    0    0 -0.00000000000E+00 -0.00000000000E+00 -0.45593999997E+02  0.45594000000E+02  0.51100000000E-03 0. -1.
    9900012    2    1    2    0    0  0.15060502603E+02 -0.10453899488E+02 -0.38178095509E+01  0.72461590229E+02  0.70000025968E+02 0.  0.
        -12    1    1    2    0    0 -0.15060502603E+02  0.10453899488E+02  0.38178095509E+01  0.18726409771E+02  0.00000000000E+00 0.  1.
         11    1    3    3    0    0  0.15508227099E+02 -0.17387646977E+02  0.21627389417E+02  0.31789610699E+02  0.51100000000E-03 0. -1.
        -11    1    3    3    0    0 -0.21683961419E+01 -0.68966822060E+01  0.38789002683E+01  0.82043911920E+01  0.51100000000E-03 0.  1.
        -12    1    3    3    0    0  0.17206716455E+01  0.13830429695E+02 -0.29324099236E+02  0.32467588338E+02  0.00000000000E+00 0.  1.
</event>
<event>
 7    1  0.1789107E-013  0.7246152E+02  0.7816164E-02  0.1226708E+00
        -11   -1    0    0    0    0  0.00000000000E+00  0.00000000000E+00  0.45593999997E+02  0.45594000000E+02  0.51100000000E-03 0. -1.
         11   -1    0    0    0    0 -0.00000000000E+00 -0.00000000000E+00 -0.45593999997E+02  0.45594000000E+02  0.51100000000E-03 0.  1.
    9900012    2    1    2    0    0 -0.36381221675E+01  0.90483327364E+01  0.15986648393E+02  0.72461516479E+02  0.69999929896E+02 0.  0.
        -12    1    1    2    0    0  0.36381221675E+01 -0.90483327364E+01 -0.15986648393E+02  0.18726483521E+02  0.00000000000E+00 0.  1.
         11    1    3    3    0    0 -0.14065055277E+02 -0.13172297838E+02  0.45352248582E+01  0.19796552100E+02  0.51100000000E-03 0. -1.
        -11    1    3    3    0    0  0.14998449758E+02  0.29038485479E+01 -0.13771354909E+02  0.20567840135E+02  0.51100000000E-03 0.  1.
         12    1    3    3    0    0 -0.45715166488E+01  0.19316782026E+02  0.25222778444E+02  0.32097124244E+02  0.00000000000E+00 0. -1.
</event>
<event>
 7    1  0.1789107E-013  0.7246170E+02  0.7816164E-02  0.1226708E+00
        -11   -1    0    0    0    0  0.00000000000E+00  0.00000000000E+00  0.45593999997E+02  0.45594000000E+02  0.51100000000E-03 0.  1.
         11   -1    0    0    0    0 -0.00000000000E+00 -0.00000000000E+00 -0.45593999997E+02  0.45594000000E+02  0.51100000000E-03 0. -1.
    9900012    2    1    2    0    0  0.56994317890E+01 -0.17543511202E+02  0.32273974069E+01  0.72461697588E+02  0.70000165823E+02 0.  0.
        -12    1    1    2    0    0 -0.56994317890E+01  0.17543511202E+02 -0.32273974069E+01  0.18726302412E+02  0.00000000000E+00 0.  1.
         11    1    3    3    0    0 -0.27675341987E+01 -0.69919223717E+01 -0.63715712199E+00  0.75466677052E+01  0.51100000000E-03 0. -1.
        -11    1    3    3    0    0 -0.12637583507E+02 -0.26202851635E+02 -0.14844686313E+02  0.32659801939E+02  0.51100000000E-03 0.  1.
         12    1    3    3    0    0  0.21104549495E+02  0.15651262805E+02  0.18709240842E+02  0.32255227943E+02  0.00000000000E+00 0. -1.
</event>
<event>
 7    1  0.1789107E-013  0.7246159E+02  0.7816164E-02  0.1226708E+00
        -11   -1    0    0    0    0  0.00000000000E+00  0.00000000000E+00  0.45593999997E+02  0.45594000000E+02  0.51100000000E-03 0.  1.
         11   -1    0    0    0    0 -0.00000000000E+00 -0.00000000000E+00 -0.45593999997E+02  0.45594000000E+02  0.51100000000E-03 0. -1.
    9900012    2    1    2    0    0  0.10126689264E+02 -0.14603122519E+02  0.59057094969E+01  0.72461590109E+02  0.70000025812E+02 0.  0.
        -12    1    1    2    0    0 -0.10126689264E+02  0.14603122519E+02 -0.59057094969E+01  0.18726409891E+02  0.00000000000E+00 0.  1.
         11    1    3    3    0    0  0.29440286851E+02 -0.10677811445E+02  0.46916934880E+00  0.31320381020E+02  0.51100000000E-03 0. -1.
        -11    1    3    3    0    0  0.43524271429E+01 -0.14224740765E+02  0.33405692080E+01  0.15246188860E+02  0.51100000000E-03 0.  1.
        -12    1    3    3    0    0 -0.23666024730E+02  0.10299429691E+02  0.20959709401E+01  0.25895020229E+02  0.00000000000E+00 0.  1.
</event>
<event>
 7    1  0.1789107E-013  0.7246190E+02  0.7816164E-02  0.1226707E+00
        -11   -1    0    0    0    0  0.00000000000E+00  0.00000000000E+00  0.45593999997E+02  0.45594000000E+02  0.51100000000E-03 0.  1.
         11   -1    0    0    0    0 -0.00000000000E+00 -0.00000000000E+00 -0.45593999997E+02  0.45594000000E+02  0.51100000000E-03 0. -1.
    9900012    2    1    2    0    0 -0.92830386291E+01 -0.14702681558E+02 -0.69514782872E+01  0.72461903194E+02  0.70000433663E+02 0.  0.
        -12    1    1    2    0    0  0.92830386291E+01  0.14702681558E+02  0.69514782872E+01  0.18726096806E+02  0.00000000000E+00 0.  1.
         11    1    3    3    0    0  0.47992068817E+00  0.14953538282E+02 -0.17226317091E+02  0.22816323801E+02  0.51100000000E-03 0. -1.
        -11    1    3    3    0    0 -0.65442211885E+01  0.51148540597E+01  0.12101957816E+02  0.14678077063E+02  0.51100000000E-03 0.  1.
         12    1    3    3    0    0 -0.32187381288E+01 -0.34771073900E+02 -0.18271190128E+01  0.34967502330E+02  0.00000000000E+00 0. -1.
</event>
<event>
 7    1  0.1789107E-013  0.7246154E+02  0.7816164E-02  0.1226708E+00
        -11   -1    0    0    0    0  0.00000000000E+00  0.00000000000E+00  0.45593999997E+02  0.45594000000E+02  0.51100000000E-03 0. -1.
         11   -1    0    0    0    0 -0.00000000000E+00 -0.00000000000E+00 -0.45593999997E+02  0.45594000000E+02  0.51100000000E-03 0.  1.
    9900012    2    1    2    0    0 -0.42159835279E+01  0.83069814913E+01  0.16244995470E+02  0.72461539138E+02  0.69999959413E+02 0.  0.
        -12    1    1    2    0    0  0.42159835279E+01 -0.83069814913E+01 -0.16244995470E+02  0.18726460862E+02  0.00000000000E+00 0.  1.
         11    1    3    3    0    0 -0.12683154113E+02  0.12580622297E+01  0.28993816237E+02  0.31671540839E+02  0.51100000000E-03 0. -1.
        -11    1    3    3    0    0  0.85682373913E+01 -0.13962856055E+02 -0.33641737969E+00  0.16385640608E+02  0.51100000000E-03 0.  1.
         12    1    3    3    0    0 -0.10106680607E+00  0.21011775317E+02 -0.12412403388E+02  0.24404357692E+02  0.00000000000E+00 0. -1.
</event>
<event>
 7    1  0.1789107E-013  0.7246155E+02  0.7816164E-02  0.1226708E+00
        -11   -1    0    0    0    0  0.00000000000E+00  0.00000000000E+00  0.45593999997E+02  0.45594000000E+02  0.51100000000E-03 0.  1.
         11   -1    0    0    0    0 -0.00000000000E+00 -0.00000000000E+00 -0.45593999997E+02  0.45594000000E+02  0.51100000000E-03 0. -1.
    9900012    2    1    2    0    0  0.13696995782E+02  0.12654975436E+02  0.17098775569E+01  0.72461554048E+02  0.69999978836E+02 0.  0.
        -12    1    1    2    0    0 -0.13696995782E+02 -0.12654975436E+02 -0.17098775569E+01  0.18726445952E+02  0.00000000000E+00 0.  1.
         11    1    3    3    0    0 -0.41475128939E+01 -0.74073506013E+01  0.63527891336E+01  0.10603237061E+02  0.51100000000E-03 0. -1.
        -11    1    3    3    0    0  0.84507240264E+01 -0.18376956082E+02 -0.88234464891E+01  0.22067633756E+02  0.51100000000E-03 0.  1.
         12    1    3    3    0    0  0.93937846492E+01  0.38439282119E+02  0.41805349125E+01  0.39790683231E+02  0.00000000000E+00 0. -1.
</event>
<event>
 7    1  0.1789107E-013  0.7246157E+02  0.7816164E-02  0.1226708E+00
        -11   -1    0    0    0    0  0.00000000000E+00  0.00000000000E+00  0.45593999997E+02  0.45594000000E+02  0.51100000000E-03 0. -1.
         11   -1    0    0    0    0 -0.00000000000E+00 -0.00000000000E+00 -0.45593999997E+02  0.45594000000E+02  0.51100000000E-03 0.  1.
    9900012    2    1    2    0    0 -0.13014694392E+02 -0.12316753691E+02  0.54400748832E+01  0.72461571982E+02  0.70000002198E+02 0.  0.
        -12    1    1    2    0    0  0.13014694392E+02  0.12316753691E+02 -0.54400748832E+01  0.18726428018E+02  0.00000000000E+00 0.  1.
         11    1    3    3    0    0 -0.31806414481E+02 -0.99057237422E+01  0.17738144974E+02  0.37741398389E+02  0.51100000000E-03 0. -1.
        -11    1    3    3    0    0  0.12184806419E+01  0.86079763441E+01 -0.10883888946E+02  0.13929859679E+02  0.51100000000E-03 0.  1.
        -12    1    3    3    0    0  0.17573239447E+02 -0.11019006293E+02 -0.14141811440E+01  0.20790313914E+02  0.00000000000E+00 0.  1.
</event>
<event>
 7    1  0.1789107E-013  0.7246157E+02  0.7816164E-02  0.1226708E+00
        -11   -1    0    0    0    0  0.00000000000E+00  0.00000000000E+00  0.45593999997E+02  0.45594000000E+02  0.51100000000E-03 0.  1.
         11   -1    0    0    0    0 -0.00000000000E+00 -0.00000000000E+00 -0.45593999997E+02  0.45594000000E+02  0.51100000000E-03 0. -1.
    9900012    2    1    2    0    0 -0.67630928758E+01  0.17457113763E+02  0.43456794363E+00  0.72461572272E+02  0.70000002576E+02 0.  0.
        -12    1    1    2    0    0  0.67630928758E+01 -0.17457113763E+02 -0.43456794363E+00  0.18726427728E+02  0.00000000000E+00 0.  1.
         11    1    3    3    0    0  0.23051196431E+02  0.72630589992E+01 -0.18285375974E+01  0.24237434537E+02  0.51100000000E-03 0. -1.
        -11    1    3    3    0    0  0.75665577818E+01 -0.34227597701E+01  0.14615506126E+01  0.84323313243E+01  0.51100000000E-03 0.  1.
        -12    1    3    3    0    0 -0.37380847088E+02  0.13616814534E+02  0.80155492841E+00  0.39791806410E+02  0.00000000000E+00 0.  1.
</event>
<event>
 7    1  0.1789107E-013  0.7246159E+02  0.7816164E-02  0.1226708E+00
        -11   -1    0    0    0    0  0.00000000000E+00  0.00000000000E+00  0.45593999997E+02  0.45594000000E+02  0.51100000000E-03 0. -1.
         11   -1    0    0    0    0 -0.00000000000E+00 -0.00000000000E+00 -0.45593999997E+02  0.45594000000E+02  0.51100000000E-03 0.  1.
    9900012    2    1    2    0    0 -0.18281468092E+02 -0.29928722849E+01  0.27402582282E+01  0.72461591501E+02  0.70000027626E+02 0.  0.
        -12    1    1    2    0    0  0.18281468092E+02  0.29928722849E+01 -0.27402582282E+01  0.18726408499E+02  0.00000000000E+00 0.  1.
         11    1    3    3    0    0 -0.70349657312E+01 -0.30527432962E+01  0.23492536231E+01  0.80205347277E+01  0.51100000000E-03 0. -1.
        -11    1    3    3    0    0  0.46744822523E+01 -0.27923335436E+02  0.11247996396E+02  0.30464419728E+02  0.51100000000E-03 0.  1.
         12    1    3    3    0    0 -0.15920984613E+02  0.27983206447E+02 -0.10856991791E+02  0.33976637045E+02  0.00000000000E+00 0. -1.
</event>
<event>
 7    1  0.1789107E-013  0.7246152E+02  0.7816164E-02  0.1226708E+00
        -11   -1    0    0    0    0  0.00000000000E+00  0.00000000000E+00  0.45593999997E+02  0.45594000000E+02  0.51100000000E-03 0.  1.
         11   -1    0    0    0    0 -0.00000000000E+00 -0.00000000000E+00 -0.45593999997E+02  0.45594000000E+02  0.51100000000E-03 0. -1.
    9900012    2    1    2    0    0 -0.50940926612E+01 -0.27487536331E+01 -0.17809425053E+02  0.72461520158E+02  0.69999934688E+02 0.  0.
        -12    1    1    2    0    0  0.50940926612E+01  0.27487536331E+01  0.17809425053E+02  0.18726479842E+02  0.00000000000E+00 0.  1.
         11    1    3    3    0    0 -0.16198960819E+02 -0.59209606005E+01 -0.26943175713E+02  0.31990605243E+02  0.51100000000E-03 0. -1.
        -11    1    3    3    0    0  0.16688649433E+02  0.14716020689E+02 -0.34365016290E+01  0.22514036255E+02  0.51100000000E-03 0.  1.
         12    1    3    3    0    0 -0.55837812750E+01 -0.11543813721E+02  0.12570252290E+02  0.17956878659E+02  0.00000000000E+00 0. -1.
</event>
<event>
 7    1  0.1789107E-013  0.7246157E+02  0.7816164E-02  0.1226708E+00
        -11   -1    0    0    0    0  0.00000000000E+00  0.00000000000E+00  0.45593999997E+02  0.45594000000E+02  0.51100000000E-03 0. -1.
         11   -1    0    0    0    0 -0.00000000000E+00 -0.00000000000E+00 -0.45593999997E+02  0.45594000000E+02  0.51100000000E-03 0.  1.
    9900012    2    1    2    0    0 -0.13231048454E+02  0.12786396091E+02  0.34823508891E+01  0.72461565852E+02  0.69999994213E+02 0.  0.
        -12    1    1    2    0    0  0.13231048454E+02 -0.12786396091E+02 -0.34823508891E+01  0.18726434148E+02  0.00000000000E+00 0.  1.
         11    1    3    3    0    0 -0.12736727442E+02  0.31357407562E+02  0.12083344518E+02  0.35937702346E+02  0.51100000000E-03 0. -1.
        -11    1    3    3    0    0 -0.58806625001E+01  0.71265524875E+01 -0.23658987797E+01  0.95376841578E+01  0.51100000000E-03 0.  1.
        -12    1    3    3    0    0  0.53863414884E+01 -0.25697563958E+02 -0.62350948491E+01  0.26986179347E+02  0.00000000000E+00 0.  1.
</event>
<event>
 7    1  0.1789107E-013  0.7246158E+02  0.7816164E-02  0.1226708E+00
        -11   -1    0    0    0    0  0.00000000000E+00  0.00000000000E+00  0.45593999997E+02  0.45594000000E+02  0.51100000000E-03 0.  1.
         11   -1    0    0    0    0 -0.00000000000E+00 -0.00000000000E+00 -0.45593999997E+02  0.45594000000E+02  0.51100000000E-03 0. -1.
    9900012    2    1    2    0    0 -0.16746043780E+02 -0.57435591133E+00  0.83617603960E+01  0.72461577386E+02  0.70000009239E+02 0.  0.
        -12    1    1    2    0    0  0.16746043780E+02  0.57435591133E+00 -0.83617603960E+01  0.18726422614E+02  0.00000000000E+00 0.  1.
         11    1    3    3    0    0 -0.62067715602E+00 -0.56345388848E+01 -0.15159064854E+02  0.16184267548E+02  0.51100000000E-03 0. -1.
        -11    1    3    3    0    0  0.64429018320E-01  0.16473946380E+02 -0.85664305045E+01  0.18568219955E+02  0.51100000000E-03 0.  1.
        -12    1    3    3    0    0 -0.16189795642E+02 -0.11413763407E+02  0.32087255754E+02  0.37709089884E+02  0.00000000000E+00 0.  1.
</event>
<event>
 7    1  0.1789107E-013  0.7246161E+02  0.7816164E-02  0.1226708E+00
        -11   -1    0    0    0    0  0.00000000000E+00  0.00000000000E+00  0.45593999997E+02  0.45594000000E+02  0.51100000000E-03 0.  1.
         11   -1    0    0    0    0 -0.00000000000E+00 -0.00000000000E+00 -0.45593999997E+02  0.45594000000E+02  0.51100000000E-03 0. -1.
    9900012    2    1    2    0    0 -0.13228533287E+02 -0.12907769255E+02  0.30121690339E+01  0.72461607866E+02  0.70000048944E+02 0.  0.
        -12    1    1    2    0    0  0.13228533287E+02  0.12907769255E+02 -0.30121690339E+01  0.18726392134E+02  0.00000000000E+00 0.  1.
         11    1    3    3    0    0 -0.88859455209E+00 -0.92452536833E+00  0.22998981331E+01  0.26332259908E+01  0.51100000000E-03 0. -1.
        -11    1    3    3    0    0 -0.33002089582E+02  0.33377321404E+01  0.19037775546E+02  0.38245460785E+02  0.51100000000E-03 0.  1.
         12    1    3    3    0    0  0.20662150848E+02 -0.15320976027E+02 -0.18325504645E+02  0.31582921090E+02  0.00000000000E+00 0. -1.
</event>
<event>
 7    1  0.1789107E-013  0.7246147E+02  0.7816164E-02  0.1226708E+00
        -11   -1    0    0    0    0  0.00000000000E+00  0.00000000000E+00  0.45593999997E+02  0.45594000000E+02  0.51100000000E-03 0.  1.
         11   -1    0    0    0    0 -0.00000000000E+00 -0.00000000000E+00 -0.45593999997E+02  0.45594000000E+02  0.51100000000E-03 0. -1.
    9900012    2    1    2    0    0 -0.16610822227E+02  0.14942651569E+01 -0.85164864840E+01  0.72461473748E+02  0.69999874231E+02 0.  0.
        -12    1    1    2    0    0  0.16610822227E+02 -0.14942651569E+01  0.85164864840E+01  0.18726526252E+02  0.00000000000E+00 0.  1.
         11    1    3    3    0    0 -0.30307445175E+01  0.15088330540E+00 -0.33411575963E+02  0.33549092189E+02  0.51100000000E-03 0. -1.
        -11    1    3    3    0    0 -0.35023436054E+01  0.13494847838E+02  0.95684012190E+01  0.16909513035E+02  0.51100000000E-03 0.  1.
        -12    1    3    3    0    0 -0.10077734104E+02 -0.12151465987E+02  0.15326688260E+02  0.22002868525E+02  0.00000000000E+00 0.  1.
</event>
<event>
 7    1  0.1789107E-013  0.7246159E+02  0.7816164E-02  0.1226708E+00
        -11   -1    0    0    0    0  0.00000000000E+00  0.00000000000E+00  0.45593999997E+02  0.45594000000E+02  0.51100000000E-03 0.  1.
         11   -1    0    0    0    0 -0.00000000000E+00 -0.00000000000E+00 -0.45593999997E+02  0.45594000000E+02  0.51100000000E-03 0. -1.
    9900012    2    1    2    0    0 -0.10365546831E+02 -0.10797452048E+02 -0.11253838689E+02  0.72461590385E+02  0.70000026172E+02 0.  0.
        -12    1    1    2    0    0  0.10365546831E+02  0.10797452048E+02  0.11253838689E+02  0.18726409615E+02  0.00000000000E+00 0.  1.
         11    1    3    3    0    0 -0.14825563409E+02 -0.29149011076E+01 -0.31313298527E+02  0.34768040551E+02  0.51100000000E-03 0. -1.
        -11    1    3    3    0    0 -0.94261125245E+01  0.36365794537E+01 -0.77491938406E+00  0.10132956516E+02  0.51100000000E-03 0.  1.
        -12    1    3    3    0    0  0.13886129102E+02 -0.11519130394E+02  0.20834379222E+02  0.27560593318E+02  0.00000000000E+00 0.  1.
</event>
<event>
 7    1  0.1789107E-013  0.7246156E+02  0.7816164E-02  0.1226708E+00
        -11   -1    0    0    0    0  0.00000000000E+00  0.00000000000E+00  0.45593999997E+02  0.45594000000E+02  0.51100000000E-03 0.  1.
         11   -1    0    0    0    0 -0.00000000000E+00 -0.00000000000E+00 -0.45593999997E+02  0.45594000000E+02  0.51100000000E-03 0. -1.
    9900012    2    1    2    0    0 -0.86004217183E+01  0.98760041678E+01 -0.13385702364E+02  0.72461555067E+02  0.69999980163E+02 0.  0.
        -12    1    1    2    0    0  0.86004217183E+01 -0.98760041678E+01  0.13385702364E+02  0.18726444933E+02  0.00000000000E+00 0.  1.
         11    1    3    3    0    0 -0.28957028788E+02  0.15051497002E+02 -0.18413037069E+02  0.37471282505E+02  0.51100000000E-03 0. -1.
        -11    1    3    3    0    0  0.40710751219E+00 -0.79511715754E+01 -0.77717833592E+01  0.11125982329E+02  0.51100000000E-03 0.  1.
        -12    1    3    3    0    0  0.19949499558E+02  0.27756787409E+01  0.12799118064E+02  0.23864290232E+02  0.00000000000E+00 0.  1.
</event>
<event>
 7    1  0.1789107E-013  0.7246168E+02  0.7816164E-02  0.1226708E+00
        -11   -1    0    0    0    0  0.00000000000E+00  0.00000000000E+00  0.45593999997E+02  0.45594000000E+02  0.51100000000E-03 0.  1.
         11   -1    0    0    0    0 -0.00000000000E+00 -0.00000000000E+00 -0.45593999997E+02  0.45594000000E+02  0.51100000000E-03 0. -1.
    9900012    2    1    2    0    0 -0.20851031472E+01 -0.13569293685E+02 -0.12735845661E+02  0.72461677592E+02  0.70000139775E+02 0.  0.
        -12    1    1    2    0    0  0.20851031472E+01  0.13569293685E+02  0.12735845661E+02  0.18726322408E+02  0.00000000000E+00 0.  1.
         11    1    3    3    0    0  0.61144641175E+01 -0.15782352972E+02  0.17683210878E+02  0.24477852929E+02  0.51100000000E-03 0. -1.
        -11    1    3    3    0    0 -0.15915728984E+02  0.61334193620E+01 -0.74453078373E+00  0.17072890455E+02  0.51100000000E-03 0.  1.
         12    1    3    3    0    0  0.77161617191E+01 -0.39203600740E+01 -0.29674525755E+02  0.30910934208E+02  0.00000000000E+00 0. -1.
</event>
<event>
 7    1  0.1789107E-013  0.7246158E+02  0.7816164E-02  0.1226708E+00
        -11   -1    0    0    0    0  0.00000000000E+00  0.00000000000E+00  0.45593999997E+02  0.45594000000E+02  0.51100000000E-03 0.  1.
         11   -1    0    0    0    0 -0.00000000000E+00 -0.00000000000E+00 -0.45593999997E+02  0.45594000000E+02  0.51100000000E-03 0. -1.
    9900012    2    1    2    0    0  0.60244284464E+01 -0.13165114123E+02 -0.11877065936E+02  0.72461583813E+02  0.70000017610E+02 0.  0.
        -12    1    1    2    0    0 -0.60244284464E+01  0.13165114123E+02  0.11877065936E+02  0.18726416187E+02  0.00000000000E+00 0.  1.
         11    1    3    3    0    0 -0.57007387702E+00 -0.27679351039E+01 -0.32397949609E+02  0.32520971512E+02  0.51100000000E-03 0. -1.
        -11    1    3    3    0    0  0.10458272194E+02 -0.97918273040E+01 -0.41862868094E+01  0.14925827842E+02  0.51100000000E-03 0.  1.
        -12    1    3    3    0    0 -0.38637698710E+01 -0.60535171467E+00  0.24707170482E+02  0.25014784459E+02  0.00000000000E+00 0.  1.
</event>
<event>
 7    1  0.1789107E-013  0.7246154E+02  0.7816164E-02  0.1226708E+00
        -11   -1    0    0    0    0  0.00000000000E+00  0.00000000000E+00  0.45593999997E+02  0.45594000000E+02  0.51100000000E-03 0.  1.
         11   -1    0    0    0    0 -0.00000000000E+00 -0.00000000000E+00 -0.45593999997E+02  0.45594000000E+02  0.51100000000E-03 0. -1.
    9900012    2    1    2    0    0  0.13406118973E+02  0.95777225726E+01  0.89007568428E+01  0.72461540966E+02  0.69999961794E+02 0.  0.
        -12    1    1    2    0    0 -0.13406118973E+02 -0.95777225726E+01 -0.89007568428E+01  0.18726459034E+02  0.00000000000E+00 0.  1.
         11    1    3    3    0    0  0.10221371814E+02  0.90782193557E+01  0.77324194681E+01  0.15706075879E+02  0.51100000000E-03 0. -1.
        -11    1    3    3    0    0  0.29438064012E+02 -0.49915737177E+01  0.19583914796E+01  0.29922411641E+02  0.51100000000E-03 0.  1.
        -12    1    3    3    0    0 -0.26253316853E+02  0.54910769347E+01 -0.79005410492E+00  0.26833053445E+02  0.00000000000E+00 0.  1.
</event>
<event>
 7    1  0.1789107E-013  0.7246162E+02  0.7816164E-02  0.1226708E+00
        -11   -1    0    0    0    0  0.00000000000E+00  0.00000000000E+00  0.45593999997E+02  0.45594000000E+02  0.51100000000E-03 0.  1.
         11   -1    0    0    0    0 -0.00000000000E+00 -0.00000000000E+00 -0.45593999997E+02  0.45594000000E+02  0.51100000000E-03 0. -1.
    9900012    2    1    2    0    0 -0.66007152135E+01 -0.16650569484E+02  0.54650117271E+01  0.72461621315E+02  0.70000066464E+02 0.  0.
        -12    1    1    2    0    0  0.66007152135E+01  0.16650569484E+02 -0.54650117271E+01  0.18726378685E+02  0.00000000000E+00 0.  1.
         11    1    3    3    0    0  0.11489581679E+01  0.75011622543E+01 -0.13912910425E+02  0.15847921529E+02  0.51100000000E-03 0. -1.
        -11    1    3    3    0    0 -0.23673401872E+02 -0.17781406836E+02 -0.14379608819E+01  0.29642471507E+02  0.51100000000E-03 0.  1.
        -12    1    3    3    0    0  0.15923728491E+02 -0.63703249019E+01  0.20815883034E+02  0.26971228279E+02  0.00000000000E+00 0.  1.
</event>
<event>
 7    1  0.1789107E-013  0.7246136E+02  0.7816164E-02  0.1226709E+00
        -11   -1    0    0    0    0  0.00000000000E+00  0.00000000000E+00  0.45593999997E+02  0.45594000000E+02  0.51100000000E-03 0.  1.
         11   -1    0    0    0    0 -0.00000000000E+00 -0.00000000000E+00 -0.45593999997E+02  0.45594000000E+02  0.51100000000E-03 0. -1.
    9900012    2    1    2    0    0 -0.65028837656E+01  0.11025075679E+02  0.13669214046E+02  0.72461355783E+02  0.69999720558E+02 0.  0.
        -12    1    1    2    0    0  0.65028837656E+01 -0.11025075679E+02 -0.13669214046E+02  0.18726644217E+02  0.00000000000E+00 0.  1.
         11    1    3    3    0    0  0.55374960188E+00  0.10906968017E+02 -0.16027215707E+02  0.19394335089E+02  0.51100000000E-03 0. -1.
        -11    1    3    3    0    0 -0.20459089478E+02 -0.10431324927E+02  0.57615256044E+01  0.23676614191E+02  0.51100000000E-03 0.  1.
         12    1    3    3    0    0  0.13402456111E+02  0.10549432589E+02  0.23934904149E+02  0.29390406502E+02  0.00000000000E+00 0. -1.
</event>
<event>
 7    1  0.1789107E-013  0.7246160E+02  0.7816164E-02  0.1226708E+00
        -11   -1    0    0    0    0  0.00000000000E+00  0.00000000000E+00  0.45593999997E+02  0.45594000000E+02  0.51100000000E-03 0.  1.
         11   -1    0    0    0    0 -0.00000000000E+00 -0.00000000000E+00 -0.45593999997E+02  0.45594000000E+02  0.51100000000E-03 0. -1.
    9900012    2    1    2    0    0 -0.95778957813E+01  0.15114537658E+02 -0.55220122743E+01  0.72461602702E+02  0.70000042216E+02 0.  0.
        -12    1    1    2    0    0  0.95778957813E+01 -0.15114537658E+02  0.55220122743E+01  0.18726397298E+02  0.00000000000E+00 0.  1.
         11    1    3    3    0    0 -0.15424093480E+02 -0.11434818109E+02  0.18399224823E+01  0.19288417246E+02  0.51100000000E-03 0. -1.
        -11    1    3    3    0    0 -0.17029904971E+02  0.10823073304E+02  0.76912188354E+01  0.21594245218E+02  0.51100000000E-03 0.  1.
         12    1    3    3    0    0  0.22876102670E+02  0.15726282463E+02 -0.15053153592E+02  0.31578940238E+02  0.00000000000E+00 0. -1.
</event>
<event>
 7    1  0.1789107E-013  0.7246180E+02  0.7816164E-02  0.1226707E+00
        -11   -1    0    0    0    0  0.00000000000E+00  0.00000000000E+00  0.45593999997E+02  0.45594000000E+02  0.51100000000E-03 0. -1.
         11   -1    0    0    0    0 -0.00000000000E+00 -0.00000000000E+00 -0.45593999997E+02  0.45594000000E+02  0.51100000000E-03 0.  1.
    9900012    2    1    2    0    0  0.14138805471E+02  0.79876186636E+01  0.93253707534E+01  0.72461804130E+02  0.70000304614E+02 0.  0.
        -12    1    1    2    0    0 -0.14138805471E+02 -0.79876186636E+01 -0.93253707534E+01  0.18726195870E+02  0.00000000000E+00 0.  1.
         11    1    3    3    0    0 -0.76886357765E+01 -0.14947640997E+02  0.11428566359E+02  0.20326318426E+02  0.51100000000E-03 0. -1.
        -11    1    3    3    0    0  0.88212925036E+01  0.21724396365E+02  0.17022594289E+02  0.28974701300E+02  0.51100000000E-03 0.  1.
         12    1    3    3    0    0  0.13006148744E+02  0.12108632956E+01 -0.19125789895E+02  0.23160784403E+02  0.00000000000E+00 0. -1.
</event>
<event>
 7    1  0.1789107E-013  0.7246159E+02  0.7816164E-02  0.1226708E+00
        -11   -1    0    0    0    0  0.00000000000E+00  0.00000000000E+00  0.45593999997E+02  0.45594000000E+02  0.51100000000E-03 0.  1.
         11   -1    0    0    0    0 -0.00000000000E+00 -0.00000000000E+00 -0.45593999997E+02  0.45594000000E+02  0.51100000000E-03 0. -1.
    9900012    2    1    2    0    0 -0.15160164424E+02 -0.25776367725E+00 -0.10990060937E+02  0.72461589055E+02  0.70000024440E+02 0.  0.
        -12    1    1    2    0    0  0.15160164424E+02  0.25776367725E+00  0.10990060937E+02  0.18726410945E+02  0.00000000000E+00 0.  1.
         11    1    3    3    0    0 -0.57273611123E+01  0.25700502118E+01 -0.23999943330E+01  0.67206991051E+01  0.51100000000E-03 0. -1.
        -11    1    3    3    0    0 -0.22267705062E+02 -0.28012774520E+02  0.12593807595E+01  0.35807153827E+02  0.51100000000E-03 0.  1.
         12    1    3    3    0    0  0.12834901750E+02  0.25184960631E+02 -0.98494473635E+01  0.29933736123E+02  0.00000000000E+00 0. -1.
</event>
<event>
 7    1  0.1789107E-013  0.7246145E+02  0.7816164E-02  0.1226708E+00
        -11   -1    0    0    0    0  0.00000000000E+00  0.00000000000E+00  0.45593999997E+02  0.45594000000E+02  0.51100000000E-03 0. -1.
         11   -1    0    0    0    0 -0.00000000000E+00 -0.00000000000E+00 -0.45593999997E+02  0.45594000000E+02  0.51100000000E-03 0.  1.
    9900012    2    1    2    0    0 -0.14904517207E+02 -0.31269465147E+01  0.10897769176E+02  0.72461446641E+02  0.69999838919E+02 0.  0.
        -12    1    1    2    0    0  0.14904517207E+02  0.31269465147E+01 -0.10897769176E+02  0.18726553359E+02  0.00000000000E+00 0.  1.
         11    1    3    3    0    0 -0.21112413265E+02 -0.42467587526E+01  0.24147875957E+01  0.21670259647E+02  0.51100000000E-03 0. -1.
        -11    1    3    3    0    0 -0.72425704534E+01 -0.22073783324E+02  0.29961944444E+01  0.23424003040E+02  0.51100000000E-03 0.  1.
        -12    1    3    3    0    0  0.13450466511E+02  0.23193595562E+02  0.54867871363E+01  0.27367183954E+02  0.00000000000E+00 0.  1.
</event>
<event>
 7    1  0.1789107E-013  0.7246135E+02  0.7816164E-02  0.1226709E+00
        -11   -1    0    0    0    0  0.00000000000E+00  0.00000000000E+00  0.45593999997E+02  0.45594000000E+02  0.51100000000E-03 0. -1.
         11   -1    0    0    0    0 -0.00000000000E+00 -0.00000000000E+00 -0.45593999997E+02  0.45594000000E+02  0.51100000000E-03 0.  1.
    9900012    2    1    2    0    0  0.15954464544E+02  0.96095787896E+01 -0.19489927225E+01  0.72461347442E+02  0.69999709692E+02 0.  0.
        -12    1    1    2    0    0 -0.15954464544E+02 -0.96095787896E+01  0.19489927225E+01  0.18726652558E+02  0.00000000000E+00 0.  1.
         11    1    3    3    0    0  0.45909472935E+01  0.19277265235E+02 -0.21156530348E+02  0.28987730656E+02  0.51100000000E-03 0. -1.
        -11    1    3    3    0    0  0.11179122164E+02  0.12534568959E+02  0.80637498572E+01  0.18630948805E+02  0.51100000000E-03 0.  1.
        -12    1    3    3    0    0  0.18439508691E+00 -0.22202255404E+02  0.11143787768E+02  0.24842667981E+02  0.00000000000E+00 0.  1.
</event>
<event>
 7    1  0.1789107E-013  0.7246172E+02  0.7816164E-02  0.1226708E+00
        -11   -1    0    0    0    0  0.00000000000E+00  0.00000000000E+00  0.45593999997E+02  0.45594000000E+02  0.51100000000E-03 0. -1.
         11   -1    0    0    0    0 -0.00000000000E+00 -0.00000000000E+00 -0.45593999997E+02  0.45594000000E+02  0.51100000000E-03 0.  1.
    9900012    2    1    2    0    0  0.16887304840E+02 -0.73564095486E+01  0.33728119690E+01  0.72461716685E+02  0.70000190701E+02 0.  0.
        -12    1    1    2    0    0 -0.16887304840E+02  0.73564095486E+01 -0.33728119690E+01  0.18726283315E+02  0.00000000000E+00 0.  1.
         11    1    3    3    0    0  0.27667687212E+02 -0.13238767906E+02  0.91242568661E+00  0.30685475591E+02  0.51100000000E-03 0. -1.
        -11    1    3    3    0    0 -0.33354057064E+01 -0.13813050271E+02  0.12057892990E+02  0.18636471571E+02  0.51100000000E-03 0.  1.
        -12    1    3    3    0    0 -0.74449766659E+01  0.19695408628E+02 -0.95975067075E+01  0.23139769523E+02  0.00000000000E+00 0.  1.
</event>
<event>
 7    1  0.1789107E-013  0.7246154E+02  0.7816164E-02  0.1226708E+00
        -11   -1    0    0    0    0  0.00000000000E+00  0.00000000000E+00  0.45593999997E+02  0.45594000000E+02  0.51100000000E-03 0.  1.
         11   -1    0    0    0    0 -0.00000000000E+00 -0.00000000000E+00 -0.45593999997E+02  0.45594000000E+02  0.51100000000E-03 0. -1.
    9900012    2    1    2    0    0 -0.17919819789E+01 -0.88009758162E+01 -0.16432037986E+02  0.72461541522E+02  0.69999962519E+02 0.  0.
        -12    1    1    2    0    0  0.17919819789E+01  0.88009758162E+01  0.16432037986E+02  0.18726458478E+02  0.00000000000E+00 0.  1.
         11    1    3    3    0    0 -0.83342441212E+01 -0.90508763502E+01 -0.97963260498E+01  0.15727237269E+02  0.51100000000E-03 0. -1.
        -11    1    3    3    0    0 -0.22040077375E+02  0.44876200920E+00 -0.15338395365E+02  0.26855777231E+02  0.51100000000E-03 0.  1.
        -12    1    3    3    0    0  0.28582339517E+02 -0.19886147522E+00  0.87026834289E+01  0.29878527022E+02  0.00000000000E+00 0.  1.
</event>
<event>
 7    1  0.1789107E-013  0.7246140E+02  0.7816164E-02  0.1226708E+00
        -11   -1    0    0    0    0  0.00000000000E+00  0.00000000000E+00  0.45593999997E+02  0.45594000000E+02  0.51100000000E-03 0.  1.
         11   -1    0    0    0    0 -0.00000000000E+00 -0.00000000000E+00 -0.45593999997E+02  0.45594000000E+02  0.51100000000E-03 0. -1.
    9900012    2    1    2    0    0  0.15991574301E+02  0.96952905639E+01 -0.97788609579E+00  0.72461404768E+02  0.69999784371E+02 0.  0.
        -12    1    1    2    0    0 -0.15991574301E+02 -0.96952905639E+01  0.97788609579E+00  0.18726595232E+02  0.00000000000E+00 0.  1.
         11    1    3    3    0    0 -0.33167244428E+01 -0.62613637174E+01  0.61457444983E+01  0.93795262317E+01  0.51100000000E-03 0. -1.
        -11    1    3    3    0    0  0.42262260866E+01  0.11451154569E+02  0.24714938917E+02  0.27564798817E+02  0.51100000000E-03 0.  1.
         12    1    3    3    0    0  0.15082072657E+02  0.45054997121E+01 -0.31838569511E+02  0.35517079720E+02  0.00000000000E+00 0. -1.
</event>
<event>
 7    1  0.1789107E-013  0.7246168E+02  0.7816164E-02  0.1226708E+00
        -11   -1    0    0    0    0  0.00000000000E+00  0.00000000000E+00  0.45593999997E+02  0.45594000000E+02  0.51100000000E-03 0. -1.
         11   -1    0    0    0    0 -0.00000000000E+00 -0.00000000000E+00 -0.45593999997E+02  0.45594000000E+02  0.51100000000E-03 0.  1.
    9900012    2    1    2    0    0 -0.30714196048E+01  0.17870011897E+02  0.46801705867E+01  0.72461683216E+02  0.70000147101E+02 0.  0.
        -12    1    1    2    0    0  0.30714196048E+01 -0.17870011897E+02 -0.46801705867E+01  0.18726316784E+02  0.00000000000E+00 0.  1.
         11    1    3    3    0    0 -0.28766061876E+00  0.68388026352E+01 -0.66388649933E+01  0.95355387249E+01  0.51100000000E-03 0. -1.
        -11    1    3    3    0    0 -0.46237540641E+01 -0.20778253594E+02  0.20719800778E+02  0.29705640350E+02  0.51100000000E-03 0.  1.
         12    1    3    3    0    0  0.18399950780E+01  0.31809462856E+02 -0.94007651978E+01  0.33220504141E+02  0.00000000000E+00 0. -1.
</event>
<event>
 7    1  0.1789107E-013  0.7246186E+02  0.7816164E-02  0.1226707E+00
        -11   -1    0    0    0    0  0.00000000000E+00  0.00000000000E+00  0.45593999997E+02  0.45594000000E+02  0.51100000000E-03 0. -1.
         11   -1    0    0    0    0 -0.00000000000E+00 -0.00000000000E+00 -0.45593999997E+02  0.45594000000E+02  0.51100000000E-03 0.  1.
    9900012    2    1    2    0    0 -0.41775035324E+01  0.30668992387E+01  0.17994749363E+02  0.72461857542E+02  0.70000374192E+02 0.  0.
        -12    1    1    2    0    0  0.41775035324E+01 -0.30668992387E+01 -0.17994749363E+02  0.18726142458E+02  0.00000000000E+00 0.  1.
         11    1    3    3    0    0  0.24763905198E+01  0.22773332194E+02  0.70325448601E+01  0.23962759789E+02  0.51100000000E-03 0. -1.
        -11    1    3    3    0    0  0.17442660783E+02 -0.29902706666E+01  0.64027921245E+01  0.18819773673E+02  0.51100000000E-03 0.  1.
        -12    1    3    3    0    0 -0.24096554835E+02 -0.16716162289E+02  0.45594123789E+01  0.29679324080E+02  0.00000000000E+00 0.  1.
</event>
<event>
 7    1  0.1789107E-013  0.7246154E+02  0.7816164E-02  0.1226708E+00
        -11   -1    0    0    0    0  0.00000000000E+00  0.00000000000E+00  0.45593999997E+02  0.45594000000E+02  0.51100000000E-03 0.  1.
         11   -1    0    0    0    0 -0.00000000000E+00 -0.00000000000E+00 -0.45593999997E+02  0.45594000000E+02  0.51100000000E-03 0. -1.
    9900012    2    1    2    0    0 -0.55718818274E+00 -0.17979853979E+02 -0.52052548611E+01  0.72461540485E+02  0.69999961168E+02 0.  0.
        -12    1    1    2    0    0  0.55718818274E+00  0.17979853979E+02  0.52052548611E+01  0.18726459515E+02  0.00000000000E+00 0.  1.
         11    1    3    3    0    0 -0.10410011704E+02 -0.81605155244E+01 -0.58225456822E+01  0.14452141564E+02  0.51100000000E-03 0. -1.
        -11    1    3    3    0    0 -0.11289138197E+02  0.12950309664E+02 -0.15382604995E+02  0.23060349050E+02  0.51100000000E-03 0.  1.
         12    1    3    3    0    0  0.21141961718E+02 -0.22769648119E+02  0.15999895816E+02  0.34949049871E+02  0.00000000000E+00 0. -1.
</event>
<event>
 7    1  0.1789107E-013  0.7246157E+02  0.7816164E-02  0.1226708E+00
        -11   -1    0    0    0    0  0.00000000000E+00  0.00000000000E+00  0.45593999997E+02  0.45594000000E+02  0.51100000000E-03 0. -1.
         11   -1    0    0    0    0 -0.00000000000E+00 -0.00000000000E+00 -0.45593999997E+02  0.45594000000E+02  0.51100000000E-03 0.  1.
    9900012    2    1    2    0    0 -0.58847279083E+01  0.12364255530E+02 -0.12773970695E+02  0.72461570424E+02  0.70000000168E+02 0.  0.
        -12    1    1    2    0    0  0.58847279083E+01 -0.12364255530E+02  0.12773970695E+02  0.18726429576E+02  0.00000000000E+00 0.  1.
         11    1    3    3    0    0  0.17166958071E+02  0.11940004346E+01 -0.38849540679E+00  0.17212815441E+02  0.51100000000E-03 0. -1.
        -11    1    3    3    0    0 -0.73235239159E+01 -0.14902371083E+02 -0.17777250958E+02  0.24325815882E+02  0.51100000000E-03 0.  1.
         12    1    3    3    0    0 -0.15728162064E+02  0.26072626178E+02  0.53917756700E+01  0.30922939100E+02  0.00000000000E+00 0. -1.
</event>
<event>
 7    1  0.1789107E-013  0.7246154E+02  0.7816164E-02  0.1226708E+00
        -11   -1    0    0    0    0  0.00000000000E+00  0.00000000000E+00  0.45593999997E+02  0.45594000000E+02  0.51100000000E-03 0. -1.
         11   -1    0    0    0    0 -0.00000000000E+00 -0.00000000000E+00 -0.45593999997E+02  0.45594000000E+02  0.51100000000E-03 0.  1.
    9900012    2    1    2    0    0  0.15895956530E+02  0.36389913173E+01  0.92063399504E+01  0.72461537785E+02  0.69999957650E+02 0.  0.
        -12    1    1    2    0    0 -0.15895956530E+02 -0.36389913173E+01 -0.92063399504E+01  0.18726462215E+02  0.00000000000E+00 0.  1.
         11    1    3    3    0    0  0.38985119737E+02  0.83249409670E+01  0.10721370893E+02  0.41280649185E+02  0.51100000000E-03 0. -1.
        -11    1    3    3    0    0 -0.55709319120E+01 -0.98554004708E+01 -0.53439000521E+01  0.12518844549E+02  0.51100000000E-03 0.  1.
        -12    1    3    3    0    0 -0.17518231295E+02  0.51694508210E+01  0.38288691091E+01  0.18662044051E+02  0.00000000000E+00 0.  1.
</event>
<event>
 7    1  0.1789107E-013  0.7246158E+02  0.7816164E-02  0.1226708E+00
        -11   -1    0    0    0    0  0.00000000000E+00  0.00000000000E+00  0.45593999997E+02  0.45594000000E+02  0.51100000000E-03 0.  1.
         11   -1    0    0    0    0 -0.00000000000E+00 -0.00000000000E+00 -0.45593999997E+02  0.45594000000E+02  0.51100000000E-03 0. -1.
    9900012    2    1    2    0    0 -0.18722771103E+02 -0.26413819225E+00 -0.25849466764E+00  0.72461581596E+02  0.70000014722E+02 0.  0.
        -12    1    1    2    0    0  0.18722771103E+02  0.26413819225E+00  0.25849466764E+00  0.18726418404E+02  0.00000000000E+00 0.  1.
         11    1    3    3    0    0 -0.22530853450E+02  0.24613780509E+02 -0.19470362345E+01  0.33425566539E+02  0.51100000000E-03 0. -1.
        -11    1    3    3    0    0  0.42363694076E+01  0.63019627938E+01 -0.13237323158E+01  0.77080366058E+01  0.51100000000E-03 0.  1.
        -12    1    3    3    0    0 -0.42828706077E+00 -0.31179881495E+02  0.30122738826E+01  0.31327978451E+02  0.00000000000E+00 0.  1.
</event>
<event>
 7    1  0.1789107E-013  0.7246157E+02  0.7816164E-02  0.1226708E+00
        -11   -1    0    0    0    0  0.00000000000E+00  0.00000000000E+00  0.45593999997E+02  0.45594000000E+02  0.51100000000E-03 0. -1.
         11   -1    0    0    0    0 -0.00000000000E+00 -0.00000000000E+00 -0.45593999997E+02  0.45594000000E+02  0.51100000000E-03 0.  1.
    9900012    2    1    2    0    0  0.17556895377E+02  0.64704532893E+01 -0.75366349905E+00  0.72461565483E+02  0.69999993732E+02 0.  0.
        -12    1    1    2    0    0 -0.17556895377E+02 -0.64704532893E+01  0.75366349905E+00  0.18726434517E+02  0.00000000000E+00 0.  1.
         11    1    3    3    0    0 -0.56201724939E+01  0.45791302906E+01  0.20878347261E+02  0.22101134760E+02  0.51100000000E-03 0. -1.
        -11    1    3    3    0    0 -0.47586284376E+01 -0.69960309034E+01  0.57629531851E+01  0.10237217526E+02  0.51100000000E-03 0.  1.
        -12    1    3    3    0    0  0.27935696309E+02  0.88873539021E+01 -0.27394963945E+02  0.40123213196E+02  0.00000000000E+00 0.  1.
</event>
<event>
 7    1  0.1789107E-013  0.7246158E+02  0.7816164E-02  0.1226708E+00
        -11   -1    0    0    0    0  0.00000000000E+00  0.00000000000E+00  0.45593999997E+02  0.45594000000E+02  0.51100000000E-03 0.  1.
         11   -1    0    0    0    0 -0.00000000000E+00 -0.00000000000E+00 -0.45593999997E+02  0.45594000000E+02  0.51100000000E-03 0. -1.
    9900012    2    1    2    0    0  0.48636734797E-01 -0.18380628050E+02 -0.35817349905E+01  0.72461583403E+02  0.70000017076E+02 0.  0.
        -12    1    1    2    0    0 -0.48636734797E-01  0.18380628050E+02  0.35817349905E+01  0.18726416597E+02  0.00000000000E+00 0.  1.
         11    1    3    3    0    0  0.10098500711E+02 -0.10920311433E+02 -0.11447640866E+01  0.14917888707E+02  0.51100000000E-03 0. -1.
        -11    1    3    3    0    0 -0.21449825746E+02  0.12056636970E+02  0.15157927433E+02  0.28900177922E+02  0.51100000000E-03 0.  1.
         12    1    3    3    0    0  0.11399961770E+02 -0.19516953587E+02 -0.17594898337E+02  0.28643516774E+02  0.00000000000E+00 0. -1.
</event>
<event>
 7    1  0.1789107E-013  0.7246160E+02  0.7816164E-02  0.1226708E+00
        -11   -1    0    0    0    0  0.00000000000E+00  0.00000000000E+00  0.45593999997E+02  0.45594000000E+02  0.51100000000E-03 0. -1.
         11   -1    0    0    0    0 -0.00000000000E+00 -0.00000000000E+00 -0.45593999997E+02  0.45594000000E+02  0.51100000000E-03 0.  1.
    9900012    2    1    2    0    0  0.89020564172E+00 -0.11939317468E+02  0.14399252121E+02  0.72461595398E+02  0.70000032702E+02 0.  0.
        -12    1    1    2    0    0 -0.89020564172E+00  0.11939317468E+02 -0.14399252121E+02  0.18726404602E+02  0.00000000000E+00 0.  1.
         11    1    3    3    0    0 -0.40396886048E+01 -0.14317565482E+02  0.89052243791E+01  0.17338246360E+02  0.51100000000E-03 0. -1.
        -11    1    3    3    0    0 -0.22639276593E+02 -0.97164950694E+01  0.76093866827E+00  0.24648045541E+02  0.51100000000E-03 0.  1.
         12    1    3    3    0    0  0.27569170839E+02  0.12094743083E+02  0.47330890735E+01  0.30475303496E+02  0.00000000000E+00 0. -1.
</event>
<event>
 7    1  0.1789107E-013  0.7246140E+02  0.7816164E-02  0.1226708E+00
        -11   -1    0    0    0    0  0.00000000000E+00  0.00000000000E+00  0.45593999997E+02  0.45594000000E+02  0.51100000000E-03 0. -1.
         11   -1    0    0    0    0 -0.00000000000E+00 -0.00000000000E+00 -0.45593999997E+02  0.45594000000E+02  0.51100000000E-03 0.  1.
    9900012    2    1    2    0    0  0.12083725206E+02  0.14074766123E+02  0.25632291075E+01  0.72461398608E+02  0.69999776346E+02 0.  0.
        -12    1    1    2    0    0 -0.12083725206E+02 -0.14074766123E+02 -0.25632291075E+01  0.18726601392E+02  0.00000000000E+00 0.  1.
         11    1    3    3    0    0 -0.13013211471E+01  0.11677337439E+02  0.10226890110E+02  0.15576999967E+02  0.51100000000E-03 0. -1.
        -11    1    3    3    0    0 -0.33535512288E+01 -0.48151314608E+00 -0.29234145027E+02  0.29429804560E+02  0.51100000000E-03 0.  1.
         12    1    3    3    0    0  0.16738597582E+02  0.28789418297E+01  0.21570484025E+02  0.27454594080E+02  0.00000000000E+00 0. -1.
</event>
<event>
 7    1  0.1789107E-013  0.7246157E+02  0.7816164E-02  0.1226708E+00
        -11   -1    0    0    0    0  0.00000000000E+00  0.00000000000E+00  0.45593999997E+02  0.45594000000E+02  0.51100000000E-03 0.  1.
         11   -1    0    0    0    0 -0.00000000000E+00 -0.00000000000E+00 -0.45593999997E+02  0.45594000000E+02  0.51100000000E-03 0. -1.
    9900012    2    1    2    0    0  0.77969921156E+01  0.38384885343E+01 -0.16587710493E+02  0.72461568955E+02  0.69999998255E+02 0.  0.
        -12    1    1    2    0    0 -0.77969921156E+01 -0.38384885343E+01  0.16587710493E+02  0.18726431045E+02  0.00000000000E+00 0.  1.
         11    1    3    3    0    0  0.86373753357E+01 -0.19619392419E+02  0.21489970225E+01  0.21543978278E+02  0.51100000000E-03 0. -1.
        -11    1    3    3    0    0 -0.16333039829E+02  0.10156809110E+02  0.47342997703E+01  0.19807638828E+02  0.51100000000E-03 0.  1.
         12    1    3    3    0    0  0.15492656609E+02  0.13301071844E+02 -0.23471007286E+02  0.31109951849E+02  0.00000000000E+00 0. -1.
</event>
<event>
 7    1  0.1789107E-013  0.7246150E+02  0.7816164E-02  0.1226708E+00
        -11   -1    0    0    0    0  0.00000000000E+00  0.00000000000E+00  0.45593999997E+02  0.45594000000E+02  0.51100000000E-03 0.  1.
         11   -1    0    0    0    0 -0.00000000000E+00 -0.00000000000E+00 -0.45593999997E+02  0.45594000000E+02  0.51100000000E-03 0. -1.
    9900012    2    1    2    0    0  0.13102153519E+02  0.11291017168E+02 -0.71783293815E+01  0.72461497170E+02  0.69999904742E+02 0.  0.
        -12    1    1    2    0    0 -0.13102153519E+02 -0.11291017168E+02  0.71783293815E+01  0.18726502830E+02  0.00000000000E+00 0.  1.
         11    1    3    3    0    0 -0.11779229403E+02  0.24320914627E+02  0.27088808510E+01  0.27158703381E+02  0.51100000000E-03 0. -1.
        -11    1    3    3    0    0 -0.66863171125E+01 -0.45941795228E+01  0.48564870563E+01  0.94550932732E+01  0.51100000000E-03 0.  1.
        -12    1    3    3    0    0  0.31567700034E+02 -0.84357179359E+01 -0.14743697289E+02  0.35847700516E+02  0.00000000000E+00 0.  1.
</event>
<event>
 7    1  0.1789107E-013  0.7246154E+02  0.7816164E-02  0.1226708E+00
        -11   -1    0    0    0    0  0.00000000000E+00  0.00000000000E+00  0.45593999997E+02  0.45594000000E+02  0.51100000000E-03 0.  1.
         11   -1    0    0    0    0 -0.00000000000E+00 -0.00000000000E+00 -0.45593999997E+02  0.45594000000E+02  0.51100000000E-03 0. -1.
    9900012    2    1    2    0    0  0.15863001373E+02 -0.97808920374E+01  0.18384038970E+01  0.72461537694E+02  0.69999957533E+02 0.  0.
        -12    1    1    2    0    0 -0.15863001373E+02  0.97808920374E+01 -0.18384038970E+01  0.18726462306E+02  0.00000000000E+00 0.  1.
         11    1    3    3    0    0 -0.23756354781E+02 -0.39507676003E+01  0.57880396280E+01  0.24768414565E+02  0.51100000000E-03 0. -1.
        -11    1    3    3    0    0 -0.12802403972E+01  0.34990220915E+01  0.34705464729E+01  0.50918429034E+01  0.51100000000E-03 0.  1.
         12    1    3    3    0    0  0.40899596550E+02 -0.93291465285E+01 -0.74201822039E+01  0.42601280226E+02  0.00000000000E+00 0. -1.
</event>
<event>
 7    1  0.1789107E-013  0.7246159E+02  0.7816164E-02  0.1226708E+00
        -11   -1    0    0    0    0  0.00000000000E+00  0.00000000000E+00  0.45593999997E+02  0.45594000000E+02  0.51100000000E-03 0. -1.
         11   -1    0    0    0    0 -0.00000000000E+00 -0.00000000000E+00 -0.45593999997E+02  0.45594000000E+02  0.51100000000E-03 0.  1.
    9900012    2    1    2    0    0 -0.11251637927E+02  0.55831069847E+01  0.13889136122E+02  0.72461587053E+02  0.70000021831E+02 0.  0.
        -12    1    1    2    0    0  0.11251637927E+02 -0.55831069847E+01 -0.13889136122E+02  0.18726412947E+02  0.00000000000E+00 0.  1.
         11    1    3    3    0    0  0.57438853263E+01 -0.63614014415E+01  0.18719660388E+02  0.20588475714E+02  0.51100000000E-03 0. -1.
        -11    1    3    3    0    0 -0.55477955829E+01 -0.77140307499E+01  0.17552316629E+02  0.19959161444E+02  0.51100000000E-03 0.  1.
        -12    1    3    3    0    0 -0.11447727670E+02  0.19658539176E+02 -0.22382840895E+02  0.31913949894E+02  0.00000000000E+00 0.  1.
</event>
<event>
 7    1  0.1789107E-013  0.7246158E+02  0.7816164E-02  0.1226708E+00
        -11   -1    0    0    0    0  0.00000000000E+00  0.00000000000E+00  0.45593999997E+02  0.45594000000E+02  0.51100000000E-03 0. -1.
         11   -1    0    0    0    0 -0.00000000000E+00 -0.00000000000E+00 -0.45593999997E+02  0.45594000000E+02  0.51100000000E-03 0.  1.
    9900012    2    1    2    0    0  0.26268406290E+01  0.73847060659E+01  0.17007194737E+02  0.72461578874E+02  0.70000011177E+02 0.  0.
        -12    1    1    2    0    0 -0.26268406290E+01 -0.73847060659E+01 -0.17007194737E+02  0.18726421126E+02  0.00000000000E+00 0.  1.
         11    1    3    3    0    0 -0.32710666821E+00 -0.11464024223E+02  0.11533202063E+02  0.16264857831E+02  0.51100000000E-03 0. -1.
        -11    1    3    3    0    0 -0.36641124680E+01  0.11478592619E+01  0.27161171822E+02  0.27431233222E+02  0.51100000000E-03 0.  1.
        -12    1    3    3    0    0  0.66180597652E+01  0.17700871027E+02 -0.21687179149E+02  0.28765487821E+02  0.00000000000E+00 0.  1.
</event>
<event>
 7    1  0.1789107E-013  0.7246160E+02  0.7816164E-02  0.1226708E+00
        -11   -1    0    0    0    0  0.00000000000E+00  0.00000000000E+00  0.45593999997E+02  0.45594000000E+02  0.51100000000E-03 0.  1.
         11   -1    0    0    0    0 -0.00000000000E+00 -0.00000000000E+00 -0.45593999997E+02  0.45594000000E+02  0.51100000000E-03 0. -1.
    9900012    2    1    2    0    0 -0.18535942704E+02  0.16648427484E+01  0.20796832790E+01  0.72461602700E+02  0.70000042214E+02 0.  0.
        -12    1    1    2    0    0  0.18535942704E+02 -0.16648427484E+01 -0.20796832790E+01  0.18726397300E+02  0.00000000000E+00 0.  1.
         11    1    3    3    0    0  0.16867911179E+01 -0.59292271960E+01 -0.70210277074E+01  0.93432237341E+01  0.51100000000E-03 0. -1.
        -11    1    3    3    0    0 -0.27104243792E+02 -0.20093664137E+02  0.24863808412E+01  0.33831604454E+02  0.51100000000E-03 0.  1.
        -12    1    3    3    0    0  0.68815099706E+01  0.27687734081E+02  0.66143301452E+01  0.29286774512E+02  0.00000000000E+00 0.  1.
</event>
<event>
 7    1  0.1789107E-013  0.7246159E+02  0.7816164E-02  0.1226708E+00
        -11   -1    0    0    0    0  0.00000000000E+00  0.00000000000E+00  0.45593999997E+02  0.45594000000E+02  0.51100000000E-03 0.  1.
         11   -1    0    0    0    0 -0.00000000000E+00 -0.00000000000E+00 -0.45593999997E+02  0.45594000000E+02  0.51100000000E-03 0. -1.
    9900012    2    1    2    0    0 -0.18041580178E+02  0.15198482106E+01  0.47822468558E+01  0.72461589803E+02  0.70000025413E+02 0.  0.
        -12    1    1    2    0    0  0.18041580178E+02 -0.15198482106E+01 -0.47822468558E+01  0.18726410197E+02  0.00000000000E+00 0.  1.
         11    1    3    3    0    0  0.14786528833E+02  0.38140218403E+01 -0.52620259382E+01  0.16151690771E+02  0.51100000000E-03 0.  1.
        -11    1    3    3    0    0 -0.14856737499E+02  0.13040509810E+02 -0.12716293506E+02  0.23504928547E+02  0.51100000000E-03 0. -1.
        -12    1    3    3    0    0 -0.17971371512E+02 -0.15334683440E+02  0.22760566300E+02  0.32804970485E+02  0.00000000000E+00 0.  1.
</event>
<event>
 7    1  0.1789107E-013  0.7246157E+02  0.7816164E-02  0.1226708E+00
        -11   -1    0    0    0    0  0.00000000000E+00  0.00000000000E+00  0.45593999997E+02  0.45594000000E+02  0.51100000000E-03 0.  1.
         11   -1    0    0    0    0 -0.00000000000E+00 -0.00000000000E+00 -0.45593999997E+02  0.45594000000E+02  0.51100000000E-03 0. -1.
    9900012    2    1    2    0    0 -0.18516890399E+02  0.21841079522E+01  0.17416849157E+01  0.72461574181E+02  0.70000005063E+02 0.  0.
        -12    1    1    2    0    0  0.18516890399E+02 -0.21841079522E+01 -0.17416849157E+01  0.18726425819E+02  0.00000000000E+00 0.  1.
         11    1    3    3    0    0 -0.10944593856E+02  0.86824530476E+01 -0.26681493800E+02  0.30117623367E+02  0.51100000000E-03 0. -1.
        -11    1    3    3    0    0 -0.73656322436E+01  0.24533522768E+01 -0.39815211221E+01  0.87249060997E+01  0.51100000000E-03 0.  1.
        -12    1    3    3    0    0 -0.20666429978E+00 -0.89516973722E+01  0.32404699838E+02  0.33619044715E+02  0.00000000000E+00 0.  1.
</event>
<event>
 7    1  0.1789107E-013  0.7246159E+02  0.7816164E-02  0.1226708E+00
        -11   -1    0    0    0    0  0.00000000000E+00  0.00000000000E+00  0.45593999997E+02  0.45594000000E+02  0.51100000000E-03 0. -1.
         11   -1    0    0    0    0 -0.00000000000E+00 -0.00000000000E+00 -0.45593999997E+02  0.45594000000E+02  0.51100000000E-03 0.  1.
    9900012    2    1    2    0    0 -0.56489467711E+01 -0.17835541229E+02  0.81319718319E+00  0.72461590301E+02  0.70000026062E+02 0.  0.
        -12    1    1    2    0    0  0.56489467711E+01  0.17835541229E+02 -0.81319718319E+00  0.18726409699E+02  0.00000000000E+00 0.  1.
         11    1    3    3    0    0 -0.21083592963E+02 -0.12808541494E+02  0.64903650036E+01  0.25508850730E+02  0.51100000000E-03 0. -1.
        -11    1    3    3    0    0  0.84189089740E+01 -0.90394754527E+01 -0.23963510193E+02  0.26959969692E+02  0.51100000000E-03 0.  1.
        -12    1    3    3    0    0  0.70157372175E+01  0.40124757173E+01  0.18286342372E+02  0.19992769879E+02  0.00000000000E+00 0.  1.
</event>
<event>
 7    1  0.1789107E-013  0.7246157E+02  0.7816164E-02  0.1226708E+00
        -11   -1    0    0    0    0  0.00000000000E+00  0.00000000000E+00  0.45593999997E+02  0.45594000000E+02  0.51100000000E-03 0.  1.
         11   -1    0    0    0    0 -0.00000000000E+00 -0.00000000000E+00 -0.45593999997E+02  0.45594000000E+02  0.51100000000E-03 0. -1.
    9900012    2    1    2    0    0 -0.66402403903E+01  0.17932454091E+01 -0.17417539883E+02  0.72461569023E+02  0.69999998344E+02 0.  0.
        -12    1    1    2    0    0  0.66402403903E+01 -0.17932454091E+01  0.17417539883E+02  0.18726430977E+02  0.00000000000E+00 0.  1.
         11    1    3    3    0    0 -0.64036306825E+01  0.15890626344E+02 -0.23949888197E+02  0.29446827273E+02  0.51100000000E-03 0. -1.
        -11    1    3    3    0    0 -0.45000332758E+01 -0.96128396862E+01 -0.16248770083E+02  0.19408233196E+02  0.51100000000E-03 0.  1.
        -12    1    3    3    0    0  0.42634235680E+01 -0.44845412487E+01  0.22781118397E+02  0.23606508555E+02  0.00000000000E+00 0.  1.
</event>
<event>
 7    1  0.1789107E-013  0.7246078E+02  0.7816164E-02  0.1226710E+00
        -11   -1    0    0    0    0  0.00000000000E+00  0.00000000000E+00  0.45593999997E+02  0.45594000000E+02  0.51100000000E-03 0.  1.
         11   -1    0    0    0    0 -0.00000000000E+00 -0.00000000000E+00 -0.45593999997E+02  0.45594000000E+02  0.51100000000E-03 0. -1.
    9900012    2    1    2    0    0 -0.16431099536E+02  0.22115496242E+01  0.87084277317E+01  0.72460781914E+02  0.69998972980E+02 0.  0.
        -12    1    1    2    0    0  0.16431099536E+02 -0.22115496242E+01 -0.87084277317E+01  0.18727218086E+02  0.00000000000E+00 0.  1.
         11    1    3    3    0    0  0.82350677110E+01 -0.10768339571E+02 -0.42780617460E+01  0.14215318846E+02  0.51100000000E-03 0. -1.
        -11    1    3    3    0    0 -0.23402324587E+02 -0.11339738043E+01 -0.14335454538E+02  0.27467434349E+02  0.51100000000E-03 0.  1.
         12    1    3    3    0    0 -0.12638426599E+01  0.14113863000E+02  0.27321944015E+02  0.30778028719E+02  0.00000000000E+00 0. -1.
</event>
<event>
 7    1  0.1872671E-013  0.7246155E+02  0.7816164E-02  0.1226708E+00
        -11   -1    0    0    0    0  0.00000000000E+00  0.00000000000E+00  0.45593999997E+02  0.45594000000E+02  0.51100000000E-03 0.  1.
         11   -1    0    0    0    0 -0.00000000000E+00 -0.00000000000E+00 -0.45593999997E+02  0.45594000000E+02  0.51100000000E-03 0. -1.
    9900012    2    1    2    0    0 -0.14372817999E+02  0.11635124026E+02 -0.29539532766E+01  0.72461552171E+02  0.69999976391E+02 0.  0.
        -12    1    1    2    0    0  0.14372817999E+02 -0.11635124026E+02  0.29539532766E+01  0.18726447829E+02  0.00000000000E+00 0.  1.
         11    1    3    3    0    0 -0.19336376903E+02 -0.39299673300E+01 -0.21214801700E+02  0.28972537451E+02  0.51100000000E-03 0. -1.
        -11    1    3    3    0    0 -0.55011473283E+01  0.17874337218E+02 -0.36896768498E+01  0.19062220973E+02  0.51100000000E-03 0.  1.
        -12    1    3    3    0    0  0.10464706232E+02 -0.23092458614E+01  0.21950525273E+02  0.24426793747E+02  0.00000000000E+00 0.  1.
</event>
<event>
 7    1  0.1789107E-013  0.7246158E+02  0.7816164E-02  0.1226708E+00
        -11   -1    0    0    0    0  0.00000000000E+00  0.00000000000E+00  0.45593999997E+02  0.45594000000E+02  0.51100000000E-03 0.  1.
         11   -1    0    0    0    0 -0.00000000000E+00 -0.00000000000E+00 -0.45593999997E+02  0.45594000000E+02  0.51100000000E-03 0. -1.
    9900012    2    1    2    0    0  0.21741594396E+01  0.14557943893E+02 -0.11576624904E+02  0.72461576321E+02  0.70000007850E+02 0.  0.
        -12    1    1    2    0    0 -0.21741594396E+01 -0.14557943893E+02  0.11576624904E+02  0.18726423679E+02  0.00000000000E+00 0.  1.
         11    1    3    3    0    0 -0.42047561575E+01  0.98471956753E+01 -0.27305330909E+02  0.29329649389E+02  0.51100000000E-03 0. -1.
        -11    1    3    3    0    0 -0.25873781942E+01 -0.30278444702E+01 -0.12179667860E+02  0.12814315335E+02  0.51100000000E-03 0.  1.
        -12    1    3    3    0    0  0.89662937913E+01  0.77385926875E+01  0.27908373865E+02  0.30317611596E+02  0.00000000000E+00 0.  1.
</event>
<event>
 7    1  0.1789107E-013  0.7246157E+02  0.7816164E-02  0.1226708E+00
        -11   -1    0    0    0    0  0.00000000000E+00  0.00000000000E+00  0.45593999997E+02  0.45594000000E+02  0.51100000000E-03 0. -1.
         11   -1    0    0    0    0 -0.00000000000E+00 -0.00000000000E+00 -0.45593999997E+02  0.45594000000E+02  0.51100000000E-03 0.  1.
    9900012    2    1    2    0    0  0.81420867957E+01 -0.16863187623E+02  0.13578034995E+00  0.72461571870E+02  0.70000002053E+02 0.  0.
        -12    1    1    2    0    0 -0.81420867957E+01  0.16863187623E+02 -0.13578034995E+00  0.18726428130E+02  0.00000000000E+00 0.  1.
         11    1    3    3    0    0  0.98011159120E+00  0.13695271459E+02  0.84127543948E+00  0.13756046804E+02  0.51100000000E-03 0. -1.
        -11    1    3    3    0    0 -0.16164546383E+01 -0.69686115738E+01 -0.23612362159E+02  0.24672213518E+02  0.51100000000E-03 0.  1.
         12    1    3    3    0    0  0.87784298428E+01 -0.23589847508E+02  0.22906867070E+02  0.34033311548E+02  0.00000000000E+00 0. -1.
</event>
<event>
 7    1  0.1789107E-013  0.7246154E+02  0.7816164E-02  0.1226708E+00
        -11   -1    0    0    0    0  0.00000000000E+00  0.00000000000E+00  0.45593999997E+02  0.45594000000E+02  0.51100000000E-03 0.  1.
         11   -1    0    0    0    0 -0.00000000000E+00 -0.00000000000E+00 -0.45593999997E+02  0.45594000000E+02  0.51100000000E-03 0. -1.
    9900012    2    1    2    0    0 -0.29220003332E+01 -0.93510388527E+01 -0.15959334952E+02  0.72461537822E+02  0.69999957699E+02 0.  0.
        -12    1    1    2    0    0  0.29220003332E+01  0.93510388527E+01  0.15959334952E+02  0.18726462178E+02  0.00000000000E+00 0.  1.
         11    1    3    3    0    0 -0.13189832642E+02  0.16667984348E+02 -0.80708461416E+01  0.22736137426E+02  0.51100000000E-03 0. -1.
        -11    1    3    3    0    0  0.46185087169E+01  0.73720537631E+00  0.13960246907E+02  0.14722859386E+02  0.51100000000E-03 0.  1.
         12    1    3    3    0    0  0.56493235922E+01 -0.26756228577E+02 -0.21848735718E+02  0.35002541010E+02  0.00000000000E+00 0. -1.
</event>
<event>
 7    1  0.1789107E-013  0.7246157E+02  0.7816164E-02  0.1226708E+00
        -11   -1    0    0    0    0  0.00000000000E+00  0.00000000000E+00  0.45593999997E+02  0.45594000000E+02  0.51100000000E-03 0. -1.
         11   -1    0    0    0    0 -0.00000000000E+00 -0.00000000000E+00 -0.45593999997E+02  0.45594000000E+02  0.51100000000E-03 0.  1.
    9900012    2    1    2    0    0  0.92168402288E+01 -0.34946191172E+01  0.15922203218E+02  0.72461573168E+02  0.70000003743E+02 0.  0.
        -12    1    1    2    0    0 -0.92168402288E+01  0.34946191172E+01 -0.15922203218E+02  0.18726426832E+02  0.00000000000E+00 0.  1.
         11    1    3    3    0    0 -0.72772084094E+01 -0.89957384462E+01  0.61675733476E+01  0.13111828007E+02  0.51100000000E-03 0. -1.
        -11    1    3    3    0    0 -0.14456570407E+02  0.34373939424E+01  0.21538898281E+02  0.26167388950E+02  0.51100000000E-03 0.  1.
        -12    1    3    3    0    0  0.30950619045E+02  0.20637253866E+01 -0.11784268410E+02  0.33182356211E+02  0.00000000000E+00 0.  1.
</event>
<event>
 7    1  0.1789107E-013  0.7246159E+02  0.7816164E-02  0.1226708E+00
        -11   -1    0    0    0    0  0.00000000000E+00  0.00000000000E+00  0.45593999997E+02  0.45594000000E+02  0.51100000000E-03 0.  1.
         11   -1    0    0    0    0 -0.00000000000E+00 -0.00000000000E+00 -0.45593999997E+02  0.45594000000E+02  0.51100000000E-03 0. -1.
    9900012    2    1    2    0    0 -0.13264027410E+02 -0.33385278237E+00 -0.13214854767E+02  0.72461594384E+02  0.70000031381E+02 0.  0.
        -12    1    1    2    0    0  0.13264027410E+02  0.33385278237E+00  0.13214854767E+02  0.18726405616E+02  0.00000000000E+00 0.  1.
         11    1    3    3    0    0 -0.22622224502E+02 -0.16536971003E+02 -0.67065981872E+01  0.28813450173E+02  0.51100000000E-03 0. -1.
        -11    1    3    3    0    0 -0.12151568020E+02  0.17809550784E+02 -0.24348592921E+01  0.21697217437E+02  0.51100000000E-03 0.  1.
        -12    1    3    3    0    0  0.21509765112E+02 -0.16064325634E+01 -0.40733972873E+01  0.21950926774E+02  0.00000000000E+00 0.  1.
</event>
<event>
 7    1  0.1789107E-013  0.7246160E+02  0.7816164E-02  0.1226708E+00
        -11   -1    0    0    0    0  0.00000000000E+00  0.00000000000E+00  0.45593999997E+02  0.45594000000E+02  0.51100000000E-03 0. -1.
         11   -1    0    0    0    0 -0.00000000000E+00 -0.00000000000E+00 -0.45593999997E+02  0.45594000000E+02  0.51100000000E-03 0.  1.
    9900012    2    1    2    0    0 -0.10036195058E+00 -0.96143319207E+01  0.16069622876E+02  0.72461595375E+02  0.70000032673E+02 0.  0.
        -12    1    1    2    0    0  0.10036195058E+00  0.96143319207E+01 -0.16069622876E+02  0.18726404625E+02  0.00000000000E+00 0.  1.
         11    1    3    3    0    0 -0.25960852855E+01 -0.85227506053E+01 -0.65181202317E+01  0.11039149800E+02  0.51100000000E-03 0. -1.
        -11    1    3    3    0    0  0.28496379910E+02 -0.65762095601E+01  0.53019290313E+01  0.29722056656E+02  0.51100000000E-03 0.  1.
         12    1    3    3    0    0 -0.26000656575E+02  0.54846282446E+01  0.17285814076E+02  0.31700388919E+02  0.00000000000E+00 0. -1.
</event>
<event>
 7    1  0.1789107E-013  0.7246157E+02  0.7816164E-02  0.1226708E+00
        -11   -1    0    0    0    0  0.00000000000E+00  0.00000000000E+00  0.45593999997E+02  0.45594000000E+02  0.51100000000E-03 0.  1.
         11   -1    0    0    0    0 -0.00000000000E+00 -0.00000000000E+00 -0.45593999997E+02  0.45594000000E+02  0.51100000000E-03 0. -1.
    9900012    2    1    2    0    0 -0.10416237277E+02 -0.15560785004E+02  0.20732573806E+00  0.72461574476E+02  0.70000005447E+02 0.  0.
        -12    1    1    2    0    0  0.10416237277E+02  0.15560785004E+02 -0.20732573806E+00  0.18726425524E+02  0.00000000000E+00 0.  1.
         11    1    3    3    0    0 -0.16119170046E+02 -0.37138221141E+00  0.83754229537E+01  0.18169019721E+02  0.51100000000E-03 0. -1.
        -11    1    3    3    0    0  0.97555784482E+01  0.17812135779E+02 -0.13669672464E+01  0.20354657737E+02  0.51100000000E-03 0.  1.
         12    1    3    3    0    0 -0.40526456790E+01 -0.33001538572E+02 -0.68011299693E+01  0.33937897018E+02  0.00000000000E+00 0. -1.
</event>
<event>
 7    1  0.1789107E-013  0.7246153E+02  0.7816164E-02  0.1226708E+00
        -11   -1    0    0    0    0  0.00000000000E+00  0.00000000000E+00  0.45593999997E+02  0.45594000000E+02  0.51100000000E-03 0. -1.
         11   -1    0    0    0    0 -0.00000000000E+00 -0.00000000000E+00 -0.45593999997E+02  0.45594000000E+02  0.51100000000E-03 0.  1.
    9900012    2    1    2    0    0 -0.31003483251E+01  0.18392630084E+02  0.16672161009E+01  0.72461531816E+02  0.69999949874E+02 0.  0.
        -12    1    1    2    0    0  0.31003483251E+01 -0.18392630084E+02 -0.16672161009E+01  0.18726468184E+02  0.00000000000E+00 0.  1.
         11    1    3    3    0    0 -0.21083077104E+02  0.31534321343E+02  0.15834048412E+02  0.41105068448E+02  0.51100000000E-03 0. -1.
        -11    1    3    3    0    0 -0.25812788622E+01  0.12556717496E+01 -0.14190368135E+01  0.32020896063E+01  0.51100000000E-03 0.  1.
        -12    1    3    3    0    0  0.20564007641E+02 -0.14397363009E+02 -0.12747795498E+02  0.28154373762E+02  0.00000000000E+00 0.  1.
</event>
<event>
 7    1  0.1789107E-013  0.7246163E+02  0.7816164E-02  0.1226708E+00
        -11   -1    0    0    0    0  0.00000000000E+00  0.00000000000E+00  0.45593999997E+02  0.45594000000E+02  0.51100000000E-03 0.  1.
         11   -1    0    0    0    0 -0.00000000000E+00 -0.00000000000E+00 -0.45593999997E+02  0.45594000000E+02  0.51100000000E-03 0. -1.
    9900012    2    1    2    0    0 -0.13254126609E+02  0.10411482172E+02 -0.81612632316E+01  0.72461626867E+02  0.70000073696E+02 0.  0.
        -12    1    1    2    0    0  0.13254126609E+02 -0.10411482172E+02  0.81612632316E+01  0.18726373133E+02  0.00000000000E+00 0.  1.
         11    1    3    3    0    0  0.85750252388E+01  0.12198136972E+02 -0.72596864169E+01  0.16583987776E+02  0.51100000000E-03 0. -1.
        -11    1    3    3    0    0 -0.37250913840E+01  0.19555703725E+02  0.13840315714E+02  0.24245745881E+02  0.51100000000E-03 0.  1.
        -12    1    3    3    0    0 -0.18104060464E+02 -0.21342358525E+02 -0.14741892528E+02  0.31631893209E+02  0.00000000000E+00 0.  1.
</event>
<event>
 7    1  0.1789107E-013  0.7246154E+02  0.7816164E-02  0.1226708E+00
        -11   -1    0    0    0    0  0.00000000000E+00  0.00000000000E+00  0.45593999997E+02  0.45594000000E+02  0.51100000000E-03 0. -1.
         11   -1    0    0    0    0 -0.00000000000E+00 -0.00000000000E+00 -0.45593999997E+02  0.45594000000E+02  0.51100000000E-03 0.  1.
    9900012    2    1    2    0    0  0.18365769634E+02 -0.13727504209E+01  0.33903387703E+01  0.72461539178E+02  0.69999959465E+02 0.  0.
        -12    1    1    2    0    0 -0.18365769634E+02  0.13727504209E+01 -0.33903387703E+01  0.18726460822E+02  0.00000000000E+00 0.  1.
         11    1    3    3    0    0 -0.37363849703E+01 -0.17367563144E+02  0.33725439244E+01  0.18082225388E+02  0.51100000000E-03 0. -1.
        -11    1    3    3    0    0  0.24641902461E+02 -0.15636673770E+01  0.16874573207E+02  0.29906849278E+02  0.51100000000E-03 0.  1.
        -12    1    3    3    0    0 -0.25397478566E+01  0.17558480100E+02 -0.16856778361E+02  0.24472464512E+02  0.00000000000E+00 0.  1.
</event>
<event>
 7    1  0.1789107E-013  0.7246161E+02  0.7816164E-02  0.1226708E+00
        -11   -1    0    0    0    0  0.00000000000E+00  0.00000000000E+00  0.45593999997E+02  0.45594000000E+02  0.51100000000E-03 0.  1.
         11   -1    0    0    0    0 -0.00000000000E+00 -0.00000000000E+00 -0.45593999997E+02  0.45594000000E+02  0.51100000000E-03 0. -1.
    9900012    2    1    2    0    0  0.12313589585E+02 -0.65105868698E+01 -0.12516604821E+02  0.72461611504E+02  0.70000053683E+02 0.  0.
        -12    1    1    2    0    0 -0.12313589585E+02  0.65105868698E+01  0.12516604821E+02  0.18726388496E+02  0.00000000000E+00 0.  1.
         11    1    3    3    0    0  0.13825532458E+02 -0.22265689516E+02 -0.11366735486E+02  0.28567620714E+02  0.51100000000E-03 0. -1.
        -11    1    3    3    0    0  0.15384494767E+02 -0.37820923633E+01 -0.71420078751E+01  0.17378008477E+02  0.51100000000E-03 0.  1.
         12    1    3    3    0    0 -0.16896437640E+02  0.19537195009E+02  0.59921385399E+01  0.26515982313E+02  0.00000000000E+00 0. -1.
</event>
<event>
 7    1  0.1789107E-013  0.7246157E+02  0.7816164E-02  0.1226708E+00
        -11   -1    0    0    0    0  0.00000000000E+00  0.00000000000E+00  0.45593999997E+02  0.45594000000E+02  0.51100000000E-03 0. -1.
         11   -1    0    0    0    0 -0.00000000000E+00 -0.00000000000E+00 -0.45593999997E+02  0.45594000000E+02  0.51100000000E-03 0.  1.
    9900012    2    1    2    0    0  0.11922474895E+02  0.14232687289E+02  0.24421936774E+01  0.72461572015E+02  0.70000002242E+02 0.  0.
        -12    1    1    2    0    0 -0.11922474895E+02 -0.14232687289E+02 -0.24421936774E+01  0.18726427985E+02  0.00000000000E+00 0.  1.
         11    1    3    3    0    0 -0.71708095452E+01  0.33308232275E+02 -0.72604870544E+01  0.34836382122E+02  0.51100000000E-03 0.  1.
        -11    1    3    3    0    0  0.85559794153E+01 -0.79351605178E+01  0.17018600644E+02  0.20635026637E+02  0.51100000000E-03 0. -1.
        -12    1    3    3    0    0  0.10537305025E+02 -0.11140384468E+02 -0.73159199120E+01  0.16990163256E+02  0.00000000000E+00 0.  1.
</event>
<event>
 7    1  0.1789107E-013  0.7246148E+02  0.7816164E-02  0.1226708E+00
        -11   -1    0    0    0    0  0.00000000000E+00  0.00000000000E+00  0.45593999997E+02  0.45594000000E+02  0.51100000000E-03 0. -1.
         11   -1    0    0    0    0 -0.00000000000E+00 -0.00000000000E+00 -0.45593999997E+02  0.45594000000E+02  0.51100000000E-03 0.  1.
    9900012    2    1    2    0    0  0.10135416614E+02 -0.28324154742E+01  0.15489782317E+02  0.72461478604E+02  0.69999880556E+02 0.  0.
        -12    1    1    2    0    0 -0.10135416614E+02  0.28324154742E+01 -0.15489782317E+02  0.18726521396E+02  0.00000000000E+00 0.  1.
         11    1    3    3    0    0 -0.10017493339E+02 -0.30310804395E+02 -0.19792509921E+01  0.31984566131E+02  0.51100000000E-03 0. -1.
        -11    1    3    3    0    0 -0.77825398883E+00  0.25890113811E+00  0.31826924140E+01  0.32866761833E+01  0.51100000000E-03 0.  1.
        -12    1    3    3    0    0  0.20931163941E+02  0.27219487783E+02  0.14286340895E+02  0.37190236289E+02  0.00000000000E+00 0.  1.
</event>
<event>
 7    1  0.1789107E-013  0.7246157E+02  0.7816164E-02  0.1226708E+00
        -11   -1    0    0    0    0  0.00000000000E+00  0.00000000000E+00  0.45593999997E+02  0.45594000000E+02  0.51100000000E-03 0. -1.
         11   -1    0    0    0    0 -0.00000000000E+00 -0.00000000000E+00 -0.45593999997E+02  0.45594000000E+02  0.51100000000E-03 0.  1.
    9900012    2    1    2    0    0 -0.80815096048E+01  0.43582116751E+01  0.16320977826E+02  0.72461571518E+02  0.70000001594E+02 0.  0.
        -12    1    1    2    0    0  0.80815096048E+01 -0.43582116751E+01 -0.16320977826E+02  0.18726428482E+02  0.00000000000E+00 0.  1.
         11    1    3    3    0    0 -0.89323839423E+01 -0.96289342925E+01 -0.22095539848E+02  0.25704410905E+02  0.51100000000E-03 0. -1.
        -11    1    3    3    0    0 -0.96108228653E+01  0.60504005824E+01  0.88238365336E+01  0.14381771615E+02  0.51100000000E-03 0.  1.
        -12    1    3    3    0    0  0.10461697203E+02  0.79367453852E+01  0.29592681141E+02  0.32375388998E+02  0.00000000000E+00 0.  1.
</event>
<event>
 7    1  0.1789107E-013  0.7246160E+02  0.7816164E-02  0.1226708E+00
        -11   -1    0    0    0    0  0.00000000000E+00  0.00000000000E+00  0.45593999997E+02  0.45594000000E+02  0.51100000000E-03 0.  1.
         11   -1    0    0    0    0 -0.00000000000E+00 -0.00000000000E+00 -0.45593999997E+02  0.45594000000E+02  0.51100000000E-03 0. -1.
    9900012    2    1    2    0    0  0.46986811520E+01  0.14405489924E+02  0.11003748736E+02  0.72461595359E+02  0.70000032652E+02 0.  0.
        -12    1    1    2    0    0 -0.46986811520E+01 -0.14405489924E+02 -0.11003748736E+02  0.18726404641E+02  0.00000000000E+00 0.  1.
         11    1    3    3    0    0  0.97330837636E+01 -0.81345580911E+00 -0.51009456770E+01  0.11018814681E+02  0.51100000000E-03 0. -1.
        -11    1    3    3    0    0  0.19289239255E+02 -0.10260392506E+02  0.14418069622E+02  0.26176919935E+02  0.51100000000E-03 0.  1.
        -12    1    3    3    0    0 -0.24323641866E+02  0.25479338240E+02  0.16866247903E+01  0.35265860743E+02  0.00000000000E+00 0.  1.
</event>
<event>
 7    1  0.1789107E-013  0.7246157E+02  0.7816164E-02  0.1226708E+00
        -11   -1    0    0    0    0  0.00000000000E+00  0.00000000000E+00  0.45593999997E+02  0.45594000000E+02  0.51100000000E-03 0.  1.
         11   -1    0    0    0    0 -0.00000000000E+00 -0.00000000000E+00 -0.45593999997E+02  0.45594000000E+02  0.51100000000E-03 0. -1.
    9900012    2    1    2    0    0  0.16197633144E+02  0.76013196484E+01  0.55259311352E+01  0.72461566950E+02  0.69999995644E+02 0.  0.
        -12    1    1    2    0    0 -0.16197633144E+02 -0.76013196484E+01 -0.55259311352E+01  0.18726433050E+02  0.00000000000E+00 0.  1.
         11    1    3    3    0    0 -0.26833336573E+01 -0.18029756322E+02  0.72817579470E+01  0.19628968175E+02  0.51100000000E-03 0. -1.
        -11    1    3    3    0    0 -0.14346619978E+01 -0.77727951616E+01  0.92978401436E+01  0.12203459807E+02  0.51100000000E-03 0.  1.
        -12    1    3    3    0    0  0.20315628799E+02  0.33403871132E+02 -0.11053666955E+02  0.40629138968E+02  0.00000000000E+00 0.  1.
</event>
<event>
 7    1  0.1789107E-013  0.7246195E+02  0.7816164E-02  0.1226707E+00
        -11   -1    0    0    0    0  0.00000000000E+00  0.00000000000E+00  0.45593999997E+02  0.45594000000E+02  0.51100000000E-03 0.  1.
         11   -1    0    0    0    0 -0.00000000000E+00 -0.00000000000E+00 -0.45593999997E+02  0.45594000000E+02  0.51100000000E-03 0. -1.
    9900012    2    1    2    0    0 -0.10108796251E+02 -0.61227383384E+01 -0.14525469604E+02  0.72461949866E+02  0.70000494461E+02 0.  0.
        -12    1    1    2    0    0  0.10108796251E+02  0.61227383384E+01  0.14525469604E+02  0.18726050134E+02  0.00000000000E+00 0.  1.
         11    1    3    3    0    0 -0.14230407812E+02 -0.29009894750E+01  0.14823655197E+02  0.20752373361E+02  0.51100000000E-03 0. -1.
        -11    1    3    3    0    0 -0.40017811102E+01  0.27224479455E+01  0.99912464265E+01  0.11101845805E+02  0.51100000000E-03 0.  1.
         12    1    3    3    0    0  0.81233926716E+01 -0.59441968089E+01 -0.39340371228E+02  0.40607730699E+02  0.00000000000E+00 0. -1.
</event>
<event>
 7    1  0.1789107E-013  0.7246137E+02  0.7816164E-02  0.1226709E+00
        -11   -1    0    0    0    0  0.00000000000E+00  0.00000000000E+00  0.45593999997E+02  0.45594000000E+02  0.51100000000E-03 0.  1.
         11   -1    0    0    0    0 -0.00000000000E+00 -0.00000000000E+00 -0.45593999997E+02  0.45594000000E+02  0.51100000000E-03 0. -1.
    9900012    2    1    2    0    0  0.11988910411E+02 -0.20455853615E+01 -0.14239674066E+02  0.72461368968E+02  0.69999737734E+02 0.  0.
        -12    1    1    2    0    0 -0.11988910411E+02  0.20455853615E+01  0.14239674066E+02  0.18726631032E+02  0.00000000000E+00 0.  1.
         11    1    3    3    0    0 -0.13221371105E+01 -0.13344415219E+02  0.36098391931E+01  0.13887130854E+02  0.51100000000E-03 0. -1.
        -11    1    3    3    0    0 -0.62435090676E+01 -0.89522546741E+01  0.12891282018E+02  0.16891104805E+02  0.51100000000E-03 0.  1.
         12    1    3    3    0    0  0.19554556589E+02  0.20251084532E+02 -0.30740795277E+02  0.41683133308E+02  0.00000000000E+00 0. -1.
</event>
<event>
 7    1  0.1789107E-013  0.7246164E+02  0.7816164E-02  0.1226708E+00
        -11   -1    0    0    0    0  0.00000000000E+00  0.00000000000E+00  0.45593999997E+02  0.45594000000E+02  0.51100000000E-03 0. -1.
         11   -1    0    0    0    0 -0.00000000000E+00 -0.00000000000E+00 -0.45593999997E+02  0.45594000000E+02  0.51100000000E-03 0.  1.
    9900012    2    1    2    0    0  0.18675201197E+01  0.91461489009E+01  0.16233816383E+02  0.72461642493E+02  0.70000094052E+02 0.  0.
        -12    1    1    2    0    0 -0.18675201197E+01 -0.91461489009E+01 -0.16233816383E+02  0.18726357507E+02  0.00000000000E+00 0.  1.
         11    1    3    3    0    0 -0.30207239827E+02  0.26515080683E+01  0.11682298528E+02  0.32495906390E+02  0.51100000000E-03 0. -1.
        -11    1    3    3    0    0 -0.97860527026E+00  0.82189336060E+00  0.62566137092E+01  0.63857961398E+01  0.51100000000E-03 0.  1.
        -12    1    3    3    0    0  0.33053365217E+02  0.56727474720E+01 -0.17050958538E+01  0.33579939963E+02  0.00000000000E+00 0.  1.
</event>
<event>
 7    1  0.1799693E-013  0.7246168E+02  0.7816164E-02  0.1226708E+00
        -11   -1    0    0    0    0  0.00000000000E+00  0.00000000000E+00  0.45593999997E+02  0.45594000000E+02  0.51100000000E-03 0.  1.
         11   -1    0    0    0    0 -0.00000000000E+00 -0.00000000000E+00 -0.45593999997E+02  0.45594000000E+02  0.51100000000E-03 0. -1.
    9900012    2    1    2    0    0  0.32307742856E+01 -0.18430056468E+02 -0.75512798858E+00  0.72461678894E+02  0.70000141471E+02 0.  0.
        -12    1    1    2    0    0 -0.32307742856E+01  0.18430056468E+02  0.75512798858E+00  0.18726321106E+02  0.00000000000E+00 0.  1.
         11    1    3    3    0    0 -0.43367166731E+01 -0.50932898807E+01 -0.26649378956E+02  0.27476137144E+02  0.51100000000E-03 0. -1.
        -11    1    3    3    0    0  0.18075146512E+02 -0.34978294785E+01  0.40918976788E+01  0.18859728507E+02  0.51100000000E-03 0.  1.
        -12    1    3    3    0    0 -0.10507655554E+02 -0.98389371086E+01  0.21802353289E+02  0.26125813243E+02  0.00000000000E+00 0.  1.
</event>
<event>
 7    1  0.1789107E-013  0.7246146E+02  0.7816164E-02  0.1226708E+00
        -11   -1    0    0    0    0  0.00000000000E+00  0.00000000000E+00  0.45593999997E+02  0.45594000000E+02  0.51100000000E-03 0.  1.
         11   -1    0    0    0    0 -0.00000000000E+00 -0.00000000000E+00 -0.45593999997E+02  0.45594000000E+02  0.51100000000E-03 0. -1.
    9900012    2    1    2    0    0 -0.17673603234E+00  0.13892071736E+02 -0.12556369904E+02  0.72461459531E+02  0.69999855711E+02 0.  0.
        -12    1    1    2    0    0  0.17673603234E+00 -0.13892071736E+02  0.12556369904E+02  0.18726540469E+02  0.00000000000E+00 0.  1.
         11    1    3    3    0    0 -0.47420357371E+01  0.14297044914E+02  0.15346685394E+02  0.21503793829E+02  0.51100000000E-03 0. -1.
        -11    1    3    3    0    0 -0.19023674496E+02 -0.78692196421E+00 -0.11996411251E+02  0.22504073424E+02  0.51100000000E-03 0.  1.
        -12    1    3    3    0    0  0.23588974201E+02  0.38194878623E+00 -0.15906644047E+02  0.28453592278E+02  0.00000000000E+00 0.  1.
</event>
<event>
 7    1  0.1789107E-013  0.7246157E+02  0.7816164E-02  0.1226708E+00
        -11   -1    0    0    0    0  0.00000000000E+00  0.00000000000E+00  0.45593999997E+02  0.45594000000E+02  0.51100000000E-03 0. -1.
         11   -1    0    0    0    0 -0.00000000000E+00 -0.00000000000E+00 -0.45593999997E+02  0.45594000000E+02  0.51100000000E-03 0.  1.
    9900012    2    1    2    0    0 -0.10088512511E+02 -0.61450185026E+01  0.14530647974E+02  0.72461573015E+02  0.70000003544E+02 0.  0.
        -12    1    1    2    0    0  0.10088512511E+02  0.61450185026E+01 -0.14530647974E+02  0.18726426985E+02  0.00000000000E+00 0.  1.
         11    1    3    3    0    0 -0.39519529462E+01  0.28688208864E+01  0.23768760504E+01  0.54311697992E+01  0.51100000000E-03 0. -1.
        -11    1    3    3    0    0 -0.27996371398E+02 -0.90001553152E+01 -0.14311131590E+02  0.32704863473E+02  0.51100000000E-03 0.  1.
         12    1    3    3    0    0  0.21859811833E+02 -0.13684073896E-01  0.26464903514E+02  0.34325539743E+02  0.00000000000E+00 0. -1.
</event>
<event>
 7    1  0.1789107E-013  0.7246159E+02  0.7816164E-02  0.1226708E+00
        -11   -1    0    0    0    0  0.00000000000E+00  0.00000000000E+00  0.45593999997E+02  0.45594000000E+02  0.51100000000E-03 0.  1.
         11   -1    0    0    0    0 -0.00000000000E+00 -0.00000000000E+00 -0.45593999997E+02  0.45594000000E+02  0.51100000000E-03 0. -1.
    9900012    2    1    2    0    0  0.11559366732E+02  0.86234765144E+01 -0.11945514253E+02  0.72461585041E+02  0.70000019211E+02 0.  0.
        -12    1    1    2    0    0 -0.11559366732E+02 -0.86234765144E+01  0.11945514253E+02  0.18726414959E+02  0.00000000000E+00 0.  1.
         11    1    3    3    0    0  0.58833087526E+01  0.75092387866E+01  0.86996898189E+01  0.12910716178E+02  0.51100000000E-03 0. -1.
        -11    1    3    3    0    0 -0.50515587565E+00  0.14764100616E+01  0.19181930271E+02  0.19245296004E+02  0.51100000000E-03 0.  1.
        -12    1    3    3    0    0  0.61812138554E+01 -0.36217233393E+00 -0.39827134342E+02  0.40305572858E+02  0.00000000000E+00 0.  1.
</event>
<event>
 7    1  0.1789107E-013  0.7246163E+02  0.7816164E-02  0.1226708E+00
        -11   -1    0    0    0    0  0.00000000000E+00  0.00000000000E+00  0.45593999997E+02  0.45594000000E+02  0.51100000000E-03 0. -1.
         11   -1    0    0    0    0 -0.00000000000E+00 -0.00000000000E+00 -0.45593999997E+02  0.45594000000E+02  0.51100000000E-03 0.  1.
    9900012    2    1    2    0    0  0.11779716628E+02  0.14461317156E+02  0.16690294416E+01  0.72461626166E+02  0.70000072783E+02 0.  0.
        -12    1    1    2    0    0 -0.11779716628E+02 -0.14461317156E+02 -0.16690294416E+01  0.18726373834E+02  0.00000000000E+00 0.  1.
         11    1    3    3    0    0  0.30244975278E+02  0.96990797793E+01  0.77609912424E+01  0.32696539013E+02  0.51100000000E-03 0. -1.
        -11    1    3    3    0    0  0.86833617027E+01 -0.41814289727E+01 -0.56623907440E+01  0.11178004648E+02  0.51100000000E-03 0.  1.
        -12    1    3    3    0    0 -0.27148620353E+02  0.89436663489E+01 -0.42957105688E+00  0.28587082504E+02  0.00000000000E+00 0.  1.
</event>
<event>
 7    1  0.1789107E-013  0.7246163E+02  0.7816164E-02  0.1226708E+00
        -11   -1    0    0    0    0  0.00000000000E+00  0.00000000000E+00  0.45593999997E+02  0.45594000000E+02  0.51100000000E-03 0. -1.
         11   -1    0    0    0    0 -0.00000000000E+00 -0.00000000000E+00 -0.45593999997E+02  0.45594000000E+02  0.51100000000E-03 0.  1.
    9900012    2    1    2    0    0  0.14812933921E+02 -0.10416172113E+02  0.47704680407E+01  0.72461627736E+02  0.70000074828E+02 0.  0.
        -12    1    1    2    0    0 -0.14812933921E+02  0.10416172113E+02 -0.47704680407E+01  0.18726372264E+02  0.00000000000E+00 0.  1.
         11    1    3    3    0    0 -0.10665429624E+02 -0.72790666550E+01  0.47503121429E+01  0.13758694202E+02  0.51100000000E-03 0. -1.
        -11    1    3    3    0    0  0.10535496656E+02 -0.27044143312E+02 -0.65520583260E+01  0.29754190391E+02  0.51100000000E-03 0.  1.
         12    1    3    3    0    0  0.14942866888E+02  0.23907037853E+02  0.65722142238E+01  0.28948743143E+02  0.00000000000E+00 0. -1.
</event>
<event>
 7    1  0.1789107E-013  0.7246157E+02  0.7816164E-02  0.1226708E+00
        -11   -1    0    0    0    0  0.00000000000E+00  0.00000000000E+00  0.45593999997E+02  0.45594000000E+02  0.51100000000E-03 0.  1.
         11   -1    0    0    0    0 -0.00000000000E+00 -0.00000000000E+00 -0.45593999997E+02  0.45594000000E+02  0.51100000000E-03 0. -1.
    9900012    2    1    2    0    0  0.16142770259E+02  0.94568561962E+01  0.81125458986E+00  0.72461566951E+02  0.69999995644E+02 0.  0.
        -12    1    1    2    0    0 -0.16142770259E+02 -0.94568561962E+01 -0.81125458986E+00  0.18726433049E+02  0.00000000000E+00 0.  1.
         11    1    3    3    0    0  0.36870367696E+02  0.18513236564E+02 -0.63349055288E+01  0.41740807017E+02  0.51100000000E-03 0. -1.
        -11    1    3    3    0    0 -0.56836366486E+01  0.43781326711E+01 -0.34238096126E+01  0.79494807230E+01  0.51100000000E-03 0.  1.
        -12    1    3    3    0    0 -0.15043960788E+02 -0.13434513039E+02  0.10569969731E+02  0.22771279211E+02  0.00000000000E+00 0.  1.
</event>
<event>
 7    1  0.1789107E-013  0.7246157E+02  0.7816164E-02  0.1226708E+00
        -11   -1    0    0    0    0  0.00000000000E+00  0.00000000000E+00  0.45593999997E+02  0.45594000000E+02  0.51100000000E-03 0.  1.
         11   -1    0    0    0    0 -0.00000000000E+00 -0.00000000000E+00 -0.45593999997E+02  0.45594000000E+02  0.51100000000E-03 0. -1.
    9900012    2    1    2    0    0 -0.88486715458E+01 -0.15175791870E+02 -0.64865646171E+01  0.72461570348E+02  0.70000000069E+02 0.  0.
        -12    1    1    2    0    0  0.88486715458E+01  0.15175791870E+02  0.64865646171E+01  0.18726429652E+02  0.00000000000E+00 0.  1.
         11    1    3    3    0    0 -0.50187588506E+01  0.51995958293E+01  0.23189310699E+01  0.75895440414E+01  0.51100000000E-03 0. -1.
        -11    1    3    3    0    0 -0.23735144713E+02 -0.62980531640E+01  0.16615547754E+02  0.29649603634E+02  0.51100000000E-03 0.  1.
         12    1    3    3    0    0  0.19905232017E+02 -0.14077334535E+02 -0.25421043441E+02  0.35222422673E+02  0.00000000000E+00 0. -1.
</event>
<event>
 7    1  0.1789107E-013  0.7246157E+02  0.7816164E-02  0.1226708E+00
        -11   -1    0    0    0    0  0.00000000000E+00  0.00000000000E+00  0.45593999997E+02  0.45594000000E+02  0.51100000000E-03 0.  1.
         11   -1    0    0    0    0 -0.00000000000E+00 -0.00000000000E+00 -0.45593999997E+02  0.45594000000E+02  0.51100000000E-03 0. -1.
    9900012    2    1    2    0    0 -0.71556182579E+01 -0.13262515899E+02 -0.11116743477E+02  0.72461569850E+02  0.69999999421E+02 0.  0.
        -12    1    1    2    0    0  0.71556182579E+01  0.13262515899E+02  0.11116743477E+02  0.18726430150E+02  0.00000000000E+00 0.  1.
         11    1    3    3    0    0  0.11758091948E+02  0.80684664376E+01 -0.15128019024E+02  0.20789656966E+02  0.51100000000E-03 0. -1.
        -11    1    3    3    0    0 -0.49047018484E+01  0.11933991424E+02 -0.59787371159E+01  0.14220462345E+02  0.51100000000E-03 0.  1.
        -12    1    3    3    0    0 -0.14009008358E+02 -0.33264973761E+02  0.99900126628E+01  0.37451450539E+02  0.00000000000E+00 0.  1.
</event>
<event>
 7    1  0.1789107E-013  0.7246157E+02  0.7816164E-02  0.1226708E+00
        -11   -1    0    0    0    0  0.00000000000E+00  0.00000000000E+00  0.45593999997E+02  0.45594000000E+02  0.51100000000E-03 0.  1.
         11   -1    0    0    0    0 -0.00000000000E+00 -0.00000000000E+00 -0.45593999997E+02  0.45594000000E+02  0.51100000000E-03 0. -1.
    9900012    2    1    2    0    0  0.13922106820E+02  0.12119079816E+02 -0.31594416240E+01  0.72461568806E+02  0.69999998061E+02 0.  0.
        -12    1    1    2    0    0 -0.13922106820E+02 -0.12119079816E+02  0.31594416240E+01  0.18726431194E+02  0.00000000000E+00 0.  1.
         11    1    3    3    0    0  0.22325204921E+02 -0.53081930523E+00 -0.13175753124E+02  0.25928690954E+02  0.51100000000E-03 0. -1.
        -11    1    3    3    0    0 -0.43825479609E+01  0.20451281579E+02 -0.11090530520E+02  0.23674068352E+02  0.51100000000E-03 0.  1.
        -12    1    3    3    0    0 -0.40205501403E+01 -0.78013824583E+01  0.21106842020E+02  0.22858809500E+02  0.00000000000E+00 0.  1.
</event>
<event>
 7    1  0.1789107E-013  0.7246155E+02  0.7816164E-02  0.1226708E+00
        -11   -1    0    0    0    0  0.00000000000E+00  0.00000000000E+00  0.45593999997E+02  0.45594000000E+02  0.51100000000E-03 0.  1.
         11   -1    0    0    0    0 -0.00000000000E+00 -0.00000000000E+00 -0.45593999997E+02  0.45594000000E+02  0.51100000000E-03 0. -1.
    9900012    2    1    2    0    0 -0.50477752013E-01  0.14671535364E+02 -0.11637150153E+02  0.72461554485E+02  0.69999979406E+02 0.  0.
        -12    1    1    2    0    0  0.50477752013E-01 -0.14671535364E+02  0.11637150153E+02  0.18726445515E+02  0.00000000000E+00 0.  1.
         11    1    3    3    0    0  0.19128126842E+01  0.68956699288E+00 -0.12156665456E+02  0.12325537322E+02  0.51100000000E-03 0. -1.
        -11    1    3    3    0    0 -0.15971127649E+02 -0.18105681199E+02 -0.51000195454E+01  0.24675956105E+02  0.51100000000E-03 0.  1.
         12    1    3    3    0    0  0.14007837213E+02  0.32087649570E+02  0.56195348489E+01  0.35460061058E+02  0.00000000000E+00 0. -1.
</event>
<event>
 7    1  0.1789107E-013  0.7246161E+02  0.7816164E-02  0.1226708E+00
        -11   -1    0    0    0    0  0.00000000000E+00  0.00000000000E+00  0.45593999997E+02  0.45594000000E+02  0.51100000000E-03 0. -1.
         11   -1    0    0    0    0 -0.00000000000E+00 -0.00000000000E+00 -0.45593999997E+02  0.45594000000E+02  0.51100000000E-03 0.  1.
    9900012    2    1    2    0    0 -0.10579857712E+02  0.10817042552E+02  0.11033394621E+02  0.72461612317E+02  0.70000054743E+02 0.  0.
        -12    1    1    2    0    0  0.10579857712E+02 -0.10817042552E+02 -0.11033394621E+02  0.18726387683E+02  0.00000000000E+00 0.  1.
         11    1    3    3    0    0 -0.32466660412E+01  0.22121616475E+01  0.98696122504E+01  0.10622793690E+02  0.51100000000E-03 0. -1.
        -11    1    3    3    0    0 -0.20692037155E+02 -0.74268498961E+01 -0.21695350613E+02  0.30886999523E+02  0.51100000000E-03 0.  1.
         12    1    3    3    0    0  0.13358845484E+02  0.16031730801E+02  0.22859132984E+02  0.30951819105E+02  0.00000000000E+00 0. -1.
</event>
<event>
 7    1  0.1789107E-013  0.7246149E+02  0.7816164E-02  0.1226708E+00
        -11   -1    0    0    0    0  0.00000000000E+00  0.00000000000E+00  0.45593999997E+02  0.45594000000E+02  0.51100000000E-03 0.  1.
         11   -1    0    0    0    0 -0.00000000000E+00 -0.00000000000E+00 -0.45593999997E+02  0.45594000000E+02  0.51100000000E-03 0. -1.
    9900012    2    1    2    0    0 -0.29252632118E+01  0.18229658997E+02  0.31311915363E+01  0.72461494922E+02  0.69999901813E+02 0.  0.
        -12    1    1    2    0    0  0.29252632118E+01 -0.18229658997E+02 -0.31311915363E+01  0.18726505078E+02  0.00000000000E+00 0.  1.
         11    1    3    3    0    0  0.26195581307E+02  0.53999758382E+01  0.10457589252E+02  0.28718102170E+02  0.51100000000E-03 0. -1.
        -11    1    3    3    0    0 -0.41712593084E+01  0.93158788426E+01  0.90928140304E+01  0.13669830653E+02  0.51100000000E-03 0.  1.
        -12    1    3    3    0    0 -0.24949585210E+02  0.35138043165E+01 -0.16419211746E+02  0.30073562098E+02  0.00000000000E+00 0.  1.
</event>
<event>
 7    1  0.1789107E-013  0.7246155E+02  0.7816164E-02  0.1226708E+00
        -11   -1    0    0    0    0  0.00000000000E+00  0.00000000000E+00  0.45593999997E+02  0.45594000000E+02  0.51100000000E-03 0. -1.
         11   -1    0    0    0    0 -0.00000000000E+00 -0.00000000000E+00 -0.45593999997E+02  0.45594000000E+02  0.51100000000E-03 0.  1.
    9900012    2    1    2    0    0  0.14674529970E+02 -0.82682732985E+01  0.81837445085E+01  0.72461552196E+02  0.69999976424E+02 0.  0.
        -12    1    1    2    0    0 -0.14674529970E+02  0.82682732985E+01 -0.81837445085E+01  0.18726447804E+02  0.00000000000E+00 0.  1.
         11    1    3    3    0    0  0.23795619856E+02 -0.32572501385E+01 -0.12522435333E+02  0.27086022036E+02  0.51100000000E-03 0.  1.
        -11    1    3    3    0    0 -0.88658403392E+00  0.10517371886E+02  0.25125032758E+02  0.27251943307E+02  0.51100000000E-03 0. -1.
         12    1    3    3    0    0 -0.82345058524E+01 -0.15528395046E+02 -0.44188529165E+01  0.18123586854E+02  0.00000000000E+00 0. -1.
</event>
<event>
 7    1  0.1789107E-013  0.7246159E+02  0.7816164E-02  0.1226708E+00
        -11   -1    0    0    0    0  0.00000000000E+00  0.00000000000E+00  0.45593999997E+02  0.45594000000E+02  0.51100000000E-03 0.  1.
         11   -1    0    0    0    0 -0.00000000000E+00 -0.00000000000E+00 -0.45593999997E+02  0.45594000000E+02  0.51100000000E-03 0. -1.
    9900012    2    1    2    0    0  0.28932407034E+01  0.50250283221E+01 -0.17806087974E+02  0.72461587627E+02  0.70000022580E+02 0.  0.
        -12    1    1    2    0    0 -0.28932407034E+01 -0.50250283221E+01  0.17806087974E+02  0.18726412373E+02  0.00000000000E+00 0.  1.
         11    1    3    3    0    0  0.18896830982E+01 -0.17097165864E+01  0.62503756272E+01  0.67499058334E+01  0.51100000000E-03 0. -1.
        -11    1    3    3    0    0  0.16813858683E+02  0.15246956239E+02  0.11821313374E+02  0.25591384654E+02  0.51100000000E-03 0.  1.
         12    1    3    3    0    0 -0.15810301078E+02 -0.85122113301E+01 -0.35877776975E+02  0.40120297140E+02  0.00000000000E+00 0. -1.
</event>
<event>
 7    1  0.1789107E-013  0.7246166E+02  0.7816164E-02  0.1226708E+00
        -11   -1    0    0    0    0  0.00000000000E+00  0.00000000000E+00  0.45593999997E+02  0.45594000000E+02  0.51100000000E-03 0. -1.
         11   -1    0    0    0    0 -0.00000000000E+00 -0.00000000000E+00 -0.45593999997E+02  0.45594000000E+02  0.51100000000E-03 0.  1.
    9900012    2    1    2    0    0 -0.83289974370E+01  0.27017605290E+01  0.16553072645E+02  0.72461656998E+02  0.70000112947E+02 0.  0.
        -12    1    1    2    0    0  0.83289974370E+01 -0.27017605290E+01 -0.16553072645E+02  0.18726343002E+02  0.00000000000E+00 0.  1.
         11    1    3    3    0    0  0.10461148328E+01 -0.15867421510E+02 -0.84545302434E+00  0.15924327700E+02  0.51100000000E-03 0. -1.
        -11    1    3    3    0    0 -0.20180586605E+02 -0.86083805139E+01 -0.10379817045E+01  0.21964464416E+02  0.51100000000E-03 0.  1.
        -12    1    3    3    0    0  0.10805474336E+02  0.27177562553E+02  0.18436507373E+02  0.34572864881E+02  0.00000000000E+00 0.  1.
</event>
<event>
 7    1  0.1789107E-013  0.7246153E+02  0.7816164E-02  0.1226708E+00
        -11   -1    0    0    0    0  0.00000000000E+00  0.00000000000E+00  0.45593999997E+02  0.45594000000E+02  0.51100000000E-03 0.  1.
         11   -1    0    0    0    0 -0.00000000000E+00 -0.00000000000E+00 -0.45593999997E+02  0.45594000000E+02  0.51100000000E-03 0. -1.
    9900012    2    1    2    0    0 -0.12969805710E+02 -0.12643314140E+02 -0.47551579075E+01  0.72461527312E+02  0.69999944008E+02 0.  0.
        -12    1    1    2    0    0  0.12969805710E+02  0.12643314140E+02  0.47551579075E+01  0.18726472688E+02  0.00000000000E+00 0.  1.
         11    1    3    3    0    0 -0.14507764088E+01 -0.20533020830E+02 -0.12320482150E+02  0.23989663967E+02  0.51100000000E-03 0. -1.
        -11    1    3    3    0    0  0.14243735422E+02 -0.40690020357E+01  0.12815500897E+02  0.19587696134E+02  0.51100000000E-03 0.  1.
         12    1    3    3    0    0 -0.25762764723E+02  0.11958708726E+02 -0.52501766544E+01  0.28884167211E+02  0.00000000000E+00 0. -1.
</event>
<event>
 7    1  0.1789107E-013  0.7246161E+02  0.7816164E-02  0.1226708E+00
        -11   -1    0    0    0    0  0.00000000000E+00  0.00000000000E+00  0.45593999997E+02  0.45594000000E+02  0.51100000000E-03 0. -1.
         11   -1    0    0    0    0 -0.00000000000E+00 -0.00000000000E+00 -0.45593999997E+02  0.45594000000E+02  0.51100000000E-03 0.  1.
    9900012    2    1    2    0    0 -0.13665928278E+02  0.12271548632E+02  0.36509040953E+01  0.72461612141E+02  0.70000054513E+02 0.  0.
        -12    1    1    2    0    0  0.13665928278E+02 -0.12271548632E+02 -0.36509040953E+01  0.18726387859E+02  0.00000000000E+00 0.  1.
         11    1    3    3    0    0 -0.12175290545E+02  0.67520428911E+01  0.14428082836E+02  0.20049871762E+02  0.51100000000E-03 0. -1.
        -11    1    3    3    0    0  0.18360945036E+02  0.58720365718E+01  0.11598377231E+02  0.22497276963E+02  0.51100000000E-03 0.  1.
        -12    1    3    3    0    0 -0.19851582769E+02 -0.35253083089E+00 -0.22375555972E+02  0.29914463416E+02  0.00000000000E+00 0.  1.
</event>
<event>
 7    1  0.1789107E-013  0.7246158E+02  0.7816164E-02  0.1226708E+00
        -11   -1    0    0    0    0  0.00000000000E+00  0.00000000000E+00  0.45593999997E+02  0.45594000000E+02  0.51100000000E-03 0. -1.
         11   -1    0    0    0    0 -0.00000000000E+00 -0.00000000000E+00 -0.45593999997E+02  0.45594000000E+02  0.51100000000E-03 0.  1.
    9900012    2    1    2    0    0 -0.42101868703E+01 -0.18208413434E+02  0.11861511372E+01  0.72461576215E+02  0.70000007713E+02 0.  0.
        -12    1    1    2    0    0  0.42101868703E+01  0.18208413434E+02 -0.11861511372E+01  0.18726423785E+02  0.00000000000E+00 0.  1.
         11    1    3    3    0    0  0.40464377946E+00 -0.80564949454E+01  0.30442606739E+01  0.86219702334E+01  0.51100000000E-03 0. -1.
        -11    1    3    3    0    0  0.17563425717E+02 -0.14201237532E+02 -0.23495646601E+02  0.32591325223E+02  0.51100000000E-03 0.  1.
        -12    1    3    3    0    0 -0.22178256367E+02  0.40493190433E+01  0.21637537064E+02  0.31248280759E+02  0.00000000000E+00 0.  1.
</event>
<event>
 7    1  0.1789107E-013  0.7246150E+02  0.7816164E-02  0.1226708E+00
        -11   -1    0    0    0    0  0.00000000000E+00  0.00000000000E+00  0.45593999997E+02  0.45594000000E+02  0.51100000000E-03 0.  1.
         11   -1    0    0    0    0 -0.00000000000E+00 -0.00000000000E+00 -0.45593999997E+02  0.45594000000E+02  0.51100000000E-03 0. -1.
    9900012    2    1    2    0    0  0.12796039739E+02 -0.33583322354E+00 -0.13668591035E+02  0.72461500118E+02  0.69999908582E+02 0.  0.
        -12    1    1    2    0    0 -0.12796039739E+02  0.33583322354E+00  0.13668591035E+02  0.18726499882E+02  0.00000000000E+00 0.  1.
         11    1    3    3    0    0  0.31281733432E+02  0.64661953065E+01 -0.19557826877E+02  0.37454867784E+02  0.51100000000E-03 0. -1.
        -11    1    3    3    0    0 -0.17896211633E+02  0.63970620557E+00 -0.77071309697E+01  0.19495729863E+02  0.51100000000E-03 0.  1.
        -12    1    3    3    0    0 -0.58948206007E+00 -0.74417347356E+01  0.13596366812E+02  0.15510902471E+02  0.00000000000E+00 0.  1.
</event>
<event>
 7    1  0.1789107E-013  0.7246147E+02  0.7816164E-02  0.1226708E+00
        -11   -1    0    0    0    0  0.00000000000E+00  0.00000000000E+00  0.45593999997E+02  0.45594000000E+02  0.51100000000E-03 0. -1.
         11   -1    0    0    0    0 -0.00000000000E+00 -0.00000000000E+00 -0.45593999997E+02  0.45594000000E+02  0.51100000000E-03 0.  1.
    9900012    2    1    2    0    0  0.17003404088E+01  0.50990708985E+01  0.17938537841E+02  0.72461472789E+02  0.69999872981E+02 0.  0.
        -12    1    1    2    0    0 -0.17003404088E+01 -0.50990708985E+01 -0.17938537841E+02  0.18726527211E+02  0.00000000000E+00 0.  1.
         11    1    3    3    0    0 -0.14649103695E+02 -0.55140233898E+01  0.80422116612E+00  0.15673144705E+02  0.51100000000E-03 0. -1.
        -11    1    3    3    0    0 -0.12704145307E+02  0.55873836040E+01 -0.96904376489E+01  0.16926864612E+02  0.51100000000E-03 0.  1.
         12    1    3    3    0    0  0.29053589411E+02  0.50257106842E+01  0.26824754324E+02  0.39861463471E+02  0.00000000000E+00 0. -1.
</event>
<event>
 7    1  0.1789107E-013  0.7246164E+02  0.7816164E-02  0.1226708E+00
        -11   -1    0    0    0    0  0.00000000000E+00  0.00000000000E+00  0.45593999997E+02  0.45594000000E+02  0.51100000000E-03 0.  1.
         11   -1    0    0    0    0 -0.00000000000E+00 -0.00000000000E+00 -0.45593999997E+02  0.45594000000E+02  0.51100000000E-03 0. -1.
    9900012    2    1    2    0    0 -0.13243940480E+02 -0.13101038051E+02 -0.19071852742E+01  0.72461641222E+02  0.70000092396E+02 0.  0.
        -12    1    1    2    0    0  0.13243940480E+02  0.13101038051E+02  0.19071852742E+01  0.18726358778E+02  0.00000000000E+00 0.  1.
         11    1    3    3    0    0 -0.13698427596E+01  0.10496572617E+02 -0.21570746940E+02  0.24028142452E+02  0.51100000000E-03 0. -1.
        -11    1    3    3    0    0 -0.21042654142E+02 -0.22899896723E+02  0.55534659491E+01  0.31591763920E+02  0.51100000000E-03 0.  1.
        -12    1    3    3    0    0  0.91685564218E+01 -0.69771394452E+00  0.14110095717E+02  0.16841734850E+02  0.00000000000E+00 0.  1.
</event>
<event>
 7    1  0.1789107E-013  0.7246154E+02  0.7816164E-02  0.1226708E+00
        -11   -1    0    0    0    0  0.00000000000E+00  0.00000000000E+00  0.45593999997E+02  0.45594000000E+02  0.51100000000E-03 0. -1.
         11   -1    0    0    0    0 -0.00000000000E+00 -0.00000000000E+00 -0.45593999997E+02  0.45594000000E+02  0.51100000000E-03 0.  1.
    9900012    2    1    2    0    0 -0.56451745852E+01  0.65786146914E+01  0.16599216580E+02  0.72461543890E+02  0.69999965604E+02 0.  0.
        -12    1    1    2    0    0  0.56451745852E+01 -0.65786146914E+01 -0.16599216580E+02  0.18726456110E+02  0.00000000000E+00 0.  1.
         11    1    3    3    0    0 -0.26427602328E+02  0.16725603022E+02 -0.60540780921E+01  0.31856174018E+02  0.51100000000E-03 0. -1.
        -11    1    3    3    0    0  0.49578132172E+00  0.61609101234E+01  0.12631586405E+00  0.61821168402E+01  0.51100000000E-03 0.  1.
        -12    1    3    3    0    0  0.20286646422E+02 -0.16307898454E+02  0.22526978808E+02  0.34423253031E+02  0.00000000000E+00 0.  1.
</event>
<event>
 7    1  0.1789107E-013  0.7246158E+02  0.7816164E-02  0.1226708E+00
        -11   -1    0    0    0    0  0.00000000000E+00  0.00000000000E+00  0.45593999997E+02  0.45594000000E+02  0.51100000000E-03 0. -1.
         11   -1    0    0    0    0 -0.00000000000E+00 -0.00000000000E+00 -0.45593999997E+02  0.45594000000E+02  0.51100000000E-03 0.  1.
    9900012    2    1    2    0    0  0.24224595187E+01  0.50734869821E+01  0.17862537443E+02  0.72461579515E+02  0.70000012012E+02 0.  0.
        -12    1    1    2    0    0 -0.24224595187E+01 -0.50734869821E+01 -0.17862537443E+02  0.18726420485E+02  0.00000000000E+00 0.  1.
         11    1    3    3    0    0 -0.12259587256E+02 -0.37066532446E+01  0.43934226060E+01  0.13540270323E+02  0.51100000000E-03 0. -1.
        -11    1    3    3    0    0  0.15021823611E+02 -0.96237167072E+01 -0.16139597960E+02  0.24057384115E+02  0.51100000000E-03 0.  1.
         12    1    3    3    0    0 -0.33977683663E+00  0.18403856934E+02  0.29608712797E+02  0.34863925078E+02  0.00000000000E+00 0. -1.
</event>
<event>
 7    1  0.1789107E-013  0.7246172E+02  0.7816164E-02  0.1226708E+00
        -11   -1    0    0    0    0  0.00000000000E+00  0.00000000000E+00  0.45593999997E+02  0.45594000000E+02  0.51100000000E-03 0. -1.
         11   -1    0    0    0    0 -0.00000000000E+00 -0.00000000000E+00 -0.45593999997E+02  0.45594000000E+02  0.51100000000E-03 0.  1.
    9900012    2    1    2    0    0  0.16276110787E+02 -0.92152718764E+01 -0.91681153190E+00  0.72461720030E+02  0.70000195059E+02 0.  0.
        -12    1    1    2    0    0 -0.16276110787E+02  0.92152718764E+01  0.91681153190E+00  0.18726279970E+02  0.00000000000E+00 0.  1.
         11    1    3    3    0    0 -0.10484303139E+01 -0.21490598431E+02  0.21213027662E+02  0.30214856775E+02  0.51100000000E-03 0. -1.
        -11    1    3    3    0    0 -0.62985262583E+01  0.39476953303E+01  0.17534923764E+01  0.76374385250E+01  0.51100000000E-03 0.  1.
        -12    1    3    3    0    0  0.23623067359E+02  0.83276312242E+01 -0.23883331571E+02  0.34609424731E+02  0.00000000000E+00 0.  1.
</event>
<event>
 7    1  0.1789107E-013  0.7246155E+02  0.7816164E-02  0.1226708E+00
        -11   -1    0    0    0    0  0.00000000000E+00  0.00000000000E+00  0.45593999997E+02  0.45594000000E+02  0.51100000000E-03 0.  1.
         11   -1    0    0    0    0 -0.00000000000E+00 -0.00000000000E+00 -0.45593999997E+02  0.45594000000E+02  0.51100000000E-03 0. -1.
    9900012    2    1    2    0    0 -0.13638341004E+02  0.11804548537E+02 -0.50327023549E+01  0.72461553340E+02  0.69999977914E+02 0.  0.
        -12    1    1    2    0    0  0.13638341004E+02 -0.11804548537E+02  0.50327023549E+01  0.18726446660E+02  0.00000000000E+00 0.  1.
         11    1    3    3    0    0 -0.35115258039E+02  0.17618944843E+02  0.20195578542E+00  0.39288030632E+02  0.51100000000E-03 0. -1.
        -11    1    3    3    0    0  0.32410432763E+00  0.76624714947E+01 -0.92834530128E+00  0.77253050608E+01  0.51100000000E-03 0.  1.
        -12    1    3    3    0    0  0.21152812708E+02 -0.13476867801E+02 -0.43063128391E+01  0.25448217648E+02  0.00000000000E+00 0.  1.
</event>
<event>
 7    1  0.1789107E-013  0.7246155E+02  0.7816164E-02  0.1226708E+00
        -11   -1    0    0    0    0  0.00000000000E+00  0.00000000000E+00  0.45593999997E+02  0.45594000000E+02  0.51100000000E-03 0. -1.
         11   -1    0    0    0    0 -0.00000000000E+00 -0.00000000000E+00 -0.45593999997E+02  0.45594000000E+02  0.51100000000E-03 0.  1.
    9900012    2    1    2    0    0 -0.12948567336E+02 -0.79370017619E+01  0.10955289302E+02  0.72461554616E+02  0.69999979576E+02 0.  0.
        -12    1    1    2    0    0  0.12948567336E+02  0.79370017619E+01 -0.10955289302E+02  0.18726445384E+02  0.00000000000E+00 0.  1.
         11    1    3    3    0    0  0.52795653986E+01 -0.19181900695E+02  0.17057521916E+02  0.26206453008E+02  0.51100000000E-03 0.  1.
        -11    1    3    3    0    0  0.56963845980E+01  0.14461347835E+02  0.88244494894E+01  0.17873172291E+02  0.51100000000E-03 0. -1.
        -12    1    3    3    0    0 -0.23924517332E+02 -0.32164489019E+01 -0.14926682104E+02  0.28381929317E+02  0.00000000000E+00 0.  1.
</event>
<event>
 7    1  0.1789107E-013  0.7246165E+02  0.7816164E-02  0.1226708E+00
        -11   -1    0    0    0    0  0.00000000000E+00  0.00000000000E+00  0.45593999997E+02  0.45594000000E+02  0.51100000000E-03 0. -1.
         11   -1    0    0    0    0 -0.00000000000E+00 -0.00000000000E+00 -0.45593999997E+02  0.45594000000E+02  0.51100000000E-03 0.  1.
    9900012    2    1    2    0    0  0.46349128279E+01  0.17805516641E+02 -0.34867260370E+01  0.72461652299E+02  0.70000106826E+02 0.  0.
        -12    1    1    2    0    0 -0.46349128279E+01 -0.17805516641E+02  0.34867260370E+01  0.18726347701E+02  0.00000000000E+00 0.  1.
         11    1    3    3    0    0  0.74145933815E-01 -0.12496751659E+01 -0.37896368952E+01  0.39910567145E+01  0.51100000000E-03 0. -1.
        -11    1    3    3    0    0 -0.10897427163E+02 -0.19962021067E+02  0.10849045319E+02  0.25197975880E+02  0.51100000000E-03 0.  1.
         12    1    3    3    0    0  0.15458194057E+02  0.39017212874E+02 -0.10546134461E+02  0.43272619704E+02  0.00000000000E+00 0. -1.
</event>
<event>
 7    1  0.1789107E-013  0.7246194E+02  0.7816164E-02  0.1226707E+00
        -11   -1    0    0    0    0  0.00000000000E+00  0.00000000000E+00  0.45593999997E+02  0.45594000000E+02  0.51100000000E-03 0.  1.
         11   -1    0    0    0    0 -0.00000000000E+00 -0.00000000000E+00 -0.45593999997E+02  0.45594000000E+02  0.51100000000E-03 0. -1.
    9900012    2    1    2    0    0 -0.29298950121E+01 -0.17728232195E+02 -0.52717006700E+01  0.72461939830E+02  0.70000481387E+02 0.  0.
        -12    1    1    2    0    0  0.29298950121E+01  0.17728232195E+02  0.52717006700E+01  0.18726060170E+02  0.00000000000E+00 0.  1.
         11    1    3    3    0    0  0.34098221003E+01 -0.31926801197E+02 -0.16226499273E+02  0.35975641764E+02  0.51100000000E-03 0. -1.
        -11    1    3    3    0    0 -0.12108046137E+02  0.55664805812E+00 -0.63703819262E+01  0.13692932646E+02  0.51100000000E-03 0.  1.
        -12    1    3    3    0    0  0.57683290242E+01  0.13641920944E+02  0.17325180529E+02  0.22793365419E+02  0.00000000000E+00 0.  1.
</event>
<event>
 7    1  0.1789107E-013  0.7246204E+02  0.7816164E-02  0.1226707E+00
        -11   -1    0    0    0    0  0.00000000000E+00  0.00000000000E+00  0.45593999997E+02  0.45594000000E+02  0.51100000000E-03 0.  1.
         11   -1    0    0    0    0 -0.00000000000E+00 -0.00000000000E+00 -0.45593999997E+02  0.45594000000E+02  0.51100000000E-03 0. -1.
    9900012    2    1    2    0    0  0.35984320678E+01 -0.44822787374E+00 -0.18371502384E+02  0.72462036168E+02  0.70000606885E+02 0.  0.
        -12    1    1    2    0    0 -0.35984320678E+01  0.44822787374E+00  0.18371502384E+02  0.18725963832E+02  0.00000000000E+00 0.  1.
         11    1    3    3    0    0 -0.13053920027E+02  0.17794588904E+02 -0.10539298635E+02  0.24456676764E+02  0.51100000000E-03 0. -1.
        -11    1    3    3    0    0 -0.11619835670E+02  0.27150083074E+01 -0.40885565873E+01  0.12613807765E+02  0.51100000000E-03 0.  1.
        -12    1    3    3    0    0  0.28272187765E+02 -0.20957825086E+02 -0.37436471620E+01  0.35391551639E+02  0.00000000000E+00 0.  1.
</event>
<event>
 7    1  0.1789107E-013  0.7246157E+02  0.7816164E-02  0.1226708E+00
        -11   -1    0    0    0    0  0.00000000000E+00  0.00000000000E+00  0.45593999997E+02  0.45594000000E+02  0.51100000000E-03 0.  1.
         11   -1    0    0    0    0 -0.00000000000E+00 -0.00000000000E+00 -0.45593999997E+02  0.45594000000E+02  0.51100000000E-03 0. -1.
    9900012    2    1    2    0    0  0.16518415968E+02  0.45423918110E+01 -0.75622566546E+01  0.72461571745E+02  0.70000001890E+02 0.  0.
        -12    1    1    2    0    0 -0.16518415968E+02 -0.45423918110E+01  0.75622566546E+01  0.18726428255E+02  0.00000000000E+00 0.  1.
         11    1    3    3    0    0 -0.17982034793E+02 -0.17582741239E+02  0.46413647037E+01  0.25574374505E+02  0.51100000000E-03 0. -1.
        -11    1    3    3    0    0  0.85554017911E+01 -0.22192726792E+01 -0.62241847723E+01  0.10810205704E+02  0.51100000000E-03 0.  1.
        -12    1    3    3    0    0  0.25945048970E+02  0.24344405729E+02 -0.59794365861E+01  0.36076991536E+02  0.00000000000E+00 0.  1.
</event>
<event>
 7    1  0.1789107E-013  0.7246158E+02  0.7816164E-02  0.1226708E+00
        -11   -1    0    0    0    0  0.00000000000E+00  0.00000000000E+00  0.45593999997E+02  0.45594000000E+02  0.51100000000E-03 0. -1.
         11   -1    0    0    0    0 -0.00000000000E+00 -0.00000000000E+00 -0.45593999997E+02  0.45594000000E+02  0.51100000000E-03 0.  1.
    9900012    2    1    2    0    0 -0.15857763535E+02 -0.51012405074E+01  0.85549601485E+01  0.72461583840E+02  0.70000017646E+02 0.  0.
        -12    1    1    2    0    0  0.15857763535E+02  0.51012405074E+01 -0.85549601485E+01  0.18726416160E+02  0.00000000000E+00 0.  1.
         11    1    3    3    0    0 -0.24506660807E+02  0.21905462103E+02  0.14373363471E+02  0.35875050824E+02  0.51100000000E-03 0. -1.
        -11    1    3    3    0    0 -0.25960786265E+01 -0.15808670351E+02  0.56708593640E+01  0.16994479359E+02  0.51100000000E-03 0.  1.
        -12    1    3    3    0    0  0.11244975899E+02 -0.11198032259E+02 -0.11489262686E+02  0.19592053658E+02  0.00000000000E+00 0.  1.
</event>
<event>
 7    1  0.1789107E-013  0.7246159E+02  0.7816164E-02  0.1226708E+00
        -11   -1    0    0    0    0  0.00000000000E+00  0.00000000000E+00  0.45593999997E+02  0.45594000000E+02  0.51100000000E-03 0.  1.
         11   -1    0    0    0    0 -0.00000000000E+00 -0.00000000000E+00 -0.45593999997E+02  0.45594000000E+02  0.51100000000E-03 0. -1.
    9900012    2    1    2    0    0  0.12791462625E+02 -0.33722577240E+01 -0.13254612553E+02  0.72461591049E+02  0.70000027037E+02 0.  0.
        -12    1    1    2    0    0 -0.12791462625E+02  0.33722577240E+01  0.13254612553E+02  0.18726408951E+02  0.00000000000E+00 0.  1.
         11    1    3    3    0    0 -0.17147246760E+02  0.12713335080E+02 -0.16240840181E+02  0.26822040384E+02  0.51100000000E-03 0. -1.
        -11    1    3    3    0    0  0.98714122760E+01  0.90048066080E+01  0.18712586940E+01  0.13491958039E+02  0.51100000000E-03 0.  1.
        -12    1    3    3    0    0  0.20067297110E+02 -0.25090399412E+02  0.11149689338E+01  0.32147592626E+02  0.00000000000E+00 0.  1.
</event>
<event>
 7    1  0.1789107E-013  0.7246156E+02  0.7816164E-02  0.1226708E+00
        -11   -1    0    0    0    0  0.00000000000E+00  0.00000000000E+00  0.45593999997E+02  0.45594000000E+02  0.51100000000E-03 0. -1.
         11   -1    0    0    0    0 -0.00000000000E+00 -0.00000000000E+00 -0.45593999997E+02  0.45594000000E+02  0.51100000000E-03 0.  1.
    9900012    2    1    2    0    0 -0.63962206109E+01  0.17573494688E+02  0.96973243053E+00  0.72461555206E+02  0.69999980344E+02 0.  0.
        -12    1    1    2    0    0  0.63962206109E+01 -0.17573494688E+02 -0.96973243053E+00  0.18726444794E+02  0.00000000000E+00 0.  1.
         11    1    3    3    0    0  0.21954875023E+02  0.72824795889E+01 -0.34527159414E+00  0.23133747188E+02  0.51100000000E-03 0. -1.
        -11    1    3    3    0    0 -0.10361655152E+01  0.20198745686E+02 -0.28754930136E+00  0.20227349088E+02  0.51100000000E-03 0.  1.
         12    1    3    3    0    0 -0.27314930119E+02 -0.99077305866E+01  0.16025533260E+01  0.29100458930E+02  0.00000000000E+00 0. -1.
</event>
<event>
 7    1  0.1789107E-013  0.7246158E+02  0.7816164E-02  0.1226708E+00
        -11   -1    0    0    0    0  0.00000000000E+00  0.00000000000E+00  0.45593999997E+02  0.45594000000E+02  0.51100000000E-03 0.  1.
         11   -1    0    0    0    0 -0.00000000000E+00 -0.00000000000E+00 -0.45593999997E+02  0.45594000000E+02  0.51100000000E-03 0. -1.
    9900012    2    1    2    0    0 -0.58699809870E+01  0.96817324599E+01 -0.14915966554E+02  0.72461583406E+02  0.70000017081E+02 0.  0.
        -12    1    1    2    0    0  0.58699809870E+01 -0.96817324599E+01  0.14915966554E+02  0.18726416594E+02  0.00000000000E+00 0.  1.
         11    1    3    3    0    0 -0.16462937092E+02  0.11862772273E+01 -0.13379451619E+02  0.21247241639E+02  0.51100000000E-03 0. -1.
        -11    1    3    3    0    0 -0.10707532587E+02  0.18138906962E+02 -0.13430792946E+02  0.24981140873E+02  0.51100000000E-03 0.  1.
         12    1    3    3    0    0  0.21300488692E+02 -0.96434517296E+01  0.11894278011E+02  0.26233200895E+02  0.00000000000E+00 0. -1.
</event>
<event>
 7    1  0.1789107E-013  0.7246153E+02  0.7816164E-02  0.1226708E+00
        -11   -1    0    0    0    0  0.00000000000E+00  0.00000000000E+00  0.45593999997E+02  0.45594000000E+02  0.51100000000E-03 0.  1.
         11   -1    0    0    0    0 -0.00000000000E+00 -0.00000000000E+00 -0.45593999997E+02  0.45594000000E+02  0.51100000000E-03 0. -1.
    9900012    2    1    2    0    0  0.53426871162E+01  0.17152696302E+02 -0.52840706171E+01  0.72461529474E+02  0.69999946824E+02 0.  0.
        -12    1    1    2    0    0 -0.53426871162E+01 -0.17152696302E+02  0.52840706171E+01  0.18726470526E+02  0.00000000000E+00 0.  1.
         11    1    3    3    0    0  0.61993570745E+01  0.17221071505E+02  0.16478552736E+02  0.24628033467E+02  0.51100000000E-03 0. -1.
        -11    1    3    3    0    0 -0.81356963519E+01  0.15676825792E+02  0.26767615663E+01  0.17863859459E+02  0.51100000000E-03 0.  1.
         12    1    3    3    0    0  0.72790263936E+01 -0.15745200995E+02 -0.24439384919E+02  0.29969636548E+02  0.00000000000E+00 0. -1.
</event>
<event>
 7    1  0.1789107E-013  0.7246156E+02  0.7816164E-02  0.1226708E+00
        -11   -1    0    0    0    0  0.00000000000E+00  0.00000000000E+00  0.45593999997E+02  0.45594000000E+02  0.51100000000E-03 0.  1.
         11   -1    0    0    0    0 -0.00000000000E+00 -0.00000000000E+00 -0.45593999997E+02  0.45594000000E+02  0.51100000000E-03 0. -1.
    9900012    2    1    2    0    0 -0.11979899286E+02  0.12163667134E+02 -0.76945870507E+01  0.72461562674E+02  0.69999990073E+02 0.  0.
        -12    1    1    2    0    0  0.11979899286E+02 -0.12163667134E+02  0.76945870507E+01  0.18726437326E+02  0.00000000000E+00 0.  1.
         11    1    3    3    0    0 -0.23102073383E+02  0.75264670159E+01 -0.14320038453E+02  0.28203138156E+02  0.51100000000E-03 0. -1.
        -11    1    3    3    0    0 -0.12257777946E+02 -0.36657613378E+00  0.14588232365E+02  0.19057912321E+02  0.51100000000E-03 0.  1.
         12    1    3    3    0    0  0.23379952043E+02  0.50037762518E+01 -0.79627809629E+01  0.25200512197E+02  0.00000000000E+00 0. -1.
</event>
<event>
 7    1  0.1789107E-013  0.7246176E+02  0.7816164E-02  0.1226707E+00
        -11   -1    0    0    0    0  0.00000000000E+00  0.00000000000E+00  0.45593999997E+02  0.45594000000E+02  0.51100000000E-03 0. -1.
         11   -1    0    0    0    0 -0.00000000000E+00 -0.00000000000E+00 -0.45593999997E+02  0.45594000000E+02  0.51100000000E-03 0.  1.
    9900012    2    1    2    0    0  0.16462671187E+02 -0.69140032862E+01  0.56434839796E+01  0.72461764514E+02  0.70000253006E+02 0.  0.
        -12    1    1    2    0    0 -0.16462671187E+02  0.69140032862E+01 -0.56434839796E+01  0.18726235486E+02  0.00000000000E+00 0.  1.
         11    1    3    3    0    0 -0.80897217798E+00  0.21357911880E+02 -0.16386223035E+02  0.26931823954E+02  0.51100000000E-03 0. -1.
        -11    1    3    3    0    0 -0.35158119604E+01 -0.13949180346E+02  0.10307649853E+02  0.17697124394E+02  0.51100000000E-03 0.  1.
        -12    1    3    3    0    0  0.20787455326E+02 -0.14322734820E+02  0.11722057162E+02  0.27832816166E+02  0.00000000000E+00 0.  1.
</event>
<event>
 7    1  0.1789107E-013  0.7246155E+02  0.7816164E-02  0.1226708E+00
        -11   -1    0    0    0    0  0.00000000000E+00  0.00000000000E+00  0.45593999997E+02  0.45594000000E+02  0.51100000000E-03 0.  1.
         11   -1    0    0    0    0 -0.00000000000E+00 -0.00000000000E+00 -0.45593999997E+02  0.45594000000E+02  0.51100000000E-03 0. -1.
    9900012    2    1    2    0    0 -0.38132624659E+01  0.17901652116E+02 -0.39585222964E+01  0.72461547643E+02  0.69999970492E+02 0.  0.
        -12    1    1    2    0    0  0.38132624659E+01 -0.17901652116E+02  0.39585222964E+01  0.18726452357E+02  0.00000000000E+00 0.  1.
         11    1    3    3    0    0 -0.25977015885E+02  0.16779148790E+02  0.48508906970E+01  0.31302976364E+02  0.51100000000E-03 0. -1.
        -11    1    3    3    0    0 -0.69446877394E+01  0.70915784954E+01 -0.52596656435E+01  0.11233132079E+02  0.51100000000E-03 0.  1.
        -12    1    3    3    0    0  0.29108441159E+02 -0.59690751695E+01 -0.35497473500E+01  0.29925439200E+02  0.00000000000E+00 0.  1.
</event>
<event>
 7    1  0.1789107E-013  0.7246163E+02  0.7816164E-02  0.1226708E+00
        -11   -1    0    0    0    0  0.00000000000E+00  0.00000000000E+00  0.45593999997E+02  0.45594000000E+02  0.51100000000E-03 0.  1.
         11   -1    0    0    0    0 -0.00000000000E+00 -0.00000000000E+00 -0.45593999997E+02  0.45594000000E+02  0.51100000000E-03 0. -1.
    9900012    2    1    2    0    0  0.17995850405E+02  0.27410185859E+01 -0.43946668499E+01  0.72461630587E+02  0.70000078542E+02 0.  0.
        -12    1    1    2    0    0 -0.17995850405E+02 -0.27410185859E+01  0.43946668499E+01  0.18726369413E+02  0.00000000000E+00 0.  1.
         11    1    3    3    0    0  0.11369713078E+02 -0.40994032413E+01 -0.16799596250E+02  0.20695456429E+02  0.51100000000E-03 0. -1.
        -11    1    3    3    0    0  0.28067380169E+02  0.37085683120E+01  0.97114565696E+01  0.29930648129E+02  0.51100000000E-03 0.  1.
         12    1    3    3    0    0 -0.21441242842E+02  0.31318535153E+01  0.26934728302E+01  0.21835526028E+02  0.00000000000E+00 0. -1.
</event>
<event>
 7    1  0.1789107E-013  0.7246152E+02  0.7816164E-02  0.1226708E+00
        -11   -1    0    0    0    0  0.00000000000E+00  0.00000000000E+00  0.45593999997E+02  0.45594000000E+02  0.51100000000E-03 0.  1.
         11   -1    0    0    0    0 -0.00000000000E+00 -0.00000000000E+00 -0.45593999997E+02  0.45594000000E+02  0.51100000000E-03 0. -1.
    9900012    2    1    2    0    0  0.13574057077E+02 -0.12465155682E+02  0.33235291267E+01  0.72461522019E+02  0.69999937113E+02 0.  0.
        -12    1    1    2    0    0 -0.13574057077E+02  0.12465155682E+02 -0.33235291267E+01  0.18726477981E+02  0.00000000000E+00 0.  1.
         11    1    3    3    0    0  0.45936875571E+01 -0.74644331438E+01  0.14839912010E+00  0.87659426242E+01  0.51100000000E-03 0. -1.
        -11    1    3    3    0    0 -0.87859179851E+01 -0.27773347294E+02  0.14662464181E+02  0.32611946138E+02  0.51100000000E-03 0.  1.
         12    1    3    3    0    0  0.17766287505E+02  0.22772624757E+02 -0.11487334175E+02  0.31083633257E+02  0.00000000000E+00 0. -1.
</event>
<event>
 7    1  0.1789107E-013  0.7246162E+02  0.7816164E-02  0.1226708E+00
        -11   -1    0    0    0    0  0.00000000000E+00  0.00000000000E+00  0.45593999997E+02  0.45594000000E+02  0.51100000000E-03 0.  1.
         11   -1    0    0    0    0 -0.00000000000E+00 -0.00000000000E+00 -0.45593999997E+02  0.45594000000E+02  0.51100000000E-03 0. -1.
    9900012    2    1    2    0    0  0.27055163505E+01 -0.14655946969E+02 -0.11338462111E+02  0.72461619589E+02  0.70000064215E+02 0.  0.
        -12    1    1    2    0    0 -0.27055163505E+01  0.14655946969E+02  0.11338462111E+02  0.18726380411E+02  0.00000000000E+00 0.  1.
         11    1    3    3    0    0  0.28173186673E+02 -0.12182472291E+02  0.32245719748E+01  0.30863229629E+02  0.51100000000E-03 0. -1.
        -11    1    3    3    0    0  0.10499853472E+01 -0.10848440092E+02 -0.62956002089E+01  0.12586727291E+02  0.51100000000E-03 0.  1.
        -12    1    3    3    0    0 -0.26517655670E+02  0.83749654142E+01 -0.82674338766E+01  0.29011662669E+02  0.00000000000E+00 0.  1.
</event>
<event>
 7    1  0.1789107E-013  0.7246157E+02  0.7816164E-02  0.1226708E+00
        -11   -1    0    0    0    0  0.00000000000E+00  0.00000000000E+00  0.45593999997E+02  0.45594000000E+02  0.51100000000E-03 0. -1.
         11   -1    0    0    0    0 -0.00000000000E+00 -0.00000000000E+00 -0.45593999997E+02  0.45594000000E+02  0.51100000000E-03 0.  1.
    9900012    2    1    2    0    0  0.11592945414E+01 -0.22692630154E+01  0.18552238228E+02  0.72461573172E+02  0.70000003748E+02 0.  0.
        -12    1    1    2    0    0 -0.11592945414E+01  0.22692630154E+01 -0.18552238228E+02  0.18726426828E+02  0.00000000000E+00 0.  1.
         11    1    3    3    0    0  0.11453720550E+02  0.68170321238E+01 -0.10855620500E+02  0.17190233800E+02  0.51100000000E-03 0. -1.
        -11    1    3    3    0    0  0.36905734528E+01 -0.24369067351E+02  0.22670085788E+02  0.33487379203E+02  0.51100000000E-03 0.  1.
         12    1    3    3    0    0 -0.13984999461E+02  0.15282772212E+02  0.67377729405E+01  0.21783960168E+02  0.00000000000E+00 0. -1.
</event>
<event>
 7    1  0.1789107E-013  0.7246150E+02  0.7816164E-02  0.1226708E+00
        -11   -1    0    0    0    0  0.00000000000E+00  0.00000000000E+00  0.45593999997E+02  0.45594000000E+02  0.51100000000E-03 0.  1.
         11   -1    0    0    0    0 -0.00000000000E+00 -0.00000000000E+00 -0.45593999997E+02  0.45594000000E+02  0.51100000000E-03 0. -1.
    9900012    2    1    2    0    0 -0.55515575319E+01  0.64100963971E+01 -0.16696483042E+02  0.72461503456E+02  0.69999912930E+02 0.  0.
        -12    1    1    2    0    0  0.55515575319E+01 -0.64100963971E+01  0.16696483042E+02  0.18726496544E+02  0.00000000000E+00 0.  1.
         11    1    3    3    0    0 -0.73613816760E+01 -0.10393753212E+02  0.11936532528E+02  0.17455682600E+02  0.51100000000E-03 0. -1.
        -11    1    3    3    0    0  0.22449885761E+02  0.10177228553E+02 -0.10697212100E+02  0.26870126511E+02  0.51100000000E-03 0.  1.
         12    1    3    3    0    0 -0.20640061617E+02  0.66266210551E+01 -0.17935803469E+02  0.28135694345E+02  0.00000000000E+00 0. -1.
</event>
<event>
 7    1  0.1789107E-013  0.7246155E+02  0.7816164E-02  0.1226708E+00
        -11   -1    0    0    0    0  0.00000000000E+00  0.00000000000E+00  0.45593999997E+02  0.45594000000E+02  0.51100000000E-03 0.  1.
         11   -1    0    0    0    0 -0.00000000000E+00 -0.00000000000E+00 -0.45593999997E+02  0.45594000000E+02  0.51100000000E-03 0. -1.
    9900012    2    1    2    0    0  0.13868383190E+02 -0.11494524932E+02 -0.51209322668E+01  0.72461545371E+02  0.69999967532E+02 0.  0.
        -12    1    1    2    0    0 -0.13868383190E+02  0.11494524932E+02  0.51209322668E+01  0.18726454629E+02  0.00000000000E+00 0.  1.
         11    1    3    3    0    0  0.54561412283E+01 -0.25331119982E+01 -0.13315401516E+02  0.14611161873E+02  0.51100000000E-03 0. -1.
        -11    1    3    3    0    0 -0.20060449330E+02 -0.72114821090E+01  0.17777568895E+02  0.27757324396E+02  0.51100000000E-03 0.  1.
         12    1    3    3    0    0  0.28472691291E+02 -0.17499308244E+01 -0.95830996460E+01  0.30093059102E+02  0.00000000000E+00 0. -1.
</event>
<event>
 7    1  0.1789107E-013  0.7246157E+02  0.7816164E-02  0.1226708E+00
        -11   -1    0    0    0    0  0.00000000000E+00  0.00000000000E+00  0.45593999997E+02  0.45594000000E+02  0.51100000000E-03 0. -1.
         11   -1    0    0    0    0 -0.00000000000E+00 -0.00000000000E+00 -0.45593999997E+02  0.45594000000E+02  0.51100000000E-03 0.  1.
    9900012    2    1    2    0    0  0.70872593516E+01  0.14838161896E+02  0.89598413889E+01  0.72461573452E+02  0.70000004113E+02 0.  0.
        -12    1    1    2    0    0 -0.70872593516E+01 -0.14838161896E+02 -0.89598413889E+01  0.18726426548E+02  0.00000000000E+00 0.  1.
         11    1    3    3    0    0  0.94915878244E+01  0.22870581959E+02 -0.10822989708E+02  0.27023894336E+02  0.51100000000E-03 0. -1.
        -11    1    3    3    0    0  0.65326769666E+01 -0.16639938542E+02 -0.42644154141E+01  0.18377939550E+02  0.51100000000E-03 0.  1.
         12    1    3    3    0    0 -0.89370054395E+01  0.86075184783E+01  0.24047246511E+02  0.27059739565E+02  0.00000000000E+00 0. -1.
</event>
<event>
 7    1  0.1789107E-013  0.7246160E+02  0.7816164E-02  0.1226708E+00
        -11   -1    0    0    0    0  0.00000000000E+00  0.00000000000E+00  0.45593999997E+02  0.45594000000E+02  0.51100000000E-03 0.  1.
         11   -1    0    0    0    0 -0.00000000000E+00 -0.00000000000E+00 -0.45593999997E+02  0.45594000000E+02  0.51100000000E-03 0. -1.
    9900012    2    1    2    0    0  0.54761590369E+01  0.17888429598E+02  0.83300803113E+00  0.72461597952E+02  0.70000036029E+02 0.  0.
        -12    1    1    2    0    0 -0.54761590369E+01 -0.17888429598E+02 -0.83300803113E+00  0.18726402048E+02  0.00000000000E+00 0.  1.
         11    1    3    3    0    0  0.73585025622E+01  0.13697300591E+01  0.70881720139E+01  0.10308535451E+02  0.51100000000E-03 0. -1.
        -11    1    3    3    0    0  0.14943224059E+02  0.33734663711E+02  0.13109369337E+01  0.36919453366E+02  0.51100000000E-03 0.  1.
         12    1    3    3    0    0 -0.16825567584E+02 -0.17215964172E+02 -0.75661009165E+01  0.25233609135E+02  0.00000000000E+00 0. -1.
</event>
<event>
 7    1  0.1789107E-013  0.7246157E+02  0.7816164E-02  0.1226708E+00
        -11   -1    0    0    0    0  0.00000000000E+00  0.00000000000E+00  0.45593999997E+02  0.45594000000E+02  0.51100000000E-03 0. -1.
         11   -1    0    0    0    0 -0.00000000000E+00 -0.00000000000E+00 -0.45593999997E+02  0.45594000000E+02  0.51100000000E-03 0.  1.
    9900012    2    1    2    0    0  0.97888417777E+01 -0.49628352906E+01  0.15173269735E+02  0.72461567560E+02  0.69999996439E+02 0.  0.
        -12    1    1    2    0    0 -0.97888417777E+01  0.49628352906E+01 -0.15173269735E+02  0.18726432440E+02  0.00000000000E+00 0.  1.
         11    1    3    3    0    0  0.12872445551E+02  0.15521241272E+02  0.32393647728E+02  0.38157007200E+02  0.51100000000E-03 0. -1.
        -11    1    3    3    0    0 -0.64528987381E+00  0.43368638918E+01 -0.83549574499E+00  0.44635009621E+01  0.51100000000E-03 0.  1.
        -12    1    3    3    0    0 -0.24383138999E+01 -0.24820940454E+02 -0.16384882248E+02  0.29841059398E+02  0.00000000000E+00 0.  1.
</event>
<event>
 7    1  0.1789107E-013  0.7246155E+02  0.7816164E-02  0.1226708E+00
        -11   -1    0    0    0    0  0.00000000000E+00  0.00000000000E+00  0.45593999997E+02  0.45594000000E+02  0.51100000000E-03 0.  1.
         11   -1    0    0    0    0 -0.00000000000E+00 -0.00000000000E+00 -0.45593999997E+02  0.45594000000E+02  0.51100000000E-03 0. -1.
    9900012    2    1    2    0    0  0.88513711932E+01  0.16434593875E+02  0.14957265398E+01  0.72461552240E+02  0.69999976481E+02 0.  0.
        -12    1    1    2    0    0 -0.88513711932E+01 -0.16434593875E+02 -0.14957265398E+01  0.18726447760E+02  0.00000000000E+00 0.  1.
         11    1    3    3    0    0  0.57357385981E+00  0.19861182085E+02 -0.26684492284E+02  0.33269470533E+02  0.51100000000E-03 0. -1.
        -11    1    3    3    0    0 -0.71779582305E+01 -0.92687404669E+00  0.20526015190E+02  0.21764638285E+02  0.51100000000E-03 0.  1.
        -12    1    3    3    0    0  0.15455755564E+02 -0.24997141632E+01  0.76542036342E+01  0.17427443422E+02  0.00000000000E+00 0.  1.
</event>
<event>
 7    1  0.1789107E-013  0.7246149E+02  0.7816164E-02  0.1226708E+00
        -11   -1    0    0    0    0  0.00000000000E+00  0.00000000000E+00  0.45593999997E+02  0.45594000000E+02  0.51100000000E-03 0. -1.
         11   -1    0    0    0    0 -0.00000000000E+00 -0.00000000000E+00 -0.45593999997E+02  0.45594000000E+02  0.51100000000E-03 0.  1.
    9900012    2    1    2    0    0 -0.16223286435E+02 -0.93142892679E+01 -0.85512303309E+00  0.72461488240E+02  0.69999893109E+02 0.  0.
        -12    1    1    2    0    0  0.16223286435E+02  0.93142892679E+01  0.85512303309E+00  0.18726511760E+02  0.00000000000E+00 0.  1.
         11    1    3    3    0    0 -0.15372886093E+01 -0.76283228415E+01  0.11155120517E+02  0.13601149938E+02  0.51100000000E-03 0. -1.
        -11    1    3    3    0    0  0.20391334913E+02 -0.75346555061E+01 -0.15584785798E+01  0.21794642206E+02  0.51100000000E-03 0.  1.
        -12    1    3    3    0    0 -0.35077332739E+02  0.58486890797E+01 -0.10451764970E+02  0.37065696095E+02  0.00000000000E+00 0.  1.
</event>
<event>
 7    1  0.1789107E-013  0.7246153E+02  0.7816164E-02  0.1226708E+00
        -11   -1    0    0    0    0  0.00000000000E+00  0.00000000000E+00  0.45593999997E+02  0.45594000000E+02  0.51100000000E-03 0.  1.
         11   -1    0    0    0    0 -0.00000000000E+00 -0.00000000000E+00 -0.45593999997E+02  0.45594000000E+02  0.51100000000E-03 0. -1.
    9900012    2    1    2    0    0 -0.78595894824E+01  0.53768228321E+01 -0.16124431956E+02  0.72461530058E+02  0.69999947585E+02 0.  0.
        -12    1    1    2    0    0  0.78595894824E+01 -0.53768228321E+01  0.16124431956E+02  0.18726469942E+02  0.00000000000E+00 0.  1.
         11    1    3    3    0    0  0.24111213755E+01 -0.18696691708E+02 -0.15796953343E+02  0.24595193073E+02  0.51100000000E-03 0. -1.
        -11    1    3    3    0    0  0.66671643897E+01  0.45767617694E+01 -0.15807351574E+02  0.17755849552E+02  0.51100000000E-03 0.  1.
        -12    1    3    3    0    0 -0.16937875248E+02  0.19496752771E+02  0.15479872961E+02  0.30110487432E+02  0.00000000000E+00 0.  1.
</event>
<event>
 7    1  0.1789107E-013  0.7246157E+02  0.7816164E-02  0.1226708E+00
        -11   -1    0    0    0    0  0.00000000000E+00  0.00000000000E+00  0.45593999997E+02  0.45594000000E+02  0.51100000000E-03 0.  1.
         11   -1    0    0    0    0 -0.00000000000E+00 -0.00000000000E+00 -0.45593999997E+02  0.45594000000E+02  0.51100000000E-03 0. -1.
    9900012    2    1    2    0    0 -0.17130933687E+02 -0.29927137556E+01 -0.69465046232E+01  0.72461570787E+02  0.70000000641E+02 0.  0.
        -12    1    1    2    0    0  0.17130933687E+02  0.29927137556E+01  0.69465046232E+01  0.18726429213E+02  0.00000000000E+00 0.  1.
         11    1    3    3    0    0 -0.26551850045E+02  0.49536995872E+01 -0.20137159480E+01  0.27084957681E+02  0.51100000000E-03 0. -1.
        -11    1    3    3    0    0 -0.66991478014E+01 -0.62767271938E+01  0.16274952254E+02  0.18685554759E+02  0.51100000000E-03 0.  1.
        -12    1    3    3    0    0  0.16120064160E+02 -0.16696861490E+01 -0.21207740929E+02  0.26691058346E+02  0.00000000000E+00 0.  1.
</event>
<event>
 7    1  0.1789107E-013  0.7246167E+02  0.7816164E-02  0.1226708E+00
        -11   -1    0    0    0    0  0.00000000000E+00  0.00000000000E+00  0.45593999997E+02  0.45594000000E+02  0.51100000000E-03 0.  1.
         11   -1    0    0    0    0 -0.00000000000E+00 -0.00000000000E+00 -0.45593999997E+02  0.45594000000E+02  0.51100000000E-03 0. -1.
    9900012    2    1    2    0    0  0.14401235549E+02 -0.11495723640E+02 -0.33359004492E+01  0.72461668829E+02  0.70000128359E+02 0.  0.
        -12    1    1    2    0    0 -0.14401235549E+02  0.11495723640E+02  0.33359004492E+01  0.18726331171E+02  0.00000000000E+00 0.  1.
         11    1    3    3    0    0 -0.24387088491E+02 -0.68936028345E+01  0.11773167531E+02  0.27943860132E+02  0.51100000000E-03 0. -1.
        -11    1    3    3    0    0  0.86199696654E+01  0.16735849645E+01  0.23650032316E+01  0.90938443033E+01  0.51100000000E-03 0.  1.
        -12    1    3    3    0    0  0.30168354375E+02 -0.62757057698E+01 -0.17474071212E+02  0.35423964393E+02  0.00000000000E+00 0.  1.
</event>
<event>
 7    1  0.1789107E-013  0.7246157E+02  0.7816164E-02  0.1226708E+00
        -11   -1    0    0    0    0  0.00000000000E+00  0.00000000000E+00  0.45593999997E+02  0.45594000000E+02  0.51100000000E-03 0.  1.
         11   -1    0    0    0    0 -0.00000000000E+00 -0.00000000000E+00 -0.45593999997E+02  0.45594000000E+02  0.51100000000E-03 0. -1.
    9900012    2    1    2    0    0 -0.11615966800E+02  0.41895031807E+01 -0.14078234856E+02  0.72461566323E+02  0.69999994827E+02 0.  0.
        -12    1    1    2    0    0  0.11615966800E+02 -0.41895031807E+01  0.14078234856E+02  0.18726433677E+02  0.00000000000E+00 0.  1.
         11    1    3    3    0    0  0.77951267342E+01  0.21775775843E+01  0.56631332049E+01  0.98781032033E+01  0.51100000000E-03 0. -1.
        -11    1    3    3    0    0  0.61625794214E+01  0.21444104888E+02  0.39672919240E+01  0.22662003994E+02  0.51100000000E-03 0.  1.
        -12    1    3    3    0    0 -0.25573672955E+02 -0.19432179291E+02 -0.23708659985E+02  0.39921459126E+02  0.00000000000E+00 0.  1.
</event>
<event>
 7    1  0.1789107E-013  0.7246148E+02  0.7816164E-02  0.1226708E+00
        -11   -1    0    0    0    0  0.00000000000E+00  0.00000000000E+00  0.45593999997E+02  0.45594000000E+02  0.51100000000E-03 0.  1.
         11   -1    0    0    0    0 -0.00000000000E+00 -0.00000000000E+00 -0.45593999997E+02  0.45594000000E+02  0.51100000000E-03 0. -1.
    9900012    2    1    2    0    0  0.75965471570E+01  0.17069671197E+02 -0.12654648981E+01  0.72461478570E+02  0.69999880511E+02 0.  0.
        -12    1    1    2    0    0 -0.75965471570E+01 -0.17069671197E+02  0.12654648981E+01  0.18726521430E+02  0.00000000000E+00 0.  1.
         11    1    3    3    0    0  0.48088403327E+01  0.17783375453E+02  0.73533217234E+00  0.18436759518E+02  0.51100000000E-03 0. -1.
        -11    1    3    3    0    0 -0.80996986845E+01  0.24190650210E+02  0.49120078240E+01  0.25979232042E+02  0.51100000000E-03 0.  1.
         12    1    3    3    0    0  0.10887405509E+02 -0.24904354466E+02 -0.69128048944E+01  0.28045487010E+02  0.00000000000E+00 0. -1.
</event>
<event>
 7    1  0.1789107E-013  0.7246164E+02  0.7816164E-02  0.1226708E+00
        -11   -1    0    0    0    0  0.00000000000E+00  0.00000000000E+00  0.45593999997E+02  0.45594000000E+02  0.51100000000E-03 0.  1.
         11   -1    0    0    0    0 -0.00000000000E+00 -0.00000000000E+00 -0.45593999997E+02  0.45594000000E+02  0.51100000000E-03 0. -1.
    9900012    2    1    2    0    0 -0.13380719406E+02 -0.99439363589E+01  0.85294180239E+01  0.72461641733E+02  0.70000093062E+02 0.  0.
        -12    1    1    2    0    0  0.13380719406E+02  0.99439363589E+01 -0.85294180239E+01  0.18726358267E+02  0.00000000000E+00 0.  1.
         11    1    3    3    0    0  0.34942369195E+01 -0.25679404661E+02  0.11712475814E+02  0.28439824285E+02  0.51100000000E-03 0. -1.
        -11    1    3    3    0    0  0.57286595606E+01 -0.33488215225E+01 -0.11513315261E+02  0.13288663383E+02  0.51100000000E-03 0.  1.
        -12    1    3    3    0    0 -0.22603615886E+02  0.19084289825E+02  0.83302574707E+01  0.30733154065E+02  0.00000000000E+00 0.  1.
</event>
<event>
 7    1  0.1789107E-013  0.7246193E+02  0.7816164E-02  0.1226707E+00
        -11   -1    0    0    0    0  0.00000000000E+00  0.00000000000E+00  0.45593999997E+02  0.45594000000E+02  0.51100000000E-03 0.  1.
         11   -1    0    0    0    0 -0.00000000000E+00 -0.00000000000E+00 -0.45593999997E+02  0.45594000000E+02  0.51100000000E-03 0. -1.
    9900012    2    1    2    0    0 -0.19513862006E+01 -0.16161669652E+02  0.92551739195E+01  0.72461929448E+02  0.70000467862E+02 0.  0.
        -12    1    1    2    0    0  0.19513862006E+01  0.16161669652E+02 -0.92551739195E+01  0.18726070552E+02  0.00000000000E+00 0.  1.
         11    1    3    3    0    0  0.44273317309E+01 -0.90299889002E+01  0.20378432040E+02  0.22724930329E+02  0.51100000000E-03 0. -1.
        -11    1    3    3    0    0  0.10304075574E+02 -0.18209506180E+02  0.76599335225E+01  0.22280813957E+02  0.51100000000E-03 0.  1.
         12    1    3    3    0    0 -0.16682793506E+02  0.11077825427E+02 -0.18783191643E+02  0.27456185162E+02  0.00000000000E+00 0. -1.
</event>
<event>
 7    1  0.1789107E-013  0.7246177E+02  0.7816164E-02  0.1226707E+00
        -11   -1    0    0    0    0  0.00000000000E+00  0.00000000000E+00  0.45593999997E+02  0.45594000000E+02  0.51100000000E-03 0.  1.
         11   -1    0    0    0    0 -0.00000000000E+00 -0.00000000000E+00 -0.45593999997E+02  0.45594000000E+02  0.51100000000E-03 0. -1.
    9900012    2    1    2    0    0  0.43988764514E+01  0.24706482171E+01 -0.18033784676E+02  0.72461772232E+02  0.70000263061E+02 0.  0.
        -12    1    1    2    0    0 -0.43988764514E+01 -0.24706482171E+01  0.18033784676E+02  0.18726227768E+02  0.00000000000E+00 0.  1.
         11    1    3    3    0    0  0.10333025836E+01 -0.11503814032E+02  0.10465595229E+02  0.15586344513E+02  0.51100000000E-03 0.  1.
        -11    1    3    3    0    0 -0.28518920281E+01 -0.24655322592E+01 -0.37111519168E+02  0.37302506520E+02  0.51100000000E-03 0. -1.
         12    1    3    3    0    0  0.62174658959E+01  0.16439994509E+02  0.86121392621E+01  0.19572921200E+02  0.00000000000E+00 0. -1.
</event>
<event>
 7    1  0.1789107E-013  0.7246159E+02  0.7816164E-02  0.1226708E+00
        -11   -1    0    0    0    0  0.00000000000E+00  0.00000000000E+00  0.45593999997E+02  0.45594000000E+02  0.51100000000E-03 0. -1.
         11   -1    0    0    0    0 -0.00000000000E+00 -0.00000000000E+00 -0.45593999997E+02  0.45594000000E+02  0.51100000000E-03 0.  1.
    9900012    2    1    2    0    0  0.13668829720E+02 -0.12742753133E+02  0.12098712424E+01  0.72461589459E+02  0.70000024965E+02 0.  0.
        -12    1    1    2    0    0 -0.13668829720E+02  0.12742753133E+02 -0.12098712424E+01  0.18726410541E+02  0.00000000000E+00 0.  1.
         11    1    3    3    0    0 -0.97518134940E+01 -0.18525431484E+02 -0.30788492458E+01  0.21160547985E+02  0.51100000000E-03 0. -1.
        -11    1    3    3    0    0  0.28872679450E+01 -0.65550270389E+01 -0.17506277750E+02  0.18914926820E+02  0.51100000000E-03 0.  1.
         12    1    3    3    0    0  0.20533375269E+02  0.12337705389E+02  0.21794998238E+02  0.32386114654E+02  0.00000000000E+00 0. -1.
</event>
<event>
 7    1  0.1789107E-013  0.7246160E+02  0.7816164E-02  0.1226708E+00
        -11   -1    0    0    0    0  0.00000000000E+00  0.00000000000E+00  0.45593999997E+02  0.45594000000E+02  0.51100000000E-03 0.  1.
         11   -1    0    0    0    0 -0.00000000000E+00 -0.00000000000E+00 -0.45593999997E+02  0.45594000000E+02  0.51100000000E-03 0. -1.
    9900012    2    1    2    0    0  0.30679952868E+01  0.41343368573E+01 -0.18004802172E+02  0.72461595178E+02  0.70000032415E+02 0.  0.
        -12    1    1    2    0    0 -0.30679952868E+01 -0.41343368573E+01  0.18004802172E+02  0.18726404822E+02  0.00000000000E+00 0.  1.
         11    1    3    3    0    0 -0.79502853314E+01 -0.84105453492E+01  0.11168867757E+02  0.16083778075E+02  0.51100000000E-03 0. -1.
        -11    1    3    3    0    0 -0.14062996077E+02  0.13783971791E+02 -0.26786259544E+01  0.19873116873E+02  0.51100000000E-03 0.  1.
         12    1    3    3    0    0  0.25081276695E+02 -0.12390895844E+01 -0.26495043974E+02  0.36504700230E+02  0.00000000000E+00 0. -1.
</event>
<event>
 7    1  0.1789107E-013  0.7246156E+02  0.7816164E-02  0.1226708E+00
        -11   -1    0    0    0    0  0.00000000000E+00  0.00000000000E+00  0.45593999997E+02  0.45594000000E+02  0.51100000000E-03 0.  1.
         11   -1    0    0    0    0 -0.00000000000E+00 -0.00000000000E+00 -0.45593999997E+02  0.45594000000E+02  0.51100000000E-03 0. -1.
    9900012    2    1    2    0    0  0.89608946911E+00 -0.11426188402E+02 -0.14809411168E+02  0.72461563690E+02  0.69999991397E+02 0.  0.
        -12    1    1    2    0    0 -0.89608946911E+00  0.11426188402E+02  0.14809411168E+02  0.18726436310E+02  0.00000000000E+00 0.  1.
         11    1    3    3    0    0 -0.21791284316E+02  0.40961423730E-01 -0.14048830126E+02  0.25927425212E+02  0.51100000000E-03 0. -1.
        -11    1    3    3    0    0  0.32332368166E+01  0.14005114641E+02 -0.16668540471E+01  0.14469811992E+02  0.51100000000E-03 0.  1.
        -12    1    3    3    0    0  0.19454136968E+02 -0.25472264466E+02  0.90627300495E+00  0.32064326486E+02  0.00000000000E+00 0.  1.
</event>
<event>
 7    1  0.1789107E-013  0.7246159E+02  0.7816164E-02  0.1226708E+00
        -11   -1    0    0    0    0  0.00000000000E+00  0.00000000000E+00  0.45593999997E+02  0.45594000000E+02  0.51100000000E-03 0. -1.
         11   -1    0    0    0    0 -0.00000000000E+00 -0.00000000000E+00 -0.45593999997E+02  0.45594000000E+02  0.51100000000E-03 0.  1.
    9900012    2    1    2    0    0 -0.88004408134E+00 -0.15382957975E+02 -0.10642770137E+02  0.72461590044E+02  0.70000025728E+02 0.  0.
        -12    1    1    2    0    0  0.88004408134E+00  0.15382957975E+02  0.10642770137E+02  0.18726409956E+02  0.00000000000E+00 0.  1.
         11    1    3    3    0    0 -0.10593957147E+02 -0.58940072094E+01 -0.16919142622E+01  0.12240662693E+02  0.51100000000E-03 0. -1.
        -11    1    3    3    0    0  0.15013041529E+02  0.18089186867E+02  0.10818535929E+02  0.25877612281E+02  0.51100000000E-03 0.  1.
         12    1    3    3    0    0 -0.52991284635E+01 -0.27578137633E+02 -0.19769391803E+02  0.34343315071E+02  0.00000000000E+00 0. -1.
</event>
<event>
 7    1  0.1789107E-013  0.7246161E+02  0.7816164E-02  0.1226708E+00
        -11   -1    0    0    0    0  0.00000000000E+00  0.00000000000E+00  0.45593999997E+02  0.45594000000E+02  0.51100000000E-03 0.  1.
         11   -1    0    0    0    0 -0.00000000000E+00 -0.00000000000E+00 -0.45593999997E+02  0.45594000000E+02  0.51100000000E-03 0. -1.
    9900012    2    1    2    0    0  0.95567821750E+01 -0.15611222765E+02 -0.39541642306E+01  0.72461607488E+02  0.70000048451E+02 0.  0.
        -12    1    1    2    0    0 -0.95567821750E+01  0.15611222765E+02  0.39541642306E+01  0.18726392512E+02  0.00000000000E+00 0.  1.
         11    1    3    3    0    0  0.16224146159E+02 -0.32318983113E+02 -0.62750103215E+01  0.36703069938E+02  0.51100000000E-03 0. -1.
        -11    1    3    3    0    0 -0.12517287609E+02 -0.47496075458E+01  0.18301763416E+01  0.13512616572E+02  0.51100000000E-03 0.  1.
        -12    1    3    3    0    0  0.58499236248E+01  0.21457367894E+02  0.49066974925E+00  0.22245920978E+02  0.00000000000E+00 0.  1.
</event>
<event>
 7    1  0.1789107E-013  0.7246161E+02  0.7816164E-02  0.1226708E+00
        -11   -1    0    0    0    0  0.00000000000E+00  0.00000000000E+00  0.45593999997E+02  0.45594000000E+02  0.51100000000E-03 0.  1.
         11   -1    0    0    0    0 -0.00000000000E+00 -0.00000000000E+00 -0.45593999997E+02  0.45594000000E+02  0.51100000000E-03 0. -1.
    9900012    2    1    2    0    0  0.58108270827E+01  0.31181664280E+01 -0.17526803883E+02  0.72461614133E+02  0.70000057108E+02 0.  0.
        -12    1    1    2    0    0 -0.58108270827E+01 -0.31181664280E+01  0.17526803883E+02  0.18726385867E+02  0.00000000000E+00 0.  1.
         11    1    3    3    0    0 -0.16811516892E+02  0.11693624586E+02  0.79971449727E+01  0.21984591971E+02  0.51100000000E-03 0. -1.
        -11    1    3    3    0    0 -0.14348063189E+01 -0.26906691123E+01  0.81352964514E+01  0.86880042621E+01  0.51100000000E-03 0.  1.
        -12    1    3    3    0    0  0.24057150294E+02 -0.58847890453E+01 -0.33659245308E+02  0.41789017900E+02  0.00000000000E+00 0.  1.
</event>
<event>
 7    1  0.1789107E-013  0.7246164E+02  0.7816164E-02  0.1226708E+00
        -11   -1    0    0    0    0  0.00000000000E+00  0.00000000000E+00  0.45593999997E+02  0.45594000000E+02  0.51100000000E-03 0. -1.
         11   -1    0    0    0    0 -0.00000000000E+00 -0.00000000000E+00 -0.45593999997E+02  0.45594000000E+02  0.51100000000E-03 0.  1.
    9900012    2    1    2    0    0  0.16053058591E+02  0.96359082860E+01  0.35361869143E+00  0.72461642511E+02  0.70000094076E+02 0.  0.
        -12    1    1    2    0    0 -0.16053058591E+02 -0.96359082860E+01 -0.35361869143E+00  0.18726357489E+02  0.00000000000E+00 0.  1.
         11    1    3    3    0    0  0.16310760606E+02  0.63023190255E+01  0.41544689014E+01  0.17972750173E+02  0.51100000000E-03 0. -1.
        -11    1    3    3    0    0  0.21526300579E+02 -0.84126533154E+01  0.11059005944E+02  0.25621396628E+02  0.51100000000E-03 0.  1.
         12    1    3    3    0    0 -0.21784002594E+02  0.11746242576E+02 -0.14859856154E+02  0.28867495711E+02  0.00000000000E+00 0. -1.
</event>
<event>
 7    1  0.1789107E-013  0.7246157E+02  0.7816164E-02  0.1226708E+00
        -11   -1    0    0    0    0  0.00000000000E+00  0.00000000000E+00  0.45593999997E+02  0.45594000000E+02  0.51100000000E-03 0.  1.
         11   -1    0    0    0    0 -0.00000000000E+00 -0.00000000000E+00 -0.45593999997E+02  0.45594000000E+02  0.51100000000E-03 0. -1.
    9900012    2    1    2    0    0 -0.84854986926E-02  0.72099611284E+01 -0.17282806449E+02  0.72461574548E+02  0.70000005541E+02 0.  0.
        -12    1    1    2    0    0  0.84854986926E-02 -0.72099611284E+01  0.17282806449E+02  0.18726425452E+02  0.00000000000E+00 0.  1.
         11    1    3    3    0    0 -0.31176549117E+02 -0.27899812066E+01 -0.12452870918E+02  0.33687315184E+02  0.51100000000E-03 0. -1.
        -11    1    3    3    0    0  0.42894507332E+01  0.16984870048E+01 -0.92129118828E+01  0.10303494132E+02  0.51100000000E-03 0.  1.
        -12    1    3    3    0    0  0.26878612885E+02  0.83014553301E+01  0.43829763522E+01  0.28470765232E+02  0.00000000000E+00 0.  1.
</event>
<event>
 7    1  0.1789107E-013  0.7246153E+02  0.7816164E-02  0.1226708E+00
        -11   -1    0    0    0    0  0.00000000000E+00  0.00000000000E+00  0.45593999997E+02  0.45594000000E+02  0.51100000000E-03 0.  1.
         11   -1    0    0    0    0 -0.00000000000E+00 -0.00000000000E+00 -0.45593999997E+02  0.45594000000E+02  0.51100000000E-03 0. -1.
    9900012    2    1    2    0    0  0.12351899247E+02 -0.10700123559E+02 -0.91443124773E+01  0.72461534507E+02  0.69999953380E+02 0.  0.
        -12    1    1    2    0    0 -0.12351899247E+02  0.10700123559E+02  0.91443124773E+01  0.18726465493E+02  0.00000000000E+00 0.  1.
         11    1    3    3    0    0  0.37938830963E+01 -0.14960081708E+02 -0.31673370314E+02  0.35233506510E+02  0.51100000000E-03 0. -1.
        -11    1    3    3    0    0 -0.99161873742E+01  0.51795239498E+00  0.37317501494E+01  0.10607780454E+02  0.51100000000E-03 0.  1.
        -12    1    3    3    0    0  0.18474203525E+02  0.37420057540E+01  0.18797307687E+02  0.26620247543E+02  0.00000000000E+00 0.  1.
</event>
<event>
 7    1  0.1789107E-013  0.7246158E+02  0.7816164E-02  0.1226708E+00
        -11   -1    0    0    0    0  0.00000000000E+00  0.00000000000E+00  0.45593999997E+02  0.45594000000E+02  0.51100000000E-03 0. -1.
         11   -1    0    0    0    0 -0.00000000000E+00 -0.00000000000E+00 -0.45593999997E+02  0.45594000000E+02  0.51100000000E-03 0.  1.
    9900012    2    1    2    0    0 -0.16612712187E+02 -0.55157149470E+01  0.66538372361E+01  0.72461578357E+02  0.70000010504E+02 0.  0.
        -12    1    1    2    0    0  0.16612712187E+02  0.55157149470E+01 -0.66538372361E+01  0.18726421643E+02  0.00000000000E+00 0.  1.
         11    1    3    3    0    0 -0.14407087350E+02  0.11470351686E+02  0.23545453595E+02  0.29891830304E+02  0.51100000000E-03 0. -1.
        -11    1    3    3    0    0 -0.12554477372E+01 -0.11987279375E+02  0.97151546181E+01  0.15480802478E+02  0.51100000000E-03 0.  1.
        -12    1    3    3    0    0 -0.95017709972E+00 -0.49987872570E+01 -0.26606770977E+02  0.27088945575E+02  0.00000000000E+00 0.  1.
</event>
<event>
 7    1  0.1789107E-013  0.7246158E+02  0.7816164E-02  0.1226708E+00
        -11   -1    0    0    0    0  0.00000000000E+00  0.00000000000E+00  0.45593999997E+02  0.45594000000E+02  0.51100000000E-03 0.  1.
         11   -1    0    0    0    0 -0.00000000000E+00 -0.00000000000E+00 -0.45593999997E+02  0.45594000000E+02  0.51100000000E-03 0. -1.
    9900012    2    1    2    0    0  0.48045737889E+01 -0.25191484984E+00 -0.18097827278E+02  0.72461581694E+02  0.70000014850E+02 0.  0.
        -12    1    1    2    0    0 -0.48045737889E+01  0.25191484984E+00  0.18097827278E+02  0.18726418306E+02  0.00000000000E+00 0.  1.
         11    1    3    3    0    0 -0.66412617186E+01  0.16185894219E+02 -0.82013950571E+01  0.19322329312E+02  0.51100000000E-03 0. -1.
        -11    1    3    3    0    0  0.16718738079E+02  0.44267731990E+01 -0.22361592463E+02  0.28269300339E+02  0.51100000000E-03 0.  1.
        -12    1    3    3    0    0 -0.52729025719E+01 -0.20864582268E+02  0.12465160242E+02  0.24869952043E+02  0.00000000000E+00 0.  1.
</event>
<event>
 7    1  0.2397006E-013  0.7246162E+02  0.7816164E-02  0.1226708E+00
        -11   -1    0    0    0    0  0.00000000000E+00  0.00000000000E+00  0.45593999997E+02  0.45594000000E+02  0.51100000000E-03 0. -1.
         11   -1    0    0    0    0 -0.00000000000E+00 -0.00000000000E+00 -0.45593999997E+02  0.45594000000E+02  0.51100000000E-03 0.  1.
    9900012    2    1    2    0    0  0.17372414501E+01 -0.54566147163E+01  0.17829318719E+02  0.72461621332E+02  0.70000066487E+02 0.  0.
        -12    1    1    2    0    0 -0.17372414501E+01  0.54566147163E+01 -0.17829318719E+02  0.18726378668E+02  0.00000000000E+00 0.  1.
         11    1    3    3    0    0  0.49129076201E+01  0.95757140755E-01  0.33634457272E+02  0.33991506982E+02  0.51100000000E-03 0.  1.
        -11    1    3    3    0    0 -0.81053947950E+01 -0.97256863926E+01  0.72074699598E+01  0.14568253982E+02  0.51100000000E-03 0. -1.
        -12    1    3    3    0    0  0.49297286251E+01  0.41733145356E+01 -0.23012608512E+02  0.23901860369E+02  0.00000000000E+00 0.  1.
</event>
<event>
 7    1  0.1789107E-013  0.7246164E+02  0.7816164E-02  0.1226708E+00
        -11   -1    0    0    0    0  0.00000000000E+00  0.00000000000E+00  0.45593999997E+02  0.45594000000E+02  0.51100000000E-03 0.  1.
         11   -1    0    0    0    0 -0.00000000000E+00 -0.00000000000E+00 -0.45593999997E+02  0.45594000000E+02  0.51100000000E-03 0. -1.
    9900012    2    1    2    0    0  0.14909543863E+02  0.76299876486E+01  0.83764822851E+01  0.72461637161E+02  0.70000087106E+02 0.  0.
        -12    1    1    2    0    0 -0.14909543863E+02 -0.76299876486E+01 -0.83764822851E+01  0.18726362839E+02  0.00000000000E+00 0.  1.
         11    1    3    3    0    0  0.37241373287E+01 -0.46143457404E+01  0.46059252945E+01  0.75083908752E+01  0.51100000000E-03 0. -1.
        -11    1    3    3    0    0  0.16997423990E+02  0.22620944579E+02  0.26838958638E+02  0.38999349444E+02  0.51100000000E-03 0.  1.
         12    1    3    3    0    0 -0.58120174561E+01 -0.10376611190E+02 -0.23068401648E+02  0.25953896842E+02  0.00000000000E+00 0. -1.
</event>
<event>
 7    1  0.1789107E-013  0.7246086E+02  0.7816164E-02  0.1226710E+00
        -11   -1    0    0    0    0  0.00000000000E+00  0.00000000000E+00  0.45593999997E+02  0.45594000000E+02  0.51100000000E-03 0.  1.
         11   -1    0    0    0    0 -0.00000000000E+00 -0.00000000000E+00 -0.45593999997E+02  0.45594000000E+02  0.51100000000E-03 0. -1.
    9900012    2    1    2    0    0 -0.14300626528E+02 -0.38039999198E+01 -0.11477260000E+02  0.72460858425E+02  0.69999072651E+02 0.  0.
        -12    1    1    2    0    0  0.14300626528E+02  0.38039999198E+01  0.11477260000E+02  0.18727141575E+02  0.00000000000E+00 0.  1.
         11    1    3    3    0    0  0.11858006447E+02  0.75802771137E+01  0.29727960562E+01  0.14384381623E+02  0.51100000000E-03 0. -1.
        -11    1    3    3    0    0 -0.70868754091E+00 -0.90364338748E+01  0.15958970981E+02  0.18353422848E+02  0.51100000000E-03 0.  1.
         12    1    3    3    0    0 -0.25449945433E+02 -0.23478431587E+01 -0.30409027037E+02  0.39723053954E+02  0.00000000000E+00 0. -1.
</event>
<event>
 7    1  0.1789107E-013  0.7246155E+02  0.7816164E-02  0.1226708E+00
        -11   -1    0    0    0    0  0.00000000000E+00  0.00000000000E+00  0.45593999997E+02  0.45594000000E+02  0.51100000000E-03 0. -1.
         11   -1    0    0    0    0 -0.00000000000E+00 -0.00000000000E+00 -0.45593999997E+02  0.45594000000E+02  0.51100000000E-03 0.  1.
    9900012    2    1    2    0    0  0.18037484837E+02  0.18940217347E+01  0.46627868666E+01  0.72461554557E+02  0.69999979499E+02 0.  0.
        -12    1    1    2    0    0 -0.18037484837E+02 -0.18940217347E+01 -0.46627868666E+01  0.18726445443E+02  0.00000000000E+00 0.  1.
         11    1    3    3    0    0 -0.58257952359E+01 -0.93278204062E+01  0.16371270698E+00  0.10998860203E+02  0.51100000000E-03 0. -1.
        -11    1    3    3    0    0  0.14955820561E+02 -0.13171428948E+02 -0.18187123774E+02  0.26980262797E+02  0.51100000000E-03 0.  1.
         12    1    3    3    0    0  0.89074595114E+01  0.24393271089E+02  0.22686197933E+02  0.34482431556E+02  0.00000000000E+00 0. -1.
</event>
<event>
 7    1  0.1789107E-013  0.7246155E+02  0.7816164E-02  0.1226708E+00
        -11   -1    0    0    0    0  0.00000000000E+00  0.00000000000E+00  0.45593999997E+02  0.45594000000E+02  0.51100000000E-03 0.  1.
         11   -1    0    0    0    0 -0.00000000000E+00 -0.00000000000E+00 -0.45593999997E+02  0.45594000000E+02  0.51100000000E-03 0. -1.
    9900012    2    1    2    0    0  0.16443702032E+02 -0.34348447073E+01 -0.82756513015E+01  0.72461550813E+02  0.69999974622E+02 0.  0.
        -12    1    1    2    0    0 -0.16443702032E+02  0.34348447073E+01  0.82756513015E+01  0.18726449187E+02  0.00000000000E+00 0.  1.
         11    1    3    3    0    0 -0.16695706508E+02 -0.29195581852E+01  0.97563956010E+00  0.16977111315E+02  0.51100000000E-03 0.  1.
        -11    1    3    3    0    0 -0.72809740773E+01  0.42814034502E+01 -0.12014869890E+02  0.14686732031E+02  0.51100000000E-03 0. -1.
         12    1    3    3    0    0  0.40420382617E+02 -0.47966899723E+01  0.27635790279E+01  0.40797707468E+02  0.00000000000E+00 0. -1.
</event>
<event>
 7    1  0.1789107E-013  0.7246202E+02  0.7816164E-02  0.1226707E+00
        -11   -1    0    0    0    0  0.00000000000E+00  0.00000000000E+00  0.45593999997E+02  0.45594000000E+02  0.51100000000E-03 0. -1.
         11   -1    0    0    0    0 -0.00000000000E+00 -0.00000000000E+00 -0.45593999997E+02  0.45594000000E+02  0.51100000000E-03 0.  1.
    9900012    2    1    2    0    0  0.14231858798E+02  0.87073327378E+01  0.85028719769E+01  0.72462021251E+02  0.70000587452E+02 0.  0.
        -12    1    1    2    0    0 -0.14231858798E+02 -0.87073327378E+01 -0.85028719769E+01  0.18725978749E+02  0.00000000000E+00 0.  1.
         11    1    3    3    0    0  0.52503429632E+01  0.10607682146E+01  0.63196728704E+01  0.82842981529E+01  0.51100000000E-03 0. -1.
        -11    1    3    3    0    0  0.27075736238E+02  0.68512190056E+00 -0.20770788169E+02  0.34131957552E+02  0.51100000000E-03 0.  1.
         12    1    3    3    0    0 -0.18094220403E+02  0.69614426227E+01  0.22953987276E+02  0.30045765546E+02  0.00000000000E+00 0. -1.
</event>
<event>
 7    1  0.1789107E-013  0.7246158E+02  0.7816164E-02  0.1226708E+00
        -11   -1    0    0    0    0  0.00000000000E+00  0.00000000000E+00  0.45593999997E+02  0.45594000000E+02  0.51100000000E-03 0.  1.
         11   -1    0    0    0    0 -0.00000000000E+00 -0.00000000000E+00 -0.45593999997E+02  0.45594000000E+02  0.51100000000E-03 0. -1.
    9900012    2    1    2    0    0 -0.70841386670E+01  0.17070442168E+02 -0.30156076562E+01  0.72461577330E+02  0.70000009165E+02 0.  0.
        -12    1    1    2    0    0  0.70841386670E+01 -0.17070442168E+02  0.30156076562E+01  0.18726422670E+02  0.00000000000E+00 0.  1.
         11    1    3    3    0    0  0.84484720693E-01  0.56917272749E+01 -0.55530186514E+01  0.79522898239E+01  0.51100000000E-03 0. -1.
        -11    1    3    3    0    0 -0.31144865565E+02  0.18915786055E+02 -0.79160099075E+01  0.37289044319E+02  0.51100000000E-03 0.  1.
         12    1    3    3    0    0  0.23976242177E+02 -0.75370711612E+01  0.10453420903E+02  0.27220243187E+02  0.00000000000E+00 0. -1.
</event>
<event>
 7    1  0.1789107E-013  0.7246155E+02  0.7816164E-02  0.1226708E+00
        -11   -1    0    0    0    0  0.00000000000E+00  0.00000000000E+00  0.45593999997E+02  0.45594000000E+02  0.51100000000E-03 0.  1.
         11   -1    0    0    0    0 -0.00000000000E+00 -0.00000000000E+00 -0.45593999997E+02  0.45594000000E+02  0.51100000000E-03 0. -1.
    9900012    2    1    2    0    0  0.39818789893E+01  0.15721082889E+02 -0.93633386758E+01  0.72461550293E+02  0.69999973944E+02 0.  0.
        -12    1    1    2    0    0 -0.39818789893E+01 -0.15721082889E+02  0.93633386758E+01  0.18726449707E+02  0.00000000000E+00 0.  1.
         11    1    3    3    0    0  0.16532946825E+02  0.33145683434E+02 -0.88933563209E+01  0.38092866103E+02  0.51100000000E-03 0. -1.
        -11    1    3    3    0    0  0.83907348418E+01 -0.28978906296E+01  0.17466502405E-01  0.88770775949E+01  0.51100000000E-03 0.  1.
        -12    1    3    3    0    0 -0.20941802678E+02 -0.14526709916E+02 -0.48744885730E+00  0.25491606595E+02  0.00000000000E+00 0.  1.
</event>
<event>
 7    1  0.1789107E-013  0.7246176E+02  0.7816164E-02  0.1226708E+00
        -11   -1    0    0    0    0  0.00000000000E+00  0.00000000000E+00  0.45593999997E+02  0.45594000000E+02  0.51100000000E-03 0. -1.
         11   -1    0    0    0    0 -0.00000000000E+00 -0.00000000000E+00 -0.45593999997E+02  0.45594000000E+02  0.51100000000E-03 0.  1.
    9900012    2    1    2    0    0  0.11524941411E+02 -0.28659900002E+00  0.14756889639E+02  0.72461756241E+02  0.70000242229E+02 0.  0.
        -12    1    1    2    0    0 -0.11524941411E+02  0.28659900002E+00 -0.14756889639E+02  0.18726243759E+02  0.00000000000E+00 0.  1.
         11    1    3    3    0    0 -0.68864730167E+01  0.94094156798E+01 -0.34544578578E+01  0.12161163324E+02  0.51100000000E-03 0. -1.
        -11    1    3    3    0    0  0.29006441356E+02 -0.64488966789E+01 -0.88942863356E+01  0.31017257103E+02  0.51100000000E-03 0.  1.
         12    1    3    3    0    0 -0.10595026928E+02 -0.32471180009E+01  0.27105633833E+02  0.29283335814E+02  0.00000000000E+00 0. -1.
</event>
<event>
 7    1  0.1789107E-013  0.7246161E+02  0.7816164E-02  0.1226708E+00
        -11   -1    0    0    0    0  0.00000000000E+00  0.00000000000E+00  0.45593999997E+02  0.45594000000E+02  0.51100000000E-03 0. -1.
         11   -1    0    0    0    0 -0.00000000000E+00 -0.00000000000E+00 -0.45593999997E+02  0.45594000000E+02  0.51100000000E-03 0.  1.
    9900012    2    1    2    0    0  0.14555378700E+02 -0.39610232725E+00  0.11775470728E+02  0.72461610679E+02  0.70000052608E+02 0.  0.
        -12    1    1    2    0    0 -0.14555378700E+02  0.39610232725E+00 -0.11775470728E+02  0.18726389321E+02  0.00000000000E+00 0.  1.
         11    1    3    3    0    0  0.10267508284E+02 -0.72720440569E+01  0.16736806742E+02  0.20938601942E+02  0.51100000000E-03 0. -1.
        -11    1    3    3    0    0  0.11065511703E+02 -0.14330919587E+02 -0.18157769659E+02  0.25642258182E+02  0.51100000000E-03 0.  1.
         12    1    3    3    0    0 -0.67776412868E+01  0.21206861316E+02  0.13196433645E+02  0.25880750554E+02  0.00000000000E+00 0. -1.
</event>
<event>
 7    1  0.1789107E-013  0.7246139E+02  0.7816164E-02  0.1226708E+00
        -11   -1    0    0    0    0  0.00000000000E+00  0.00000000000E+00  0.45593999997E+02  0.45594000000E+02  0.51100000000E-03 0.  1.
         11   -1    0    0    0    0 -0.00000000000E+00 -0.00000000000E+00 -0.45593999997E+02  0.45594000000E+02  0.51100000000E-03 0. -1.
    9900012    2    1    2    0    0  0.92697345540E+01 -0.11816338852E+02 -0.11186236891E+02  0.72461394906E+02  0.69999771524E+02 0.  0.
        -12    1    1    2    0    0 -0.92697345540E+01  0.11816338852E+02  0.11186236891E+02  0.18726605094E+02  0.00000000000E+00 0.  1.
         11    1    3    3    0    0  0.95851037307E+00 -0.10993736552E+02 -0.14671155767E+02  0.18358207901E+02  0.51100000000E-03 0. -1.
        -11    1    3    3    0    0  0.18493435340E+02 -0.20411006581E+02  0.12512564781E+02  0.30251952301E+02  0.51100000000E-03 0.  1.
         12    1    3    3    0    0 -0.10182211159E+02  0.19588404281E+02 -0.90276459042E+01  0.23851234705E+02  0.00000000000E+00 0. -1.
</event>
<event>
 7    1  0.1789107E-013  0.7246146E+02  0.7816164E-02  0.1226708E+00
        -11   -1    0    0    0    0  0.00000000000E+00  0.00000000000E+00  0.45593999997E+02  0.45594000000E+02  0.51100000000E-03 0.  1.
         11   -1    0    0    0    0 -0.00000000000E+00 -0.00000000000E+00 -0.45593999997E+02  0.45594000000E+02  0.51100000000E-03 0. -1.
    9900012    2    1    2    0    0  0.12664372440E+02 -0.12793980509E+02  0.51585837655E+01  0.72461461264E+02  0.69999857967E+02 0.  0.
        -12    1    1    2    0    0 -0.12664372440E+02  0.12793980509E+02 -0.51585837655E+01  0.18726538736E+02  0.00000000000E+00 0.  1.
         11    1    3    3    0    0  0.85612296808E+01  0.12450687123E+02 -0.12818420011E+02  0.19814796373E+02  0.51100000000E-03 0. -1.
        -11    1    3    3    0    0  0.12653152921E+02  0.51642932266E+01 -0.39124700310E+01  0.14215471338E+02  0.51100000000E-03 0.  1.
        -12    1    3    3    0    0 -0.85500101614E+01 -0.30408960859E+02  0.21889473807E+02  0.38431193552E+02  0.00000000000E+00 0.  1.
</event>
<event>
 7    1  0.1789107E-013  0.7246159E+02  0.7816164E-02  0.1226708E+00
        -11   -1    0    0    0    0  0.00000000000E+00  0.00000000000E+00  0.45593999997E+02  0.45594000000E+02  0.51100000000E-03 0. -1.
         11   -1    0    0    0    0 -0.00000000000E+00 -0.00000000000E+00 -0.45593999997E+02  0.45594000000E+02  0.51100000000E-03 0.  1.
    9900012    2    1    2    0    0 -0.16889655632E+02 -0.49184837610E+01  0.64207911441E+01  0.72461587936E+02  0.70000022981E+02 0.  0.
        -12    1    1    2    0    0  0.16889655632E+02  0.49184837610E+01 -0.64207911441E+01  0.18726412064E+02  0.00000000000E+00 0.  1.
         11    1    3    3    0    0 -0.11452846821E+01  0.49259769874E+01  0.14656546162E+02  0.15504556490E+02  0.51100000000E-03 0. -1.
        -11    1    3    3    0    0 -0.57518467810E+01  0.21841635321E+02  0.54159938592E+00  0.22592788784E+02  0.51100000000E-03 0.  1.
        -12    1    3    3    0    0 -0.99925241693E+01 -0.31686096069E+02 -0.87773544038E+01  0.34364242662E+02  0.00000000000E+00 0.  1.
</event>
<event>
 7    1  0.1789107E-013  0.7246157E+02  0.7816164E-02  0.1226708E+00
        -11   -1    0    0    0    0  0.00000000000E+00  0.00000000000E+00  0.45593999997E+02  0.45594000000E+02  0.51100000000E-03 0.  1.
         11   -1    0    0    0    0 -0.00000000000E+00 -0.00000000000E+00 -0.45593999997E+02  0.45594000000E+02  0.51100000000E-03 0. -1.
    9900012    2    1    2    0    0 -0.12763105169E+02 -0.11945306050E+02 -0.67150637014E+01  0.72461567593E+02  0.69999996481E+02 0.  0.
        -12    1    1    2    0    0  0.12763105169E+02  0.11945306050E+02  0.67150637014E+01  0.18726432407E+02  0.00000000000E+00 0.  1.
         11    1    3    3    0    0 -0.21887394270E+02 -0.25934185858E+01 -0.14918083397E+02  0.26614527244E+02  0.51100000000E-03 0. -1.
        -11    1    3    3    0    0 -0.84701199465E+01  0.75125195813E+01 -0.10254219002E+02  0.15275139606E+02  0.51100000000E-03 0.  1.
        -12    1    3    3    0    0  0.17594409048E+02 -0.16864407046E+02  0.18457238697E+02  0.30571900744E+02  0.00000000000E+00 0.  1.
</event>
<event>
 7    1  0.1789107E-013  0.7246156E+02  0.7816164E-02  0.1226708E+00
        -11   -1    0    0    0    0  0.00000000000E+00  0.00000000000E+00  0.45593999997E+02  0.45594000000E+02  0.51100000000E-03 0.  1.
         11   -1    0    0    0    0 -0.00000000000E+00 -0.00000000000E+00 -0.45593999997E+02  0.45594000000E+02  0.51100000000E-03 0. -1.
    9900012    2    1    2    0    0 -0.80212391430E+01 -0.14569408033E+02 -0.86064836250E+01  0.72461561785E+02  0.69999988915E+02 0.  0.
        -12    1    1    2    0    0  0.80212391430E+01  0.14569408033E+02  0.86064836250E+01  0.18726438215E+02  0.00000000000E+00 0.  1.
         11    1    3    3    0    0 -0.24089434907E+00 -0.73858164333E+00  0.13770271742E+02  0.13792168685E+02  0.51100000000E-03 0. -1.
        -11    1    3    3    0    0  0.17908128149E+02 -0.20896705923E+02 -0.12875186093E+02  0.30383281413E+02  0.51100000000E-03 0.  1.
         12    1    3    3    0    0 -0.25688472943E+02  0.70658795330E+01 -0.95015692740E+01  0.28286111687E+02  0.00000000000E+00 0. -1.
</event>
<event>
 7    1  0.1789107E-013  0.7246145E+02  0.7816164E-02  0.1226708E+00
        -11   -1    0    0    0    0  0.00000000000E+00  0.00000000000E+00  0.45593999997E+02  0.45594000000E+02  0.51100000000E-03 0.  1.
         11   -1    0    0    0    0 -0.00000000000E+00 -0.00000000000E+00 -0.45593999997E+02  0.45594000000E+02  0.51100000000E-03 0. -1.
    9900012    2    1    2    0    0 -0.76169110149E+00  0.37300366591E+01 -0.18335491500E+02  0.72461452124E+02  0.69999846061E+02 0.  0.
        -12    1    1    2    0    0  0.76169110149E+00 -0.37300366591E+01  0.18335491500E+02  0.18726547876E+02  0.00000000000E+00 0.  1.
         11    1    3    3    0    0 -0.19699491379E+01 -0.53934885264E+01  0.83928929167E+01  0.10169123358E+02  0.51100000000E-03 0. -1.
        -11    1    3    3    0    0 -0.79166995534E+01  0.86235541138E+01  0.15309673356E+02  0.19272413339E+02  0.51100000000E-03 0.  1.
         12    1    3    3    0    0  0.91249575899E+01  0.49997107167E+00 -0.42038057773E+02  0.43019915427E+02  0.00000000000E+00 0. -1.
</event>
<event>
 7    1  0.1789107E-013  0.7246192E+02  0.7816164E-02  0.1226707E+00
        -11   -1    0    0    0    0  0.00000000000E+00  0.00000000000E+00  0.45593999997E+02  0.45594000000E+02  0.51100000000E-03 0.  1.
         11   -1    0    0    0    0 -0.00000000000E+00 -0.00000000000E+00 -0.45593999997E+02  0.45594000000E+02  0.51100000000E-03 0. -1.
    9900012    2    1    2    0    0 -0.16798826170E+02  0.26159745635E+01 -0.78499832131E+01  0.72461918721E+02  0.70000453889E+02 0.  0.
        -12    1    1    2    0    0  0.16798826170E+02 -0.26159745635E+01  0.78499832131E+01  0.18726081279E+02  0.00000000000E+00 0.  1.
         11    1    3    3    0    0 -0.13821804710E+02 -0.20388008484E+02 -0.18656753008E+02  0.30899637675E+02  0.51100000000E-03 0. -1.
        -11    1    3    3    0    0  0.12147176766E+01 -0.50026364430E+00 -0.98829021232E+01  0.99698323650E+01  0.51100000000E-03 0.  1.
        -12    1    3    3    0    0 -0.41917391367E+01  0.23504246692E+02  0.20689671918E+02  0.31592448681E+02  0.00000000000E+00 0.  1.
</event>
<event>
 7    1  0.1789107E-013  0.7246157E+02  0.7816164E-02  0.1226708E+00
        -11   -1    0    0    0    0  0.00000000000E+00  0.00000000000E+00  0.45593999997E+02  0.45594000000E+02  0.51100000000E-03 0. -1.
         11   -1    0    0    0    0 -0.00000000000E+00 -0.00000000000E+00 -0.45593999997E+02  0.45594000000E+02  0.51100000000E-03 0.  1.
    9900012    2    1    2    0    0 -0.14382785044E+02 -0.11759688097E+02 -0.23503701306E+01  0.72461574567E+02  0.70000005566E+02 0.  0.
        -12    1    1    2    0    0  0.14382785044E+02  0.11759688097E+02  0.23503701306E+01  0.18726425433E+02  0.00000000000E+00 0.  1.
         11    1    3    3    0    0  0.14356694627E+02 -0.10905952145E+02  0.24760575977E+02  0.30629080884E+02  0.51100000000E-03 0. -1.
        -11    1    3    3    0    0  0.83939279686E-01  0.21536666245E+01 -0.10325448034E-01  0.21553265665E+01  0.51100000000E-03 0.  1.
        -12    1    3    3    0    0 -0.28823418951E+02 -0.30074025762E+01 -0.27100620660E+02  0.39677167117E+02  0.00000000000E+00 0.  1.
</event>
<event>
 7    1  0.1789107E-013  0.7246155E+02  0.7816164E-02  0.1226708E+00
        -11   -1    0    0    0    0  0.00000000000E+00  0.00000000000E+00  0.45593999997E+02  0.45594000000E+02  0.51100000000E-03 0. -1.
         11   -1    0    0    0    0 -0.00000000000E+00 -0.00000000000E+00 -0.45593999997E+02  0.45594000000E+02  0.51100000000E-03 0.  1.
    9900012    2    1    2    0    0  0.51846530220E+01 -0.17835613235E+02 -0.23854179448E+01  0.72461549584E+02  0.69999973021E+02 0.  0.
        -12    1    1    2    0    0 -0.51846530220E+01  0.17835613235E+02  0.23854179448E+01  0.18726450416E+02  0.00000000000E+00 0.  1.
         11    1    3    3    0    0  0.28535552113E+02 -0.14346147256E+02 -0.88252283447E+01  0.33135695723E+02  0.51100000000E-03 0. -1.
        -11    1    3    3    0    0 -0.37458599253E+01  0.28091733481E+01  0.15965077121E+02  0.16637506099E+02  0.51100000000E-03 0.  1.
        -12    1    3    3    0    0 -0.19605039165E+02 -0.62986393270E+01 -0.95252667207E+01  0.22688347761E+02  0.00000000000E+00 0.  1.
</event>
<event>
 7    1  0.1789107E-013  0.7246157E+02  0.7816164E-02  0.1226708E+00
        -11   -1    0    0    0    0  0.00000000000E+00  0.00000000000E+00  0.45593999997E+02  0.45594000000E+02  0.51100000000E-03 0.  1.
         11   -1    0    0    0    0 -0.00000000000E+00 -0.00000000000E+00 -0.45593999997E+02  0.45594000000E+02  0.51100000000E-03 0. -1.
    9900012    2    1    2    0    0 -0.53793230837E+01  0.16719780760E+02  0.64954492236E+01  0.72461573589E+02  0.70000004292E+02 0.  0.
        -12    1    1    2    0    0  0.53793230837E+01 -0.16719780760E+02 -0.64954492236E+01  0.18726426411E+02  0.00000000000E+00 0.  1.
         11    1    3    3    0    0 -0.17083582258E+02  0.30694849885E+02 -0.14129545426E+02  0.37863790703E+02  0.51100000000E-03 0. -1.
        -11    1    3    3    0    0  0.56163792081E+00  0.12996847253E+01  0.14723076722E+02  0.14790997463E+02  0.51100000000E-03 0.  1.
        -12    1    3    3    0    0  0.11142621253E+02 -0.15274753850E+02  0.59019179283E+01  0.19806785423E+02  0.00000000000E+00 0.  1.
</event>
<event>
 7    1  0.1789107E-013  0.7246149E+02  0.7816164E-02  0.1226708E+00
        -11   -1    0    0    0    0  0.00000000000E+00  0.00000000000E+00  0.45593999997E+02  0.45594000000E+02  0.51100000000E-03 0.  1.
         11   -1    0    0    0    0 -0.00000000000E+00 -0.00000000000E+00 -0.45593999997E+02  0.45594000000E+02  0.51100000000E-03 0. -1.
    9900012    2    1    2    0    0  0.11938645276E+02  0.89435353751E+01 -0.11320958191E+02  0.72461490171E+02  0.69999895624E+02 0.  0.
        -12    1    1    2    0    0 -0.11938645276E+02 -0.89435353751E+01  0.11320958191E+02  0.18726509829E+02  0.00000000000E+00 0.  1.
         11    1    3    3    0    0  0.11749225218E+02 -0.47140288675E+01  0.22177870880E+02  0.25536724897E+02  0.51100000000E-03 0. -1.
        -11    1    3    3    0    0  0.60929530887E+01 -0.73551737431E+01 -0.43115372024E+01  0.10479122646E+02  0.51100000000E-03 0.  1.
         12    1    3    3    0    0 -0.59035330314E+01  0.21012737986E+02 -0.29187291869E+02  0.36445642628E+02  0.00000000000E+00 0. -1.
</event>
<event>
 7    1  0.1789107E-013  0.7246152E+02  0.7816164E-02  0.1226708E+00
        -11   -1    0    0    0    0  0.00000000000E+00  0.00000000000E+00  0.45593999997E+02  0.45594000000E+02  0.51100000000E-03 0.  1.
         11   -1    0    0    0    0 -0.00000000000E+00 -0.00000000000E+00 -0.45593999997E+02  0.45594000000E+02  0.51100000000E-03 0. -1.
    9900012    2    1    2    0    0 -0.13346536884E+02 -0.48222883050E+01 -0.12218690441E+02  0.72461523893E+02  0.69999939554E+02 0.  0.
        -12    1    1    2    0    0  0.13346536884E+02  0.48222883050E+01  0.12218690441E+02  0.18726476107E+02  0.00000000000E+00 0.  1.
         11    1    3    3    0    0  0.65616518195E+00  0.41189183158E+01  0.84069958273E+01  0.93847546553E+01  0.51100000000E-03 0. -1.
        -11    1    3    3    0    0  0.16784237695E+02  0.58369599437E+01  0.70526621756E+01  0.19118597763E+02  0.51100000000E-03 0.  1.
         12    1    3    3    0    0 -0.30786939761E+02 -0.14778166564E+02 -0.27678348443E+02  0.43958171475E+02  0.00000000000E+00 0. -1.
</event>
<event>
 7    1  0.1789107E-013  0.7246157E+02  0.7816164E-02  0.1226708E+00
        -11   -1    0    0    0    0  0.00000000000E+00  0.00000000000E+00  0.45593999997E+02  0.45594000000E+02  0.51100000000E-03 0.  1.
         11   -1    0    0    0    0 -0.00000000000E+00 -0.00000000000E+00 -0.45593999997E+02  0.45594000000E+02  0.51100000000E-03 0. -1.
    9900012    2    1    2    0    0 -0.36243484205E+01 -0.18288538941E+02 -0.17529069044E+01  0.72461568394E+02  0.69999997524E+02 0.  0.
        -12    1    1    2    0    0  0.36243484205E+01  0.18288538941E+02  0.17529069044E+01  0.18726431606E+02  0.00000000000E+00 0.  1.
         11    1    3    3    0    0  0.28207422251E+02 -0.16932451829E+02 -0.86289913101E+01  0.34012146158E+02  0.51100000000E-03 0. -1.
        -11    1    3    3    0    0 -0.16738553979E+02 -0.68514056770E+01  0.11863842594E+02  0.21630342356E+02  0.51100000000E-03 0.  1.
        -12    1    3    3    0    0 -0.15093216693E+02  0.54953185640E+01 -0.49877581886E+01  0.16819079880E+02  0.00000000000E+00 0.  1.
</event>
<event>
 7    1  0.1789107E-013  0.7246157E+02  0.7816164E-02  0.1226708E+00
        -11   -1    0    0    0    0  0.00000000000E+00  0.00000000000E+00  0.45593999997E+02  0.45594000000E+02  0.51100000000E-03 0.  1.
         11   -1    0    0    0    0 -0.00000000000E+00 -0.00000000000E+00 -0.45593999997E+02  0.45594000000E+02  0.51100000000E-03 0. -1.
    9900012    2    1    2    0    0 -0.23915474617E+01 -0.16974214754E+02 -0.75389523685E+01  0.72461567649E+02  0.69999996554E+02 0.  0.
        -12    1    1    2    0    0  0.23915474617E+01  0.16974214754E+02  0.75389523685E+01  0.18726432351E+02  0.00000000000E+00 0.  1.
         11    1    3    3    0    0  0.22551177602E+02 -0.17803001446E+02 -0.21467883790E+02  0.35866035555E+02  0.51100000000E-03 0. -1.
        -11    1    3    3    0    0 -0.51149260354E+01 -0.86700690951E+01  0.10135512890E+02  0.14284998714E+02  0.51100000000E-03 0.  1.
        -12    1    3    3    0    0 -0.19827799028E+02  0.94988557871E+01  0.37934185317E+01  0.22310533380E+02  0.00000000000E+00 0.  1.
</event>
<event>
 7    1  0.1789107E-013  0.7246156E+02  0.7816164E-02  0.1226708E+00
        -11   -1    0    0    0    0  0.00000000000E+00  0.00000000000E+00  0.45593999997E+02  0.45594000000E+02  0.51100000000E-03 0.  1.
         11   -1    0    0    0    0 -0.00000000000E+00 -0.00000000000E+00 -0.45593999997E+02  0.45594000000E+02  0.51100000000E-03 0. -1.
    9900012    2    1    2    0    0  0.18042277598E+02 -0.42103454076E+01  0.27255943690E+01  0.72461557358E+02  0.69999983148E+02 0.  0.
        -12    1    1    2    0    0 -0.18042277598E+02  0.42103454076E+01 -0.27255943690E+01  0.18726442642E+02  0.00000000000E+00 0.  1.
         11    1    3    3    0    0  0.25170938920E+02 -0.20350121912E+01  0.57163099049E+01  0.25891960913E+02  0.51100000000E-03 0. -1.
        -11    1    3    3    0    0  0.67241532795E+01 -0.19805888735E+02  0.69532453860E+01  0.22041667077E+02  0.51100000000E-03 0.  1.
        -12    1    3    3    0    0 -0.13852814601E+02  0.17630555518E+02 -0.99439609219E+01  0.24527929368E+02  0.00000000000E+00 0.  1.
</event>
<event>
 7    1  0.1789107E-013  0.7246154E+02  0.7816164E-02  0.1226708E+00
        -11   -1    0    0    0    0  0.00000000000E+00  0.00000000000E+00  0.45593999997E+02  0.45594000000E+02  0.51100000000E-03 0.  1.
         11   -1    0    0    0    0 -0.00000000000E+00 -0.00000000000E+00 -0.45593999997E+02  0.45594000000E+02  0.51100000000E-03 0. -1.
    9900012    2    1    2    0    0  0.16219462690E+02  0.93064665161E+01  0.99959190673E+00  0.72461535492E+02  0.69999954664E+02 0.  0.
        -12    1    1    2    0    0 -0.16219462690E+02 -0.93064665161E+01 -0.99959190673E+00  0.18726464508E+02  0.00000000000E+00 0.  1.
         11    1    3    3    0    0 -0.27670771931E+01  0.24270393380E+01  0.56969669188E+00  0.37244852963E+01  0.51100000000E-03 0. -1.
        -11    1    3    3    0    0 -0.20940729055E+02  0.17641278126E+02  0.44844187271E+00  0.27384848505E+02  0.51100000000E-03 0.  1.
         12    1    3    3    0    0  0.39927268938E+02 -0.10761850948E+02 -0.18546657856E-01  0.41352201691E+02  0.00000000000E+00 0. -1.
</event>
<event>
 7    1  0.1789107E-013  0.7246170E+02  0.7816164E-02  0.1226708E+00
        -11   -1    0    0    0    0  0.00000000000E+00  0.00000000000E+00  0.45593999997E+02  0.45594000000E+02  0.51100000000E-03 0.  1.
         11   -1    0    0    0    0 -0.00000000000E+00 -0.00000000000E+00 -0.45593999997E+02  0.45594000000E+02  0.51100000000E-03 0. -1.
    9900012    2    1    2    0    0 -0.63456870225E+01 -0.15474099721E+02 -0.84236956557E+01  0.72461704198E+02  0.70000174434E+02 0.  0.
        -12    1    1    2    0    0  0.63456870225E+01  0.15474099721E+02  0.84236956557E+01  0.18726295802E+02  0.00000000000E+00 0.  1.
         11    1    3    3    0    0 -0.11559025141E+02  0.65664369143E+01 -0.57236094892E+01  0.14473730059E+02  0.51100000000E-03 0. -1.
        -11    1    3    3    0    0 -0.22066756953E+02 -0.19173370324E+02  0.46248677161E+01  0.29596440557E+02  0.51100000000E-03 0.  1.
         12    1    3    3    0    0  0.27280095071E+02 -0.28671663112E+01 -0.73249538826E+01  0.28391533582E+02  0.00000000000E+00 0. -1.
</event>
<event>
 7    1  0.1789107E-013  0.7246158E+02  0.7816164E-02  0.1226708E+00
        -11   -1    0    0    0    0  0.00000000000E+00  0.00000000000E+00  0.45593999997E+02  0.45594000000E+02  0.51100000000E-03 0.  1.
         11   -1    0    0    0    0 -0.00000000000E+00 -0.00000000000E+00 -0.45593999997E+02  0.45594000000E+02  0.51100000000E-03 0. -1.
    9900012    2    1    2    0    0  0.46932541511E+01 -0.96846544719E+01 -0.15325134607E+02  0.72461577024E+02  0.70000008767E+02 0.  0.
        -12    1    1    2    0    0 -0.46932541511E+01  0.96846544719E+01  0.15325134607E+02  0.18726422976E+02  0.00000000000E+00 0.  1.
         11    1    3    3    0    0  0.22307230619E+01 -0.52903046843E+01 -0.18416023509E+02  0.19290240309E+02  0.51100000000E-03 0. -1.
        -11    1    3    3    0    0  0.21616107586E+02 -0.73166294965E+00 -0.15199671017E+02  0.26435230983E+02  0.51100000000E-03 0.  1.
         12    1    3    3    0    0 -0.19153576497E+02 -0.36626868380E+01  0.18290559920E+02  0.26736105731E+02  0.00000000000E+00 0. -1.
</event>
<event>
 7    1  0.1789107E-013  0.7246152E+02  0.7816164E-02  0.1226708E+00
        -11   -1    0    0    0    0  0.00000000000E+00  0.00000000000E+00  0.45593999997E+02  0.45594000000E+02  0.51100000000E-03 0.  1.
         11   -1    0    0    0    0 -0.00000000000E+00 -0.00000000000E+00 -0.45593999997E+02  0.45594000000E+02  0.51100000000E-03 0. -1.
    9900012    2    1    2    0    0 -0.60326770139E+01  0.14739320405E+02 -0.98509065674E+01  0.72461518266E+02  0.69999932223E+02 0.  0.
        -12    1    1    2    0    0  0.60326770139E+01 -0.14739320405E+02  0.98509065674E+01  0.18726481734E+02  0.00000000000E+00 0.  1.
         11    1    3    3    0    0  0.13175808007E+02 -0.26252782957E+01 -0.48730151273E+01  0.14291265845E+02  0.51100000000E-03 0. -1.
        -11    1    3    3    0    0 -0.13640233156E+02 -0.13734256353E+02  0.11523266445E+02  0.22527126491E+02  0.51100000000E-03 0.  1.
         12    1    3    3    0    0 -0.55682518654E+01  0.31098855053E+02 -0.16501157886E+02  0.35643125929E+02  0.00000000000E+00 0. -1.
</event>
<event>
 7    1  0.1789107E-013  0.7246169E+02  0.7816164E-02  0.1226708E+00
        -11   -1    0    0    0    0  0.00000000000E+00  0.00000000000E+00  0.45593999997E+02  0.45594000000E+02  0.51100000000E-03 0.  1.
         11   -1    0    0    0    0 -0.00000000000E+00 -0.00000000000E+00 -0.45593999997E+02  0.45594000000E+02  0.51100000000E-03 0. -1.
    9900012    2    1    2    0    0 -0.37618884718E+01  0.90226795747E+00 -0.18322355870E+02  0.72461691849E+02  0.70000158347E+02 0.  0.
        -12    1    1    2    0    0  0.37618884718E+01 -0.90226795747E+00  0.18322355870E+02  0.18726308151E+02  0.00000000000E+00 0.  1.
         11    1    3    3    0    0 -0.75113965132E+01  0.20972172161E+02  0.61321372052E+01  0.23105328166E+02  0.51100000000E-03 0.  1.
        -11    1    3    3    0    0  0.12362279931E+02  0.70795919897E+00  0.40668475242E+01  0.13033281259E+02  0.51100000000E-03 0. -1.
         12    1    3    3    0    0 -0.86127718900E+01 -0.20777863402E+02 -0.28521340599E+02  0.36323082424E+02  0.00000000000E+00 0. -1.
</event>
<event>
 7    1  0.1789107E-013  0.7246153E+02  0.7816164E-02  0.1226708E+00
        -11   -1    0    0    0    0  0.00000000000E+00  0.00000000000E+00  0.45593999997E+02  0.45594000000E+02  0.51100000000E-03 0.  1.
         11   -1    0    0    0    0 -0.00000000000E+00 -0.00000000000E+00 -0.45593999997E+02  0.45594000000E+02  0.51100000000E-03 0. -1.
    9900012    2    1    2    0    0 -0.29056176140E+01 -0.39791382518E+01 -0.18066669982E+02  0.72461528918E+02  0.69999946099E+02 0.  0.
        -12    1    1    2    0    0  0.29056176140E+01  0.39791382518E+01  0.18066669982E+02  0.18726471082E+02  0.00000000000E+00 0.  1.
         11    1    3    3    0    0  0.45041083065E+01 -0.11467538679E+02 -0.31461450860E+02  0.33787783672E+02  0.51100000000E-03 0. -1.
        -11    1    3    3    0    0 -0.12923150817E+02  0.89050509855E+01 -0.72287820918E+01  0.17278977136E+02  0.51100000000E-03 0.  1.
        -12    1    3    3    0    0  0.55134248960E+01 -0.14166505581E+01  0.20623562970E+02  0.21394768109E+02  0.00000000000E+00 0.  1.
</event>
<event>
 7    1  0.1789107E-013  0.7246158E+02  0.7816164E-02  0.1226708E+00
        -11   -1    0    0    0    0  0.00000000000E+00  0.00000000000E+00  0.45593999997E+02  0.45594000000E+02  0.51100000000E-03 0.  1.
         11   -1    0    0    0    0 -0.00000000000E+00 -0.00000000000E+00 -0.45593999997E+02  0.45594000000E+02  0.51100000000E-03 0. -1.
    9900012    2    1    2    0    0  0.73324114250E+01 -0.11023248812E+02 -0.13243960964E+02  0.72461580863E+02  0.70000013768E+02 0.  0.
        -12    1    1    2    0    0 -0.73324114250E+01  0.11023248812E+02  0.13243960964E+02  0.18726419137E+02  0.00000000000E+00 0.  1.
         11    1    3    3    0    0 -0.16106896894E+02 -0.28466727990E+02 -0.21284214153E+02  0.39023127788E+02  0.51100000000E-03 0. -1.
        -11    1    3    3    0    0 -0.11344468204E+01  0.21754440744E+01 -0.16171539340E+01  0.29384883217E+01  0.51100000000E-03 0.  1.
        -12    1    3    3    0    0  0.24573755140E+02  0.15268035104E+02  0.96574071227E+01  0.30499964753E+02  0.00000000000E+00 0.  1.
</event>
<event>
 7    1  0.1789107E-013  0.7246162E+02  0.7816164E-02  0.1226708E+00
        -11   -1    0    0    0    0  0.00000000000E+00  0.00000000000E+00  0.45593999997E+02  0.45594000000E+02  0.51100000000E-03 0. -1.
         11   -1    0    0    0    0 -0.00000000000E+00 -0.00000000000E+00 -0.45593999997E+02  0.45594000000E+02  0.51100000000E-03 0.  1.
    9900012    2    1    2    0    0  0.12829117428E+02  0.13141176430E+02 -0.36606678823E+01  0.72461621244E+02  0.70000066372E+02 0.  0.
        -12    1    1    2    0    0 -0.12829117428E+02 -0.13141176430E+02  0.36606678823E+01  0.18726378756E+02  0.00000000000E+00 0.  1.
         11    1    3    3    0    0  0.39088215130E+02  0.16766635016E+02  0.48902787221E+01  0.42812655115E+02  0.51100000000E-03 0. -1.
        -11    1    3    3    0    0 -0.13604086299E+01  0.12008026339E+01 -0.32746866659E+01  0.37438231298E+01  0.51100000000E-03 0.  1.
        -12    1    3    3    0    0 -0.24898689072E+02 -0.48262612194E+01 -0.52762599385E+01  0.25905142999E+02  0.00000000000E+00 0.  1.
</event>
<event>
 7    1  0.1789107E-013  0.7246159E+02  0.7816164E-02  0.1226708E+00
        -11   -1    0    0    0    0  0.00000000000E+00  0.00000000000E+00  0.45593999997E+02  0.45594000000E+02  0.51100000000E-03 0.  1.
         11   -1    0    0    0    0 -0.00000000000E+00 -0.00000000000E+00 -0.45593999997E+02  0.45594000000E+02  0.51100000000E-03 0. -1.
    9900012    2    1    2    0    0 -0.11359970176E+02 -0.10811092336E+02 -0.10234736566E+02  0.72461588906E+02  0.70000024245E+02 0.  0.
        -12    1    1    2    0    0  0.11359970176E+02  0.10811092336E+02  0.10234736566E+02  0.18726411094E+02  0.00000000000E+00 0.  1.
         11    1    3    3    0    0 -0.16904732855E+02 -0.42818951481E+01 -0.22957345610E+02  0.28829573994E+02  0.51100000000E-03 0. -1.
        -11    1    3    3    0    0  0.12735120817E+02 -0.12846944886E+02 -0.87708799909E+01  0.20103622340E+02  0.51100000000E-03 0.  1.
         12    1    3    3    0    0 -0.71903581367E+01  0.63177476982E+01  0.21493489035E+02  0.23528392572E+02  0.00000000000E+00 0. -1.
</event>
<event>
 7    1  0.1789107E-013  0.7246158E+02  0.7816164E-02  0.1226708E+00
        -11   -1    0    0    0    0  0.00000000000E+00  0.00000000000E+00  0.45593999997E+02  0.45594000000E+02  0.51100000000E-03 0. -1.
         11   -1    0    0    0    0 -0.00000000000E+00 -0.00000000000E+00 -0.45593999997E+02  0.45594000000E+02  0.51100000000E-03 0.  1.
    9900012    2    1    2    0    0 -0.84502087330E+01  0.57389596858E+01  0.15695130155E+02  0.72461580254E+02  0.70000012975E+02 0.  0.
        -12    1    1    2    0    0  0.84502087330E+01 -0.57389596858E+01 -0.15695130155E+02  0.18726419746E+02  0.00000000000E+00 0.  1.
         11    1    3    3    0    0 -0.22284069754E+01  0.18791707149E+02  0.16226257292E+02  0.24927604802E+02  0.51100000000E-03 0. -1.
        -11    1    3    3    0    0  0.91534046223E+01 -0.13521697987E+02  0.17431726180E+02  0.23884853161E+02  0.51100000000E-03 0.  1.
        -12    1    3    3    0    0 -0.15375206380E+02  0.46895052419E+00 -0.17962853318E+02  0.23649122291E+02  0.00000000000E+00 0.  1.
</event>
<event>
 7    1  0.1789107E-013  0.7246152E+02  0.7816164E-02  0.1226708E+00
        -11   -1    0    0    0    0  0.00000000000E+00  0.00000000000E+00  0.45593999997E+02  0.45594000000E+02  0.51100000000E-03 0. -1.
         11   -1    0    0    0    0 -0.00000000000E+00 -0.00000000000E+00 -0.45593999997E+02  0.45594000000E+02  0.51100000000E-03 0.  1.
    9900012    2    1    2    0    0 -0.13623454293E+02  0.10814973975E+01  0.12802848499E+02  0.72461519467E+02  0.69999933787E+02 0.  0.
        -12    1    1    2    0    0  0.13623454293E+02 -0.10814973975E+01 -0.12802848499E+02  0.18726480533E+02  0.00000000000E+00 0.  1.
         11    1    3    3    0    0  0.28358128816E+01  0.18297160677E+02 -0.13317583969E+01  0.18563445376E+02  0.51100000000E-03 0. -1.
        -11    1    3    3    0    0  0.30217773509E+01  0.14462105334E+02  0.29728902898E+01  0.15070557587E+02  0.51100000000E-03 0.  1.
         12    1    3    3    0    0 -0.19481044525E+02 -0.31677768614E+02  0.11161716606E+02  0.38827516503E+02  0.00000000000E+00 0. -1.
</event>
<event>
 7    1  0.1789107E-013  0.7246153E+02  0.7816164E-02  0.1226708E+00
        -11   -1    0    0    0    0  0.00000000000E+00  0.00000000000E+00  0.45593999997E+02  0.45594000000E+02  0.51100000000E-03 0.  1.
         11   -1    0    0    0    0 -0.00000000000E+00 -0.00000000000E+00 -0.45593999997E+02  0.45594000000E+02  0.51100000000E-03 0. -1.
    9900012    2    1    2    0    0  0.36384372045E+01  0.15318719546E+02 -0.10138014500E+02  0.72461528581E+02  0.69999945660E+02 0.  0.
        -12    1    1    2    0    0 -0.36384372045E+01 -0.15318719546E+02  0.10138014500E+02  0.18726471419E+02  0.00000000000E+00 0.  1.
         11    1    3    3    0    0 -0.86622726343E+00  0.21280111175E+02 -0.28226617696E+01  0.21483968465E+02  0.51100000000E-03 0. -1.
        -11    1    3    3    0    0 -0.61378932913E+01  0.11279823620E+02  0.15720615075E+02  0.20298913606E+02  0.51100000000E-03 0.  1.
         12    1    3    3    0    0  0.10642557759E+02 -0.17241215249E+02 -0.23035967806E+02  0.30678646510E+02  0.00000000000E+00 0. -1.
</event>
<event>
 7    1  0.1789107E-013  0.7246159E+02  0.7816164E-02  0.1226708E+00
        -11   -1    0    0    0    0  0.00000000000E+00  0.00000000000E+00  0.45593999997E+02  0.45594000000E+02  0.51100000000E-03 0. -1.
         11   -1    0    0    0    0 -0.00000000000E+00 -0.00000000000E+00 -0.45593999997E+02  0.45594000000E+02  0.51100000000E-03 0.  1.
    9900012    2    1    2    0    0 -0.87757958133E+01 -0.16086327522E+02  0.38592388972E+01  0.72461594841E+02  0.70000031976E+02 0.  0.
        -12    1    1    2    0    0  0.87757958133E+01  0.16086327522E+02 -0.38592388972E+01  0.18726405159E+02  0.00000000000E+00 0.  1.
         11    1    3    3    0    0 -0.81337826295E+01 -0.56951745097E+01 -0.59448499080E+01  0.11573014873E+02  0.51100000000E-03 0. -1.
        -11    1    3    3    0    0 -0.10030305465E+02  0.74471374870E+01 -0.20787560071E+02  0.24252619207E+02  0.51100000000E-03 0.  1.
         12    1    3    3    0    0  0.93882922806E+01 -0.17838290500E+02  0.30591648876E+02  0.36635960761E+02  0.00000000000E+00 0. -1.
</event>
<event>
 7    1  0.1789107E-013  0.7246158E+02  0.7816164E-02  0.1226708E+00
        -11   -1    0    0    0    0  0.00000000000E+00  0.00000000000E+00  0.45593999997E+02  0.45594000000E+02  0.51100000000E-03 0.  1.
         11   -1    0    0    0    0 -0.00000000000E+00 -0.00000000000E+00 -0.45593999997E+02  0.45594000000E+02  0.51100000000E-03 0. -1.
    9900012    2    1    2    0    0  0.16595132479E+02 -0.85155070814E+01 -0.16632354519E+01  0.72461584565E+02  0.70000018591E+02 0.  0.
        -12    1    1    2    0    0 -0.16595132479E+02  0.85155070814E+01  0.16632354519E+01  0.18726415435E+02  0.00000000000E+00 0.  1.
         11    1    3    3    0    0  0.43962248812E+01 -0.16322804321E+02 -0.95323021159E+01  0.19406842041E+02  0.51100000000E-03 0. -1.
        -11    1    3    3    0    0  0.93217454593E+01 -0.21015723726E+02 -0.17964114499E+00  0.22991038544E+02  0.51100000000E-03 0.  1.
        -12    1    3    3    0    0  0.28771621387E+01  0.28823020966E+02  0.80487078090E+01  0.30063703980E+02  0.00000000000E+00 0.  1.
</event>
<event>
 7    1  0.1789107E-013  0.7246173E+02  0.7816164E-02  0.1226708E+00
        -11   -1    0    0    0    0  0.00000000000E+00  0.00000000000E+00  0.45593999997E+02  0.45594000000E+02  0.51100000000E-03 0.  1.
         11   -1    0    0    0    0 -0.00000000000E+00 -0.00000000000E+00 -0.45593999997E+02  0.45594000000E+02  0.51100000000E-03 0. -1.
    9900012    2    1    2    0    0  0.26177786644E+00  0.17797974077E+02  0.58169302059E+01  0.72461732729E+02  0.70000211601E+02 0.  0.
        -12    1    1    2    0    0 -0.26177786644E+00 -0.17797974077E+02 -0.58169302059E+01  0.18726267271E+02  0.00000000000E+00 0.  1.
         11    1    3    3    0    0  0.11430786651E+02 -0.89358663814E+01  0.83706601184E+01  0.16750538574E+02  0.51100000000E-03 0. -1.
        -11    1    3    3    0    0 -0.48658596001E+01 -0.47563381281E+01  0.16862218048E+02  0.18183336872E+02  0.51100000000E-03 0.  1.
         12    1    3    3    0    0 -0.63031491843E+01  0.31490178586E+02 -0.19415947961E+02  0.37527857283E+02  0.00000000000E+00 0. -1.
</event>
<event>
 7    1  0.1789107E-013  0.7246154E+02  0.7816164E-02  0.1226708E+00
        -11   -1    0    0    0    0  0.00000000000E+00  0.00000000000E+00  0.45593999997E+02  0.45594000000E+02  0.51100000000E-03 0.  1.
         11   -1    0    0    0    0 -0.00000000000E+00 -0.00000000000E+00 -0.45593999997E+02  0.45594000000E+02  0.51100000000E-03 0. -1.
    9900012    2    1    2    0    0  0.10555400886E+01  0.93319385839E+00 -0.18673386047E+02  0.72461538452E+02  0.69999958519E+02 0.  0.
        -12    1    1    2    0    0 -0.10555400886E+01 -0.93319385839E+00  0.18673386047E+02  0.18726461548E+02  0.00000000000E+00 0.  1.
         11    1    3    3    0    0 -0.36061913490E+01  0.42710696963E+01 -0.70684981825E+01  0.90116768259E+01  0.51100000000E-03 0. -1.
        -11    1    3    3    0    0 -0.27452833828E+02 -0.43234786216E+01 -0.14212542274E+02  0.31214530442E+02  0.51100000000E-03 0.  1.
         12    1    3    3    0    0  0.32114565265E+02  0.98560278371E+00  0.26076544102E+01  0.32235331184E+02  0.00000000000E+00 0. -1.
</event>
<event>
 7    1  0.1789107E-013  0.7246160E+02  0.7816164E-02  0.1226708E+00
        -11   -1    0    0    0    0  0.00000000000E+00  0.00000000000E+00  0.45593999997E+02  0.45594000000E+02  0.51100000000E-03 0. -1.
         11   -1    0    0    0    0 -0.00000000000E+00 -0.00000000000E+00 -0.45593999997E+02  0.45594000000E+02  0.51100000000E-03 0.  1.
    9900012    2    1    2    0    0  0.16705659587E+02  0.16177026414E+01 -0.83055412617E+01  0.72461600460E+02  0.70000039297E+02 0.  0.
        -12    1    1    2    0    0 -0.16705659587E+02 -0.16177026414E+01  0.83055412617E+01  0.18726399540E+02  0.00000000000E+00 0.  1.
         11    1    3    3    0    0 -0.31478299029E+01  0.82500263273E+00 -0.64657209000E+01  0.72384397116E+01  0.51100000000E-03 0. -1.
        -11    1    3    3    0    0 -0.19870697730E+01 -0.28412279002E+02 -0.36232955705E+01  0.28711222814E+02  0.51100000000E-03 0.  1.
         12    1    3    3    0    0  0.21840559263E+02  0.29204979011E+02  0.17834752088E+01  0.36511937935E+02  0.00000000000E+00 0. -1.
</event>
<event>
 7    1  0.1789107E-013  0.7246155E+02  0.7816164E-02  0.1226708E+00
        -11   -1    0    0    0    0  0.00000000000E+00  0.00000000000E+00  0.45593999997E+02  0.45594000000E+02  0.51100000000E-03 0. -1.
         11   -1    0    0    0    0 -0.00000000000E+00 -0.00000000000E+00 -0.45593999997E+02  0.45594000000E+02  0.51100000000E-03 0.  1.
    9900012    2    1    2    0    0 -0.97835264654E+01  0.82673582623E+00  0.15946131953E+02  0.72461547947E+02  0.69999970889E+02 0.  0.
        -12    1    1    2    0    0  0.97835264654E+01 -0.82673582623E+00 -0.15946131953E+02  0.18726452053E+02  0.00000000000E+00 0.  1.
         11    1    3    3    0    0  0.95485796117E+01 -0.15285917903E+01  0.50436948576E+01  0.10906457882E+02  0.51100000000E-03 0. -1.
        -11    1    3    3    0    0  0.73433864633E-01  0.27556982864E+02  0.11200916929E+02  0.29746482773E+02  0.51100000000E-03 0.  1.
         12    1    3    3    0    0 -0.19405539942E+02 -0.25201655247E+02 -0.29847983388E+00  0.31808607292E+02  0.00000000000E+00 0. -1.
</event>
<event>
 7    1  0.1789107E-013  0.7246161E+02  0.7816164E-02  0.1226708E+00
        -11   -1    0    0    0    0  0.00000000000E+00  0.00000000000E+00  0.45593999997E+02  0.45594000000E+02  0.51100000000E-03 0. -1.
         11   -1    0    0    0    0 -0.00000000000E+00 -0.00000000000E+00 -0.45593999997E+02  0.45594000000E+02  0.51100000000E-03 0.  1.
    9900012    2    1    2    0    0 -0.16652462792E+02  0.50844656722E+01 -0.68935848603E+01  0.72461606316E+02  0.70000046924E+02 0.  0.
        -12    1    1    2    0    0  0.16652462792E+02 -0.50844656722E+01  0.68935848603E+01  0.18726393684E+02  0.00000000000E+00 0.  1.
         11    1    3    3    0    0 -0.11289437768E+01 -0.85536546244E+01 -0.33756924732E+00  0.86344354038E+01  0.51100000000E-03 0. -1.
        -11    1    3    3    0    0  0.49699680048E+01 -0.18305954396E+02 -0.15888672770E+02  0.24743857237E+02  0.51100000000E-03 0.  1.
         12    1    3    3    0    0 -0.20493487020E+02  0.31944074692E+02  0.93326571575E+01  0.39083313675E+02  0.00000000000E+00 0. -1.
</event>
<event>
 7    1  0.1789107E-013  0.7246132E+02  0.7816164E-02  0.1226709E+00
        -11   -1    0    0    0    0  0.00000000000E+00  0.00000000000E+00  0.45593999997E+02  0.45594000000E+02  0.51100000000E-03 0.  1.
         11   -1    0    0    0    0 -0.00000000000E+00 -0.00000000000E+00 -0.45593999997E+02  0.45594000000E+02  0.51100000000E-03 0. -1.
    9900012    2    1    2    0    0  0.10426187340E+02 -0.15304822825E+02 -0.27831085111E+01  0.72461316440E+02  0.69999669307E+02 0.  0.
        -12    1    1    2    0    0 -0.10426187340E+02  0.15304822825E+02  0.27831085111E+01  0.18726683560E+02  0.00000000000E+00 0.  1.
         11    1    3    3    0    0  0.15634497250E+02 -0.93435223881E+01  0.64716318482E+01  0.19329276601E+02  0.51100000000E-03 0. -1.
        -11    1    3    3    0    0  0.70657590141E+01  0.20721967864E+02 -0.92339953688E+01  0.23761135775E+02  0.51100000000E-03 0.  1.
         12    1    3    3    0    0 -0.12274068925E+02 -0.26683268301E+02 -0.20744990555E-01  0.29370904064E+02  0.00000000000E+00 0. -1.
</event>
<event>
 7    1  0.1789107E-013  0.7246154E+02  0.7816164E-02  0.1226708E+00
        -11   -1    0    0    0    0  0.00000000000E+00  0.00000000000E+00  0.45593999997E+02  0.45594000000E+02  0.51100000000E-03 0. -1.
         11   -1    0    0    0    0 -0.00000000000E+00 -0.00000000000E+00 -0.45593999997E+02  0.45594000000E+02  0.51100000000E-03 0.  1.
    9900012    2    1    2    0    0 -0.15048673791E+02 -0.53509284357E+01  0.97767635667E+01  0.72461544814E+02  0.69999966808E+02 0.  0.
        -12    1    1    2    0    0  0.15048673791E+02  0.53509284357E+01 -0.97767635667E+01  0.18726455186E+02  0.00000000000E+00 0.  1.
         11    1    3    3    0    0 -0.22578469948E+02 -0.17623979549E+01  0.11689095263E+02  0.25485845092E+02  0.51100000000E-03 0. -1.
        -11    1    3    3    0    0 -0.92797827725E+01 -0.20512924555E+02  0.27147896847E+01  0.22677401204E+02  0.51100000000E-03 0.  1.
        -12    1    3    3    0    0  0.16809578930E+02  0.16924394074E+02 -0.46271213805E+01  0.24298298518E+02  0.00000000000E+00 0.  1.
</event>
<event>
 7    1  0.1789107E-013  0.7246157E+02  0.7816164E-02  0.1226708E+00
        -11   -1    0    0    0    0  0.00000000000E+00  0.00000000000E+00  0.45593999997E+02  0.45594000000E+02  0.51100000000E-03 0. -1.
         11   -1    0    0    0    0 -0.00000000000E+00 -0.00000000000E+00 -0.45593999997E+02  0.45594000000E+02  0.51100000000E-03 0.  1.
    9900012    2    1    2    0    0  0.10055075581E+02  0.92027157893E+01  0.12840745514E+02  0.72461567660E+02  0.69999996568E+02 0.  0.
        -12    1    1    2    0    0 -0.10055075581E+02 -0.92027157893E+01 -0.12840745514E+02  0.18726432340E+02  0.00000000000E+00 0.  1.
         11    1    3    3    0    0  0.14994960445E+02  0.17764991919E+02 -0.16082288825E+02  0.28268070163E+02  0.51100000000E-03 0. -1.
        -11    1    3    3    0    0  0.95145845697E+01  0.35021049496E+01  0.56494461459E+00  0.10154369566E+02  0.51100000000E-03 0.  1.
        -12    1    3    3    0    0 -0.14454469434E+02 -0.12064381079E+02  0.28358089724E+02  0.34039127931E+02  0.00000000000E+00 0.  1.
</event>
<event>
 7    1  0.1789107E-013  0.7246158E+02  0.7816164E-02  0.1226708E+00
        -11   -1    0    0    0    0  0.00000000000E+00  0.00000000000E+00  0.45593999997E+02  0.45594000000E+02  0.51100000000E-03 0. -1.
         11   -1    0    0    0    0 -0.00000000000E+00 -0.00000000000E+00 -0.45593999997E+02  0.45594000000E+02  0.51100000000E-03 0.  1.
    9900012    2    1    2    0    0  0.98461930158E+01 -0.84801948633E+01  0.13483969776E+02  0.72461583826E+02  0.70000017627E+02 0.  0.
        -12    1    1    2    0    0 -0.98461930158E+01  0.84801948633E+01 -0.13483969776E+02  0.18726416174E+02  0.00000000000E+00 0.  1.
         11    1    3    3    0    0  0.16960162893E+02  0.21813283762E+02  0.15716658685E+02  0.31788045462E+02  0.51100000000E-03 0. -1.
        -11    1    3    3    0    0 -0.85631621008E+01 -0.61782335349E+01  0.91457325216E+01  0.13969349963E+02  0.51100000000E-03 0.  1.
        -12    1    3    3    0    0  0.14491922234E+01 -0.24115245090E+02 -0.11378421431E+02  0.26704188400E+02  0.00000000000E+00 0.  1.
</event>
<event>
 7    1  0.1789107E-013  0.7246150E+02  0.7816164E-02  0.1226708E+00
        -11   -1    0    0    0    0  0.00000000000E+00  0.00000000000E+00  0.45593999997E+02  0.45594000000E+02  0.51100000000E-03 0. -1.
         11   -1    0    0    0    0 -0.00000000000E+00 -0.00000000000E+00 -0.45593999997E+02  0.45594000000E+02  0.51100000000E-03 0.  1.
    9900012    2    1    2    0    0  0.63634671605E+01  0.11296270969E+02  0.13512299400E+02  0.72461503072E+02  0.69999912431E+02 0.  0.
        -12    1    1    2    0    0 -0.63634671605E+01 -0.11296270969E+02 -0.13512299400E+02  0.18726496928E+02  0.00000000000E+00 0.  1.
         11    1    3    3    0    0  0.15242796000E+01  0.10287698928E+02  0.19929289653E+02  0.22479696703E+02  0.51100000000E-03 0. -1.
        -11    1    3    3    0    0  0.23691120423E+02 -0.70739596992E+01  0.67229302056E+01  0.25622409791E+02  0.51100000000E-03 0.  1.
        -12    1    3    3    0    0 -0.18851932862E+02  0.80825317405E+01 -0.13139920459E+02  0.24359396578E+02  0.00000000000E+00 0.  1.
</event>
<event>
 7    1  0.1789107E-013  0.7246155E+02  0.7816164E-02  0.1226708E+00
        -11   -1    0    0    0    0  0.00000000000E+00  0.00000000000E+00  0.45593999997E+02  0.45594000000E+02  0.51100000000E-03 0. -1.
         11   -1    0    0    0    0 -0.00000000000E+00 -0.00000000000E+00 -0.45593999997E+02  0.45594000000E+02  0.51100000000E-03 0.  1.
    9900012    2    1    2    0    0 -0.47773945236E+01  0.15307872097E+02  0.96708563679E+01  0.72461550538E+02  0.69999974263E+02 0.  0.
        -12    1    1    2    0    0  0.47773945236E+01 -0.15307872097E+02 -0.96708563679E+01  0.18726449462E+02  0.00000000000E+00 0.  1.
         11    1    3    3    0    0  0.18254983765E+01 -0.14224564059E+01 -0.26300857386E+01  0.35033095499E+01  0.51100000000E-03 0. -1.
        -11    1    3    3    0    0 -0.77157091684E+01 -0.20998021318E+02  0.20488969705E+02  0.30335572305E+02  0.51100000000E-03 0.  1.
         12    1    3    3    0    0  0.11128162682E+01  0.37728349821E+02 -0.81880275984E+01  0.38622668683E+02  0.00000000000E+00 0. -1.
</event>
<event>
 7    1  0.1789107E-013  0.7246155E+02  0.7816164E-02  0.1226708E+00
        -11   -1    0    0    0    0  0.00000000000E+00  0.00000000000E+00  0.45593999997E+02  0.45594000000E+02  0.51100000000E-03 0. -1.
         11   -1    0    0    0    0 -0.00000000000E+00 -0.00000000000E+00 -0.45593999997E+02  0.45594000000E+02  0.51100000000E-03 0.  1.
    9900012    2    1    2    0    0  0.40693537377E+00  0.10167910367E+02  0.15720306405E+02  0.72461547290E+02  0.69999970032E+02 0.  0.
        -12    1    1    2    0    0 -0.40693537377E+00 -0.10167910367E+02 -0.15720306405E+02  0.18726452710E+02  0.00000000000E+00 0.  1.
         11    1    3    3    0    0  0.15541317828E+02  0.13769975552E+02  0.19403046302E+02  0.28418708496E+02  0.51100000000E-03 0. -1.
        -11    1    3    3    0    0 -0.12806400609E+01  0.11324407279E+02 -0.16446110076E+02  0.20008917415E+02  0.51100000000E-03 0.  1.
         12    1    3    3    0    0 -0.13853742393E+02 -0.14926472464E+02  0.12763370179E+02  0.24033921379E+02  0.00000000000E+00 0. -1.
</event>
<event>
 7    1  0.1789107E-013  0.7246160E+02  0.7816164E-02  0.1226708E+00
        -11   -1    0    0    0    0  0.00000000000E+00  0.00000000000E+00  0.45593999997E+02  0.45594000000E+02  0.51100000000E-03 0. -1.
         11   -1    0    0    0    0 -0.00000000000E+00 -0.00000000000E+00 -0.45593999997E+02  0.45594000000E+02  0.51100000000E-03 0.  1.
    9900012    2    1    2    0    0  0.13730790228E+02  0.14970731071E+01  0.12645250971E+02  0.72461596173E+02  0.70000033711E+02 0.  0.
        -12    1    1    2    0    0 -0.13730790228E+02 -0.14970731071E+01 -0.12645250971E+02  0.18726403827E+02  0.00000000000E+00 0.  1.
         11    1    3    3    0    0  0.91460347691E+01  0.25768859666E+01 -0.14472557420E+02  0.17313151412E+02  0.51100000000E-03 0. -1.
        -11    1    3    3    0    0  0.42573222687E+01 -0.25851978372E+01 -0.13557758610E+02  0.14443713496E+02  0.51100000000E-03 0.  1.
         12    1    3    3    0    0  0.32743319030E+00  0.15053849777E+01  0.40675567002E+02  0.40704731265E+02  0.00000000000E+00 0. -1.
</event>
<event>
 7    1  0.1789107E-013  0.7246160E+02  0.7816164E-02  0.1226708E+00
        -11   -1    0    0    0    0  0.00000000000E+00  0.00000000000E+00  0.45593999997E+02  0.45594000000E+02  0.51100000000E-03 0.  1.
         11   -1    0    0    0    0 -0.00000000000E+00 -0.00000000000E+00 -0.45593999997E+02  0.45594000000E+02  0.51100000000E-03 0. -1.
    9900012    2    1    2    0    0 -0.68738182243E+01  0.14974879605E+02 -0.88984080833E+01  0.72461599850E+02  0.70000038502E+02 0.  0.
        -12    1    1    2    0    0  0.68738182243E+01 -0.14974879605E+02  0.88984080833E+01  0.18726400150E+02  0.00000000000E+00 0.  1.
         11    1    3    3    0    0 -0.17662696367E+01  0.11463296533E+01  0.32585070551E+01  0.38796454210E+01  0.51100000000E-03 0. -1.
        -11    1    3    3    0    0 -0.97061538453E+01  0.38586166881E+02  0.17294403065E+01  0.39825778851E+02  0.51100000000E-03 0.  1.
         12    1    3    3    0    0  0.45986052577E+01 -0.24757616930E+02 -0.13886355445E+02  0.28756175578E+02  0.00000000000E+00 0. -1.
</event>
<event>
 7    1  0.1789107E-013  0.7246160E+02  0.7816164E-02  0.1226708E+00
        -11   -1    0    0    0    0  0.00000000000E+00  0.00000000000E+00  0.45593999997E+02  0.45594000000E+02  0.51100000000E-03 0. -1.
         11   -1    0    0    0    0 -0.00000000000E+00 -0.00000000000E+00 -0.45593999997E+02  0.45594000000E+02  0.51100000000E-03 0.  1.
    9900012    2    1    2    0    0 -0.10320000441E+02 -0.10645295158E+02  0.11439119516E+02  0.72461596891E+02  0.70000034647E+02 0.  0.
        -12    1    1    2    0    0  0.10320000441E+02  0.10645295158E+02 -0.11439119516E+02  0.18726403109E+02  0.00000000000E+00 0.  1.
         11    1    3    3    0    0 -0.42069749174E+01 -0.23576059041E+02 -0.11856046412E+02  0.26722556664E+02  0.51100000000E-03 0. -1.
        -11    1    3    3    0    0 -0.17956759922E+02 -0.18980386981E+00  0.20072657016E+01  0.18069597900E+02  0.51100000000E-03 0.  1.
         12    1    3    3    0    0  0.11843734399E+02  0.13120567753E+02  0.21287900226E+02  0.27669442328E+02  0.00000000000E+00 0. -1.
</event>
<event>
 7    1  0.1789107E-013  0.7246165E+02  0.7816164E-02  0.1226708E+00
        -11   -1    0    0    0    0  0.00000000000E+00  0.00000000000E+00  0.45593999997E+02  0.45594000000E+02  0.51100000000E-03 0.  1.
         11   -1    0    0    0    0 -0.00000000000E+00 -0.00000000000E+00 -0.45593999997E+02  0.45594000000E+02  0.51100000000E-03 0. -1.
    9900012    2    1    2    0    0 -0.16623447701E+02  0.85588257727E+01 -0.10410020869E+01  0.72461649650E+02  0.70000103376E+02 0.  0.
        -12    1    1    2    0    0  0.16623447701E+02 -0.85588257727E+01  0.10410020869E+01  0.18726350350E+02  0.00000000000E+00 0.  1.
         11    1    3    3    0    0 -0.16820676829E+02  0.40019300493E+01  0.19915208311E+02  0.26373587838E+02  0.51100000000E-03 0. -1.
        -11    1    3    3    0    0  0.55897630634E+01  0.70325255244E+00  0.11583124252E+02  0.12880558333E+02  0.51100000000E-03 0.  1.
        -12    1    3    3    0    0 -0.53925339350E+01  0.38536431710E+01 -0.32539334650E+02  0.33207503480E+02  0.00000000000E+00 0.  1.
</event>
<event>
 7    1  0.1789107E-013  0.7246157E+02  0.7816164E-02  0.1226708E+00
        -11   -1    0    0    0    0  0.00000000000E+00  0.00000000000E+00  0.45593999997E+02  0.45594000000E+02  0.51100000000E-03 0.  1.
         11   -1    0    0    0    0 -0.00000000000E+00 -0.00000000000E+00 -0.45593999997E+02  0.45594000000E+02  0.51100000000E-03 0. -1.
    9900012    2    1    2    0    0 -0.10659580141E+02  0.64949108846E+01 -0.13959539196E+02  0.72461568125E+02  0.69999997174E+02 0.  0.
        -12    1    1    2    0    0  0.10659580141E+02 -0.64949108846E+01  0.13959539196E+02  0.18726431875E+02  0.00000000000E+00 0.  1.
         11    1    3    3    0    0  0.14220775851E+02 -0.89112333931E+01 -0.23954302044E+02  0.29248062039E+02  0.51100000000E-03 0. -1.
        -11    1    3    3    0    0 -0.15128367718E+01  0.39490680906E+01 -0.96963824766E+01  0.10578452026E+02  0.51100000000E-03 0.  1.
        -12    1    3    3    0    0 -0.23367519220E+02  0.11457076187E+02  0.19691145324E+02  0.32635054059E+02  0.00000000000E+00 0.  1.
</event>
<event>
 7    1  0.1789107E-013  0.7246158E+02  0.7816164E-02  0.1226708E+00
        -11   -1    0    0    0    0  0.00000000000E+00  0.00000000000E+00  0.45593999997E+02  0.45594000000E+02  0.51100000000E-03 0. -1.
         11   -1    0    0    0    0 -0.00000000000E+00 -0.00000000000E+00 -0.45593999997E+02  0.45594000000E+02  0.51100000000E-03 0.  1.
    9900012    2    1    2    0    0 -0.14211498419E+02 -0.68205963627E+01  0.10108976916E+02  0.72461584530E+02  0.70000018545E+02 0.  0.
        -12    1    1    2    0    0  0.14211498419E+02  0.68205963627E+01 -0.10108976916E+02  0.18726415470E+02  0.00000000000E+00 0.  1.
         11    1    3    3    0    0 -0.15940298678E+02  0.12477588203E+02 -0.41835153196E+01  0.20670876372E+02  0.51100000000E-03 0. -1.
        -11    1    3    3    0    0 -0.21985780148E+02 -0.90684783640E+01  0.47169787704E+01  0.24245859802E+02  0.51100000000E-03 0.  1.
         12    1    3    3    0    0  0.23714580407E+02 -0.10229706202E+02  0.95755134655E+01  0.27544848357E+02  0.00000000000E+00 0. -1.
</event>
<event>
 7    1  0.1789107E-013  0.7246169E+02  0.7816164E-02  0.1226708E+00
        -11   -1    0    0    0    0  0.00000000000E+00  0.00000000000E+00  0.45593999997E+02  0.45594000000E+02  0.51100000000E-03 0.  1.
         11   -1    0    0    0    0 -0.00000000000E+00 -0.00000000000E+00 -0.45593999997E+02  0.45594000000E+02  0.51100000000E-03 0. -1.
    9900012    2    1    2    0    0 -0.11709375604E+02  0.14131711258E+02 -0.37229146337E+01  0.72461686068E+02  0.70000150816E+02 0.  0.
        -12    1    1    2    0    0  0.11709375604E+02 -0.14131711258E+02  0.37229146337E+01  0.18726313932E+02  0.00000000000E+00 0.  1.
         11    1    3    3    0    0 -0.16917338753E+02  0.94585923037E+01 -0.97981390482E+00  0.19406734769E+02  0.51100000000E-03 0. -1.
        -11    1    3    3    0    0 -0.20299525123E+01 -0.11923281580E+02 -0.22938288201E+02  0.25931648939E+02  0.51100000000E-03 0.  1.
        -12    1    3    3    0    0  0.72379156609E+01  0.16596400535E+02  0.20195187473E+02  0.27123302359E+02  0.00000000000E+00 0.  1.
</event>
<event>
 7    1  0.1789107E-013  0.7246157E+02  0.7816164E-02  0.1226708E+00
        -11   -1    0    0    0    0  0.00000000000E+00  0.00000000000E+00  0.45593999997E+02  0.45594000000E+02  0.51100000000E-03 0.  1.
         11   -1    0    0    0    0 -0.00000000000E+00 -0.00000000000E+00 -0.45593999997E+02  0.45594000000E+02  0.51100000000E-03 0. -1.
    9900012    2    1    2    0    0 -0.11717411927E+02  0.78807319238E+01 -0.12299408542E+02  0.72461571393E+02  0.70000001431E+02 0.  0.
        -12    1    1    2    0    0  0.11717411927E+02 -0.78807319238E+01  0.12299408542E+02  0.18726428607E+02  0.00000000000E+00 0.  1.
         11    1    3    3    0    0  0.13898137933E+02 -0.54824179654E+01 -0.13929906082E+02  0.20426880047E+02  0.51100000000E-03 0. -1.
        -11    1    3    3    0    0  0.38090849222E+01  0.18356269157E+02  0.97133892974E+01  0.21114252940E+02  0.51100000000E-03 0.  1.
        -12    1    3    3    0    0 -0.29424634782E+02 -0.49931192674E+01 -0.80828917571E+01  0.30920438406E+02  0.00000000000E+00 0.  1.
</event>
<event>
 7    1  0.1789107E-013  0.7246167E+02  0.7816164E-02  0.1226708E+00
        -11   -1    0    0    0    0  0.00000000000E+00  0.00000000000E+00  0.45593999997E+02  0.45594000000E+02  0.51100000000E-03 0. -1.
         11   -1    0    0    0    0 -0.00000000000E+00 -0.00000000000E+00 -0.45593999997E+02  0.45594000000E+02  0.51100000000E-03 0.  1.
    9900012    2    1    2    0    0 -0.18559666935E+02  0.23742558124E+01  0.75967967685E+00  0.72461669857E+02  0.70000129699E+02 0.  0.
        -12    1    1    2    0    0  0.18559666935E+02 -0.23742558124E+01 -0.75967967685E+00  0.18726330143E+02  0.00000000000E+00 0.  1.
         11    1    3    3    0    0 -0.30425075094E+01  0.26123829362E+02  0.69871844042E+01  0.27212718692E+02  0.51100000000E-03 0. -1.
        -11    1    3    3    0    0  0.85437753061E+01 -0.69272820807E+01 -0.10941454768E+02  0.15514469575E+02  0.51100000000E-03 0.  1.
        -12    1    3    3    0    0 -0.24060934732E+02 -0.16822291469E+02  0.47139500401E+01  0.29734481590E+02  0.00000000000E+00 0.  1.
</event>
<event>
 7    1  0.1789107E-013  0.7246156E+02  0.7816164E-02  0.1226708E+00
        -11   -1    0    0    0    0  0.00000000000E+00  0.00000000000E+00  0.45593999997E+02  0.45594000000E+02  0.51100000000E-03 0.  1.
         11   -1    0    0    0    0 -0.00000000000E+00 -0.00000000000E+00 -0.45593999997E+02  0.45594000000E+02  0.51100000000E-03 0. -1.
    9900012    2    1    2    0    0 -0.18083264886E+02 -0.47758480760E+01 -0.93070275048E+00  0.72461564103E+02  0.69999991935E+02 0.  0.
        -12    1    1    2    0    0  0.18083264886E+02  0.47758480760E+01  0.93070275048E+00  0.18726435897E+02  0.00000000000E+00 0.  1.
         11    1    3    3    0    0 -0.27564224937E+01  0.23673881187E+02 -0.59596252085E+01  0.24567613810E+02  0.51100000000E-03 0. -1.
        -11    1    3    3    0    0 -0.30862553171E+01  0.72899625798E+01  0.62657854613E+01  0.10095969196E+02  0.51100000000E-03 0.  1.
        -12    1    3    3    0    0 -0.12240587075E+02 -0.35739691843E+02 -0.12368630033E+01  0.37797981098E+02  0.00000000000E+00 0.  1.
</event>
<event>
 7    1  0.1789107E-013  0.7246157E+02  0.7816164E-02  0.1226708E+00
        -11   -1    0    0    0    0  0.00000000000E+00  0.00000000000E+00  0.45593999997E+02  0.45594000000E+02  0.51100000000E-03 0. -1.
         11   -1    0    0    0    0 -0.00000000000E+00 -0.00000000000E+00 -0.45593999997E+02  0.45594000000E+02  0.51100000000E-03 0.  1.
    9900012    2    1    2    0    0  0.84213498625E+01 -0.32055529819E+01  0.16415984706E+02  0.72461567951E+02  0.69999996947E+02 0.  0.
        -12    1    1    2    0    0 -0.84213498625E+01  0.32055529819E+01 -0.16415984706E+02  0.18726432049E+02  0.00000000000E+00 0.  1.
         11    1    3    3    0    0 -0.44169648269E+01  0.29700920623E+01 -0.52126220571E+01  0.74499969203E+01  0.51100000000E-03 0. -1.
        -11    1    3    3    0    0 -0.17129530050E+02 -0.89168175435E+01 -0.96662401298E+01  0.21595523456E+02  0.51100000000E-03 0.  1.
         12    1    3    3    0    0  0.29967844739E+02  0.27411724994E+01  0.31294846893E+02  0.43416047575E+02  0.00000000000E+00 0. -1.
</event>
<event>
 7    1  0.1789107E-013  0.7246162E+02  0.7816164E-02  0.1226708E+00
        -11   -1    0    0    0    0  0.00000000000E+00  0.00000000000E+00  0.45593999997E+02  0.45594000000E+02  0.51100000000E-03 0. -1.
         11   -1    0    0    0    0 -0.00000000000E+00 -0.00000000000E+00 -0.45593999997E+02  0.45594000000E+02  0.51100000000E-03 0.  1.
    9900012    2    1    2    0    0  0.78448139402E+01  0.16436184472E+02  0.43575319037E+01  0.72461618875E+02  0.70000063285E+02 0.  0.
        -12    1    1    2    0    0 -0.78448139402E+01 -0.16436184472E+02 -0.43575319037E+01  0.18726381125E+02  0.00000000000E+00 0.  1.
         11    1    3    3    0    0 -0.10502143678E+02  0.24714182400E+02  0.18764362755E+02  0.32759535152E+02  0.51100000000E-03 0. -1.
        -11    1    3    3    0    0  0.10401617203E+01  0.10797848226E+02 -0.16958747929E+01  0.10979592629E+02  0.51100000000E-03 0.  1.
         12    1    3    3    0    0  0.17306795898E+02 -0.19075846154E+02 -0.12710956058E+02  0.28722491094E+02  0.00000000000E+00 0. -1.
</event>
<event>
 7    1  0.1789107E-013  0.7246161E+02  0.7816164E-02  0.1226708E+00
        -11   -1    0    0    0    0  0.00000000000E+00  0.00000000000E+00  0.45593999997E+02  0.45594000000E+02  0.51100000000E-03 0.  1.
         11   -1    0    0    0    0 -0.00000000000E+00 -0.00000000000E+00 -0.45593999997E+02  0.45594000000E+02  0.51100000000E-03 0. -1.
    9900012    2    1    2    0    0 -0.15103541340E+02 -0.10550692337E+02 -0.33531316497E+01  0.72461613225E+02  0.70000055925E+02 0.  0.
        -12    1    1    2    0    0  0.15103541340E+02  0.10550692337E+02  0.33531316497E+01  0.18726386775E+02  0.00000000000E+00 0.  1.
         11    1    3    3    0    0 -0.61014596725E+01 -0.15379142763E+02 -0.23001813091E+02  0.28334241617E+02  0.51100000000E-03 0. -1.
        -11    1    3    3    0    0 -0.94973168593E+01 -0.20363957132E+01 -0.98516559423E+01  0.13834777197E+02  0.51100000000E-03 0.  1.
        -12    1    3    3    0    0  0.49523519221E+00  0.68648461396E+01  0.29500337384E+02  0.30292594411E+02  0.00000000000E+00 0.  1.
</event>
<event>
 7    1  0.1789107E-013  0.7246159E+02  0.7816164E-02  0.1226708E+00
        -11   -1    0    0    0    0  0.00000000000E+00  0.00000000000E+00  0.45593999997E+02  0.45594000000E+02  0.51100000000E-03 0.  1.
         11   -1    0    0    0    0 -0.00000000000E+00 -0.00000000000E+00 -0.45593999997E+02  0.45594000000E+02  0.51100000000E-03 0. -1.
    9900012    2    1    2    0    0 -0.12456973966E+02 -0.11154494826E+02 -0.84308534412E+01  0.72461594981E+02  0.70000032158E+02 0.  0.
        -12    1    1    2    0    0  0.12456973966E+02  0.11154494826E+02  0.84308534412E+01  0.18726405019E+02  0.00000000000E+00 0.  1.
         11    1    3    3    0    0  0.46714405847E+01 -0.19894196048E+02  0.16155568486E+01  0.20499058947E+02  0.51100000000E-03 0. -1.
        -11    1    3    3    0    0 -0.39981769301E+00  0.69002365051E+01  0.17984840199E+02  0.19267267457E+02  0.51100000000E-03 0.  1.
        -12    1    3    3    0    0 -0.16728596857E+02  0.18394647168E+01 -0.28031250489E+02  0.32695268576E+02  0.00000000000E+00 0.  1.
</event>
<event>
 7    1  0.1789107E-013  0.7246157E+02  0.7816164E-02  0.1226708E+00
        -11   -1    0    0    0    0  0.00000000000E+00  0.00000000000E+00  0.45593999997E+02  0.45594000000E+02  0.51100000000E-03 0. -1.
         11   -1    0    0    0    0 -0.00000000000E+00 -0.00000000000E+00 -0.45593999997E+02  0.45594000000E+02  0.51100000000E-03 0.  1.
    9900012    2    1    2    0    0  0.10447116981E+02 -0.10319277783E+02  0.11621079407E+02  0.72461568579E+02  0.69999997765E+02 0.  0.
        -12    1    1    2    0    0 -0.10447116981E+02  0.10319277783E+02 -0.11621079407E+02  0.18726431421E+02  0.00000000000E+00 0.  1.
         11    1    3    3    0    0 -0.42943164037E+01 -0.16368006204E+01  0.29171437475E+01  0.54433443351E+01  0.51100000000E-03 0. -1.
        -11    1    3    3    0    0 -0.15030510496E+02  0.83911260432E+01 -0.16958621512E+02  0.24164479839E+02  0.51100000000E-03 0.  1.
         12    1    3    3    0    0  0.29771943881E+02 -0.17073603206E+02  0.25662557172E+02  0.42853744405E+02  0.00000000000E+00 0. -1.
</event>
<event>
 7    1  0.1789107E-013  0.7246159E+02  0.7816164E-02  0.1226708E+00
        -11   -1    0    0    0    0  0.00000000000E+00  0.00000000000E+00  0.45593999997E+02  0.45594000000E+02  0.51100000000E-03 0.  1.
         11   -1    0    0    0    0 -0.00000000000E+00 -0.00000000000E+00 -0.45593999997E+02  0.45594000000E+02  0.51100000000E-03 0. -1.
    9900012    2    1    2    0    0 -0.76956674959E+01 -0.42301398049E+01 -0.16539677732E+02  0.72461592964E+02  0.70000029532E+02 0.  0.
        -12    1    1    2    0    0  0.76956674959E+01  0.42301398049E+01  0.16539677732E+02  0.18726407036E+02  0.00000000000E+00 0.  1.
         11    1    3    3    0    0  0.60340878609E+01  0.10427229691E+02 -0.20775752171E+01  0.12225123901E+02  0.51100000000E-03 0. -1.
        -11    1    3    3    0    0 -0.47454529283E+01 -0.86586380407E+01  0.20978509817E+02  0.23185970124E+02  0.51100000000E-03 0.  1.
         12    1    3    3    0    0 -0.89843024286E+01 -0.59987314552E+01 -0.35440612332E+02  0.37050498939E+02  0.00000000000E+00 0. -1.
</event>
<event>
 7    1  0.1789107E-013  0.7246158E+02  0.7816164E-02  0.1226708E+00
        -11   -1    0    0    0    0  0.00000000000E+00  0.00000000000E+00  0.45593999997E+02  0.45594000000E+02  0.51100000000E-03 0. -1.
         11   -1    0    0    0    0 -0.00000000000E+00 -0.00000000000E+00 -0.45593999997E+02  0.45594000000E+02  0.51100000000E-03 0.  1.
    9900012    2    1    2    0    0  0.21026597745E+01 -0.28994012233E+01  0.18380729894E+02  0.72461576502E+02  0.70000008087E+02 0.  0.
        -12    1    1    2    0    0 -0.21026597745E+01  0.28994012233E+01 -0.18380729894E+02  0.18726423498E+02  0.00000000000E+00 0.  1.
         11    1    3    3    0    0  0.35607180242E+01  0.11320159353E+02  0.66572147417E+01  0.13606734693E+02  0.51100000000E-03 0. -1.
        -11    1    3    3    0    0  0.12373324321E+01  0.19577214506E+01  0.32389410575E+02  0.32472104682E+02  0.51100000000E-03 0.  1.
        -12    1    3    3    0    0 -0.26953906819E+01 -0.16177282027E+02 -0.20665895423E+02  0.26382737127E+02  0.00000000000E+00 0.  1.
</event>
<event>
 7    1  0.1789107E-013  0.7246150E+02  0.7816164E-02  0.1226708E+00
        -11   -1    0    0    0    0  0.00000000000E+00  0.00000000000E+00  0.45593999997E+02  0.45594000000E+02  0.51100000000E-03 0.  1.
         11   -1    0    0    0    0 -0.00000000000E+00 -0.00000000000E+00 -0.45593999997E+02  0.45594000000E+02  0.51100000000E-03 0. -1.
    9900012    2    1    2    0    0 -0.74586317149E+01 -0.85617695403E+01 -0.14891158371E+02  0.72461503201E+02  0.69999912599E+02 0.  0.
        -12    1    1    2    0    0  0.74586317149E+01  0.85617695403E+01  0.14891158371E+02  0.18726496799E+02  0.00000000000E+00 0.  1.
         11    1    3    3    0    0 -0.33058335094E+01 -0.35054715535E+01  0.94713367538E+01  0.10626527475E+02  0.51100000000E-03 0. -1.
        -11    1    3    3    0    0 -0.99858004324E+01 -0.22674000360E+02  0.66869964677E+01  0.25662081455E+02  0.51100000000E-03 0.  1.
         12    1    3    3    0    0  0.58330022269E+01  0.17617702373E+02 -0.31049491592E+02  0.36172894272E+02  0.00000000000E+00 0. -1.
</event>
<event>
 7    1  0.1789107E-013  0.7246144E+02  0.7816164E-02  0.1226708E+00
        -11   -1    0    0    0    0  0.00000000000E+00  0.00000000000E+00  0.45593999997E+02  0.45594000000E+02  0.51100000000E-03 0. -1.
         11   -1    0    0    0    0 -0.00000000000E+00 -0.00000000000E+00 -0.45593999997E+02  0.45594000000E+02  0.51100000000E-03 0.  1.
    9900012    2    1    2    0    0  0.73278432140E+01  0.17224749325E+02  0.54295725319E+00  0.72461439236E+02  0.69999829272E+02 0.  0.
        -12    1    1    2    0    0 -0.73278432140E+01 -0.17224749325E+02 -0.54295725319E+00  0.18726560764E+02  0.00000000000E+00 0.  1.
         11    1    3    3    0    0 -0.19189577220E+01  0.19209901337E+02  0.19675596973E+01  0.19405514668E+02  0.51100000000E-03 0. -1.
        -11    1    3    3    0    0  0.28423817193E+02 -0.35878742510E+00 -0.12273872309E+02  0.30962720390E+02  0.51100000000E-03 0.  1.
         12    1    3    3    0    0 -0.19177016257E+02 -0.16263645867E+01  0.10849269865E+02  0.22093204178E+02  0.00000000000E+00 0. -1.
</event>
<event>
 7    1  0.1789107E-013  0.7246191E+02  0.7816164E-02  0.1226707E+00
        -11   -1    0    0    0    0  0.00000000000E+00  0.00000000000E+00  0.45593999997E+02  0.45594000000E+02  0.51100000000E-03 0. -1.
         11   -1    0    0    0    0 -0.00000000000E+00 -0.00000000000E+00 -0.45593999997E+02  0.45594000000E+02  0.51100000000E-03 0.  1.
    9900012    2    1    2    0    0  0.25732021453E+01 -0.31977316942E+01  0.18270733211E+02  0.72461907259E+02  0.70000438958E+02 0.  0.
        -12    1    1    2    0    0 -0.25732021453E+01  0.31977316942E+01 -0.18270733211E+02  0.18726092741E+02  0.00000000000E+00 0.  1.
         11    1    3    3    0    0  0.21399782602E+02 -0.12307003887E+01  0.45196521702E+01  0.21906450531E+02  0.51100000000E-03 0. -1.
        -11    1    3    3    0    0  0.53342392127E+01 -0.17572482117E+02  0.11581772530E+02  0.21711372387E+02  0.51100000000E-03 0.  1.
         12    1    3    3    0    0 -0.24160819669E+02  0.15605450811E+02  0.21693085106E+01  0.28844084342E+02  0.00000000000E+00 0. -1.
</event>
<event>
 7    1  0.1789107E-013  0.7246142E+02  0.7816164E-02  0.1226708E+00
        -11   -1    0    0    0    0  0.00000000000E+00  0.00000000000E+00  0.45593999997E+02  0.45594000000E+02  0.51100000000E-03 0.  1.
         11   -1    0    0    0    0 -0.00000000000E+00 -0.00000000000E+00 -0.45593999997E+02  0.45594000000E+02  0.51100000000E-03 0. -1.
    9900012    2    1    2    0    0 -0.16760757184E+02 -0.19132505090E+01  0.81302775370E+01  0.72461416710E+02  0.69999799927E+02 0.  0.
        -12    1    1    2    0    0  0.16760757184E+02  0.19132505090E+01 -0.81302775370E+01  0.18726583290E+02  0.00000000000E+00 0.  1.
         11    1    3    3    0    0 -0.35045114776E+02  0.42774461279E+01 -0.13204939192E+02  0.37693859372E+02  0.51100000000E-03 0. -1.
        -11    1    3    3    0    0  0.82373128471E+01  0.65549470038E+01  0.47055869530E+01  0.11530967089E+02  0.51100000000E-03 0.  1.
        -12    1    3    3    0    0  0.10047044745E+02 -0.12745643641E+02  0.16629629776E+02  0.23236590249E+02  0.00000000000E+00 0.  1.
</event>
<event>
 7    1  0.1789107E-013  0.7246157E+02  0.7816164E-02  0.1226708E+00
        -11   -1    0    0    0    0  0.00000000000E+00  0.00000000000E+00  0.45593999997E+02  0.45594000000E+02  0.51100000000E-03 0. -1.
         11   -1    0    0    0    0 -0.00000000000E+00 -0.00000000000E+00 -0.45593999997E+02  0.45594000000E+02  0.51100000000E-03 0.  1.
    9900012    2    1    2    0    0  0.13258670520E+01 -0.19745064727E+01  0.18574784120E+02  0.72461569364E+02  0.69999998789E+02 0.  0.
        -12    1    1    2    0    0 -0.13258670520E+01  0.19745064727E+01 -0.18574784120E+02  0.18726430636E+02  0.00000000000E+00 0.  1.
         11    1    3    3    0    0  0.18757744912E+02 -0.53669727342E+01  0.32279285436E+02  0.37717498049E+02  0.51100000000E-03 0. -1.
        -11    1    3    3    0    0  0.18908710239E+01  0.10818617952E+02 -0.27413726018E+01  0.11319585311E+02  0.51100000000E-03 0.  1.
        -12    1    3    3    0    0 -0.19322748884E+02 -0.74261516900E+01 -0.10963128715E+02  0.23424486005E+02  0.00000000000E+00 0.  1.
</event>
<event>
 7    1  0.1789107E-013  0.7246174E+02  0.7816164E-02  0.1226708E+00
        -11   -1    0    0    0    0  0.00000000000E+00  0.00000000000E+00  0.45593999997E+02  0.45594000000E+02  0.51100000000E-03 0.  1.
         11   -1    0    0    0    0 -0.00000000000E+00 -0.00000000000E+00 -0.45593999997E+02  0.45594000000E+02  0.51100000000E-03 0. -1.
    9900012    2    1    2    0    0  0.52457166844E+01  0.17662782301E+01 -0.17889533410E+02  0.72461743355E+02  0.70000225443E+02 0.  0.
        -12    1    1    2    0    0 -0.52457166844E+01 -0.17662782301E+01  0.17889533410E+02  0.18726256645E+02  0.00000000000E+00 0.  1.
         11    1    3    3    0    0  0.80461119786E+01 -0.18953795536E+02  0.59129494604E+00  0.20599415360E+02  0.51100000000E-03 0. -1.
        -11    1    3    3    0    0  0.17857661256E+02  0.22891173274E+01  0.96632063942E+00  0.18029694937E+02  0.51100000000E-03 0.  1.
        -12    1    3    3    0    0 -0.20658056550E+02  0.18430956438E+02 -0.19447148995E+02  0.33832633059E+02  0.00000000000E+00 0.  1.
</event>
<event>
 7    1  0.1789107E-013  0.7246094E+02  0.7816164E-02  0.1226710E+00
        -11   -1    0    0    0    0  0.00000000000E+00  0.00000000000E+00  0.45593999997E+02  0.45594000000E+02  0.51100000000E-03 0.  1.
         11   -1    0    0    0    0 -0.00000000000E+00 -0.00000000000E+00 -0.45593999997E+02  0.45594000000E+02  0.51100000000E-03 0. -1.
    9900012    2    1    2    0    0 -0.56112205028E+01  0.22763731804E+01 -0.17721037895E+02  0.72460937911E+02  0.69999176199E+02 0.  0.
        -12    1    1    2    0    0  0.56112205028E+01 -0.22763731804E+01  0.17721037895E+02  0.18727062089E+02  0.00000000000E+00 0.  1.
         11    1    3    3    0    0  0.14136191756E+02  0.18501969747E+02 -0.30730669396E+02  0.38555529353E+02  0.51100000000E-03 0. -1.
        -11    1    3    3    0    0 -0.12076650073E+01 -0.11149804362E+01 -0.41534970266E+01  0.44668975759E+01  0.51100000000E-03 0.  1.
        -12    1    3    3    0    0 -0.18539747251E+02 -0.15110616131E+02  0.17163128527E+02  0.29438510982E+02  0.00000000000E+00 0.  1.
</event>
<event>
 7    1  0.1789107E-013  0.7246152E+02  0.7816164E-02  0.1226708E+00
        -11   -1    0    0    0    0  0.00000000000E+00  0.00000000000E+00  0.45593999997E+02  0.45594000000E+02  0.51100000000E-03 0.  1.
         11   -1    0    0    0    0 -0.00000000000E+00 -0.00000000000E+00 -0.45593999997E+02  0.45594000000E+02  0.51100000000E-03 0. -1.
    9900012    2    1    2    0    0 -0.46369318522E+01 -0.11716082929E+02 -0.13853273630E+02  0.72461523384E+02  0.69999938891E+02 0.  0.
        -12    1    1    2    0    0  0.46369318522E+01  0.11716082929E+02  0.13853273630E+02  0.18726476616E+02  0.00000000000E+00 0.  1.
         11    1    3    3    0    0  0.44587676470E+01 -0.16153969174E+02 -0.15765391327E+02  0.23008235329E+02  0.51100000000E-03 0. -1.
        -11    1    3    3    0    0 -0.15333587701E+02 -0.19329378945E+02 -0.10993655041E+01  0.24697214559E+02  0.51100000000E-03 0.  1.
        -12    1    3    3    0    0  0.62378882019E+01  0.23767265191E+02  0.30114832010E+01  0.24756073496E+02  0.00000000000E+00 0.  1.
</event>
<event>
 7    1  0.1789107E-013  0.7246124E+02  0.7816164E-02  0.1226709E+00
        -11   -1    0    0    0    0  0.00000000000E+00  0.00000000000E+00  0.45593999997E+02  0.45594000000E+02  0.51100000000E-03 0.  1.
         11   -1    0    0    0    0 -0.00000000000E+00 -0.00000000000E+00 -0.45593999997E+02  0.45594000000E+02  0.51100000000E-03 0. -1.
    9900012    2    1    2    0    0  0.16505605892E+02  0.27730602512E+01 -0.84003962161E+01  0.72461239853E+02  0.69999569538E+02 0.  0.
        -12    1    1    2    0    0 -0.16505605892E+02 -0.27730602512E+01  0.84003962161E+01  0.18726760147E+02  0.00000000000E+00 0.  1.
         11    1    3    3    0    0 -0.14402043626E+02 -0.62078147002E+01  0.10522898599E+02  0.18886164755E+02  0.51100000000E-03 0. -1.
        -11    1    3    3    0    0  0.19507823606E+01 -0.63015554193E+01  0.85741252135E+01  0.10818076352E+02  0.51100000000E-03 0.  1.
        -12    1    3    3    0    0  0.28956867157E+02  0.15282430371E+02 -0.27497420029E+02  0.42756998747E+02  0.00000000000E+00 0.  1.
</event>
<event>
 7    1  0.1789107E-013  0.7246160E+02  0.7816164E-02  0.1226708E+00
        -11   -1    0    0    0    0  0.00000000000E+00  0.00000000000E+00  0.45593999997E+02  0.45594000000E+02  0.51100000000E-03 0. -1.
         11   -1    0    0    0    0 -0.00000000000E+00 -0.00000000000E+00 -0.45593999997E+02  0.45594000000E+02  0.51100000000E-03 0.  1.
    9900012    2    1    2    0    0 -0.59329594981E+01 -0.76180330254E+01  0.16045047962E+02  0.72461601529E+02  0.70000040689E+02 0.  0.
        -12    1    1    2    0    0  0.59329594981E+01  0.76180330254E+01 -0.16045047962E+02  0.18726398471E+02  0.00000000000E+00 0.  1.
         11    1    3    3    0    0  0.30936125882E+01  0.11558354930E+02  0.49278465835E+01  0.12940234918E+02  0.51100000000E-03 0. -1.
        -11    1    3    3    0    0  0.81387808415E+01  0.80592520653E+01 -0.14429706729E+02  0.18423021847E+02  0.51100000000E-03 0.  1.
         12    1    3    3    0    0 -0.17165352928E+02 -0.27235640021E+02  0.25546908108E+02  0.41098344764E+02  0.00000000000E+00 0. -1.
</event>
<event>
 7    1  0.1789107E-013  0.7246159E+02  0.7816164E-02  0.1226708E+00
        -11   -1    0    0    0    0  0.00000000000E+00  0.00000000000E+00  0.45593999997E+02  0.45594000000E+02  0.51100000000E-03 0.  1.
         11   -1    0    0    0    0 -0.00000000000E+00 -0.00000000000E+00 -0.45593999997E+02  0.45594000000E+02  0.51100000000E-03 0. -1.
    9900012    2    1    2    0    0 -0.99422773969E+01  0.10978034914E+02  0.11459163373E+02  0.72461586686E+02  0.70000021353E+02 0.  0.
        -12    1    1    2    0    0  0.99422773969E+01 -0.10978034914E+02 -0.11459163373E+02  0.18726413314E+02  0.00000000000E+00 0.  1.
         11    1    3    3    0    0  0.11388510682E+02 -0.50744883900E+01 -0.92980024477E+01  0.15553181596E+02  0.51100000000E-03 0. -1.
        -11    1    3    3    0    0 -0.27506809827E+02 -0.66570767850E+01  0.54136138994E+01  0.28814032586E+02  0.51100000000E-03 0.  1.
        -12    1    3    3    0    0  0.61760217479E+01  0.22709600089E+02  0.15343551921E+02  0.28094372504E+02  0.00000000000E+00 0.  1.
</event>
<event>
 7    1  0.1789107E-013  0.7246157E+02  0.7816164E-02  0.1226708E+00
        -11   -1    0    0    0    0  0.00000000000E+00  0.00000000000E+00  0.45593999997E+02  0.45594000000E+02  0.51100000000E-03 0.  1.
         11   -1    0    0    0    0 -0.00000000000E+00 -0.00000000000E+00 -0.45593999997E+02  0.45594000000E+02  0.51100000000E-03 0. -1.
    9900012    2    1    2    0    0 -0.39105902357E+01 -0.17359037212E+02  0.58352564085E+01  0.72461571983E+02  0.70000002200E+02 0.  0.
        -12    1    1    2    0    0  0.39105902357E+01  0.17359037212E+02 -0.58352564085E+01  0.18726428017E+02  0.00000000000E+00 0.  1.
         11    1    3    3    0    0 -0.22276064276E+01 -0.31876825530E+01  0.46734272460E+01  0.60798415226E+01  0.51100000000E-03 0. -1.
        -11    1    3    3    0    0  0.15762202788E+02 -0.28817705775E+02  0.18552153985E+02  0.37723860097E+02  0.51100000000E-03 0.  1.
         12    1    3    3    0    0 -0.17445186596E+02  0.14646351116E+02 -0.17390324822E+02  0.28657870364E+02  0.00000000000E+00 0. -1.
</event>
<event>
 7    1  0.1789107E-013  0.7246158E+02  0.7816164E-02  0.1226708E+00
        -11   -1    0    0    0    0  0.00000000000E+00  0.00000000000E+00  0.45593999997E+02  0.45594000000E+02  0.51100000000E-03 0. -1.
         11   -1    0    0    0    0 -0.00000000000E+00 -0.00000000000E+00 -0.45593999997E+02  0.45594000000E+02  0.51100000000E-03 0.  1.
    9900012    2    1    2    0    0 -0.13637108868E+01 -0.10688664705E+02  0.15315730742E+02  0.72461578325E+02  0.70000010462E+02 0.  0.
        -12    1    1    2    0    0  0.13637108868E+01  0.10688664705E+02 -0.15315730742E+02  0.18726421675E+02  0.00000000000E+00 0.  1.
         11    1    3    3    0    0  0.72600841210E+01  0.13162003025E+02  0.16192072996E+02  0.22093672697E+02  0.51100000000E-03 0. -1.
        -11    1    3    3    0    0  0.17381969002E+02 -0.66749478239E+01 -0.40052499646E+01  0.19045466715E+02  0.51100000000E-03 0.  1.
        -12    1    3    3    0    0 -0.26005764010E+02 -0.17175719906E+02  0.31289077105E+01  0.31322438913E+02  0.00000000000E+00 0.  1.
</event>
<event>
 7    1  0.1789107E-013  0.7246155E+02  0.7816164E-02  0.1226708E+00
        -11   -1    0    0    0    0  0.00000000000E+00  0.00000000000E+00  0.45593999997E+02  0.45594000000E+02  0.51100000000E-03 0.  1.
         11   -1    0    0    0    0 -0.00000000000E+00 -0.00000000000E+00 -0.45593999997E+02  0.45594000000E+02  0.51100000000E-03 0. -1.
    9900012    2    1    2    0    0 -0.58177349937E+01 -0.17471998906E+02  0.34004361081E+01  0.72461554744E+02  0.69999979742E+02 0.  0.
        -12    1    1    2    0    0  0.58177349937E+01  0.17471998906E+02 -0.34004361081E+01  0.18726445256E+02  0.00000000000E+00 0.  1.
         11    1    3    3    0    0 -0.51860795405E+01  0.10582711490E+01 -0.47353147937E+01  0.71020113547E+01  0.51100000000E-03 0. -1.
        -11    1    3    3    0    0  0.27316090395E+02 -0.81025510513E+01  0.18279751144E+02  0.33852170243E+02  0.51100000000E-03 0.  1.
         12    1    3    3    0    0 -0.27947745848E+02 -0.10427719003E+02 -0.10144000242E+02  0.31507373146E+02  0.00000000000E+00 0. -1.
</event>
<event>
 7    1  0.1789107E-013  0.7246146E+02  0.7816164E-02  0.1226708E+00
        -11   -1    0    0    0    0  0.00000000000E+00  0.00000000000E+00  0.45593999997E+02  0.45594000000E+02  0.51100000000E-03 0. -1.
         11   -1    0    0    0    0 -0.00000000000E+00 -0.00000000000E+00 -0.45593999997E+02  0.45594000000E+02  0.51100000000E-03 0.  1.
    9900012    2    1    2    0    0 -0.97632219869E+01 -0.88495469254E+01  0.13305954534E+02  0.72461457062E+02  0.69999852494E+02 0.  0.
        -12    1    1    2    0    0  0.97632219869E+01  0.88495469254E+01 -0.13305954534E+02  0.18726542938E+02  0.00000000000E+00 0.  1.
         11    1    3    3    0    0  0.64924777379E+00  0.24576744965E+01  0.58153411023E+01  0.63466431285E+01  0.51100000000E-03 0. -1.
        -11    1    3    3    0    0 -0.16573679621E+02  0.11950249301E+02 -0.20677671088E+02  0.29069939739E+02  0.51100000000E-03 0.  1.
         12    1    3    3    0    0  0.61612098607E+01 -0.23257470723E+02  0.28168284519E+02  0.37044874195E+02  0.00000000000E+00 0. -1.
</event>
<event>
 7    1  0.1789107E-013  0.7246151E+02  0.7816164E-02  0.1226708E+00
        -11   -1    0    0    0    0  0.00000000000E+00  0.00000000000E+00  0.45593999997E+02  0.45594000000E+02  0.51100000000E-03 0. -1.
         11   -1    0    0    0    0 -0.00000000000E+00 -0.00000000000E+00 -0.45593999997E+02  0.45594000000E+02  0.51100000000E-03 0.  1.
    9900012    2    1    2    0    0  0.77375348492E+01  0.29454378670E+01  0.16796911508E+02  0.72461513785E+02  0.69999926385E+02 0.  0.
        -12    1    1    2    0    0 -0.77375348492E+01 -0.29454378670E+01 -0.16796911508E+02  0.18726486215E+02  0.00000000000E+00 0.  1.
         11    1    3    3    0    0 -0.40199512409E+01 -0.54329662275E+01 -0.28301387225E+01  0.73271287322E+01  0.51100000000E-03 0. -1.
        -11    1    3    3    0    0 -0.59819812733E+01  0.41770637234E+00 -0.20061685858E+02  0.20938715775E+02  0.51100000000E-03 0.  1.
         12    1    3    3    0    0  0.17739467363E+02  0.79606977223E+01  0.39688736089E+02  0.44195669277E+02  0.00000000000E+00 0. -1.
</event>
<event>
 7    1  0.1789107E-013  0.7246158E+02  0.7816164E-02  0.1226708E+00
        -11   -1    0    0    0    0  0.00000000000E+00  0.00000000000E+00  0.45593999997E+02  0.45594000000E+02  0.51100000000E-03 0. -1.
         11   -1    0    0    0    0 -0.00000000000E+00 -0.00000000000E+00 -0.45593999997E+02  0.45594000000E+02  0.51100000000E-03 0.  1.
    9900012    2    1    2    0    0 -0.13608123146E+02  0.73655510855E+01  0.10547343406E+02  0.72461579860E+02  0.70000012461E+02 0.  0.
        -12    1    1    2    0    0  0.13608123146E+02 -0.73655510855E+01 -0.10547343406E+02  0.18726420140E+02  0.00000000000E+00 0.  1.
         11    1    3    3    0    0  0.93738160569E+01 -0.52324079984E+01  0.17502723014E+02  0.20532701578E+02  0.51100000000E-03 0. -1.
        -11    1    3    3    0    0 -0.20726406460E+02 -0.76859939698E+01 -0.18194045812E+02  0.28630084375E+02  0.51100000000E-03 0.  1.
         12    1    3    3    0    0 -0.22555327433E+01  0.20283953054E+02  0.11238666204E+02  0.23298793906E+02  0.00000000000E+00 0. -1.
</event>
<event>
 7    1  0.1789107E-013  0.7246168E+02  0.7816164E-02  0.1226708E+00
        -11   -1    0    0    0    0  0.00000000000E+00  0.00000000000E+00  0.45593999997E+02  0.45594000000E+02  0.51100000000E-03 0.  1.
         11   -1    0    0    0    0 -0.00000000000E+00 -0.00000000000E+00 -0.45593999997E+02  0.45594000000E+02  0.51100000000E-03 0. -1.
    9900012    2    1    2    0    0 -0.16908433894E+02 -0.21093002643E+01  0.77672989042E+01  0.72461675838E+02  0.70000137490E+02 0.  0.
        -12    1    1    2    0    0  0.16908433894E+02  0.21093002643E+01 -0.77672989042E+01  0.18726324162E+02  0.00000000000E+00 0.  1.
         11    1    3    3    0    0  0.24064292911E+01  0.44888613579E+01  0.69647681504E+01  0.86283702907E+01  0.51100000000E-03 0. -1.
        -11    1    3    3    0    0 -0.29260998078E+02  0.98907621585E+01  0.19875776787E+02  0.36729820144E+02  0.51100000000E-03 0.  1.
         12    1    3    3    0    0  0.99461348931E+01 -0.16488923781E+02 -0.19073246034E+02  0.27103485404E+02  0.00000000000E+00 0. -1.
</event>
<event>
 7    1  0.1789107E-013  0.7246121E+02  0.7816164E-02  0.1226709E+00
        -11   -1    0    0    0    0  0.00000000000E+00  0.00000000000E+00  0.45593999997E+02  0.45594000000E+02  0.51100000000E-03 0.  1.
         11   -1    0    0    0    0 -0.00000000000E+00 -0.00000000000E+00 -0.45593999997E+02  0.45594000000E+02  0.51100000000E-03 0. -1.
    9900012    2    1    2    0    0 -0.19432372329E+01 -0.18200902032E+02 -0.39552000519E+01  0.72461211349E+02  0.69999532405E+02 0.  0.
        -12    1    1    2    0    0  0.19432372329E+01  0.18200902032E+02  0.39552000519E+01  0.18726788651E+02  0.00000000000E+00 0.  1.
         11    1    3    3    0    0 -0.46570662087E+00 -0.29075914154E+02 -0.13182693713E+02  0.31928186299E+02  0.51100000000E-03 0. -1.
        -11    1    3    3    0    0  0.10888764884E+02 -0.98328212573E+01 -0.10341633642E+00  0.14671750740E+02  0.51100000000E-03 0.  1.
        -12    1    3    3    0    0 -0.12366295496E+02  0.20707833379E+02  0.93309099976E+01  0.25861274310E+02  0.00000000000E+00 0.  1.
</event>
<event>
 7    1  0.1789107E-013  0.7246160E+02  0.7816164E-02  0.1226708E+00
        -11   -1    0    0    0    0  0.00000000000E+00  0.00000000000E+00  0.45593999997E+02  0.45594000000E+02  0.51100000000E-03 0.  1.
         11   -1    0    0    0    0 -0.00000000000E+00 -0.00000000000E+00 -0.45593999997E+02  0.45594000000E+02  0.51100000000E-03 0. -1.
    9900012    2    1    2    0    0 -0.11402512332E+02  0.82765090490E+01 -0.12335315313E+02  0.72461604367E+02  0.70000044386E+02 0.  0.
        -12    1    1    2    0    0  0.11402512332E+02 -0.82765090490E+01  0.12335315313E+02  0.18726395633E+02  0.00000000000E+00 0.  1.
         11    1    3    3    0    0 -0.26588624387E+02 -0.14994167899E+02 -0.17040114266E+02  0.34959197820E+02  0.51100000000E-03 0. -1.
        -11    1    3    3    0    0 -0.47169542228E+00 -0.48983850840E+01 -0.74856150225E-01  0.49216132220E+01  0.51100000000E-03 0.  1.
        -12    1    3    3    0    0  0.15657807477E+02  0.28169062032E+02  0.47796551027E+01  0.32580793325E+02  0.00000000000E+00 0.  1.
</event>
<event>
 7    1  0.1789107E-013  0.7246157E+02  0.7816164E-02  0.1226708E+00
        -11   -1    0    0    0    0  0.00000000000E+00  0.00000000000E+00  0.45593999997E+02  0.45594000000E+02  0.51100000000E-03 0. -1.
         11   -1    0    0    0    0 -0.00000000000E+00 -0.00000000000E+00 -0.45593999997E+02  0.45594000000E+02  0.51100000000E-03 0.  1.
    9900012    2    1    2    0    0 -0.16918981877E+02  0.67958568253E+01 -0.42712599847E+01  0.72461567355E+02  0.69999996171E+02 0.  0.
        -12    1    1    2    0    0  0.16918981877E+02 -0.67958568253E+01  0.42712599847E+01  0.18726432645E+02  0.00000000000E+00 0.  1.
         11    1    3    3    0    0  0.80079789839E+01  0.81260691539E+01  0.20443988800E+02  0.23411907347E+02  0.51100000000E-03 0. -1.
        -11    1    3    3    0    0 -0.20341283750E+01 -0.83561534835E+01  0.57158092669E+01  0.10326347618E+02  0.51100000000E-03 0.  1.
        -12    1    3    3    0    0 -0.22892832486E+02  0.70259411549E+01 -0.30431058052E+02  0.38723312390E+02  0.00000000000E+00 0.  1.
</event>
<event>
 7    1  0.1789107E-013  0.7246156E+02  0.7816164E-02  0.1226708E+00
        -11   -1    0    0    0    0  0.00000000000E+00  0.00000000000E+00  0.45593999997E+02  0.45594000000E+02  0.51100000000E-03 0. -1.
         11   -1    0    0    0    0 -0.00000000000E+00 -0.00000000000E+00 -0.45593999997E+02  0.45594000000E+02  0.51100000000E-03 0.  1.
    9900012    2    1    2    0    0 -0.15229192085E+02 -0.60404335312E+01  0.90699796425E+01  0.72461557212E+02  0.69999982957E+02 0.  0.
        -12    1    1    2    0    0  0.15229192085E+02  0.60404335312E+01 -0.90699796425E+01  0.18726442788E+02  0.00000000000E+00 0.  1.
         11    1    3    3    0    0 -0.16311716246E+01 -0.16349973810E+02  0.28150731775E+02  0.32595184678E+02  0.51100000000E-03 0. -1.
        -11    1    3    3    0    0 -0.81146816648E+01 -0.67735358192E+01  0.34002746847E+01  0.11103635180E+02  0.51100000000E-03 0.  1.
        -12    1    3    3    0    0 -0.54833387952E+01  0.17083076098E+02 -0.22481026818E+02  0.28762737354E+02  0.00000000000E+00 0.  1.
</event>
<event>
 7    1  0.1789107E-013  0.7246156E+02  0.7816164E-02  0.1226708E+00
        -11   -1    0    0    0    0  0.00000000000E+00  0.00000000000E+00  0.45593999997E+02  0.45594000000E+02  0.51100000000E-03 0.  1.
         11   -1    0    0    0    0 -0.00000000000E+00 -0.00000000000E+00 -0.45593999997E+02  0.45594000000E+02  0.51100000000E-03 0. -1.
    9900012    2    1    2    0    0 -0.15603477844E+01  0.12338882695E+02 -0.13999885243E+02  0.72461561519E+02  0.69999988568E+02 0.  0.
        -12    1    1    2    0    0  0.15603477844E+01 -0.12338882695E+02  0.13999885243E+02  0.18726438481E+02  0.00000000000E+00 0.  1.
         11    1    3    3    0    0 -0.62036269757E+01  0.29239639515E+02 -0.32787455439E+02  0.44367316136E+02  0.51100000000E-03 0. -1.
        -11    1    3    3    0    0  0.38473166115E+00  0.17215074952E+01  0.19565726146E+01  0.26343468193E+01  0.51100000000E-03 0.  1.
        -12    1    3    3    0    0  0.42585475302E+01 -0.18622264315E+02  0.16830997582E+02  0.25459898564E+02  0.00000000000E+00 0.  1.
</event>
<event>
 7    1  0.1789107E-013  0.7246146E+02  0.7816164E-02  0.1226708E+00
        -11   -1    0    0    0    0  0.00000000000E+00  0.00000000000E+00  0.45593999997E+02  0.45594000000E+02  0.51100000000E-03 0.  1.
         11   -1    0    0    0    0 -0.00000000000E+00 -0.00000000000E+00 -0.45593999997E+02  0.45594000000E+02  0.51100000000E-03 0. -1.
    9900012    2    1    2    0    0  0.25510317415E+01 -0.14365369648E+02 -0.11739325765E+02  0.72461457941E+02  0.69999853639E+02 0.  0.
        -12    1    1    2    0    0 -0.25510317415E+01  0.14365369648E+02  0.11739325765E+02  0.18726542059E+02  0.00000000000E+00 0.  1.
         11    1    3    3    0    0 -0.70130261976E+01  0.20787773316E+01 -0.15093445950E+02  0.16772476339E+02  0.51100000000E-03 0. -1.
        -11    1    3    3    0    0 -0.20098878262E+02  0.25849576465E+01 -0.22550592538E+00  0.20265679525E+02  0.51100000000E-03 0.  1.
        -12    1    3    3    0    0  0.29662936201E+02 -0.19029104626E+02  0.35796261106E+01  0.35423302077E+02  0.00000000000E+00 0.  1.
</event>
<event>
 7    1  0.1789107E-013  0.7246155E+02  0.7816164E-02  0.1226708E+00
        -11   -1    0    0    0    0  0.00000000000E+00  0.00000000000E+00  0.45593999997E+02  0.45594000000E+02  0.51100000000E-03 0.  1.
         11   -1    0    0    0    0 -0.00000000000E+00 -0.00000000000E+00 -0.45593999997E+02  0.45594000000E+02  0.51100000000E-03 0. -1.
    9900012    2    1    2    0    0  0.33117043169E+00  0.67408797387E+01 -0.17467997627E+02  0.72461546128E+02  0.69999968519E+02 0.  0.
        -12    1    1    2    0    0 -0.33117043169E+00 -0.67408797387E+01  0.17467997627E+02  0.18726453872E+02  0.00000000000E+00 0.  1.
         11    1    3    3    0    0  0.14644418334E+02  0.28006729748E+02 -0.70258799383E+01  0.32375899813E+02  0.51100000000E-03 0. -1.
        -11    1    3    3    0    0  0.75087265980E+01 -0.80537040790E+01  0.27744792188E+01  0.11355212887E+02  0.51100000000E-03 0.  1.
        -12    1    3    3    0    0 -0.21821974500E+02 -0.13212145930E+02 -0.13216596908E+02  0.28730433428E+02  0.00000000000E+00 0.  1.
</event>
<event>
 7    1  0.1789107E-013  0.7246134E+02  0.7816164E-02  0.1226709E+00
        -11   -1    0    0    0    0  0.00000000000E+00  0.00000000000E+00  0.45593999997E+02  0.45594000000E+02  0.51100000000E-03 0. -1.
         11   -1    0    0    0    0 -0.00000000000E+00 -0.00000000000E+00 -0.45593999997E+02  0.45594000000E+02  0.51100000000E-03 0.  1.
    9900012    2    1    2    0    0 -0.15625394222E+02 -0.95694137066E+01  0.38679712413E+01  0.72461339197E+02  0.69999698953E+02 0.  0.
        -12    1    1    2    0    0  0.15625394222E+02  0.95694137066E+01 -0.38679712413E+01  0.18726660803E+02  0.00000000000E+00 0.  1.
         11    1    3    3    0    0 -0.22930207842E+02 -0.13656785902E+02  0.19576867020E+02  0.33099183606E+02  0.51100000000E-03 0. -1.
        -11    1    3    3    0    0  0.61803108847E+01 -0.13169750672E+02  0.19117607773E+01  0.14672879913E+02  0.51100000000E-03 0.  1.
        -12    1    3    3    0    0  0.11245027347E+01  0.17257122868E+02 -0.17620656556E+02  0.24689275678E+02  0.00000000000E+00 0.  1.
</event>
<event>
 7    1  0.1789107E-013  0.7246170E+02  0.7816164E-02  0.1226708E+00
        -11   -1    0    0    0    0  0.00000000000E+00  0.00000000000E+00  0.45593999997E+02  0.45594000000E+02  0.51100000000E-03 0.  1.
         11   -1    0    0    0    0 -0.00000000000E+00 -0.00000000000E+00 -0.45593999997E+02  0.45594000000E+02  0.51100000000E-03 0. -1.
    9900012    2    1    2    0    0  0.17401933562E+02  0.65319616562E+01 -0.22760888947E+01  0.72461697764E+02  0.70000166053E+02 0.  0.
        -12    1    1    2    0    0 -0.17401933562E+02 -0.65319616562E+01  0.22760888947E+01  0.18726302236E+02  0.00000000000E+00 0.  1.
         11    1    3    3    0    0 -0.49562016951E+01  0.66492607971E+01  0.65712107185E+01  0.10580993099E+02  0.51100000000E-03 0. -1.
        -11    1    3    3    0    0 -0.42942426846E+01  0.24505311435E+02 -0.20382850170E+01  0.24962079538E+02  0.51100000000E-03 0.  1.
         12    1    3    3    0    0  0.26652377942E+02 -0.24622610576E+02 -0.68090145961E+01  0.36918625128E+02  0.00000000000E+00 0. -1.
</event>
<event>
 7    1  0.1789107E-013  0.7246158E+02  0.7816164E-02  0.1226708E+00
        -11   -1    0    0    0    0  0.00000000000E+00  0.00000000000E+00  0.45593999997E+02  0.45594000000E+02  0.51100000000E-03 0. -1.
         11   -1    0    0    0    0 -0.00000000000E+00 -0.00000000000E+00 -0.45593999997E+02  0.45594000000E+02  0.51100000000E-03 0.  1.
    9900012    2    1    2    0    0 -0.30488431175E+01  0.58985109635E+01  0.17509733587E+02  0.72461584266E+02  0.70000018201E+02 0.  0.
        -12    1    1    2    0    0  0.30488431175E+01 -0.58985109635E+01 -0.17509733587E+02  0.18726415734E+02  0.00000000000E+00 0.  1.
         11    1    3    3    0    0  0.21692053648E+01 -0.10997220498E+02  0.12172217583E+02  0.16547120346E+02  0.51100000000E-03 0. -1.
        -11    1    3    3    0    0  0.35849742938E+00 -0.14868738788E+02 -0.12170809897E+02  0.19218130174E+02  0.51100000000E-03 0.  1.
         12    1    3    3    0    0 -0.55765459117E+01  0.31764470250E+02  0.17508325902E+02  0.36696333746E+02  0.00000000000E+00 0. -1.
</event>
<event>
 7    1  0.1789107E-013  0.7246155E+02  0.7816164E-02  0.1226708E+00
        -11   -1    0    0    0    0  0.00000000000E+00  0.00000000000E+00  0.45593999997E+02  0.45594000000E+02  0.51100000000E-03 0. -1.
         11   -1    0    0    0    0 -0.00000000000E+00 -0.00000000000E+00 -0.45593999997E+02  0.45594000000E+02  0.51100000000E-03 0.  1.
    9900012    2    1    2    0    0 -0.52358409623E+01 -0.17976663510E+02 -0.32456623604E+00  0.72461553333E+02  0.69999977905E+02 0.  0.
        -12    1    1    2    0    0  0.52358409623E+01  0.17976663510E+02  0.32456623604E+00  0.18726446667E+02  0.00000000000E+00 0.  1.
         11    1    3    3    0    0 -0.29240612922E+02 -0.17580047742E+02 -0.82637866869E+01  0.35105009519E+02  0.51100000000E-03 0. -1.
        -11    1    3    3    0    0  0.16620187623E+01  0.10692990646E+02  0.59114552165E+01  0.12330760656E+02  0.51100000000E-03 0.  1.
         12    1    3    3    0    0  0.22342753197E+02 -0.11089606413E+02  0.20277652345E+01  0.25025783158E+02  0.00000000000E+00 0. -1.
</event>
<event>
 7    1  0.1789107E-013  0.7246158E+02  0.7816164E-02  0.1226708E+00
        -11   -1    0    0    0    0  0.00000000000E+00  0.00000000000E+00  0.45593999997E+02  0.45594000000E+02  0.51100000000E-03 0.  1.
         11   -1    0    0    0    0 -0.00000000000E+00 -0.00000000000E+00 -0.45593999997E+02  0.45594000000E+02  0.51100000000E-03 0. -1.
    9900012    2    1    2    0    0 -0.96569542474E+00  0.14785250697E+02 -0.11451758259E+02  0.72461575540E+02  0.70000006834E+02 0.  0.
        -12    1    1    2    0    0  0.96569542474E+00 -0.14785250697E+02  0.11451758259E+02  0.18726424460E+02  0.00000000000E+00 0.  1.
         11    1    3    3    0    0  0.12013870876E+02  0.19328409512E+02 -0.12634447697E+02  0.26029786333E+02  0.51100000000E-03 0. -1.
        -11    1    3    3    0    0  0.16099410307E+02 -0.32274284597E+01 -0.39151485029E+01  0.16880038352E+02  0.51100000000E-03 0.  1.
        -12    1    3    3    0    0 -0.29078976608E+02 -0.13157303555E+01  0.50978379406E+01  0.29551750855E+02  0.00000000000E+00 0.  1.
</event>
<event>
 7    1  0.1789107E-013  0.7246183E+02  0.7816164E-02  0.1226707E+00
        -11   -1    0    0    0    0  0.00000000000E+00  0.00000000000E+00  0.45593999997E+02  0.45594000000E+02  0.51100000000E-03 0.  1.
         11   -1    0    0    0    0 -0.00000000000E+00 -0.00000000000E+00 -0.45593999997E+02  0.45594000000E+02  0.51100000000E-03 0. -1.
    9900012    2    1    2    0    0 -0.39894353205E+01  0.11149851597E+02 -0.14506364858E+02  0.72461830978E+02  0.70000339589E+02 0.  0.
        -12    1    1    2    0    0  0.39894353205E+01 -0.11149851597E+02  0.14506364858E+02  0.18726169022E+02  0.00000000000E+00 0.  1.
         11    1    3    3    0    0  0.10680064467E+02 -0.11711529266E+01 -0.19799351570E+00  0.10745909821E+02  0.51100000000E-03 0. -1.
        -11    1    3    3    0    0 -0.21596622746E+01 -0.14587119195E+02  0.14268392295E+02  0.20519142440E+02  0.51100000000E-03 0.  1.
         12    1    3    3    0    0 -0.12509837513E+02  0.26908123719E+02 -0.28576763637E+02  0.41196778717E+02  0.00000000000E+00 0. -1.
</event>
<event>
 7    1  0.1789107E-013  0.7246153E+02  0.7816164E-02  0.1226708E+00
        -11   -1    0    0    0    0  0.00000000000E+00  0.00000000000E+00  0.45593999997E+02  0.45594000000E+02  0.51100000000E-03 0. -1.
         11   -1    0    0    0    0 -0.00000000000E+00 -0.00000000000E+00 -0.45593999997E+02  0.45594000000E+02  0.51100000000E-03 0.  1.
    9900012    2    1    2    0    0  0.55420793301E+01  0.16095414978E+02  0.78040727946E+01  0.72461532666E+02  0.69999950983E+02 0.  0.
        -12    1    1    2    0    0 -0.55420793301E+01 -0.16095414978E+02 -0.78040727946E+01  0.18726467334E+02  0.00000000000E+00 0.  1.
         11    1    3    3    0    0 -0.54372478969E+01  0.28852143429E+01  0.14687054302E+02  0.15924750888E+02  0.51100000000E-03 0. -1.
        -11    1    3    3    0    0 -0.78995058209E+00 -0.19732569650E+02  0.34787585491E+01  0.20052433474E+02  0.51100000000E-03 0.  1.
         12    1    3    3    0    0  0.11769277809E+02  0.32942770285E+02 -0.10361740057E+02  0.36484348305E+02  0.00000000000E+00 0. -1.
</event>
<event>
 7    1  0.1789107E-013  0.7246156E+02  0.7816164E-02  0.1226708E+00
        -11   -1    0    0    0    0  0.00000000000E+00  0.00000000000E+00  0.45593999997E+02  0.45594000000E+02  0.51100000000E-03 0.  1.
         11   -1    0    0    0    0 -0.00000000000E+00 -0.00000000000E+00 -0.45593999997E+02  0.45594000000E+02  0.51100000000E-03 0. -1.
    9900012    2    1    2    0    0  0.17803741869E+02 -0.24985427557E+01  0.52405838781E+01  0.72461557203E+02  0.69999982947E+02 0.  0.
        -12    1    1    2    0    0 -0.17803741869E+02  0.24985427557E+01 -0.52405838781E+01  0.18726442797E+02  0.00000000000E+00 0.  1.
         11    1    3    3    0    0  0.30664693379E+01  0.62893081881E+01  0.15365147690E+02  0.16883317076E+02  0.51100000000E-03 0.  1.
        -11    1    3    3    0    0  0.24405828839E+02 -0.57160435848E+01  0.14491426895E+02  0.28953740506E+02  0.51100000000E-03 0. -1.
         12    1    3    3    0    0 -0.96685563084E+01 -0.30718073591E+01 -0.24615990708E+02  0.26624499621E+02  0.00000000000E+00 0. -1.
</event>
<event>
 7    1  0.1789107E-013  0.7246159E+02  0.7816164E-02  0.1226708E+00
        -11   -1    0    0    0    0  0.00000000000E+00  0.00000000000E+00  0.45593999997E+02  0.45594000000E+02  0.51100000000E-03 0. -1.
         11   -1    0    0    0    0 -0.00000000000E+00 -0.00000000000E+00 -0.45593999997E+02  0.45594000000E+02  0.51100000000E-03 0.  1.
    9900012    2    1    2    0    0  0.88231099445E+01 -0.93725377754E+01  0.13600982003E+02  0.72461589643E+02  0.70000025205E+02 0.  0.
        -12    1    1    2    0    0 -0.88231099445E+01  0.93725377754E+01 -0.13600982003E+02  0.18726410357E+02  0.00000000000E+00 0.  1.
         11    1    3    3    0    0  0.93551052072E+01 -0.11988925906E+02 -0.94616025786E+01  0.17910172010E+02  0.51100000000E-03 0. -1.
        -11    1    3    3    0    0 -0.32250180075E+01  0.19120556567E+02 -0.66140566159E+01  0.20487610153E+02  0.51100000000E-03 0.  1.
         12    1    3    3    0    0  0.26930227447E+01 -0.16504168437E+02  0.29676641197E+02  0.34063807480E+02  0.00000000000E+00 0. -1.
</event>
<event>
 7    1  0.1789107E-013  0.7246143E+02  0.7816164E-02  0.1226708E+00
        -11   -1    0    0    0    0  0.00000000000E+00  0.00000000000E+00  0.45593999997E+02  0.45594000000E+02  0.51100000000E-03 0.  1.
         11   -1    0    0    0    0 -0.00000000000E+00 -0.00000000000E+00 -0.45593999997E+02  0.45594000000E+02  0.51100000000E-03 0. -1.
    9900012    2    1    2    0    0  0.15478152214E+02  0.53483534907E+01 -0.90832903814E+01  0.72461434773E+02  0.69999823459E+02 0.  0.
        -12    1    1    2    0    0 -0.15478152214E+02 -0.53483534907E+01  0.90832903814E+01  0.18726565227E+02  0.00000000000E+00 0.  1.
         11    1    3    3    0    0  0.51479274072E+01  0.90898148357E+01  0.31816147836E+01  0.10920099049E+02  0.51100000000E-03 0. -1.
        -11    1    3    3    0    0 -0.10955345387E+02  0.17304564531E+02  0.11348785169E+02  0.23415005258E+02  0.51100000000E-03 0.  1.
         12    1    3    3    0    0  0.21285570194E+02 -0.21046025876E+02 -0.23613690334E+02  0.38126330467E+02  0.00000000000E+00 0. -1.
</event>
<event>
 7    1  0.1789107E-013  0.7246154E+02  0.7816164E-02  0.1226708E+00
        -11   -1    0    0    0    0  0.00000000000E+00  0.00000000000E+00  0.45593999997E+02  0.45594000000E+02  0.51100000000E-03 0.  1.
         11   -1    0    0    0    0 -0.00000000000E+00 -0.00000000000E+00 -0.45593999997E+02  0.45594000000E+02  0.51100000000E-03 0. -1.
    9900012    2    1    2    0    0 -0.14530906421E+02  0.26678326983E+01 -0.11507197310E+02  0.72461543778E+02  0.69999965457E+02 0.  0.
        -12    1    1    2    0    0  0.14530906421E+02 -0.26678326983E+01  0.11507197310E+02  0.18726456222E+02  0.00000000000E+00 0.  1.
         11    1    3    3    0    0 -0.35229414133E+01 -0.23350784061E+02  0.18154988313E+01  0.23684726486E+02  0.51100000000E-03 0. -1.
        -11    1    3    3    0    0  0.19033701834E+01  0.11964487420E+02  0.12010512516E+02  0.17059431070E+02  0.51100000000E-03 0.  1.
        -12    1    3    3    0    0 -0.12911335191E+02  0.14054129340E+02 -0.25333208656E+02  0.31717386222E+02  0.00000000000E+00 0.  1.
</event>
<event>
 7    1  0.1789107E-013  0.7246171E+02  0.7816164E-02  0.1226708E+00
        -11   -1    0    0    0    0  0.00000000000E+00  0.00000000000E+00  0.45593999997E+02  0.45594000000E+02  0.51100000000E-03 0. -1.
         11   -1    0    0    0    0 -0.00000000000E+00 -0.00000000000E+00 -0.45593999997E+02  0.45594000000E+02  0.51100000000E-03 0.  1.
    9900012    2    1    2    0    0 -0.68103879476E+01 -0.17437860119E+02 -0.46196003499E+00  0.72461714821E+02  0.70000188273E+02 0.  0.
        -12    1    1    2    0    0  0.68103879476E+01  0.17437860119E+02  0.46196003499E+00  0.18726285179E+02  0.00000000000E+00 0.  1.
         11    1    3    3    0    0 -0.21316556590E+02 -0.18055605347E+02  0.71251104116E+01  0.28829978633E+02  0.51100000000E-03 0. -1.
        -11    1    3    3    0    0  0.80362231349E+01 -0.17915856389E+02  0.50636313305E+01  0.20278046132E+02  0.51100000000E-03 0.  1.
        -12    1    3    3    0    0  0.64699455079E+01  0.18533601617E+02 -0.12650701777E+02  0.23353690056E+02  0.00000000000E+00 0.  1.
</event>
<event>
 7    1  0.1789107E-013  0.7246149E+02  0.7816164E-02  0.1226708E+00
        -11   -1    0    0    0    0  0.00000000000E+00  0.00000000000E+00  0.45593999997E+02  0.45594000000E+02  0.51100000000E-03 0.  1.
         11   -1    0    0    0    0 -0.00000000000E+00 -0.00000000000E+00 -0.45593999997E+02  0.45594000000E+02  0.51100000000E-03 0. -1.
    9900012    2    1    2    0    0  0.14100532604E+02  0.59925018787E+01  0.10767869189E+02  0.72461491907E+02  0.69999897886E+02 0.  0.
        -12    1    1    2    0    0 -0.14100532604E+02 -0.59925018787E+01 -0.10767869189E+02  0.18726508093E+02  0.00000000000E+00 0.  1.
         11    1    3    3    0    0 -0.15678949827E+02  0.23343693043E+02  0.93334361201E+01  0.29628879537E+02  0.51100000000E-03 0. -1.
        -11    1    3    3    0    0 -0.10503022154E+01 -0.75016705696E+01  0.66138044644E+01  0.10055874195E+02  0.51100000000E-03 0.  1.
        -12    1    3    3    0    0  0.30829784646E+02 -0.98495205950E+01 -0.51793713959E+01  0.32776738174E+02  0.00000000000E+00 0.  1.
</event>
<event>
 7    1  0.1789107E-013  0.7246201E+02  0.7816164E-02  0.1226707E+00
        -11   -1    0    0    0    0  0.00000000000E+00  0.00000000000E+00  0.45593999997E+02  0.45594000000E+02  0.51100000000E-03 0.  1.
         11   -1    0    0    0    0 -0.00000000000E+00 -0.00000000000E+00 -0.45593999997E+02  0.45594000000E+02  0.51100000000E-03 0. -1.
    9900012    2    1    2    0    0  0.44746311484E+01  0.12745981973E+02 -0.12968439662E+02  0.72462007166E+02  0.70000569104E+02 0.  0.
        -12    1    1    2    0    0 -0.44746311484E+01 -0.12745981973E+02  0.12968439662E+02  0.18725992834E+02  0.00000000000E+00 0.  1.
         11    1    3    3    0    0 -0.11984139542E+02  0.89250831831E+00 -0.53388528013E+01  0.13149886735E+02  0.51100000000E-03 0. -1.
        -11    1    3    3    0    0 -0.49944821944E+01 -0.16487837135E+01  0.20664799082E+02  0.21323631526E+02  0.51100000000E-03 0.  1.
         12    1    3    3    0    0  0.21453252885E+02  0.13502257368E+02 -0.28294385942E+02  0.37988488904E+02  0.00000000000E+00 0. -1.
</event>
<event>
 7    1  0.1789107E-013  0.7246155E+02  0.7816164E-02  0.1226708E+00
        -11   -1    0    0    0    0  0.00000000000E+00  0.00000000000E+00  0.45593999997E+02  0.45594000000E+02  0.51100000000E-03 0. -1.
         11   -1    0    0    0    0 -0.00000000000E+00 -0.00000000000E+00 -0.45593999997E+02  0.45594000000E+02  0.51100000000E-03 0.  1.
    9900012    2    1    2    0    0  0.18267887083E+02  0.40906023452E+01  0.48079622340E+00  0.72461551030E+02  0.69999974904E+02 0.  0.
        -12    1    1    2    0    0 -0.18267887083E+02 -0.40906023452E+01 -0.48079622340E+00  0.18726448970E+02  0.00000000000E+00 0.  1.
         11    1    3    3    0    0  0.72232007936E+00 -0.34461127478E+01  0.23917948111E+00  0.35291141173E+01  0.51100000000E-03 0. -1.
        -11    1    3    3    0    0 -0.24900423759E+02 -0.32766656039E+01 -0.60854956681E+00  0.25122459547E+02  0.51100000000E-03 0.  1.
         12    1    3    3    0    0  0.42445990763E+02  0.10813380697E+02  0.85016630911E+00  0.43809977365E+02  0.00000000000E+00 0. -1.
</event>
<event>
 7    1  0.1789107E-013  0.7246159E+02  0.7816164E-02  0.1226708E+00
        -11   -1    0    0    0    0  0.00000000000E+00  0.00000000000E+00  0.45593999997E+02  0.45594000000E+02  0.51100000000E-03 0. -1.
         11   -1    0    0    0    0 -0.00000000000E+00 -0.00000000000E+00 -0.45593999997E+02  0.45594000000E+02  0.51100000000E-03 0.  1.
    9900012    2    1    2    0    0 -0.16162639012E+02  0.80645771814E+01  0.49406464824E+01  0.72461593708E+02  0.70000030501E+02 0.  0.
        -12    1    1    2    0    0  0.16162639012E+02 -0.80645771814E+01 -0.49406464824E+01  0.18726406292E+02  0.00000000000E+00 0.  1.
         11    1    3    3    0    0  0.45283991054E+01  0.38714699290E+00  0.49685061645E+01  0.67336717339E+01  0.51100000000E-03 0. -1.
        -11    1    3    3    0    0  0.12039023729E+02  0.25396161762E+02 -0.36163061722E+01  0.28336915767E+02  0.51100000000E-03 0.  1.
         12    1    3    3    0    0 -0.32730061846E+02 -0.17718731573E+02  0.35884464900E+01  0.37391006208E+02  0.00000000000E+00 0. -1.
</event>
<event>
 7    1  0.1789107E-013  0.7246096E+02  0.7816164E-02  0.1226710E+00
        -11   -1    0    0    0    0  0.00000000000E+00  0.00000000000E+00  0.45593999997E+02  0.45594000000E+02  0.51100000000E-03 0.  1.
         11   -1    0    0    0    0 -0.00000000000E+00 -0.00000000000E+00 -0.45593999997E+02  0.45594000000E+02  0.51100000000E-03 0. -1.
    9900012    2    1    2    0    0  0.67775171691E+01  0.74729525019E+01  0.15777266566E+02  0.72460963439E+02  0.69999209453E+02 0.  0.
        -12    1    1    2    0    0 -0.67775171691E+01 -0.74729525019E+01 -0.15777266566E+02  0.18727036561E+02  0.00000000000E+00 0.  1.
         11    1    3    3    0    0 -0.13357563183E+02  0.47185810164E+00  0.14858300422E+02  0.19985400570E+02  0.51100000000E-03 0. -1.
        -11    1    3    3    0    0  0.28566330781E+02 -0.46603134452E+01  0.14776727447E+02  0.32497776078E+02  0.51100000000E-03 0.  1.
         12    1    3    3    0    0 -0.84312504288E+01  0.11661407845E+02 -0.13857761303E+02  0.19977786791E+02  0.00000000000E+00 0. -1.
</event>
<event>
 7    1  0.1789107E-013  0.7246157E+02  0.7816164E-02  0.1226708E+00
        -11   -1    0    0    0    0  0.00000000000E+00  0.00000000000E+00  0.45593999997E+02  0.45594000000E+02  0.51100000000E-03 0. -1.
         11   -1    0    0    0    0 -0.00000000000E+00 -0.00000000000E+00 -0.45593999997E+02  0.45594000000E+02  0.51100000000E-03 0.  1.
    9900012    2    1    2    0    0  0.13495882918E+02  0.12266827787E+02 -0.42503336181E+01  0.72461567997E+02  0.69999997008E+02 0.  0.
        -12    1    1    2    0    0 -0.13495882918E+02 -0.12266827787E+02  0.42503336181E+01  0.18726432003E+02  0.00000000000E+00 0.  1.
         11    1    3    3    0    0  0.17896775905E+02 -0.29105586843E+01 -0.65131405626E+01  0.19266212392E+02  0.51100000000E-03 0. -1.
        -11    1    3    3    0    0  0.66242271508E+01  0.14252596017E+02 -0.21704612654E+02  0.26797520208E+02  0.51100000000E-03 0.  1.
         12    1    3    3    0    0 -0.11025120139E+02  0.92479045394E+00  0.23967419599E+02  0.26397835398E+02  0.00000000000E+00 0. -1.
</event>
<event>
 7    1  0.1789107E-013  0.7246153E+02  0.7816164E-02  0.1226708E+00
        -11   -1    0    0    0    0  0.00000000000E+00  0.00000000000E+00  0.45593999997E+02  0.45594000000E+02  0.51100000000E-03 0. -1.
         11   -1    0    0    0    0 -0.00000000000E+00 -0.00000000000E+00 -0.45593999997E+02  0.45594000000E+02  0.51100000000E-03 0.  1.
    9900012    2    1    2    0    0 -0.43200354776E-01  0.14250301219E+02  0.12149387050E+02  0.72461533254E+02  0.69999951748E+02 0.  0.
        -12    1    1    2    0    0  0.43200354776E-01 -0.14250301219E+02 -0.12149387050E+02  0.18726466746E+02  0.00000000000E+00 0.  1.
         11    1    3    3    0    0  0.12919703990E+02  0.30966541095E+02  0.21424951120E+02  0.39810475372E+02  0.51100000000E-03 0. -1.
        -11    1    3    3    0    0 -0.12933515592E+01  0.45321076785E+01 -0.68131033959E+01  0.82843911309E+01  0.51100000000E-03 0.  1.
        -12    1    3    3    0    0 -0.11669552786E+02 -0.21248347555E+02 -0.24624606739E+01  0.24366666752E+02  0.00000000000E+00 0.  1.
</event>
<event>
 7    1  0.1789107E-013  0.7246164E+02  0.7816164E-02  0.1226708E+00
        -11   -1    0    0    0    0  0.00000000000E+00  0.00000000000E+00  0.45593999997E+02  0.45594000000E+02  0.51100000000E-03 0. -1.
         11   -1    0    0    0    0 -0.00000000000E+00 -0.00000000000E+00 -0.45593999997E+02  0.45594000000E+02  0.51100000000E-03 0.  1.
    9900012    2    1    2    0    0 -0.93336151376E+00  0.95391521123E+01  0.16087574092E+02  0.72461638183E+02  0.70000088438E+02 0.  0.
        -12    1    1    2    0    0  0.93336151376E+00 -0.95391521123E+01 -0.16087574092E+02  0.18726361817E+02  0.00000000000E+00 0.  1.
         11    1    3    3    0    0 -0.50541080172E+01  0.10432094131E+02  0.52066498695E+01  0.12707548896E+02  0.51100000000E-03 0. -1.
        -11    1    3    3    0    0 -0.19319441423E+02  0.11116775238E+02 -0.11599268040E+02  0.25127007938E+02  0.51100000000E-03 0.  1.
         12    1    3    3    0    0  0.23440187926E+02 -0.12009717257E+02  0.22480192263E+02  0.34627081349E+02  0.00000000000E+00 0. -1.
</event>
<event>
 7    1  0.1789107E-013  0.7246156E+02  0.7816164E-02  0.1226708E+00
        -11   -1    0    0    0    0  0.00000000000E+00  0.00000000000E+00  0.45593999997E+02  0.45594000000E+02  0.51100000000E-03 0. -1.
         11   -1    0    0    0    0 -0.00000000000E+00 -0.00000000000E+00 -0.45593999997E+02  0.45594000000E+02  0.51100000000E-03 0.  1.
    9900012    2    1    2    0    0 -0.24952112969E+01  0.76709737346E+01  0.16899984014E+02  0.72461564752E+02  0.69999992780E+02 0.  0.
        -12    1    1    2    0    0  0.24952112969E+01 -0.76709737346E+01 -0.16899984014E+02  0.18726435248E+02  0.00000000000E+00 0.  1.
         11    1    3    3    0    0  0.25473749700E+02  0.81504807122E+01  0.27211228027E+02  0.38154858021E+02  0.51100000000E-03 0. -1.
        -11    1    3    3    0    0  0.10126045451E+01 -0.28304516052E+01  0.90842829312E+00  0.31403927268E+01  0.51100000000E-03 0.  1.
        -12    1    3    3    0    0 -0.28981565542E+02  0.23509446276E+01 -0.11219672306E+02  0.31166314004E+02  0.00000000000E+00 0.  1.
</event>
<event>
 7    1  0.1789107E-013  0.7246156E+02  0.7816164E-02  0.1226708E+00
        -11   -1    0    0    0    0  0.00000000000E+00  0.00000000000E+00  0.45593999997E+02  0.45594000000E+02  0.51100000000E-03 0.  1.
         11   -1    0    0    0    0 -0.00000000000E+00 -0.00000000000E+00 -0.45593999997E+02  0.45594000000E+02  0.51100000000E-03 0. -1.
    9900012    2    1    2    0    0 -0.78830276972E+01  0.16728062275E+02 -0.29511330156E+01  0.72461564695E+02  0.69999992706E+02 0.  0.
        -12    1    1    2    0    0  0.78830276972E+01 -0.16728062275E+02  0.29511330156E+01  0.18726435305E+02  0.00000000000E+00 0.  1.
         11    1    3    3    0    0 -0.13100882460E+02  0.12062161602E+02 -0.19033366393E+02  0.26065262329E+02  0.51100000000E-03 0. -1.
        -11    1    3    3    0    0  0.89855847327E+01  0.60332497481E+01 -0.13070148822E+02  0.16969667823E+02  0.51100000000E-03 0.  1.
        -12    1    3    3    0    0 -0.37677299698E+01 -0.13673490748E+01  0.29152382200E+02  0.29426634544E+02  0.00000000000E+00 0.  1.
</event>
<event>
 7    1  0.1789107E-013  0.7246159E+02  0.7816164E-02  0.1226708E+00
        -11   -1    0    0    0    0  0.00000000000E+00  0.00000000000E+00  0.45593999997E+02  0.45594000000E+02  0.51100000000E-03 0.  1.
         11   -1    0    0    0    0 -0.00000000000E+00 -0.00000000000E+00 -0.45593999997E+02  0.45594000000E+02  0.51100000000E-03 0. -1.
    9900012    2    1    2    0    0 -0.16907035387E+02 -0.59400358080E+01 -0.54356842840E+01  0.72461587247E+02  0.70000022084E+02 0.  0.
        -12    1    1    2    0    0  0.16907035387E+02  0.59400358080E+01  0.54356842840E+01  0.18726412753E+02  0.00000000000E+00 0.  1.
         11    1    3    3    0    0 -0.93087305736E+01 -0.16657482707E+02 -0.25538601258E+02  0.31880156046E+02  0.51100000000E-03 0. -1.
        -11    1    3    3    0    0 -0.29359110085E+01 -0.11633004491E+02  0.40173655415E+01  0.12652493552E+02  0.51100000000E-03 0.  1.
        -12    1    3    3    0    0 -0.46623938044E+01  0.22350451390E+02  0.16085551432E+02  0.27928937649E+02  0.00000000000E+00 0.  1.
</event>
<event>
 7    1  0.1789107E-013  0.7246178E+02  0.7816164E-02  0.1226707E+00
        -11   -1    0    0    0    0  0.00000000000E+00  0.00000000000E+00  0.45593999997E+02  0.45594000000E+02  0.51100000000E-03 0. -1.
         11   -1    0    0    0    0 -0.00000000000E+00 -0.00000000000E+00 -0.45593999997E+02  0.45594000000E+02  0.51100000000E-03 0.  1.
    9900012    2    1    2    0    0 -0.23395407474E+01 -0.13247333664E+02  0.13027125412E+02  0.72461780504E+02  0.70000273837E+02 0.  0.
        -12    1    1    2    0    0  0.23395407474E+01  0.13247333664E+02 -0.13027125412E+02  0.18726219496E+02  0.00000000000E+00 0.  1.
         11    1    3    3    0    0 -0.13513195609E+02 -0.15557729366E+02  0.17047805575E+01  0.20677419462E+02  0.51100000000E-03 0. -1.
        -11    1    3    3    0    0 -0.17010374203E+02  0.12212981922E+01  0.15773393661E+02  0.23230246397E+02  0.51100000000E-03 0.  1.
        -12    1    3    3    0    0  0.28184029065E+02  0.10890975100E+01 -0.44510488063E+01  0.28554114646E+02  0.00000000000E+00 0.  1.
</event>
<event>
 7    1  0.1789107E-013  0.7246170E+02  0.7816164E-02  0.1226708E+00
        -11   -1    0    0    0    0  0.00000000000E+00  0.00000000000E+00  0.45593999997E+02  0.45594000000E+02  0.51100000000E-03 0.  1.
         11   -1    0    0    0    0 -0.00000000000E+00 -0.00000000000E+00 -0.45593999997E+02  0.45594000000E+02  0.51100000000E-03 0. -1.
    9900012    2    1    2    0    0 -0.28116217816E+01  0.65152752327E+01 -0.17329754999E+02  0.72461696662E+02  0.70000164617E+02 0.  0.
        -12    1    1    2    0    0  0.28116217816E+01 -0.65152752327E+01  0.17329754999E+02  0.18726303338E+02  0.00000000000E+00 0.  1.
         11    1    3    3    0    0  0.23815916608E+01  0.17870080386E+02 -0.17637688891E+02  0.25221019438E+02  0.51100000000E-03 0. -1.
        -11    1    3    3    0    0  0.85897135160E+01  0.14209462553E+02 -0.57520895823E+01  0.17572095468E+02  0.51100000000E-03 0.  1.
        -12    1    3    3    0    0 -0.13782926958E+02 -0.25564267706E+02  0.60600234739E+01  0.29668581755E+02  0.00000000000E+00 0.  1.
</event>
<event>
 7    1  0.1789107E-013  0.7246158E+02  0.7816164E-02  0.1226708E+00
        -11   -1    0    0    0    0  0.00000000000E+00  0.00000000000E+00  0.45593999997E+02  0.45594000000E+02  0.51100000000E-03 0. -1.
         11   -1    0    0    0    0 -0.00000000000E+00 -0.00000000000E+00 -0.45593999997E+02  0.45594000000E+02  0.51100000000E-03 0.  1.
    9900012    2    1    2    0    0 -0.15152703239E+02  0.23190134170E+00  0.11000941542E+02  0.72461577264E+02  0.70000009079E+02 0.  0.
        -12    1    1    2    0    0  0.15152703239E+02 -0.23190134170E+00 -0.11000941542E+02  0.18726422736E+02  0.00000000000E+00 0.  1.
         11    1    3    3    0    0 -0.29205403452E+01  0.66799734534E+01  0.38719336555E+02  0.39399728740E+02  0.51100000000E-03 0. -1.
        -11    1    3    3    0    0 -0.59972082620E+01  0.15784048718E+01 -0.43386026694E+01  0.75684438468E+01  0.51100000000E-03 0.  1.
        -12    1    3    3    0    0 -0.62349546318E+01 -0.80264769836E+01 -0.23379792344E+02  0.25493404678E+02  0.00000000000E+00 0.  1.
</event>
<event>
 7    1  0.1789107E-013  0.7246141E+02  0.7816164E-02  0.1226708E+00
        -11   -1    0    0    0    0  0.00000000000E+00  0.00000000000E+00  0.45593999997E+02  0.45594000000E+02  0.51100000000E-03 0. -1.
         11   -1    0    0    0    0 -0.00000000000E+00 -0.00000000000E+00 -0.45593999997E+02  0.45594000000E+02  0.51100000000E-03 0.  1.
    9900012    2    1    2    0    0  0.11355891015E+02 -0.56464950253E+01  0.13778465952E+02  0.72461406856E+02  0.69999787091E+02 0.  0.
        -12    1    1    2    0    0 -0.11355891015E+02  0.56464950253E+01 -0.13778465952E+02  0.18726593144E+02  0.00000000000E+00 0.  1.
         11    1    3    3    0    0  0.14596673057E+02 -0.11661330161E+02  0.90053161255E+01  0.20739942243E+02  0.51100000000E-03 0. -1.
        -11    1    3    3    0    0 -0.15402261321E+02 -0.17951062041E+02 -0.27523025467E+01  0.23812716178E+02  0.51100000000E-03 0.  1.
         12    1    3    3    0    0  0.12161479280E+02  0.23965897177E+02  0.75254523729E+01  0.27908748435E+02  0.00000000000E+00 0. -1.
</event>
<event>
 7    1  0.1789107E-013  0.7246176E+02  0.7816164E-02  0.1226708E+00
        -11   -1    0    0    0    0  0.00000000000E+00  0.00000000000E+00  0.45593999997E+02  0.45594000000E+02  0.51100000000E-03 0.  1.
         11   -1    0    0    0    0 -0.00000000000E+00 -0.00000000000E+00 -0.45593999997E+02  0.45594000000E+02  0.51100000000E-03 0. -1.
    9900012    2    1    2    0    0  0.36661066126E+01 -0.14311569692E+02 -0.11506984964E+02  0.72461759916E+02  0.70000247017E+02 0.  0.
        -12    1    1    2    0    0 -0.36661066126E+01  0.14311569692E+02  0.11506984964E+02  0.18726240084E+02  0.00000000000E+00 0.  1.
         11    1    3    3    0    0  0.27852269050E+01 -0.20611068777E+02 -0.31862238211E+02  0.38049650053E+02  0.51100000000E-03 0. -1.
        -11    1    3    3    0    0 -0.91262292787E+01 -0.39806714196E+01  0.57014503162E+00  0.99729068689E+01  0.51100000000E-03 0.  1.
        -12    1    3    3    0    0  0.10007108986E+02  0.10280170505E+02  0.19785108216E+02  0.24439202994E+02  0.00000000000E+00 0.  1.
</event>
<event>
 7    1  0.1789107E-013  0.7246148E+02  0.7816164E-02  0.1226708E+00
        -11   -1    0    0    0    0  0.00000000000E+00  0.00000000000E+00  0.45593999997E+02  0.45594000000E+02  0.51100000000E-03 0.  1.
         11   -1    0    0    0    0 -0.00000000000E+00 -0.00000000000E+00 -0.45593999997E+02  0.45594000000E+02  0.51100000000E-03 0. -1.
    9900012    2    1    2    0    0  0.11373783869E+02 -0.13209095339E+01 -0.14818054965E+02  0.72461480984E+02  0.69999883657E+02 0.  0.
        -12    1    1    2    0    0 -0.11373783869E+02  0.13209095339E+01  0.14818054965E+02  0.18726519016E+02  0.00000000000E+00 0.  1.
         11    1    3    3    0    0 -0.86894388115E+00 -0.37846903918E+01  0.91161136171E+01  0.99087069071E+01  0.51100000000E-03 0. -1.
        -11    1    3    3    0    0 -0.16499515152E+02  0.67475997060E+01  0.78576103398E+01  0.19480917395E+02  0.51100000000E-03 0.  1.
         12    1    3    3    0    0  0.28742242903E+02 -0.42838188481E+01 -0.31791778922E+02  0.43071856682E+02  0.00000000000E+00 0. -1.
</event>
<event>
 7    1  0.1789107E-013  0.7246143E+02  0.7816164E-02  0.1226708E+00
        -11   -1    0    0    0    0  0.00000000000E+00  0.00000000000E+00  0.45593999997E+02  0.45594000000E+02  0.51100000000E-03 0.  1.
         11   -1    0    0    0    0 -0.00000000000E+00 -0.00000000000E+00 -0.45593999997E+02  0.45594000000E+02  0.51100000000E-03 0. -1.
    9900012    2    1    2    0    0  0.69156082130E+01 -0.17352923911E+02 -0.13170777380E+01  0.72461433337E+02  0.69999821587E+02 0.  0.
        -12    1    1    2    0    0 -0.69156082130E+01  0.17352923911E+02  0.13170777380E+01  0.18726566663E+02  0.00000000000E+00 0.  1.
         11    1    3    3    0    0  0.14762042225E+02 -0.87466863831E+01 -0.15951021197E+02  0.23427707758E+02  0.51100000000E-03 0. -1.
        -11    1    3    3    0    0  0.14671842175E+02  0.96154607023E+01  0.28996981904E+01  0.17779996827E+02  0.51100000000E-03 0.  1.
        -12    1    3    3    0    0 -0.22518276187E+02 -0.18221698230E+02  0.11734245268E+02  0.31253728751E+02  0.00000000000E+00 0.  1.
</event>
<event>
 7    1  0.1789107E-013  0.7246150E+02  0.7816164E-02  0.1226708E+00
        -11   -1    0    0    0    0  0.00000000000E+00  0.00000000000E+00  0.45593999997E+02  0.45594000000E+02  0.51100000000E-03 0.  1.
         11   -1    0    0    0    0 -0.00000000000E+00 -0.00000000000E+00 -0.45593999997E+02  0.45594000000E+02  0.51100000000E-03 0. -1.
    9900012    2    1    2    0    0  0.20073136705E+01  0.93530834368E+01 -0.16098826739E+02  0.72461502722E+02  0.69999911974E+02 0.  0.
        -12    1    1    2    0    0 -0.20073136705E+01 -0.93530834368E+01  0.16098826739E+02  0.18726497278E+02  0.00000000000E+00 0.  1.
         11    1    3    3    0    0  0.28214210708E+02  0.41586524697E+01 -0.20822066058E+02  0.35311393507E+02  0.51100000000E-03 0. -1.
        -11    1    3    3    0    0  0.14905570033E+01 -0.39422952227E+01 -0.48763927043E+01  0.64453594059E+01  0.51100000000E-03 0.  1.
        -12    1    3    3    0    0 -0.27697454041E+02  0.91367261898E+01  0.95996320240E+01  0.30704749808E+02  0.00000000000E+00 0.  1.
</event>
<event>
 7    1  0.1789107E-013  0.7246158E+02  0.7816164E-02  0.1226708E+00
        -11   -1    0    0    0    0  0.00000000000E+00  0.00000000000E+00  0.45593999997E+02  0.45594000000E+02  0.51100000000E-03 0. -1.
         11   -1    0    0    0    0 -0.00000000000E+00 -0.00000000000E+00 -0.45593999997E+02  0.45594000000E+02  0.51100000000E-03 0.  1.
    9900012    2    1    2    0    0  0.10815593845E+02 -0.13260158122E+02  0.76072364636E+01  0.72461577217E+02  0.70000009018E+02 0.  0.
        -12    1    1    2    0    0 -0.10815593845E+02  0.13260158122E+02 -0.76072364636E+01  0.18726422783E+02  0.00000000000E+00 0.  1.
         11    1    3    3    0    0 -0.33732334347E+01 -0.93254474829E+01 -0.92666805479E+01  0.13572547410E+02  0.51100000000E-03 0. -1.
        -11    1    3    3    0    0 -0.18391620004E+02  0.96730403877E+01  0.93568155046E+01  0.22789677343E+02  0.51100000000E-03 0.  1.
         12    1    3    3    0    0  0.32580447284E+02 -0.13607751027E+02  0.75171015070E+01  0.36099352464E+02  0.00000000000E+00 0. -1.
</event>
<event>
 7    1  0.1789107E-013  0.7246154E+02  0.7816164E-02  0.1226708E+00
        -11   -1    0    0    0    0  0.00000000000E+00  0.00000000000E+00  0.45593999997E+02  0.45594000000E+02  0.51100000000E-03 0. -1.
         11   -1    0    0    0    0 -0.00000000000E+00 -0.00000000000E+00 -0.45593999997E+02  0.45594000000E+02  0.51100000000E-03 0.  1.
    9900012    2    1    2    0    0  0.98292508955E+01  0.13206327745E+02  0.89251851767E+01  0.72461542884E+02  0.69999964293E+02 0.  0.
        -12    1    1    2    0    0 -0.98292508955E+01 -0.13206327745E+02 -0.89251851767E+01  0.18726457116E+02  0.00000000000E+00 0.  1.
         11    1    3    3    0    0  0.31819415479E+01 -0.45304923414E+01  0.22258761582E+02  0.22936926130E+02  0.51100000000E-03 0. -1.
        -11    1    3    3    0    0 -0.10403924018E+01 -0.14029789741E+02 -0.86297863091E+01  0.16504260920E+02  0.51100000000E-03 0.  1.
        -12    1    3    3    0    0  0.76877017494E+01  0.31766609827E+02 -0.47037900967E+01  0.33020355833E+02  0.00000000000E+00 0.  1.
</event>
<event>
 7    1  0.1789107E-013  0.7246155E+02  0.7816164E-02  0.1226708E+00
        -11   -1    0    0    0    0  0.00000000000E+00  0.00000000000E+00  0.45593999997E+02  0.45594000000E+02  0.51100000000E-03 0.  1.
         11   -1    0    0    0    0 -0.00000000000E+00 -0.00000000000E+00 -0.45593999997E+02  0.45594000000E+02  0.51100000000E-03 0. -1.
    9900012    2    1    2    0    0  0.46508885375E+01 -0.16361648986E+02 -0.78323485306E+01  0.72461547980E+02  0.69999970932E+02 0.  0.
        -12    1    1    2    0    0 -0.46508885375E+01  0.16361648986E+02  0.78323485306E+01  0.18726452020E+02  0.00000000000E+00 0.  1.
         11    1    3    3    0    0  0.80764434135E+01  0.11057509519E+02 -0.51016104398E+01  0.14612456478E+02  0.51100000000E-03 0. -1.
        -11    1    3    3    0    0  0.17809451449E+01  0.91393041515E+01 -0.16081342766E+02  0.18582471079E+02  0.51100000000E-03 0.  1.
        -12    1    3    3    0    0 -0.52065000210E+01 -0.36558462657E+02  0.13350604675E+02  0.39266620424E+02  0.00000000000E+00 0.  1.
</event>
<event>
 7    1  0.1789107E-013  0.7246158E+02  0.7816164E-02  0.1226708E+00
        -11   -1    0    0    0    0  0.00000000000E+00  0.00000000000E+00  0.45593999997E+02  0.45594000000E+02  0.51100000000E-03 0.  1.
         11   -1    0    0    0    0 -0.00000000000E+00 -0.00000000000E+00 -0.45593999997E+02  0.45594000000E+02  0.51100000000E-03 0. -1.
    9900012    2    1    2    0    0 -0.69924423777E+01 -0.28002331643E+01 -0.17144774594E+02  0.72461578770E+02  0.70000011042E+02 0.  0.
        -12    1    1    2    0    0  0.69924423777E+01  0.28002331643E+01  0.17144774594E+02  0.18726421230E+02  0.00000000000E+00 0.  1.
         11    1    3    3    0    0 -0.35593199853E+01 -0.72026233996E+01  0.13467396580E+02  0.15681750971E+02  0.51100000000E-03 0. -1.
        -11    1    3    3    0    0  0.10997803724E+02 -0.11642096437E+01  0.89976962968E+01  0.14257124877E+02  0.51100000000E-03 0.  1.
         12    1    3    3    0    0 -0.14430926116E+02  0.55665998790E+01 -0.39609867471E+02  0.42522702923E+02  0.00000000000E+00 0. -1.
</event>
<event>
 7    1  0.1789107E-013  0.7246155E+02  0.7816164E-02  0.1226708E+00
        -11   -1    0    0    0    0  0.00000000000E+00  0.00000000000E+00  0.45593999997E+02  0.45594000000E+02  0.51100000000E-03 0. -1.
         11   -1    0    0    0    0 -0.00000000000E+00 -0.00000000000E+00 -0.45593999997E+02  0.45594000000E+02  0.51100000000E-03 0.  1.
    9900012    2    1    2    0    0 -0.13885884300E+02 -0.12088935087E+02  0.34234194759E+01  0.72461549849E+02  0.69999973367E+02 0.  0.
        -12    1    1    2    0    0  0.13885884300E+02  0.12088935087E+02 -0.34234194759E+01  0.18726450151E+02  0.00000000000E+00 0.  1.
         11    1    3    3    0    0 -0.41020130231E+01  0.14565544751E+01  0.31648743713E+02  0.31946690606E+02  0.51100000000E-03 0. -1.
        -11    1    3    3    0    0  0.16930846797E+01 -0.63173006799E+01  0.24425816825E+01  0.69814775764E+01  0.51100000000E-03 0.  1.
        -12    1    3    3    0    0 -0.11476955957E+02 -0.72281888821E+01 -0.30667905920E+02  0.33533381667E+02  0.00000000000E+00 0.  1.
</event>
<event>
 7    1  0.1789107E-013  0.7246160E+02  0.7816164E-02  0.1226708E+00
        -11   -1    0    0    0    0  0.00000000000E+00  0.00000000000E+00  0.45593999997E+02  0.45594000000E+02  0.51100000000E-03 0. -1.
         11   -1    0    0    0    0 -0.00000000000E+00 -0.00000000000E+00 -0.45593999997E+02  0.45594000000E+02  0.51100000000E-03 0.  1.
    9900012    2    1    2    0    0  0.84442974152E+01 -0.16284602469E+02  0.37661097644E+01  0.72461601009E+02  0.70000040012E+02 0.  0.
        -12    1    1    2    0    0 -0.84442974152E+01  0.16284602469E+02 -0.37661097644E+01  0.18726398991E+02  0.00000000000E+00 0.  1.
         11    1    3    3    0    0  0.26666721355E+02 -0.51190859976E+01  0.15397205404E+02  0.31215268760E+02  0.51100000000E-03 0. -1.
        -11    1    3    3    0    0 -0.21947359364E+02 -0.11773328574E+02  0.39478524092E+01  0.25216728330E+02  0.51100000000E-03 0.  1.
        -12    1    3    3    0    0  0.37249354249E+01  0.60781210310E+00 -0.15578948049E+02  0.16029603919E+02  0.00000000000E+00 0.  1.
</event>
<event>
 7    1  0.1789107E-013  0.7246156E+02  0.7816164E-02  0.1226708E+00
        -11   -1    0    0    0    0  0.00000000000E+00  0.00000000000E+00  0.45593999997E+02  0.45594000000E+02  0.51100000000E-03 0.  1.
         11   -1    0    0    0    0 -0.00000000000E+00 -0.00000000000E+00 -0.45593999997E+02  0.45594000000E+02  0.51100000000E-03 0. -1.
    9900012    2    1    2    0    0 -0.14803502647E+02  0.34194370675E+01 -0.10947297494E+02  0.72461559791E+02  0.69999986318E+02 0.  0.
        -12    1    1    2    0    0  0.14803502647E+02 -0.34194370675E+01  0.10947297494E+02  0.18726440209E+02  0.00000000000E+00 0.  1.
         11    1    3    3    0    0 -0.14002141669E+02  0.70039057728E+01 -0.49913155849E+01  0.16432525640E+02  0.51100000000E-03 0. -1.
        -11    1    3    3    0    0  0.23118887169E+02  0.66271512505E+01  0.94041582903E+01  0.25823250591E+02  0.51100000000E-03 0.  1.
         12    1    3    3    0    0 -0.23920248147E+02 -0.10211619956E+02 -0.15360140199E+02  0.30205783560E+02  0.00000000000E+00 0. -1.
</event>
<event>
 7    1  0.1789107E-013  0.7246171E+02  0.7816164E-02  0.1226708E+00
        -11   -1    0    0    0    0  0.00000000000E+00  0.00000000000E+00  0.45593999997E+02  0.45594000000E+02  0.51100000000E-03 0.  1.
         11   -1    0    0    0    0 -0.00000000000E+00 -0.00000000000E+00 -0.45593999997E+02  0.45594000000E+02  0.51100000000E-03 0. -1.
    9900012    2    1    2    0    0  0.14167331407E+02 -0.44241320041E+00  0.12237844856E+02  0.72461712185E+02  0.70000184838E+02 0.  0.
        -12    1    1    2    0    0 -0.14167331407E+02  0.44241320041E+00 -0.12237844856E+02  0.18726287815E+02  0.00000000000E+00 0.  1.
         11    1    3    3    0    0 -0.12548534985E+02 -0.44131382903E+01  0.25552948075E+02  0.28807892589E+02  0.51100000000E-03 0. -1.
        -11    1    3    3    0    0 -0.27039856046E+01  0.72987821534E+01  0.46067124971E+01  0.90446425780E+01  0.51100000000E-03 0.  1.
         12    1    3    3    0    0  0.29419851996E+02 -0.33280570635E+01 -0.17921815716E+02  0.34609177018E+02  0.00000000000E+00 0. -1.
</event>
<event>
 7    1  0.1789107E-013  0.7246145E+02  0.7816164E-02  0.1226708E+00
        -11   -1    0    0    0    0  0.00000000000E+00  0.00000000000E+00  0.45593999997E+02  0.45594000000E+02  0.51100000000E-03 0. -1.
         11   -1    0    0    0    0 -0.00000000000E+00 -0.00000000000E+00 -0.45593999997E+02  0.45594000000E+02  0.51100000000E-03 0.  1.
    9900012    2    1    2    0    0 -0.51152640645E+01 -0.16188546865E+02  0.79024522794E+01  0.72461448580E+02  0.69999841444E+02 0.  0.
        -12    1    1    2    0    0  0.51152640645E+01  0.16188546865E+02 -0.79024522794E+01  0.18726551420E+02  0.00000000000E+00 0.  1.
         11    1    3    3    0    0  0.15407573539E+02  0.15200389243E+01 -0.58750787320E+01  0.16559601175E+02  0.51100000000E-03 0. -1.
        -11    1    3    3    0    0  0.44154317107E+01  0.40745356791E+00 -0.13829155580E+02  0.14522658156E+02  0.51100000000E-03 0.  1.
         12    1    3    3    0    0 -0.24938269314E+02 -0.18116039357E+02  0.27606686591E+02  0.41379189249E+02  0.00000000000E+00 0. -1.
</event>
<event>
 7    1  0.2086765E-013  0.7246142E+02  0.7816164E-02  0.1226708E+00
        -11   -1    0    0    0    0  0.00000000000E+00  0.00000000000E+00  0.45593999997E+02  0.45594000000E+02  0.51100000000E-03 0. -1.
         11   -1    0    0    0    0 -0.00000000000E+00 -0.00000000000E+00 -0.45593999997E+02  0.45594000000E+02  0.51100000000E-03 0.  1.
    9900012    2    1    2    0    0  0.61066350467E+01  0.42827682671E+01  0.17177073724E+02  0.72461415759E+02  0.69999798689E+02 0.  0.
        -12    1    1    2    0    0 -0.61066350467E+01 -0.42827682671E+01 -0.17177073724E+02  0.18726584241E+02  0.00000000000E+00 0.  1.
         11    1    3    3    0    0 -0.15843436879E+02 -0.56500386593E+01  0.14197460565E+02  0.22011481452E+02  0.51100000000E-03 0. -1.
        -11    1    3    3    0    0 -0.61568857536E+01  0.18080855099E+02  0.80897979509E+01  0.20742936013E+02  0.51100000000E-03 0.  1.
        -12    1    3    3    0    0  0.28106957679E+02 -0.81480481726E+01 -0.51101847917E+01  0.29706998293E+02  0.00000000000E+00 0.  1.
</event>
<event>
 7    1  0.1789107E-013  0.7246158E+02  0.7816164E-02  0.1226708E+00
        -11   -1    0    0    0    0  0.00000000000E+00  0.00000000000E+00  0.45593999997E+02  0.45594000000E+02  0.51100000000E-03 0.  1.
         11   -1    0    0    0    0 -0.00000000000E+00 -0.00000000000E+00 -0.45593999997E+02  0.45594000000E+02  0.51100000000E-03 0. -1.
    9900012    2    1    2    0    0 -0.15519257532E+02 -0.10311335946E+02  0.18729075292E+01  0.72461580536E+02  0.70000013342E+02 0.  0.
        -12    1    1    2    0    0  0.15519257532E+02  0.10311335946E+02 -0.18729075292E+01  0.18726419464E+02  0.00000000000E+00 0.  1.
         11    1    3    3    0    0  0.38552477328E+01  0.60571536088E+01 -0.70043846297E+01  0.10030625565E+02  0.51100000000E-03 0. -1.
        -11    1    3    3    0    0  0.12595565750E+02 -0.20198843322E+02 -0.91817774488E+01  0.25513654884E+02  0.51100000000E-03 0.  1.
        -12    1    3    3    0    0 -0.31970071015E+02  0.38303537680E+01  0.18059069608E+02  0.36917300088E+02  0.00000000000E+00 0.  1.
</event>
<event>
 7    1  0.1789107E-013  0.7246157E+02  0.7816164E-02  0.1226708E+00
        -11   -1    0    0    0    0  0.00000000000E+00  0.00000000000E+00  0.45593999997E+02  0.45594000000E+02  0.51100000000E-03 0.  1.
         11   -1    0    0    0    0 -0.00000000000E+00 -0.00000000000E+00 -0.45593999997E+02  0.45594000000E+02  0.51100000000E-03 0. -1.
    9900012    2    1    2    0    0 -0.65178892497E+01  0.11850881253E+02 -0.12951946129E+02  0.72461570141E+02  0.69999999800E+02 0.  0.
        -12    1    1    2    0    0  0.65178892497E+01 -0.11850881253E+02  0.12951946129E+02  0.18726429859E+02  0.00000000000E+00 0.  1.
         11    1    3    3    0    0 -0.17892883720E+02  0.25792170301E+02 -0.29643336568E+02  0.43175441397E+02  0.51100000000E-03 0. -1.
        -11    1    3    3    0    0  0.73711450897E+01  0.11605407275E+01  0.95183257383E+01  0.12094592173E+02  0.51100000000E-03 0.  1.
        -12    1    3    3    0    0  0.40038493809E+01 -0.15101829776E+02  0.71730647009E+01  0.17191536571E+02  0.00000000000E+00 0.  1.
</event>
<event>
 7    1  0.1789107E-013  0.7246150E+02  0.7816164E-02  0.1226708E+00
        -11   -1    0    0    0    0  0.00000000000E+00  0.00000000000E+00  0.45593999997E+02  0.45594000000E+02  0.51100000000E-03 0. -1.
         11   -1    0    0    0    0 -0.00000000000E+00 -0.00000000000E+00 -0.45593999997E+02  0.45594000000E+02  0.51100000000E-03 0.  1.
    9900012    2    1    2    0    0  0.15417752402E+02 -0.72775755029E+01  0.77467088693E+01  0.72461502927E+02  0.69999912241E+02 0.  0.
        -12    1    1    2    0    0 -0.15417752402E+02  0.72775755029E+01 -0.77467088693E+01  0.18726497073E+02  0.00000000000E+00 0.  1.
         11    1    3    3    0    0 -0.18033123166E+01  0.58562166185E+01  0.11024659500E+02  0.12613101354E+02  0.51100000000E-03 0. -1.
        -11    1    3    3    0    0  0.25561567386E+02  0.10130427416E+02 -0.16247946451E+02  0.31937674477E+02  0.51100000000E-03 0.  1.
         12    1    3    3    0    0 -0.83405026673E+01 -0.23264219538E+02  0.12969995820E+02  0.27910727096E+02  0.00000000000E+00 0. -1.
</event>
<event>
 7    1  0.1966057E-013  0.7246158E+02  0.7816164E-02  0.1226708E+00
        -11   -1    0    0    0    0  0.00000000000E+00  0.00000000000E+00  0.45593999997E+02  0.45594000000E+02  0.51100000000E-03 0.  1.
         11   -1    0    0    0    0 -0.00000000000E+00 -0.00000000000E+00 -0.45593999997E+02  0.45594000000E+02  0.51100000000E-03 0. -1.
    9900012    2    1    2    0    0 -0.70262576372E+01  0.15670901412E+02 -0.74654889975E+01  0.72461575530E+02  0.70000006821E+02 0.  0.
        -12    1    1    2    0    0  0.70262576372E+01 -0.15670901412E+02  0.74654889975E+01  0.18726424470E+02  0.00000000000E+00 0.  1.
         11    1    3    3    0    0 -0.15183833983E+02  0.13020236450E+02 -0.25100022254E+02  0.32094960493E+02  0.51100000000E-03 0. -1.
        -11    1    3    3    0    0 -0.98037964760E+01  0.16688069435E+01 -0.52604267837E+01  0.11250396978E+02  0.51100000000E-03 0.  1.
        -12    1    3    3    0    0  0.17961372822E+02  0.98185801867E+00  0.22894960040E+02  0.29116218059E+02  0.00000000000E+00 0.  1.
</event>
<event>
 7    1  0.1789107E-013  0.7246160E+02  0.7816164E-02  0.1226708E+00
        -11   -1    0    0    0    0  0.00000000000E+00  0.00000000000E+00  0.45593999997E+02  0.45594000000E+02  0.51100000000E-03 0.  1.
         11   -1    0    0    0    0 -0.00000000000E+00 -0.00000000000E+00 -0.45593999997E+02  0.45594000000E+02  0.51100000000E-03 0. -1.
    9900012    2    1    2    0    0 -0.17539863085E+02  0.51218228791E+01 -0.40985372371E+01  0.72461604881E+02  0.70000045056E+02 0.  0.
        -12    1    1    2    0    0  0.17539863085E+02 -0.51218228791E+01  0.40985372371E+01  0.18726395119E+02  0.00000000000E+00 0.  1.
         11    1    3    3    0    0  0.74460371239E+00  0.11927259259E+02  0.74674190041E+01  0.14091710151E+02  0.51100000000E-03 0. -1.
        -11    1    3    3    0    0  0.92264748069E+01  0.17659741604E+02 -0.51501702260E+00  0.19931371094E+02  0.51100000000E-03 0.  1.
         12    1    3    3    0    0 -0.27510941605E+02 -0.24465177984E+02 -0.11050939219E+02  0.38438523637E+02  0.00000000000E+00 0. -1.
</event>
<event>
 7    1  0.1789107E-013  0.7246159E+02  0.7816164E-02  0.1226708E+00
        -11   -1    0    0    0    0  0.00000000000E+00  0.00000000000E+00  0.45593999997E+02  0.45594000000E+02  0.51100000000E-03 0.  1.
         11   -1    0    0    0    0 -0.00000000000E+00 -0.00000000000E+00 -0.45593999997E+02  0.45594000000E+02  0.51100000000E-03 0. -1.
    9900012    2    1    2    0    0 -0.69960703843E+01 -0.14090983977E+02 -0.10157632906E+02  0.72461592536E+02  0.70000028974E+02 0.  0.
        -12    1    1    2    0    0  0.69960703843E+01  0.14090983977E+02  0.10157632906E+02  0.18726407464E+02  0.00000000000E+00 0.  1.
         11    1    3    3    0    0  0.16823417367E+02 -0.70257656643E+01 -0.17352137038E+01  0.18313921533E+02  0.51100000000E-03 0. -1.
        -11    1    3    3    0    0 -0.13874346169E+02 -0.76700040712E+01 -0.28002320077E+02  0.32178507952E+02  0.51100000000E-03 0.  1.
        -12    1    3    3    0    0 -0.99451415817E+01  0.60478575831E+00  0.19579900874E+02  0.21969163051E+02  0.00000000000E+00 0.  1.
</event>
<event>
 7    1  0.1789107E-013  0.7246150E+02  0.7816164E-02  0.1226708E+00
        -11   -1    0    0    0    0  0.00000000000E+00  0.00000000000E+00  0.45593999997E+02  0.45594000000E+02  0.51100000000E-03 0.  1.
         11   -1    0    0    0    0 -0.00000000000E+00 -0.00000000000E+00 -0.45593999997E+02  0.45594000000E+02  0.51100000000E-03 0. -1.
    9900012    2    1    2    0    0 -0.38835389206E+01 -0.18066633070E+02 -0.30325976520E+01  0.72461501300E+02  0.69999910122E+02 0.  0.
        -12    1    1    2    0    0  0.38835389206E+01  0.18066633070E+02  0.30325976520E+01  0.18726498700E+02  0.00000000000E+00 0.  1.
         11    1    3    3    0    0  0.21888179275E+02 -0.86129212751E+01 -0.12350928042E+02  0.26567277403E+02  0.51100000000E-03 0. -1.
        -11    1    3    3    0    0 -0.91994551849E+01  0.13655736425E+02  0.42974911782E+01  0.17016978101E+02  0.51100000000E-03 0.  1.
        -12    1    3    3    0    0 -0.16572263011E+02 -0.23109448220E+02  0.50208392116E+01  0.28877245795E+02  0.00000000000E+00 0.  1.
</event>
<event>
 7    1  0.1789107E-013  0.7246162E+02  0.7816164E-02  0.1226708E+00
        -11   -1    0    0    0    0  0.00000000000E+00  0.00000000000E+00  0.45593999997E+02  0.45594000000E+02  0.51100000000E-03 0.  1.
         11   -1    0    0    0    0 -0.00000000000E+00 -0.00000000000E+00 -0.45593999997E+02  0.45594000000E+02  0.51100000000E-03 0. -1.
    9900012    2    1    2    0    0  0.22413952193E+01  0.88995618254E+01 -0.16323337055E+02  0.72461617919E+02  0.70000062040E+02 0.  0.
        -12    1    1    2    0    0 -0.22413952193E+01 -0.88995618254E+01  0.16323337055E+02  0.18726382081E+02  0.00000000000E+00 0.  1.
         11    1    3    3    0    0  0.18629144150E+02  0.20916978294E+02 -0.27803024836E+01  0.28147736585E+02  0.51100000000E-03 0. -1.
        -11    1    3    3    0    0  0.11066435778E+02  0.16114807235E+01 -0.11128583988E+01  0.11238386229E+02  0.51100000000E-03 0.  1.
        -12    1    3    3    0    0 -0.27454184709E+02 -0.13628897192E+02 -0.12430176173E+02  0.33075495105E+02  0.00000000000E+00 0.  1.
</event>
<event>
 7    1  0.1789107E-013  0.7246156E+02  0.7816164E-02  0.1226708E+00
        -11   -1    0    0    0    0  0.00000000000E+00  0.00000000000E+00  0.45593999997E+02  0.45594000000E+02  0.51100000000E-03 0. -1.
         11   -1    0    0    0    0 -0.00000000000E+00 -0.00000000000E+00 -0.45593999997E+02  0.45594000000E+02  0.51100000000E-03 0.  1.
    9900012    2    1    2    0    0 -0.15214383441E+02 -0.38527196764E+01  0.10215604441E+02  0.72461561831E+02  0.69999988975E+02 0.  0.
        -12    1    1    2    0    0  0.15214383441E+02  0.38527196764E+01 -0.10215604441E+02  0.18726438169E+02  0.00000000000E+00 0.  1.
         11    1    3    3    0    0 -0.25144432493E+02 -0.60737928099E+01 -0.12291425505E+02  0.28639353794E+02  0.51100000000E-03 0. -1.
        -11    1    3    3    0    0  0.12690476545E+02 -0.69901926903E+01 -0.44864935636E+01  0.15167056852E+02  0.51100000000E-03 0.  1.
        -12    1    3    3    0    0 -0.27604274931E+01  0.92112658238E+01  0.26993523509E+02  0.28655151186E+02  0.00000000000E+00 0.  1.
</event>
<event>
 7    1  0.1789107E-013  0.7246157E+02  0.7816164E-02  0.1226708E+00
        -11   -1    0    0    0    0  0.00000000000E+00  0.00000000000E+00  0.45593999997E+02  0.45594000000E+02  0.51100000000E-03 0. -1.
         11   -1    0    0    0    0 -0.00000000000E+00 -0.00000000000E+00 -0.45593999997E+02  0.45594000000E+02  0.51100000000E-03 0.  1.
    9900012    2    1    2    0    0  0.61935687871E+01  0.95428178326E+01  0.14874587329E+02  0.72461574427E+02  0.70000005384E+02 0.  0.
        -12    1    1    2    0    0 -0.61935687871E+01 -0.95428178326E+01 -0.14874587329E+02  0.18726425573E+02  0.00000000000E+00 0.  1.
         11    1    3    3    0    0 -0.33397550518E+01  0.13147769749E+02  0.22413506890E+02  0.26198914187E+02  0.51100000000E-03 0. -1.
        -11    1    3    3    0    0 -0.15319522137E+02 -0.10417892237E+02  0.23210022223E+01  0.18671028058E+02  0.51100000000E-03 0.  1.
         12    1    3    3    0    0  0.24852845976E+02  0.68129403208E+01 -0.98599217834E+01  0.27591632183E+02  0.00000000000E+00 0. -1.
</event>
<event>
 7    1  0.1789107E-013  0.7246150E+02  0.7816164E-02  0.1226708E+00
        -11   -1    0    0    0    0  0.00000000000E+00  0.00000000000E+00  0.45593999997E+02  0.45594000000E+02  0.51100000000E-03 0.  1.
         11   -1    0    0    0    0 -0.00000000000E+00 -0.00000000000E+00 -0.45593999997E+02  0.45594000000E+02  0.51100000000E-03 0. -1.
    9900012    2    1    2    0    0  0.16022087056E+02  0.24326174212E+01  0.93838593025E+01  0.72461502288E+02  0.69999911409E+02 0.  0.
        -12    1    1    2    0    0 -0.16022087056E+02 -0.24326174212E+01 -0.93838593025E+01  0.18726497712E+02  0.00000000000E+00 0.  1.
         11    1    3    3    0    0 -0.10092007607E+02 -0.24529418122E+01 -0.82183625012E+01  0.13244131664E+02  0.51100000000E-03 0. -1.
        -11    1    3    3    0    0 -0.10212033815E+02  0.97657340347E+01 -0.62885344272E+01  0.15466119790E+02  0.51100000000E-03 0.  1.
         12    1    3    3    0    0  0.36326128477E+02 -0.48801748013E+01  0.23890756231E+02  0.43751250834E+02  0.00000000000E+00 0. -1.
</event>
<event>
 7    1  0.1789107E-013  0.7246158E+02  0.7816164E-02  0.1226708E+00
        -11   -1    0    0    0    0  0.00000000000E+00  0.00000000000E+00  0.45593999997E+02  0.45594000000E+02  0.51100000000E-03 0.  1.
         11   -1    0    0    0    0 -0.00000000000E+00 -0.00000000000E+00 -0.45593999997E+02  0.45594000000E+02  0.51100000000E-03 0. -1.
    9900012    2    1    2    0    0 -0.73271895294E+01  0.12413697570E+02  0.11953711588E+02  0.72461579774E+02  0.70000012349E+02 0.  0.
        -12    1    1    2    0    0  0.73271895294E+01 -0.12413697570E+02 -0.11953711588E+02  0.18726420226E+02  0.00000000000E+00 0.  1.
         11    1    3    3    0    0  0.58677865664E+00 -0.16792774189E+00 -0.77411152294E+01  0.77651383873E+01  0.51100000000E-03 0. -1.
        -11    1    3    3    0    0  0.25460911180E+02  0.34962873450E+01  0.15088295349E+02  0.29801655661E+02  0.51100000000E-03 0.  1.
         12    1    3    3    0    0 -0.33374879366E+02  0.90853379669E+01  0.46065314679E+01  0.34894785726E+02  0.00000000000E+00 0. -1.
</event>
<event>
 7    1  0.1789107E-013  0.7246153E+02  0.7816164E-02  0.1226708E+00
        -11   -1    0    0    0    0  0.00000000000E+00  0.00000000000E+00  0.45593999997E+02  0.45594000000E+02  0.51100000000E-03 0.  1.
         11   -1    0    0    0    0 -0.00000000000E+00 -0.00000000000E+00 -0.45593999997E+02  0.45594000000E+02  0.51100000000E-03 0. -1.
    9900012    2    1    2    0    0  0.17874719183E+01 -0.16526880415E+02 -0.86225295465E+01  0.72461525481E+02  0.69999941623E+02 0.  0.
        -12    1    1    2    0    0 -0.17874719183E+01  0.16526880415E+02  0.86225295465E+01  0.18726474519E+02  0.00000000000E+00 0.  1.
         11    1    3    3    0    0 -0.35087394098E+01 -0.78227067245E+01  0.10909511468E+02  0.13875281384E+02  0.51100000000E-03 0. -1.
        -11    1    3    3    0    0  0.32551280684E+01 -0.27118767165E+02  0.50782873565E+01  0.27781511730E+02  0.51100000000E-03 0.  1.
         12    1    3    3    0    0  0.20410832596E+01  0.18414593474E+02 -0.24610328371E+02  0.30804732367E+02  0.00000000000E+00 0. -1.
</event>
<event>
 7    1  0.1789107E-013  0.7246161E+02  0.7816164E-02  0.1226708E+00
        -11   -1    0    0    0    0  0.00000000000E+00  0.00000000000E+00  0.45593999997E+02  0.45594000000E+02  0.51100000000E-03 0.  1.
         11   -1    0    0    0    0 -0.00000000000E+00 -0.00000000000E+00 -0.45593999997E+02  0.45594000000E+02  0.51100000000E-03 0. -1.
    9900012    2    1    2    0    0 -0.13061160025E+02  0.32596940135E+01 -0.13017617089E+02  0.72461605233E+02  0.70000045515E+02 0.  0.
        -12    1    1    2    0    0  0.13061160025E+02 -0.32596940135E+01  0.13017617089E+02  0.18726394767E+02  0.00000000000E+00 0.  1.
         11    1    3    3    0    0 -0.15579117940E+02  0.93045108598E+01 -0.11111982964E+02  0.21278134405E+02  0.51100000000E-03 0. -1.
        -11    1    3    3    0    0  0.20689020428E+02  0.13244842244E+02 -0.23642965760E+01  0.24678964948E+02  0.51100000000E-03 0.  1.
         12    1    3    3    0    0 -0.18171062514E+02 -0.19289659090E+02  0.45866245102E+00  0.26504505880E+02  0.00000000000E+00 0. -1.
</event>
<event>
 7    1  0.1789107E-013  0.7246157E+02  0.7816164E-02  0.1226708E+00
        -11   -1    0    0    0    0  0.00000000000E+00  0.00000000000E+00  0.45593999997E+02  0.45594000000E+02  0.51100000000E-03 0.  1.
         11   -1    0    0    0    0 -0.00000000000E+00 -0.00000000000E+00 -0.45593999997E+02  0.45594000000E+02  0.51100000000E-03 0. -1.
    9900012    2    1    2    0    0 -0.15032840546E+02  0.86050538368E+00 -0.11133391490E+02  0.72461570269E+02  0.69999999967E+02 0.  0.
        -12    1    1    2    0    0  0.15032840546E+02 -0.86050538368E+00  0.11133391490E+02  0.18726429731E+02  0.00000000000E+00 0.  1.
         11    1    3    3    0    0 -0.80740689768E+00  0.79464738299E+01  0.48997832916E+01  0.93704977879E+01  0.51100000000E-03 0. -1.
        -11    1    3    3    0    0  0.21580288326E+02 -0.10634955846E+01  0.34581462209E+01  0.21881468019E+02  0.51100000000E-03 0.  1.
         12    1    3    3    0    0 -0.35805721975E+02 -0.60224728616E+01 -0.19491321003E+02  0.41209604462E+02  0.00000000000E+00 0. -1.
</event>
<event>
 7    1  0.1789107E-013  0.7246169E+02  0.7816164E-02  0.1226708E+00
        -11   -1    0    0    0    0  0.00000000000E+00  0.00000000000E+00  0.45593999997E+02  0.45594000000E+02  0.51100000000E-03 0. -1.
         11   -1    0    0    0    0 -0.00000000000E+00 -0.00000000000E+00 -0.45593999997E+02  0.45594000000E+02  0.51100000000E-03 0.  1.
    9900012    2    1    2    0    0 -0.18598469013E+02 -0.19209393064E+01 -0.10399779287E+01  0.72461691994E+02  0.70000158536E+02 0.  0.
        -12    1    1    2    0    0  0.18598469013E+02  0.19209393064E+01  0.10399779287E+01  0.18726308006E+02  0.00000000000E+00 0.  1.
         11    1    3    3    0    0  0.11898756082E+02  0.19850137584E+02 -0.19151436048E+02  0.30039738038E+02  0.51100000000E-03 0. -1.
        -11    1    3    3    0    0  0.39900871423E+00 -0.86071082446E-01 -0.21522028392E+00  0.46145012406E+00  0.51100000000E-03 0.  1.
        -12    1    3    3    0    0 -0.30896233810E+02 -0.21685005808E+02  0.18326678403E+02  0.41960503832E+02  0.00000000000E+00 0.  1.
</event>
<event>
 7    1  0.1789107E-013  0.7246169E+02  0.7816164E-02  0.1226708E+00
        -11   -1    0    0    0    0  0.00000000000E+00  0.00000000000E+00  0.45593999997E+02  0.45594000000E+02  0.51100000000E-03 0. -1.
         11   -1    0    0    0    0 -0.00000000000E+00 -0.00000000000E+00 -0.45593999997E+02  0.45594000000E+02  0.51100000000E-03 0.  1.
    9900012    2    1    2    0    0 -0.15691717627E+02  0.71888992549E+01  0.72639224516E+01  0.72461685788E+02  0.70000150452E+02 0.  0.
        -12    1    1    2    0    0  0.15691717627E+02 -0.71888992549E+01 -0.72639224516E+01  0.18726314212E+02  0.00000000000E+00 0.  1.
         11    1    3    3    0    0 -0.90006600669E+01 -0.86222384478E+01  0.23498035953E+02  0.26599108470E+02  0.51100000000E-03 0. -1.
        -11    1    3    3    0    0  0.64716020796E+01 -0.55942343556E+00  0.10203532755E+02  0.12095729371E+02  0.51100000000E-03 0.  1.
        -12    1    3    3    0    0 -0.13162659640E+02  0.16370561138E+02 -0.26437646256E+02  0.33766847948E+02  0.00000000000E+00 0.  1.
</event>
<event>
 7    1  0.1789107E-013  0.7246158E+02  0.7816164E-02  0.1226708E+00
        -11   -1    0    0    0    0  0.00000000000E+00  0.00000000000E+00  0.45593999997E+02  0.45594000000E+02  0.51100000000E-03 0.  1.
         11   -1    0    0    0    0 -0.00000000000E+00 -0.00000000000E+00 -0.45593999997E+02  0.45594000000E+02  0.51100000000E-03 0. -1.
    9900012    2    1    2    0    0 -0.65072975381E+01 -0.48787541775E+01 -0.16868068166E+02  0.72461577832E+02  0.70000009819E+02 0.  0.
        -12    1    1    2    0    0  0.65072975381E+01  0.48787541775E+01  0.16868068166E+02  0.18726422168E+02  0.00000000000E+00 0.  1.
         11    1    3    3    0    0 -0.29929285238E+02  0.29021933647E+01 -0.11520392594E+02  0.32200998229E+02  0.51100000000E-03 0. -1.
        -11    1    3    3    0    0 -0.21736638938E+01 -0.67174118559E+01  0.85720638040E+01  0.11105346230E+02  0.51100000000E-03 0.  1.
         12    1    3    3    0    0  0.25595651594E+02 -0.10635356863E+01 -0.13919739377E+02  0.29155233372E+02  0.00000000000E+00 0. -1.
</event>
<event>
 7    1  0.1852622E-013  0.7246159E+02  0.7816164E-02  0.1226708E+00
        -11   -1    0    0    0    0  0.00000000000E+00  0.00000000000E+00  0.45593999997E+02  0.45594000000E+02  0.51100000000E-03 0. -1.
         11   -1    0    0    0    0 -0.00000000000E+00 -0.00000000000E+00 -0.45593999997E+02  0.45594000000E+02  0.51100000000E-03 0.  1.
    9900012    2    1    2    0    0  0.15615548706E+01 -0.97195343431E+01  0.15930183028E+02  0.72461587296E+02  0.70000022148E+02 0.  0.
        -12    1    1    2    0    0 -0.15615548706E+01  0.97195343431E+01 -0.15930183028E+02  0.18726412704E+02  0.00000000000E+00 0.  1.
         11    1    3    3    0    0 -0.12339361061E+02 -0.16209695604E+02  0.20709426861E+02  0.29049861000E+02  0.51100000000E-03 0. -1.
        -11    1    3    3    0    0 -0.84390584849E+01 -0.10679441102E+02  0.34824514107E+01  0.14049755815E+02  0.51100000000E-03 0.  1.
        -12    1    3    3    0    0  0.22339974416E+02  0.17169602363E+02 -0.82616952442E+01  0.29361970481E+02  0.00000000000E+00 0.  1.
</event>
<event>
 7    1  0.1789107E-013  0.7246156E+02  0.7816164E-02  0.1226708E+00
        -11   -1    0    0    0    0  0.00000000000E+00  0.00000000000E+00  0.45593999997E+02  0.45594000000E+02  0.51100000000E-03 0.  1.
         11   -1    0    0    0    0 -0.00000000000E+00 -0.00000000000E+00 -0.45593999997E+02  0.45594000000E+02  0.51100000000E-03 0. -1.
    9900012    2    1    2    0    0 -0.12803853801E+01 -0.50707353640E+01 -0.17981316398E+02  0.72461561917E+02  0.69999989087E+02 0.  0.
        -12    1    1    2    0    0  0.12803853801E+01  0.50707353640E+01  0.17981316398E+02  0.18726438083E+02  0.00000000000E+00 0.  1.
         11    1    3    3    0    0  0.75545327053E+01 -0.20567770326E+02 -0.79803636412E+01  0.23319312698E+02  0.51100000000E-03 0. -1.
        -11    1    3    3    0    0 -0.32760730533E+01  0.94470830329E+00  0.17341510483E+02  0.17673514493E+02  0.51100000000E-03 0.  1.
         12    1    3    3    0    0 -0.55588450320E+01  0.14552326659E+02 -0.27342463240E+02  0.31468734727E+02  0.00000000000E+00 0. -1.
</event>
<event>
 7    1  0.1789107E-013  0.7246158E+02  0.7816164E-02  0.1226708E+00
        -11   -1    0    0    0    0  0.00000000000E+00  0.00000000000E+00  0.45593999997E+02  0.45594000000E+02  0.51100000000E-03 0. -1.
         11   -1    0    0    0    0 -0.00000000000E+00 -0.00000000000E+00 -0.45593999997E+02  0.45594000000E+02  0.51100000000E-03 0.  1.
    9900012    2    1    2    0    0 -0.77910009180E+01  0.17024705213E+02  0.37203939109E+00  0.72461582932E+02  0.70000016463E+02 0.  0.
        -12    1    1    2    0    0  0.77910009180E+01 -0.17024705213E+02 -0.37203939109E+00  0.18726417068E+02  0.00000000000E+00 0.  1.
         11    1    3    3    0    0 -0.95317769163E+01  0.59175783641E+01  0.30309903567E+01  0.11621506257E+02  0.51100000000E-03 0. -1.
        -11    1    3    3    0    0 -0.20302344146E+02 -0.13968353529E+02  0.78082874596E+01  0.25850907749E+02  0.51100000000E-03 0.  1.
         12    1    3    3    0    0  0.22043120145E+02  0.25075480378E+02 -0.10467238425E+02  0.34989168926E+02  0.00000000000E+00 0. -1.
</event>
<event>
 7    1  0.1789107E-013  0.7246157E+02  0.7816164E-02  0.1226708E+00
        -11   -1    0    0    0    0  0.00000000000E+00  0.00000000000E+00  0.45593999997E+02  0.45594000000E+02  0.51100000000E-03 0. -1.
         11   -1    0    0    0    0 -0.00000000000E+00 -0.00000000000E+00 -0.45593999997E+02  0.45594000000E+02  0.51100000000E-03 0.  1.
    9900012    2    1    2    0    0 -0.15498281812E+02  0.88645184451E+01  0.56482456213E+01  0.72461572018E+02  0.70000002245E+02 0.  0.
        -12    1    1    2    0    0  0.15498281812E+02 -0.88645184451E+01 -0.56482456213E+01  0.18726427982E+02  0.00000000000E+00 0.  1.
         11    1    3    3    0    0  0.86280633528E+01 -0.45570063897E+01 -0.74422219023E+01  0.12271774589E+02  0.51100000000E-03 0. -1.
        -11    1    3    3    0    0 -0.42454122863E+01 -0.45043739305E+01  0.28593276575E+02  0.29255569992E+02  0.51100000000E-03 0.  1.
        -12    1    3    3    0    0 -0.19880932878E+02  0.17925898765E+02 -0.15502809051E+02  0.30934227437E+02  0.00000000000E+00 0.  1.
</event>
<event>
 7    1  0.1789107E-013  0.7246176E+02  0.7816164E-02  0.1226708E+00
        -11   -1    0    0    0    0  0.00000000000E+00  0.00000000000E+00  0.45593999997E+02  0.45594000000E+02  0.51100000000E-03 0.  1.
         11   -1    0    0    0    0 -0.00000000000E+00 -0.00000000000E+00 -0.45593999997E+02  0.45594000000E+02  0.51100000000E-03 0. -1.
    9900012    2    1    2    0    0 -0.16716255025E+02  0.57971091097E+01 -0.61345331535E+01  0.72461757635E+02  0.70000244045E+02 0.  0.
        -12    1    1    2    0    0  0.16716255025E+02 -0.57971091097E+01  0.61345331535E+01  0.18726242365E+02  0.00000000000E+00 0.  1.
         11    1    3    3    0    0 -0.18051746786E+02  0.81051298016E+00 -0.65398112944E+01  0.19216961917E+02  0.51100000000E-03 0. -1.
        -11    1    3    3    0    0 -0.21410933204E+02  0.14222577088E+02 -0.85855828174E+01  0.27100221258E+02  0.51100000000E-03 0.  1.
        -12    1    3    3    0    0  0.22746424964E+02 -0.92359809582E+01  0.89908609582E+01  0.26144574459E+02  0.00000000000E+00 0.  1.
</event>
<event>
 7    1  0.1789107E-013  0.7246157E+02  0.7816164E-02  0.1226708E+00
        -11   -1    0    0    0    0  0.00000000000E+00  0.00000000000E+00  0.45593999997E+02  0.45594000000E+02  0.51100000000E-03 0. -1.
         11   -1    0    0    0    0 -0.00000000000E+00 -0.00000000000E+00 -0.45593999997E+02  0.45594000000E+02  0.51100000000E-03 0.  1.
    9900012    2    1    2    0    0 -0.12907880052E+02  0.91831120196E+01  0.99868075593E+01  0.72461568438E+02  0.69999997582E+02 0.  0.
        -12    1    1    2    0    0  0.12907880052E+02 -0.91831120196E+01 -0.99868075593E+01  0.18726431562E+02  0.00000000000E+00 0.  1.
         11    1    3    3    0    0  0.29137748795E+00 -0.53779954862E+01 -0.11652390159E+02  0.12836897326E+02  0.51100000000E-03 0. -1.
        -11    1    3    3    0    0 -0.87646359534E+01 -0.16832354958E+02 -0.33304133728E+01  0.19267554861E+02  0.51100000000E-03 0.  1.
         12    1    3    3    0    0 -0.44346215868E+01  0.31393462464E+02  0.24969611091E+02  0.40357116251E+02  0.00000000000E+00 0. -1.
</event>
<event>
 7    1  0.1789107E-013  0.7246156E+02  0.7816164E-02  0.1226708E+00
        -11   -1    0    0    0    0  0.00000000000E+00  0.00000000000E+00  0.45593999997E+02  0.45594000000E+02  0.51100000000E-03 0. -1.
         11   -1    0    0    0    0 -0.00000000000E+00 -0.00000000000E+00 -0.45593999997E+02  0.45594000000E+02  0.51100000000E-03 0.  1.
    9900012    2    1    2    0    0 -0.43018574425E+01 -0.67538732112E+01  0.16928045089E+02  0.72461561702E+02  0.69999988806E+02 0.  0.
        -12    1    1    2    0    0  0.43018574425E+01  0.67538732112E+01 -0.16928045089E+02  0.18726438298E+02  0.00000000000E+00 0.  1.
         11    1    3    3    0    0  0.93771966343E+01 -0.40454095090E+01 -0.48524589273E+01  0.11306790558E+02  0.51100000000E-03 0. -1.
        -11    1    3    3    0    0 -0.95398067947E+01 -0.22597964804E+02 -0.73799736687E+01  0.25615228646E+02  0.51100000000E-03 0.  1.
         12    1    3    3    0    0 -0.41392472821E+01  0.19889501102E+02  0.29160477685E+02  0.35539542498E+02  0.00000000000E+00 0. -1.
</event>
<event>
 7    1  0.1789107E-013  0.7246105E+02  0.7816164E-02  0.1226709E+00
        -11   -1    0    0    0    0  0.00000000000E+00  0.00000000000E+00  0.45593999997E+02  0.45594000000E+02  0.51100000000E-03 0.  1.
         11   -1    0    0    0    0 -0.00000000000E+00 -0.00000000000E+00 -0.45593999997E+02  0.45594000000E+02  0.51100000000E-03 0. -1.
    9900012    2    1    2    0    0 -0.19008295348E+01  0.52579929808E+01 -0.17872858344E+02  0.72461048607E+02  0.69999320402E+02 0.  0.
        -12    1    1    2    0    0  0.19008295348E+01 -0.52579929808E+01  0.17872858344E+02  0.18726951393E+02  0.00000000000E+00 0.  1.
         11    1    3    3    0    0 -0.90538245540E+01 -0.32890531364E+01 -0.20690415892E+02  0.22822859585E+02  0.51100000000E-03 0. -1.
        -11    1    3    3    0    0  0.38592799746E+01 -0.18661148104E+02  0.96966181918E+01  0.21381227633E+02  0.51100000000E-03 0.  1.
         12    1    3    3    0    0  0.32937150446E+01  0.27208194221E+02 -0.68790606440E+01  0.28256961389E+02  0.00000000000E+00 0. -1.
</event>
<event>
 7    1  0.1789107E-013  0.7246157E+02  0.7816164E-02  0.1226708E+00
        -11   -1    0    0    0    0  0.00000000000E+00  0.00000000000E+00  0.45593999997E+02  0.45594000000E+02  0.51100000000E-03 0.  1.
         11   -1    0    0    0    0 -0.00000000000E+00 -0.00000000000E+00 -0.45593999997E+02  0.45594000000E+02  0.51100000000E-03 0. -1.
    9900012    2    1    2    0    0 -0.83655950836E+01  0.15617942235E+02  0.60643113738E+01  0.72461570196E+02  0.69999999873E+02 0.  0.
        -12    1    1    2    0    0  0.83655950836E+01 -0.15617942235E+02 -0.60643113738E+01  0.18726429804E+02  0.00000000000E+00 0.  1.
         11    1    3    3    0    0 -0.26216193176E+00  0.13559808694E+02 -0.83785999870E+01  0.15941708776E+02  0.51100000000E-03 0. -1.
        -11    1    3    3    0    0 -0.90904678719E+01  0.27608337030E+02  0.81563439372E+01  0.30189117682E+02  0.51100000000E-03 0.  1.
        -12    1    3    3    0    0  0.98703472001E+00 -0.25550203489E+02  0.62865674236E+01  0.26330743739E+02  0.00000000000E+00 0.  1.
</event>
<event>
 7    1  0.1789107E-013  0.7246156E+02  0.7816164E-02  0.1226708E+00
        -11   -1    0    0    0    0  0.00000000000E+00  0.00000000000E+00  0.45593999997E+02  0.45594000000E+02  0.51100000000E-03 0. -1.
         11   -1    0    0    0    0 -0.00000000000E+00 -0.00000000000E+00 -0.45593999997E+02  0.45594000000E+02  0.51100000000E-03 0.  1.
    9900012    2    1    2    0    0  0.16701599415E+02 -0.83821474007E+01  0.12148169487E+01  0.72461558846E+02  0.69999985087E+02 0.  0.
        -12    1    1    2    0    0 -0.16701599415E+02  0.83821474007E+01 -0.12148169487E+01  0.18726441154E+02  0.00000000000E+00 0.  1.
         11    1    3    3    0    0 -0.54306180330E+01  0.10029852164E+02  0.72950897185E+01  0.13539124082E+02  0.51100000000E-03 0.  1.
        -11    1    3    3    0    0 -0.16959561450E+01 -0.18489303159E+02  0.17416941682E+02  0.25457424386E+02  0.51100000000E-03 0. -1.
        -12    1    3    3    0    0  0.23828173593E+02  0.77303594480E-01 -0.23497214451E+02  0.33465010378E+02  0.00000000000E+00 0.  1.
</event>
<event>
 7    1  0.1789107E-013  0.7246160E+02  0.7816164E-02  0.1226708E+00
        -11   -1    0    0    0    0  0.00000000000E+00  0.00000000000E+00  0.45593999997E+02  0.45594000000E+02  0.51100000000E-03 0.  1.
         11   -1    0    0    0    0 -0.00000000000E+00 -0.00000000000E+00 -0.45593999997E+02  0.45594000000E+02  0.51100000000E-03 0. -1.
    9900012    2    1    2    0    0 -0.95243683540E+01 -0.14665939405E+02  0.66988663103E+01  0.72461596687E+02  0.70000034382E+02 0.  0.
        -12    1    1    2    0    0  0.95243683540E+01  0.14665939405E+02 -0.66988663103E+01  0.18726403313E+02  0.00000000000E+00 0.  1.
         11    1    3    3    0    0 -0.92589306295E+01  0.21107044388E+02  0.90221402993E+01  0.24751447130E+02  0.51100000000E-03 0. -1.
        -11    1    3    3    0    0  0.20037924174E+01 -0.69810320765E+01  0.13092595504E+02  0.14972175868E+02  0.51100000000E-03 0.  1.
        -12    1    3    3    0    0 -0.22692301419E+01 -0.28791951717E+02 -0.15415869493E+02  0.32737973690E+02  0.00000000000E+00 0.  1.
</event>
<event>
 7    1  0.1789107E-013  0.7246155E+02  0.7816164E-02  0.1226708E+00
        -11   -1    0    0    0    0  0.00000000000E+00  0.00000000000E+00  0.45593999997E+02  0.45594000000E+02  0.51100000000E-03 0.  1.
         11   -1    0    0    0    0 -0.00000000000E+00 -0.00000000000E+00 -0.45593999997E+02  0.45594000000E+02  0.51100000000E-03 0. -1.
    9900012    2    1    2    0    0 -0.11151408592E+02  0.18714583228E+01 -0.14927273211E+02  0.72461554652E+02  0.69999979624E+02 0.  0.
        -12    1    1    2    0    0  0.11151408592E+02 -0.18714583228E+01  0.14927273211E+02  0.18726445348E+02  0.00000000000E+00 0.  1.
         11    1    3    3    0    0 -0.11323066832E+02  0.81648113061E+01 -0.37183579979E+01  0.14446528047E+02  0.51100000000E-03 0. -1.
        -11    1    3    3    0    0  0.21856500332E+01  0.20598766399E+02  0.10658568940E+02  0.23295736420E+02  0.51100000000E-03 0.  1.
         12    1    3    3    0    0 -0.20139917931E+01 -0.26892119382E+02 -0.21867484153E+02  0.34719290186E+02  0.00000000000E+00 0. -1.
</event>
<event>
 7    1  0.1789107E-013  0.7246172E+02  0.7816164E-02  0.1226708E+00
        -11   -1    0    0    0    0  0.00000000000E+00  0.00000000000E+00  0.45593999997E+02  0.45594000000E+02  0.51100000000E-03 0.  1.
         11   -1    0    0    0    0 -0.00000000000E+00 -0.00000000000E+00 -0.45593999997E+02  0.45594000000E+02  0.51100000000E-03 0. -1.
    9900012    2    1    2    0    0 -0.50428704413E+01 -0.56958441162E+01 -0.17111415006E+02  0.72461716172E+02  0.70000190032E+02 0.  0.
        -12    1    1    2    0    0  0.50428704413E+01  0.56958441162E+01  0.17111415006E+02  0.18726283828E+02  0.00000000000E+00 0.  1.
         11    1    3    3    0    0 -0.25951998230E+01  0.89230763291E-01 -0.37803637075E+00  0.26241067069E+01  0.51100000000E-03 0. -1.
        -11    1    3    3    0    0 -0.17879960658E+01 -0.15021072293E+02  0.23832723173E+02  0.28228146182E+02  0.51100000000E-03 0.  1.
         12    1    3    3    0    0 -0.65967455253E+00  0.92359974139E+01 -0.40566101809E+02  0.41609463283E+02  0.00000000000E+00 0. -1.
</event>
<event>
 7    1  0.1789107E-013  0.7246194E+02  0.7816164E-02  0.1226707E+00
        -11   -1    0    0    0    0  0.00000000000E+00  0.00000000000E+00  0.45593999997E+02  0.45594000000E+02  0.51100000000E-03 0.  1.
         11   -1    0    0    0    0 -0.00000000000E+00 -0.00000000000E+00 -0.45593999997E+02  0.45594000000E+02  0.51100000000E-03 0. -1.
    9900012    2    1    2    0    0 -0.16213645582E+02 -0.56460892708E+00 -0.93522363957E+01  0.72461937629E+02  0.70000478520E+02 0.  0.
        -12    1    1    2    0    0  0.16213645582E+02  0.56460892708E+00  0.93522363957E+01  0.18726062371E+02  0.00000000000E+00 0.  1.
         11    1    3    3    0    0 -0.87049390520E+01  0.98956538645E+01 -0.57032692506E+01  0.14360613138E+02  0.51100000000E-03 0. -1.
        -11    1    3    3    0    0 -0.16065305656E+02 -0.18817152351E+01  0.23409368499E+02  0.28454058266E+02  0.51100000000E-03 0.  1.
         12    1    3    3    0    0  0.85565991258E+01 -0.85785475565E+01 -0.27058335644E+02  0.29647266225E+02  0.00000000000E+00 0. -1.
</event>
<event>
 7    1  0.1789107E-013  0.7246158E+02  0.7816164E-02  0.1226708E+00
        -11   -1    0    0    0    0  0.00000000000E+00  0.00000000000E+00  0.45593999997E+02  0.45594000000E+02  0.51100000000E-03 0.  1.
         11   -1    0    0    0    0 -0.00000000000E+00 -0.00000000000E+00 -0.45593999997E+02  0.45594000000E+02  0.51100000000E-03 0. -1.
    9900012    2    1    2    0    0 -0.10643097245E+02  0.12507476985E+02 -0.89981199636E+01  0.72461583835E+02  0.70000017639E+02 0.  0.
        -12    1    1    2    0    0  0.10643097245E+02 -0.12507476985E+02  0.89981199636E+01  0.18726416165E+02  0.00000000000E+00 0.  1.
         11    1    3    3    0    0 -0.27044585860E+02  0.23183544386E+02 -0.14431220142E+02  0.38433663235E+02  0.51100000000E-03 0. -1.
        -11    1    3    3    0    0 -0.16565181075E+01 -0.70875304140E+01 -0.83146220961E+01  0.11050343002E+02  0.51100000000E-03 0.  1.
        -12    1    3    3    0    0  0.18058006723E+02 -0.35885369863E+01  0.13747722275E+02  0.22977577598E+02  0.00000000000E+00 0.  1.
</event>
<event>
 7    1  0.1901996E-013  0.7246212E+02  0.7816164E-02  0.1226707E+00
        -11   -1    0    0    0    0  0.00000000000E+00  0.00000000000E+00  0.45593999997E+02  0.45594000000E+02  0.51100000000E-03 0. -1.
         11   -1    0    0    0    0 -0.00000000000E+00 -0.00000000000E+00 -0.45593999997E+02  0.45594000000E+02  0.51100000000E-03 0.  1.
    9900012    2    1    2    0    0 -0.42752315652E+01  0.11787728008E+02  0.13907922983E+02  0.72462123299E+02  0.70000720388E+02 0.  0.
        -12    1    1    2    0    0  0.42752315652E+01 -0.11787728008E+02 -0.13907922983E+02  0.18725876701E+02  0.00000000000E+00 0.  1.
         11    1    3    3    0    0  0.30986492876E+01  0.14496124475E+02  0.26407053583E+02  0.30283192226E+02  0.51100000000E-03 0. -1.
        -11    1    3    3    0    0 -0.17661700744E+02 -0.74256232122E+00  0.78117779084E+01  0.19326431288E+02  0.51100000000E-03 0.  1.
        -12    1    3    3    0    0  0.10287819891E+02 -0.19658341458E+01 -0.20310908509E+02  0.22852499786E+02  0.00000000000E+00 0.  1.
</event>
<event>
 7    1  0.1789107E-013  0.7246151E+02  0.7816164E-02  0.1226708E+00
        -11   -1    0    0    0    0  0.00000000000E+00  0.00000000000E+00  0.45593999997E+02  0.45594000000E+02  0.51100000000E-03 0.  1.
         11   -1    0    0    0    0 -0.00000000000E+00 -0.00000000000E+00 -0.45593999997E+02  0.45594000000E+02  0.51100000000E-03 0. -1.
    9900012    2    1    2    0    0  0.15063332575E+01  0.11963149072E+02 -0.14328137052E+02  0.72461508418E+02  0.69999919395E+02 0.  0.
        -12    1    1    2    0    0 -0.15063332575E+01 -0.11963149072E+02  0.14328137052E+02  0.18726491582E+02  0.00000000000E+00 0.  1.
         11    1    3    3    0    0  0.90161327989E+01  0.14245868837E+02 -0.14235755722E+02  0.22065633252E+02  0.51100000000E-03 0. -1.
        -11    1    3    3    0    0  0.88135701631E+01  0.17084038122E+02  0.11649882224E+02  0.22478058939E+02  0.51100000000E-03 0.  1.
         12    1    3    3    0    0 -0.16323369705E+02 -0.19366757887E+02 -0.11742263553E+02  0.27917816228E+02  0.00000000000E+00 0. -1.
</event>
<event>
 7    1  0.1789107E-013  0.7246157E+02  0.7816164E-02  0.1226708E+00
        -11   -1    0    0    0    0  0.00000000000E+00  0.00000000000E+00  0.45593999997E+02  0.45594000000E+02  0.51100000000E-03 0. -1.
         11   -1    0    0    0    0 -0.00000000000E+00 -0.00000000000E+00 -0.45593999997E+02  0.45594000000E+02  0.51100000000E-03 0.  1.
    9900012    2    1    2    0    0 -0.19001571460E+01 -0.18597234606E+02  0.11006827741E+01  0.72461568553E+02  0.69999997731E+02 0.  0.
        -12    1    1    2    0    0  0.19001571460E+01  0.18597234606E+02 -0.11006827741E+01  0.18726431447E+02  0.00000000000E+00 0.  1.
         11    1    3    3    0    0  0.20375703206E+02  0.13905040596E+02  0.13395727513E+02  0.28070713403E+02  0.51100000000E-03 0. -1.
        -11    1    3    3    0    0 -0.68348975742E+01 -0.43964952122E+01  0.32514018911E+01  0.87530914264E+01  0.51100000000E-03 0.  1.
        -12    1    3    3    0    0 -0.15440962778E+02 -0.28105779990E+02 -0.15546446630E+02  0.35637763723E+02  0.00000000000E+00 0.  1.
</event>
<event>
 7    1  0.1789107E-013  0.7246155E+02  0.7816164E-02  0.1226708E+00
        -11   -1    0    0    0    0  0.00000000000E+00  0.00000000000E+00  0.45593999997E+02  0.45594000000E+02  0.51100000000E-03 0.  1.
         11   -1    0    0    0    0 -0.00000000000E+00 -0.00000000000E+00 -0.45593999997E+02  0.45594000000E+02  0.51100000000E-03 0. -1.
    9900012    2    1    2    0    0 -0.16558415696E+02  0.83097546440E+01  0.27288465615E+01  0.72461554631E+02  0.69999979596E+02 0.  0.
        -12    1    1    2    0    0  0.16558415696E+02 -0.83097546440E+01 -0.27288465615E+01  0.18726445369E+02  0.00000000000E+00 0.  1.
         11    1    3    3    0    0 -0.85978966387E+01  0.86334744886E+01  0.11402416073E+02  0.16687594222E+02  0.51100000000E-03 0. -1.
        -11    1    3    3    0    0 -0.28154324068E+02 -0.10192914817E+02  0.36108245699E+01  0.30159567811E+02  0.51100000000E-03 0.  1.
         12    1    3    3    0    0  0.20193805011E+02  0.98691949720E+01 -0.12284394081E+02  0.25614392598E+02  0.00000000000E+00 0. -1.
</event>
<event>
 7    1  0.1789107E-013  0.7246136E+02  0.7816164E-02  0.1226709E+00
        -11   -1    0    0    0    0  0.00000000000E+00  0.00000000000E+00  0.45593999997E+02  0.45594000000E+02  0.51100000000E-03 0. -1.
         11   -1    0    0    0    0 -0.00000000000E+00 -0.00000000000E+00 -0.45593999997E+02  0.45594000000E+02  0.51100000000E-03 0.  1.
    9900012    2    1    2    0    0 -0.95280490578E+01 -0.51551140683E+01  0.15275082714E+02  0.72461359302E+02  0.69999725143E+02 0.  0.
        -12    1    1    2    0    0  0.95280490578E+01  0.51551140683E+01 -0.15275082714E+02  0.18726640698E+02  0.00000000000E+00 0.  1.
         11    1    3    3    0    0 -0.11099600561E+02 -0.27148973544E+01  0.53518050792E+01  0.12617987879E+02  0.51100000000E-03 0. -1.
        -11    1    3    3    0    0 -0.10895123167E+02 -0.13863817153E+02  0.29256328354E+02  0.34159067375E+02  0.51100000000E-03 0.  1.
        -12    1    3    3    0    0  0.12466674670E+02  0.11423600439E+02 -0.19333050719E+02  0.25684304048E+02  0.00000000000E+00 0.  1.
</event>
<event>
 7    1  0.1789107E-013  0.7246169E+02  0.7816164E-02  0.1226708E+00
        -11   -1    0    0    0    0  0.00000000000E+00  0.00000000000E+00  0.45593999997E+02  0.45594000000E+02  0.51100000000E-03 0. -1.
         11   -1    0    0    0    0 -0.00000000000E+00 -0.00000000000E+00 -0.45593999997E+02  0.45594000000E+02  0.51100000000E-03 0.  1.
    9900012    2    1    2    0    0 -0.17772258063E+01  0.10649434833E+02  0.15300509791E+02  0.72461692470E+02  0.70000159157E+02 0.  0.
        -12    1    1    2    0    0  0.17772258063E+01 -0.10649434833E+02 -0.15300509791E+02  0.18726307530E+02  0.00000000000E+00 0.  1.
         11    1    3    3    0    0 -0.52534171205E+01  0.28160117291E+02 -0.10475615416E+02  0.30501296955E+02  0.51100000000E-03 0. -1.
        -11    1    3    3    0    0  0.24840805620E+01 -0.52861790391E+01 -0.57110701868E+01  0.81688841350E+01  0.51100000000E-03 0.  1.
         12    1    3    3    0    0  0.99211075215E+00 -0.12224503419E+02  0.31487195394E+02  0.33791511381E+02  0.00000000000E+00 0. -1.
</event>
<event>
 7    1  0.1789107E-013  0.7246168E+02  0.7816164E-02  0.1226708E+00
        -11   -1    0    0    0    0  0.00000000000E+00  0.00000000000E+00  0.45593999997E+02  0.45594000000E+02  0.51100000000E-03 0. -1.
         11   -1    0    0    0    0 -0.00000000000E+00 -0.00000000000E+00 -0.45593999997E+02  0.45594000000E+02  0.51100000000E-03 0.  1.
    9900012    2    1    2    0    0  0.35616165720E+01 -0.41051420882E+01  0.17920313610E+02  0.72461683116E+02  0.70000146970E+02 0.  0.
        -12    1    1    2    0    0 -0.35616165720E+01  0.41051420882E+01 -0.17920313610E+02  0.18726316884E+02  0.00000000000E+00 0.  1.
         11    1    3    3    0    0 -0.13648181784E+01 -0.32657081787E-02  0.72767854893E+01  0.74036711599E+01  0.51100000000E-03 0. -1.
        -11    1    3    3    0    0  0.23689862444E+02 -0.25786681893E+02  0.98322846086E+01  0.36370817513E+02  0.51100000000E-03 0.  1.
         12    1    3    3    0    0 -0.18763427694E+02  0.21684805513E+02  0.81124351222E+00  0.28687194443E+02  0.00000000000E+00 0. -1.
</event>
<event>
 7    1  0.1789107E-013  0.7246158E+02  0.7816164E-02  0.1226708E+00
        -11   -1    0    0    0    0  0.00000000000E+00  0.00000000000E+00  0.45593999997E+02  0.45594000000E+02  0.51100000000E-03 0.  1.
         11   -1    0    0    0    0 -0.00000000000E+00 -0.00000000000E+00 -0.45593999997E+02  0.45594000000E+02  0.51100000000E-03 0. -1.
    9900012    2    1    2    0    0 -0.61115397221E+01  0.55240581624E+01 -0.16817033963E+02  0.72461581024E+02  0.70000013978E+02 0.  0.
        -12    1    1    2    0    0  0.61115397221E+01 -0.55240581624E+01  0.16817033963E+02  0.18726418976E+02  0.00000000000E+00 0.  1.
         11    1    3    3    0    0 -0.19599437170E+02 -0.11236077604E+02 -0.85874651521E+01  0.24168821554E+02  0.51100000000E-03 0.  1.
        -11    1    3    3    0    0  0.19287711847E+02 -0.88580485229E+01 -0.21604313453E+01  0.21334205300E+02  0.51100000000E-03 0. -1.
         12    1    3    3    0    0 -0.57998143990E+01  0.25618184289E+02 -0.60691374652E+01  0.26958554170E+02  0.00000000000E+00 0. -1.
</event>
<event>
 7    1  0.1789107E-013  0.7246156E+02  0.7816164E-02  0.1226708E+00
        -11   -1    0    0    0    0  0.00000000000E+00  0.00000000000E+00  0.45593999997E+02  0.45594000000E+02  0.51100000000E-03 0. -1.
         11   -1    0    0    0    0 -0.00000000000E+00 -0.00000000000E+00 -0.45593999997E+02  0.45594000000E+02  0.51100000000E-03 0.  1.
    9900012    2    1    2    0    0 -0.33591183327E+01 -0.54526549786E+01  0.17597279810E+02  0.72461564701E+02  0.69999992713E+02 0.  0.
        -12    1    1    2    0    0  0.33591183327E+01  0.54526549786E+01 -0.17597279810E+02  0.18726435299E+02  0.00000000000E+00 0.  1.
         11    1    3    3    0    0 -0.10854772340E+02 -0.53918315255E+01  0.10145171396E+02  0.15805772131E+02  0.51100000000E-03 0. -1.
        -11    1    3    3    0    0  0.29296133902E+02  0.51387243886E+00 -0.74617547622E+01  0.30235828265E+02  0.51100000000E-03 0.  1.
         12    1    3    3    0    0 -0.21800479895E+02 -0.57469589196E+00  0.14913863177E+02  0.26419964305E+02  0.00000000000E+00 0. -1.
</event>
<event>
 7    1  0.1789107E-013  0.7246146E+02  0.7816164E-02  0.1226708E+00
        -11   -1    0    0    0    0  0.00000000000E+00  0.00000000000E+00  0.45593999997E+02  0.45594000000E+02  0.51100000000E-03 0. -1.
         11   -1    0    0    0    0 -0.00000000000E+00 -0.00000000000E+00 -0.45593999997E+02  0.45594000000E+02  0.51100000000E-03 0.  1.
    9900012    2    1    2    0    0  0.83836575250E+01  0.50144418173E+01  0.15976632988E+02  0.72461464232E+02  0.69999861834E+02 0.  0.
        -12    1    1    2    0    0 -0.83836575250E+01 -0.50144418173E+01 -0.15976632988E+02  0.18726535768E+02  0.00000000000E+00 0.  1.
         11    1    3    3    0    0 -0.26318926110E+02  0.29945523680E+01 -0.33342520279E+01  0.26697761185E+02  0.51100000000E-03 0. -1.
        -11    1    3    3    0    0 -0.32836065737E+01 -0.85622266633E+00  0.14729640688E+01  0.36992989598E+01  0.51100000000E-03 0.  1.
         12    1    3    3    0    0  0.37986190208E+02  0.28761121156E+01  0.17837920947E+02  0.42064404087E+02  0.00000000000E+00 0. -1.
</event>
<event>
 7    1  0.1789107E-013  0.7246157E+02  0.7816164E-02  0.1226708E+00
        -11   -1    0    0    0    0  0.00000000000E+00  0.00000000000E+00  0.45593999997E+02  0.45594000000E+02  0.51100000000E-03 0.  1.
         11   -1    0    0    0    0 -0.00000000000E+00 -0.00000000000E+00 -0.45593999997E+02  0.45594000000E+02  0.51100000000E-03 0. -1.
    9900012    2    1    2    0    0  0.87865611008E+01  0.16474190834E+02 -0.14409997751E+01  0.72461572151E+02  0.70000002419E+02 0.  0.
        -12    1    1    2    0    0 -0.87865611008E+01 -0.16474190834E+02  0.14409997751E+01  0.18726427849E+02  0.00000000000E+00 0.  1.
         11    1    3    3    0    0  0.27863625276E+02 -0.10999473291E+02 -0.28312547062E+01  0.30089633259E+02  0.51100000000E-03 0. -1.
        -11    1    3    3    0    0 -0.10421619267E+02 -0.21174763443E+01 -0.34133966763E+01  0.11168935999E+02  0.51100000000E-03 0.  1.
        -12    1    3    3    0    0 -0.86554449079E+01  0.29591140469E+02  0.48036516075E+01  0.31203002894E+02  0.00000000000E+00 0.  1.
</event>
<event>
 7    1  0.1789107E-013  0.7246158E+02  0.7816164E-02  0.1226708E+00
        -11   -1    0    0    0    0  0.00000000000E+00  0.00000000000E+00  0.45593999997E+02  0.45594000000E+02  0.51100000000E-03 0. -1.
         11   -1    0    0    0    0 -0.00000000000E+00 -0.00000000000E+00 -0.45593999997E+02  0.45594000000E+02  0.51100000000E-03 0.  1.
    9900012    2    1    2    0    0  0.18327795609E+01 -0.18362339543E+02 -0.31849935096E+01  0.72461580746E+02  0.70000013616E+02 0.  0.
        -12    1    1    2    0    0 -0.18327795609E+01  0.18362339543E+02  0.31849935096E+01  0.18726419254E+02  0.00000000000E+00 0.  1.
         11    1    3    3    0    0  0.18048746772E+02  0.11789619505E+02 -0.57405264388E+00  0.21565758155E+02  0.51100000000E-03 0. -1.
        -11    1    3    3    0    0  0.11226731351E+02 -0.17037429439E+02 -0.56069639124E+00  0.20411464411E+02  0.51100000000E-03 0.  1.
         12    1    3    3    0    0 -0.27442698562E+02 -0.13114529609E+02 -0.20502444745E+01  0.30484358180E+02  0.00000000000E+00 0. -1.
</event>
<event>
 7    1  0.1789107E-013  0.7246155E+02  0.7816164E-02  0.1226708E+00
        -11   -1    0    0    0    0  0.00000000000E+00  0.00000000000E+00  0.45593999997E+02  0.45594000000E+02  0.51100000000E-03 0.  1.
         11   -1    0    0    0    0 -0.00000000000E+00 -0.00000000000E+00 -0.45593999997E+02  0.45594000000E+02  0.51100000000E-03 0. -1.
    9900012    2    1    2    0    0  0.15347881683E+02 -0.52434247661E+01 -0.93610289941E+01  0.72461552412E+02  0.69999976705E+02 0.  0.
        -12    1    1    2    0    0 -0.15347881683E+02  0.52434247661E+01  0.93610289941E+01  0.18726447588E+02  0.00000000000E+00 0.  1.
         11    1    3    3    0    0  0.62364448702E+01 -0.31388895131E+02 -0.98900222562E+01  0.33495798582E+02  0.51100000000E-03 0. -1.
        -11    1    3    3    0    0 -0.67473679550E+01  0.53994414462E+01  0.80298777367E+01  0.11796604553E+02  0.51100000000E-03 0.  1.
        -12    1    3    3    0    0  0.15858804768E+02  0.20746028918E+02 -0.75008844745E+01  0.27169149277E+02  0.00000000000E+00 0.  1.
</event>
<event>
 7    1  0.1789107E-013  0.7246156E+02  0.7816164E-02  0.1226708E+00
        -11   -1    0    0    0    0  0.00000000000E+00  0.00000000000E+00  0.45593999997E+02  0.45594000000E+02  0.51100000000E-03 0. -1.
         11   -1    0    0    0    0 -0.00000000000E+00 -0.00000000000E+00 -0.45593999997E+02  0.45594000000E+02  0.51100000000E-03 0.  1.
    9900012    2    1    2    0    0 -0.18108881951E+02 -0.22415752870E+01  0.42098920724E+01  0.72461562631E+02  0.69999990017E+02 0.  0.
        -12    1    1    2    0    0  0.18108881951E+02  0.22415752870E+01 -0.42098920724E+01  0.18726437369E+02  0.00000000000E+00 0.  1.
         11    1    3    3    0    0 -0.85108569108E+01 -0.37241295345E+01  0.88274438699E+01  0.12815131356E+02  0.51100000000E-03 0. -1.
        -11    1    3    3    0    0 -0.79130672223E+01 -0.20145107299E+02  0.18115050141E+02  0.28224050433E+02  0.51100000000E-03 0.  1.
        -12    1    3    3    0    0 -0.16849578179E+01  0.21627661547E+02 -0.22732601939E+02  0.31422380841E+02  0.00000000000E+00 0.  1.
</event>
<event>
 7    1  0.1789107E-013  0.7246155E+02  0.7816164E-02  0.1226708E+00
        -11   -1    0    0    0    0  0.00000000000E+00  0.00000000000E+00  0.45593999997E+02  0.45594000000E+02  0.51100000000E-03 0. -1.
         11   -1    0    0    0    0 -0.00000000000E+00 -0.00000000000E+00 -0.45593999997E+02  0.45594000000E+02  0.51100000000E-03 0.  1.
    9900012    2    1    2    0    0  0.10530348272E+02  0.69152299702E+01  0.13855372603E+02  0.72461548381E+02  0.69999971454E+02 0.  0.
        -12    1    1    2    0    0 -0.10530348272E+02 -0.69152299702E+01 -0.13855372603E+02  0.18726451619E+02  0.00000000000E+00 0.  1.
         11    1    3    3    0    0  0.66117575445E+01  0.11475650300E+02  0.12919680126E+02  0.18502000498E+02  0.51100000000E-03 0. -1.
        -11    1    3    3    0    0 -0.21235355000E+02 -0.29530494923E+01  0.13964086385E+02  0.25586256313E+02  0.51100000000E-03 0.  1.
        -12    1    3    3    0    0  0.25153945728E+02 -0.16073708376E+01 -0.13028393907E+02  0.28373291570E+02  0.00000000000E+00 0.  1.
</event>
<event>
 7    1  0.1789107E-013  0.7246157E+02  0.7816164E-02  0.1226708E+00
        -11   -1    0    0    0    0  0.00000000000E+00  0.00000000000E+00  0.45593999997E+02  0.45594000000E+02  0.51100000000E-03 0.  1.
         11   -1    0    0    0    0 -0.00000000000E+00 -0.00000000000E+00 -0.45593999997E+02  0.45594000000E+02  0.51100000000E-03 0. -1.
    9900012    2    1    2    0    0  0.17320441467E+02 -0.37491100593E+01 -0.60519135184E+01  0.72461570120E+02  0.69999999772E+02 0.  0.
        -12    1    1    2    0    0 -0.17320441467E+02  0.37491100593E+01  0.60519135184E+01  0.18726429880E+02  0.00000000000E+00 0.  1.
         11    1    3    3    0    0  0.30029415413E+02  0.65448870529E+01 -0.21103567091E+02  0.37282192543E+02  0.51100000000E-03 0. -1.
        -11    1    3    3    0    0 -0.11016457746E+02  0.13072591102E+01 -0.48290121128E+01  0.12099199391E+02  0.51100000000E-03 0.  1.
         12    1    3    3    0    0 -0.16925162003E+01 -0.11601256222E+02  0.19880665685E+02  0.23080178186E+02  0.00000000000E+00 0. -1.
</event>
<event>
 7    1  0.1789107E-013  0.7246148E+02  0.7816164E-02  0.1226708E+00
        -11   -1    0    0    0    0  0.00000000000E+00  0.00000000000E+00  0.45593999997E+02  0.45594000000E+02  0.51100000000E-03 0. -1.
         11   -1    0    0    0    0 -0.00000000000E+00 -0.00000000000E+00 -0.45593999997E+02  0.45594000000E+02  0.51100000000E-03 0.  1.
    9900012    2    1    2    0    0  0.12454485407E+02  0.10663037577E+01  0.13943861611E+02  0.72461481715E+02  0.69999884608E+02 0.  0.
        -12    1    1    2    0    0 -0.12454485407E+02 -0.10663037577E+01 -0.13943861611E+02  0.18726518285E+02  0.00000000000E+00 0.  1.
         11    1    3    3    0    0  0.21616840445E+01 -0.69636344073E+01  0.90120039571E+01  0.11592294753E+02  0.51100000000E-03 0. -1.
        -11    1    3    3    0    0 -0.21082749331E+02  0.29878088695E-01  0.16196900969E+02  0.26586139496E+02  0.51100000000E-03 0.  1.
        -12    1    3    3    0    0  0.31375550694E+02  0.80000600764E+01 -0.11265043315E+02  0.34283047465E+02  0.00000000000E+00 0.  1.
</event>
<event>
 7    1  0.1789107E-013  0.7246156E+02  0.7816164E-02  0.1226708E+00
        -11   -1    0    0    0    0  0.00000000000E+00  0.00000000000E+00  0.45593999997E+02  0.45594000000E+02  0.51100000000E-03 0. -1.
         11   -1    0    0    0    0 -0.00000000000E+00 -0.00000000000E+00 -0.45593999997E+02  0.45594000000E+02  0.51100000000E-03 0.  1.
    9900012    2    1    2    0    0 -0.14027477472E+02  0.65055124576E+01  0.10563505280E+02  0.72461562529E+02  0.69999989884E+02 0.  0.
        -12    1    1    2    0    0  0.14027477472E+02 -0.65055124576E+01 -0.10563505280E+02  0.18726437471E+02  0.00000000000E+00 0.  1.
         11    1    3    3    0    0  0.72793272481E+01  0.16266005856E+02 -0.35824064995E+01  0.18177051144E+02  0.51100000000E-03 0. -1.
        -11    1    3    3    0    0 -0.64436943418E+01  0.15947150447E+02 -0.62053500254E+01  0.18284943898E+02  0.51100000000E-03 0.  1.
         12    1    3    3    0    0 -0.14863110378E+02 -0.25707643846E+02  0.20351261805E+02  0.35999567487E+02  0.00000000000E+00 0. -1.
</event>
<event>
 7    1  0.1789107E-013  0.7246155E+02  0.7816164E-02  0.1226708E+00
        -11   -1    0    0    0    0  0.00000000000E+00  0.00000000000E+00  0.45593999997E+02  0.45594000000E+02  0.51100000000E-03 0. -1.
         11   -1    0    0    0    0 -0.00000000000E+00 -0.00000000000E+00 -0.45593999997E+02  0.45594000000E+02  0.51100000000E-03 0.  1.
    9900012    2    1    2    0    0 -0.66480376658E+01  0.62262285929E+01  0.16362081936E+02  0.72461546717E+02  0.69999969286E+02 0.  0.
        -12    1    1    2    0    0  0.66480376658E+01 -0.62262285929E+01 -0.16362081936E+02  0.18726453283E+02  0.00000000000E+00 0.  1.
         11    1    3    3    0    0 -0.50599312992E+01  0.47875746624E+01 -0.39445467475E+01  0.80051998854E+01  0.51100000000E-03 0. -1.
        -11    1    3    3    0    0  0.29309873000E+02  0.48041860712E+01  0.62826908588E+01  0.30358212460E+02  0.51100000000E-03 0.  1.
         12    1    3    3    0    0 -0.30897979366E+02 -0.33655321407E+01  0.14023937825E+02  0.34098134371E+02  0.00000000000E+00 0. -1.
</event>
<event>
 7    1  0.1789107E-013  0.7246157E+02  0.7816164E-02  0.1226708E+00
        -11   -1    0    0    0    0  0.00000000000E+00  0.00000000000E+00  0.45593999997E+02  0.45594000000E+02  0.51100000000E-03 0. -1.
         11   -1    0    0    0    0 -0.00000000000E+00 -0.00000000000E+00 -0.45593999997E+02  0.45594000000E+02  0.51100000000E-03 0.  1.
    9900012    2    1    2    0    0  0.58583464414E+01 -0.52578068235E+01  0.16991598844E+02  0.72461569831E+02  0.69999999396E+02 0.  0.
        -12    1    1    2    0    0 -0.58583464414E+01  0.52578068235E+01 -0.16991598844E+02  0.18726430169E+02  0.00000000000E+00 0.  1.
         11    1    3    3    0    0  0.74404866792E+01  0.17717990927E+02  0.23059879224E+01  0.19354731336E+02  0.51100000000E-03 0. -1.
        -11    1    3    3    0    0  0.15280547521E+02  0.66665042810E+01  0.23246521481E+01  0.16832748431E+02  0.51100000000E-03 0.  1.
         12    1    3    3    0    0 -0.16862687759E+02 -0.29642302032E+02  0.12360958773E+02  0.36274090064E+02  0.00000000000E+00 0. -1.
</event>
<event>
 7    1  0.1789107E-013  0.7246159E+02  0.7816164E-02  0.1226708E+00
        -11   -1    0    0    0    0  0.00000000000E+00  0.00000000000E+00  0.45593999997E+02  0.45594000000E+02  0.51100000000E-03 0.  1.
         11   -1    0    0    0    0 -0.00000000000E+00 -0.00000000000E+00 -0.45593999997E+02  0.45594000000E+02  0.51100000000E-03 0. -1.
    9900012    2    1    2    0    0 -0.46531804694E+01 -0.17008300137E+02  0.63042927597E+01  0.72461588992E+02  0.70000024357E+02 0.  0.
        -12    1    1    2    0    0  0.46531804694E+01  0.17008300137E+02 -0.63042927597E+01  0.18726411008E+02  0.00000000000E+00 0.  1.
         11    1    3    3    0    0  0.91347190176E+01  0.91875061829E+01  0.12329931974E+01  0.13014362600E+02  0.51100000000E-03 0. -1.
        -11    1    3    3    0    0  0.19104059861E+02 -0.80649216058E+01  0.68729542591E+01  0.21845950750E+02  0.51100000000E-03 0.  1.
         12    1    3    3    0    0 -0.32891959348E+02 -0.18130884714E+02 -0.18016546968E+01  0.37601275642E+02  0.00000000000E+00 0. -1.
</event>
<event>
 7    1  0.1789107E-013  0.7246157E+02  0.7816164E-02  0.1226708E+00
        -11   -1    0    0    0    0  0.00000000000E+00  0.00000000000E+00  0.45593999997E+02  0.45594000000E+02  0.51100000000E-03 0. -1.
         11   -1    0    0    0    0 -0.00000000000E+00 -0.00000000000E+00 -0.45593999997E+02  0.45594000000E+02  0.51100000000E-03 0.  1.
    9900012    2    1    2    0    0  0.10842574878E+02  0.15260008243E+02 -0.49980640652E+00  0.72461572471E+02  0.70000002836E+02 0.  0.
        -12    1    1    2    0    0 -0.10842574878E+02 -0.15260008243E+02  0.49980640652E+00  0.18726427529E+02  0.00000000000E+00 0.  1.
         11    1    3    3    0    0  0.82674025696E+01 -0.16246158025E+02 -0.18146053673E+02  0.25720942051E+02  0.51100000000E-03 0. -1.
        -11    1    3    3    0    0  0.19631152105E+00  0.15892298762E+01 -0.74492759984E+01  0.76194424320E+01  0.51100000000E-03 0.  1.
         12    1    3    3    0    0  0.23788607874E+01  0.29916936392E+02  0.25095523265E+02  0.39121187988E+02  0.00000000000E+00 0. -1.
</event>
<event>
 7    1  0.1789107E-013  0.7246141E+02  0.7816164E-02  0.1226708E+00
        -11   -1    0    0    0    0  0.00000000000E+00  0.00000000000E+00  0.45593999997E+02  0.45594000000E+02  0.51100000000E-03 0.  1.
         11   -1    0    0    0    0 -0.00000000000E+00 -0.00000000000E+00 -0.45593999997E+02  0.45594000000E+02  0.51100000000E-03 0. -1.
    9900012    2    1    2    0    0 -0.90688194423E+01  0.27444585546E+01 -0.16152697930E+02  0.72461409567E+02  0.69999790623E+02 0.  0.
        -12    1    1    2    0    0  0.90688194423E+01 -0.27444585546E+01  0.16152697930E+02  0.18726590433E+02  0.00000000000E+00 0.  1.
         11    1    3    3    0    0 -0.89412894108E+01  0.81570884647E+01 -0.64492808217E+01  0.13714152250E+02  0.51100000000E-03 0. -1.
        -11    1    3    3    0    0 -0.15206706278E+02  0.20639195494E+02  0.35066116189E+01  0.25875019455E+02  0.51100000000E-03 0.  1.
        -12    1    3    3    0    0  0.15079176246E+02 -0.26051825404E+02 -0.13210028727E+02  0.32872237863E+02  0.00000000000E+00 0.  1.
</event>
<event>
 7    1  0.1789107E-013  0.7246165E+02  0.7816164E-02  0.1226708E+00
        -11   -1    0    0    0    0  0.00000000000E+00  0.00000000000E+00  0.45593999997E+02  0.45594000000E+02  0.51100000000E-03 0.  1.
         11   -1    0    0    0    0 -0.00000000000E+00 -0.00000000000E+00 -0.45593999997E+02  0.45594000000E+02  0.51100000000E-03 0. -1.
    9900012    2    1    2    0    0  0.19171352489E+00 -0.13943455450E+02 -0.12498775546E+02  0.72461652409E+02  0.70000106970E+02 0.  0.
        -12    1    1    2    0    0 -0.19171352489E+00  0.13943455450E+02  0.12498775546E+02  0.18726347591E+02  0.00000000000E+00 0.  1.
         11    1    3    3    0    0 -0.34139440119E+02 -0.41011594299E+01  0.85440224431E-01  0.34384999355E+02  0.51100000000E-03 0. -1.
        -11    1    3    3    0    0  0.13043051616E+02 -0.44412719891E+01 -0.68004036535E+01  0.15365271961E+02  0.51100000000E-03 0.  1.
        -12    1    3    3    0    0  0.21288102028E+02 -0.54010240305E+01 -0.57838121169E+01  0.22711381093E+02  0.00000000000E+00 0.  1.
</event>
<event>
 7    1  0.1789107E-013  0.7246161E+02  0.7816164E-02  0.1226708E+00
        -11   -1    0    0    0    0  0.00000000000E+00  0.00000000000E+00  0.45593999997E+02  0.45594000000E+02  0.51100000000E-03 0. -1.
         11   -1    0    0    0    0 -0.00000000000E+00 -0.00000000000E+00 -0.45593999997E+02  0.45594000000E+02  0.51100000000E-03 0.  1.
    9900012    2    1    2    0    0  0.18239962439E+02  0.10261534789E+01 -0.41144436669E+01  0.72461605060E+02  0.70000045289E+02 0.  0.
        -12    1    1    2    0    0 -0.18239962439E+02 -0.10261534789E+01  0.41144436669E+01  0.18726394940E+02  0.00000000000E+00 0.  1.
         11    1    3    3    0    0  0.21058705931E+02  0.24808246191E+02  0.23833391241E+01  0.32628185365E+02  0.51100000000E-03 0. -1.
        -11    1    3    3    0    0  0.13119989388E+02 -0.43262165227E+01  0.16122126646E+00  0.13815797607E+02  0.51100000000E-03 0.  1.
        -12    1    3    3    0    0 -0.15938732880E+02 -0.19455876189E+02 -0.66590040575E+01  0.26017622089E+02  0.00000000000E+00 0.  1.
</event>
<event>
 7    1  0.1789107E-013  0.7246159E+02  0.7816164E-02  0.1226708E+00
        -11   -1    0    0    0    0  0.00000000000E+00  0.00000000000E+00  0.45593999997E+02  0.45594000000E+02  0.51100000000E-03 0.  1.
         11   -1    0    0    0    0 -0.00000000000E+00 -0.00000000000E+00 -0.45593999997E+02  0.45594000000E+02  0.51100000000E-03 0. -1.
    9900012    2    1    2    0    0  0.12328576095E+01 -0.72227742117E+01 -0.17233393172E+02  0.72461594968E+02  0.70000032143E+02 0.  0.
        -12    1    1    2    0    0 -0.12328576095E+01  0.72227742117E+01  0.17233393172E+02  0.18726405032E+02  0.00000000000E+00 0.  1.
         11    1    3    3    0    0  0.49972885927E+01 -0.10996999667E+02 -0.36414507605E+02  0.38365652077E+02  0.51100000000E-03 0. -1.
        -11    1    3    3    0    0  0.71412610955E+01 -0.24882820152E+00 -0.39816676143E+01  0.81800490683E+01  0.51100000000E-03 0.  1.
         12    1    3    3    0    0 -0.10905692079E+02  0.40230536573E+01  0.23162782048E+02  0.25915893823E+02  0.00000000000E+00 0. -1.
</event>
<event>
 7    1  0.1789107E-013  0.7246158E+02  0.7816164E-02  0.1226708E+00
        -11   -1    0    0    0    0  0.00000000000E+00  0.00000000000E+00  0.45593999997E+02  0.45594000000E+02  0.51100000000E-03 0.  1.
         11   -1    0    0    0    0 -0.00000000000E+00 -0.00000000000E+00 -0.45593999997E+02  0.45594000000E+02  0.51100000000E-03 0. -1.
    9900012    2    1    2    0    0  0.17535012991E+02 -0.37935634680E+01  0.53675971937E+01  0.72461577383E+02  0.70000009235E+02 0.  0.
        -12    1    1    2    0    0 -0.17535012991E+02  0.37935634680E+01 -0.53675971937E+01  0.18726422617E+02  0.00000000000E+00 0.  1.
         11    1    3    3    0    0  0.17508703958E+01 -0.17132025387E+01 -0.15730394782E+02  0.15919985250E+02  0.51100000000E-03 0. -1.
        -11    1    3    3    0    0  0.16809635514E+02 -0.81692483130E+01 -0.12432705796E+02  0.22447107559E+02  0.51100000000E-03 0.  1.
        -12    1    3    3    0    0 -0.10254929187E+01  0.60888873837E+01  0.33530697772E+02  0.34094484574E+02  0.00000000000E+00 0.  1.
</event>
<event>
 7    1  0.1789107E-013  0.7246159E+02  0.7816164E-02  0.1226708E+00
        -11   -1    0    0    0    0  0.00000000000E+00  0.00000000000E+00  0.45593999997E+02  0.45594000000E+02  0.51100000000E-03 0.  1.
         11   -1    0    0    0    0 -0.00000000000E+00 -0.00000000000E+00 -0.45593999997E+02  0.45594000000E+02  0.51100000000E-03 0. -1.
    9900012    2    1    2    0    0  0.80208573853E+01 -0.12236496360E+02 -0.11688126664E+02  0.72461593477E+02  0.70000030200E+02 0.  0.
        -12    1    1    2    0    0 -0.80208573853E+01  0.12236496360E+02  0.11688126664E+02  0.18726406523E+02  0.00000000000E+00 0.  1.
         11    1    3    3    0    0 -0.16123752617E+02 -0.53155854137E+00 -0.17338975331E+02  0.23683285640E+02  0.51100000000E-03 0. -1.
        -11    1    3    3    0    0  0.25590694944E+02 -0.15312989609E+02 -0.10919183466E+02  0.31758461649E+02  0.51100000000E-03 0.  1.
         12    1    3    3    0    0 -0.14460849417E+01  0.36080517902E+01  0.16570032133E+02  0.17019846188E+02  0.00000000000E+00 0. -1.
</event>
<event>
 7    1  0.1789107E-013  0.7246158E+02  0.7816164E-02  0.1226708E+00
        -11   -1    0    0    0    0  0.00000000000E+00  0.00000000000E+00  0.45593999997E+02  0.45594000000E+02  0.51100000000E-03 0.  1.
         11   -1    0    0    0    0 -0.00000000000E+00 -0.00000000000E+00 -0.45593999997E+02  0.45594000000E+02  0.51100000000E-03 0. -1.
    9900012    2    1    2    0    0 -0.24836306821E+01 -0.17186796838E+02 -0.70088795663E+01  0.72461580168E+02  0.70000012863E+02 0.  0.
        -12    1    1    2    0    0  0.24836306821E+01  0.17186796838E+02  0.70088795663E+01  0.18726419832E+02  0.00000000000E+00 0.  1.
         11    1    3    3    0    0 -0.53674397576E+01  0.10371579469E+01 -0.20678466188E+02  0.21388877257E+02  0.51100000000E-03 0. -1.
        -11    1    3    3    0    0 -0.73880414302E+01 -0.19190458463E+02 -0.11718640665E+02  0.23668193668E+02  0.51100000000E-03 0.  1.
        -12    1    3    3    0    0  0.10271850506E+02  0.96650367795E+00  0.25388227286E+02  0.27404509244E+02  0.00000000000E+00 0.  1.
</event>
<event>
 7    1  0.1789107E-013  0.7246158E+02  0.7816164E-02  0.1226708E+00
        -11   -1    0    0    0    0  0.00000000000E+00  0.00000000000E+00  0.45593999997E+02  0.45594000000E+02  0.51100000000E-03 0. -1.
         11   -1    0    0    0    0 -0.00000000000E+00 -0.00000000000E+00 -0.45593999997E+02  0.45594000000E+02  0.51100000000E-03 0.  1.
    9900012    2    1    2    0    0  0.37247687449E+01 -0.17502576772E+02  0.55194828688E+01  0.72461580507E+02  0.70000013304E+02 0.  0.
        -12    1    1    2    0    0 -0.37247687449E+01  0.17502576772E+02 -0.55194828688E+01  0.18726419493E+02  0.00000000000E+00 0.  1.
         11    1    3    3    0    0  0.15792195360E+02 -0.19974450369E+02 -0.38602225666E+01  0.25754095215E+02  0.51100000000E-03 0. -1.
        -11    1    3    3    0    0  0.18547128787E+01 -0.15943314061E+02  0.16028486903E+02  0.22683509777E+02  0.51100000000E-03 0.  1.
        -12    1    3    3    0    0 -0.13922139494E+02  0.18415187658E+02 -0.66487814678E+01  0.24023975515E+02  0.00000000000E+00 0.  1.
</event>
<event>
 7    1  0.1789107E-013  0.7246158E+02  0.7816164E-02  0.1226708E+00
        -11   -1    0    0    0    0  0.00000000000E+00  0.00000000000E+00  0.45593999997E+02  0.45594000000E+02  0.51100000000E-03 0. -1.
         11   -1    0    0    0    0 -0.00000000000E+00 -0.00000000000E+00 -0.45593999997E+02  0.45594000000E+02  0.51100000000E-03 0.  1.
    9900012    2    1    2    0    0  0.10928817461E+02 -0.10451272432E+02  0.11045846988E+02  0.72461577965E+02  0.70000009993E+02 0.  0.
        -12    1    1    2    0    0 -0.10928817461E+02  0.10451272432E+02 -0.11045846988E+02  0.18726422035E+02  0.00000000000E+00 0.  1.
         11    1    3    3    0    0 -0.48114771081E+01  0.78487198918E+00 -0.20526543783E+01  0.52895865868E+01  0.51100000000E-03 0. -1.
        -11    1    3    3    0    0  0.16888431751E+01  0.20675174175E+02 -0.12225095150E+02  0.24078371417E+02  0.51100000000E-03 0.  1.
         12    1    3    3    0    0  0.14051451394E+02 -0.31911318596E+02  0.25323596516E+02  0.43093619961E+02  0.00000000000E+00 0. -1.
</event>
<event>
 7    1  0.1789107E-013  0.7246158E+02  0.7816164E-02  0.1226708E+00
        -11   -1    0    0    0    0  0.00000000000E+00  0.00000000000E+00  0.45593999997E+02  0.45594000000E+02  0.51100000000E-03 0. -1.
         11   -1    0    0    0    0 -0.00000000000E+00 -0.00000000000E+00 -0.45593999997E+02  0.45594000000E+02  0.51100000000E-03 0.  1.
    9900012    2    1    2    0    0  0.11682815417E+02 -0.20584042781E+01  0.14489781163E+02  0.72461575825E+02  0.70000007205E+02 0.  0.
        -12    1    1    2    0    0 -0.11682815417E+02  0.20584042781E+01 -0.14489781163E+02  0.18726424175E+02  0.00000000000E+00 0.  1.
         11    1    3    3    0    0  0.28295684803E+02  0.28516740276E+00  0.72930678875E+01  0.29221840092E+02  0.51100000000E-03 0. -1.
        -11    1    3    3    0    0  0.96812022086E+01  0.94975622078E+01  0.44427981950E+01  0.14271223499E+02  0.51100000000E-03 0.  1.
         12    1    3    3    0    0 -0.26294071594E+02 -0.11841133889E+02  0.27539150804E+01  0.28968512234E+02  0.00000000000E+00 0. -1.
</event>
<event>
 7    1  0.1789107E-013  0.7246161E+02  0.7816164E-02  0.1226708E+00
        -11   -1    0    0    0    0  0.00000000000E+00  0.00000000000E+00  0.45593999997E+02  0.45594000000E+02  0.51100000000E-03 0. -1.
         11   -1    0    0    0    0 -0.00000000000E+00 -0.00000000000E+00 -0.45593999997E+02  0.45594000000E+02  0.51100000000E-03 0.  1.
    9900012    2    1    2    0    0 -0.13933266901E+02  0.12510435316E+02 -0.17507407504E+00  0.72461613022E+02  0.70000055660E+02 0.  0.
        -12    1    1    2    0    0  0.13933266901E+02 -0.12510435316E+02  0.17507407504E+00  0.18726386978E+02  0.00000000000E+00 0.  1.
         11    1    3    3    0    0 -0.16467049381E+02 -0.10153288367E+02 -0.70854705672E+01  0.20602351162E+02  0.51100000000E-03 0. -1.
        -11    1    3    3    0    0 -0.21053758577E+02  0.75393180722E+01  0.81760363673E+01  0.23810704277E+02  0.51100000000E-03 0.  1.
        -12    1    3    3    0    0  0.23587541057E+02  0.15124405611E+02 -0.12656398752E+01  0.28048557583E+02  0.00000000000E+00 0.  1.
</event>
<event>
 7    1  0.1789107E-013  0.7246164E+02  0.7816164E-02  0.1226708E+00
        -11   -1    0    0    0    0  0.00000000000E+00  0.00000000000E+00  0.45593999997E+02  0.45594000000E+02  0.51100000000E-03 0. -1.
         11   -1    0    0    0    0 -0.00000000000E+00 -0.00000000000E+00 -0.45593999997E+02  0.45594000000E+02  0.51100000000E-03 0.  1.
    9900012    2    1    2    0    0 -0.17961275899E+01  0.72300122141E+01  0.17180724638E+02  0.72461642906E+02  0.70000094590E+02 0.  0.
        -12    1    1    2    0    0  0.17961275899E+01 -0.72300122141E+01 -0.17180724638E+02  0.18726357094E+02  0.00000000000E+00 0.  1.
         11    1    3    3    0    0 -0.26115406808E+02  0.64059146976E+01  0.10754182471E+02  0.28960363546E+02  0.51100000000E-03 0.  1.
        -11    1    3    3    0    0  0.78782204295E+01 -0.17000908645E+02  0.36945369469E+01  0.19098346928E+02  0.51100000000E-03 0. -1.
         12    1    3    3    0    0  0.16441058788E+02  0.17825006161E+02  0.27320052203E+01  0.24402932431E+02  0.00000000000E+00 0. -1.
</event>
<event>
 7    1  0.1789107E-013  0.7246145E+02  0.7816164E-02  0.1226708E+00
        -11   -1    0    0    0    0  0.00000000000E+00  0.00000000000E+00  0.45593999997E+02  0.45594000000E+02  0.51100000000E-03 0. -1.
         11   -1    0    0    0    0 -0.00000000000E+00 -0.00000000000E+00 -0.45593999997E+02  0.45594000000E+02  0.51100000000E-03 0.  1.
    9900012    2    1    2    0    0  0.12649377604E+02  0.13540331881E+02 -0.27085707704E+01  0.72461449414E+02  0.69999842531E+02 0.  0.
        -12    1    1    2    0    0 -0.12649377604E+02 -0.13540331881E+02  0.27085707704E+01  0.18726550586E+02  0.00000000000E+00 0.  1.
         11    1    3    3    0    0  0.29276096634E+00  0.10466483503E+02  0.29060108576E+02  0.30888879821E+02  0.51100000000E-03 0. -1.
        -11    1    3    3    0    0  0.14855458656E+02  0.96312867415E+01 -0.14337237922E+02  0.22781631365E+02  0.51100000000E-03 0.  1.
        -12    1    3    3    0    0 -0.24988420184E+01 -0.65574383635E+01 -0.17431441425E+02  0.18790938227E+02  0.00000000000E+00 0.  1.
</event>
<event>
 7    1  0.1789107E-013  0.7246155E+02  0.7816164E-02  0.1226708E+00
        -11   -1    0    0    0    0  0.00000000000E+00  0.00000000000E+00  0.45593999997E+02  0.45594000000E+02  0.51100000000E-03 0. -1.
         11   -1    0    0    0    0 -0.00000000000E+00 -0.00000000000E+00 -0.45593999997E+02  0.45594000000E+02  0.51100000000E-03 0.  1.
    9900012    2    1    2    0    0 -0.14014280627E+01 -0.68926767725E+01  0.17355315717E+02  0.72461548726E+02  0.69999971903E+02 0.  0.
        -12    1    1    2    0    0  0.14014280627E+01  0.68926767725E+01 -0.17355315717E+02  0.18726451274E+02  0.00000000000E+00 0.  1.
         11    1    3    3    0    0 -0.11555202232E+02  0.13021812393E+02  0.14618360328E+02  0.22732944278E+02  0.51100000000E-03 0. -1.
        -11    1    3    3    0    0  0.17381701901E+01  0.18364617592E+01  0.20347705502E+02  0.20504217782E+02  0.51100000000E-03 0.  1.
        -12    1    3    3    0    0  0.84156039789E+01 -0.21750950924E+02 -0.17610750113E+02  0.29224386666E+02  0.00000000000E+00 0.  1.
</event>
<event>
 7    1  0.1789107E-013  0.7246160E+02  0.7816164E-02  0.1226708E+00
        -11   -1    0    0    0    0  0.00000000000E+00  0.00000000000E+00  0.45593999997E+02  0.45594000000E+02  0.51100000000E-03 0.  1.
         11   -1    0    0    0    0 -0.00000000000E+00 -0.00000000000E+00 -0.45593999997E+02  0.45594000000E+02  0.51100000000E-03 0. -1.
    9900012    2    1    2    0    0  0.14557531413E+02 -0.10810487243E+02 -0.46786589086E+01  0.72461596062E+02  0.70000033567E+02 0.  0.
        -12    1    1    2    0    0 -0.14557531413E+02  0.10810487243E+02  0.46786589086E+01  0.18726403938E+02  0.00000000000E+00 0.  1.
         11    1    3    3    0    0 -0.19034710964E+02 -0.22347229014E+02 -0.40542476276E+01  0.29633693495E+02  0.51100000000E-03 0. -1.
        -11    1    3    3    0    0  0.81321121696E+01 -0.52089055866E+01 -0.67009773359E+01  0.11754447808E+02  0.51100000000E-03 0.  1.
        -12    1    3    3    0    0  0.25460130207E+02  0.16745647358E+02  0.60765660549E+01  0.31073454759E+02  0.00000000000E+00 0.  1.
</event>
<event>
 7    1  0.1789107E-013  0.7246140E+02  0.7816164E-02  0.1226708E+00
        -11   -1    0    0    0    0  0.00000000000E+00  0.00000000000E+00  0.45593999997E+02  0.45594000000E+02  0.51100000000E-03 0. -1.
         11   -1    0    0    0    0 -0.00000000000E+00 -0.00000000000E+00 -0.45593999997E+02  0.45594000000E+02  0.51100000000E-03 0.  1.
    9900012    2    1    2    0    0  0.92391950958E+01 -0.92945546398E+01  0.13376619904E+02  0.72461403084E+02  0.69999782178E+02 0.  0.
        -12    1    1    2    0    0 -0.92391950958E+01  0.92945546398E+01 -0.13376619904E+02  0.18726596916E+02  0.00000000000E+00 0.  1.
         11    1    3    3    0    0 -0.97171013281E+01 -0.10498589341E+01  0.46082656248E+01  0.10805571449E+02  0.51100000000E-03 0. -1.
        -11    1    3    3    0    0  0.49381346467E+01  0.21843027088E+02 -0.88466491308E+01  0.24078334811E+02  0.51100000000E-03 0.  1.
         12    1    3    3    0    0  0.14018161777E+02 -0.30087722793E+02  0.17615003410E+02  0.37577496825E+02  0.00000000000E+00 0. -1.
</event>
<event>
 7    1  0.1789107E-013  0.7246162E+02  0.7816164E-02  0.1226708E+00
        -11   -1    0    0    0    0  0.00000000000E+00  0.00000000000E+00  0.45593999997E+02  0.45594000000E+02  0.51100000000E-03 0.  1.
         11   -1    0    0    0    0 -0.00000000000E+00 -0.00000000000E+00 -0.45593999997E+02  0.45594000000E+02  0.51100000000E-03 0. -1.
    9900012    2    1    2    0    0  0.17216836842E+02  0.54823848924E+01 -0.49194661575E+01  0.72461623890E+02  0.70000069818E+02 0.  0.
        -12    1    1    2    0    0 -0.17216836842E+02 -0.54823848924E+01  0.49194661575E+01  0.18726376110E+02  0.00000000000E+00 0.  1.
         11    1    3    3    0    0  0.10842598085E+02 -0.23341615221E+01 -0.33183693910E+01  0.11576779298E+02  0.51100000000E-03 0. -1.
        -11    1    3    3    0    0 -0.46642383003E+01 -0.15153019045E+02  0.21347263790E+02  0.26590877697E+02  0.51100000000E-03 0.  1.
         12    1    3    3    0    0  0.11038477057E+02  0.22969565460E+02 -0.22948360557E+02  0.34293966895E+02  0.00000000000E+00 0. -1.
</event>
<event>
 7    1  0.1789107E-013  0.7246158E+02  0.7816164E-02  0.1226708E+00
        -11   -1    0    0    0    0  0.00000000000E+00  0.00000000000E+00  0.45593999997E+02  0.45594000000E+02  0.51100000000E-03 0. -1.
         11   -1    0    0    0    0 -0.00000000000E+00 -0.00000000000E+00 -0.45593999997E+02  0.45594000000E+02  0.51100000000E-03 0.  1.
    9900012    2    1    2    0    0 -0.77635658242E+01 -0.62570336512E+01  0.15851034973E+02  0.72461581919E+02  0.70000015144E+02 0.  0.
        -12    1    1    2    0    0  0.77635658242E+01  0.62570336512E+01 -0.15851034973E+02  0.18726418081E+02  0.00000000000E+00 0.  1.
         11    1    3    3    0    0  0.73089351995E+00  0.27536537200E+01 -0.11149581072E+02  0.11507822230E+02  0.51100000000E-03 0. -1.
        -11    1    3    3    0    0  0.93265280166E+01 -0.20395783576E+02 -0.46349120551E+01  0.22900972087E+02  0.51100000000E-03 0.  1.
         12    1    3    3    0    0 -0.17820987361E+02  0.11385096205E+02  0.31635528100E+02  0.38052787602E+02  0.00000000000E+00 0. -1.
</event>
<event>
 7    1  0.1789107E-013  0.7246156E+02  0.7816164E-02  0.1226708E+00
        -11   -1    0    0    0    0  0.00000000000E+00  0.00000000000E+00  0.45593999997E+02  0.45594000000E+02  0.51100000000E-03 0. -1.
         11   -1    0    0    0    0 -0.00000000000E+00 -0.00000000000E+00 -0.45593999997E+02  0.45594000000E+02  0.51100000000E-03 0.  1.
    9900012    2    1    2    0    0  0.17626891956E+02  0.24232274119E+01  0.58395430635E+01  0.72461558419E+02  0.69999984530E+02 0.  0.
        -12    1    1    2    0    0 -0.17626891956E+02 -0.24232274119E+01 -0.58395430635E+01  0.18726441581E+02  0.00000000000E+00 0.  1.
         11    1    3    3    0    0  0.25798586000E+02 -0.99641257058E+01  0.31641049956E+01  0.27836350360E+02  0.51100000000E-03 0. -1.
        -11    1    3    3    0    0  0.89614372461E+01 -0.11388863225E+02 -0.29369352149E+01  0.14786451630E+02  0.51100000000E-03 0.  1.
        -12    1    3    3    0    0 -0.17133131290E+02  0.23776216343E+02  0.56123732828E+01  0.29838756429E+02  0.00000000000E+00 0.  1.
</event>
<event>
 7    1  0.1789107E-013  0.7246159E+02  0.7816164E-02  0.1226708E+00
        -11   -1    0    0    0    0  0.00000000000E+00  0.00000000000E+00  0.45593999997E+02  0.45594000000E+02  0.51100000000E-03 0. -1.
         11   -1    0    0    0    0 -0.00000000000E+00 -0.00000000000E+00 -0.45593999997E+02  0.45594000000E+02  0.51100000000E-03 0.  1.
    9900012    2    1    2    0    0  0.40339559554E+01  0.96355142493E+01 -0.15542285192E+02  0.72461586449E+02  0.70000021044E+02 0.  0.
        -12    1    1    2    0    0 -0.40339559554E+01 -0.96355142493E+01  0.15542285192E+02  0.18726413551E+02  0.00000000000E+00 0.  1.
         11    1    3    3    0    0 -0.21820755788E+02  0.19744040375E+02 -0.19642957863E+02  0.35381044464E+02  0.51100000000E-03 0. -1.
        -11    1    3    3    0    0  0.25628419811E+01  0.64425324564E+01 -0.31284391153E+01  0.76066756885E+01  0.51100000000E-03 0.  1.
        -12    1    3    3    0    0  0.23291869763E+02 -0.16551058582E+02  0.72291117863E+01  0.29473866296E+02  0.00000000000E+00 0.  1.
</event>
<event>
 7    1  0.1789107E-013  0.7246164E+02  0.7816164E-02  0.1226708E+00
        -11   -1    0    0    0    0  0.00000000000E+00  0.00000000000E+00  0.45593999997E+02  0.45594000000E+02  0.51100000000E-03 0.  1.
         11   -1    0    0    0    0 -0.00000000000E+00 -0.00000000000E+00 -0.45593999997E+02  0.45594000000E+02  0.51100000000E-03 0. -1.
    9900012    2    1    2    0    0 -0.17034040286E+02  0.33484266043E+01 -0.70218280186E+01  0.72461640025E+02  0.70000090837E+02 0.  0.
        -12    1    1    2    0    0  0.17034040286E+02 -0.33484266043E+01  0.70218280186E+01  0.18726359975E+02  0.00000000000E+00 0.  1.
         11    1    3    3    0    0  0.14885196972E+02 -0.13827767122E+02  0.43077485768E+01  0.20768556294E+02  0.51100000000E-03 0. -1.
        -11    1    3    3    0    0 -0.14046702649E+02 -0.91755275422E+01 -0.10595989902E+02  0.19843768877E+02  0.51100000000E-03 0.  1.
        -12    1    3    3    0    0 -0.17872534610E+02  0.26351721269E+02 -0.73358669326E+00  0.31849314854E+02  0.00000000000E+00 0.  1.
</event>
<event>
 7    1  0.1789107E-013  0.7246156E+02  0.7816164E-02  0.1226708E+00
        -11   -1    0    0    0    0  0.00000000000E+00  0.00000000000E+00  0.45593999997E+02  0.45594000000E+02  0.51100000000E-03 0.  1.
         11   -1    0    0    0    0 -0.00000000000E+00 -0.00000000000E+00 -0.45593999997E+02  0.45594000000E+02  0.51100000000E-03 0. -1.
    9900012    2    1    2    0    0  0.84306159652E+01  0.14035833724E+02 -0.90884256180E+01  0.72461564299E+02  0.69999992189E+02 0.  0.
        -12    1    1    2    0    0 -0.84306159652E+01 -0.14035833724E+02  0.90884256180E+01  0.18726435701E+02  0.00000000000E+00 0.  1.
         11    1    3    3    0    0  0.59348049990E+00  0.71349423963E+01 -0.11513458187E+02  0.13557999181E+02  0.51100000000E-03 0. -1.
        -11    1    3    3    0    0  0.51791941075E+01  0.19905770916E+02  0.25208713101E+02  0.32535257550E+02  0.51100000000E-03 0.  1.
         12    1    3    3    0    0  0.26579413577E+01 -0.13004879589E+02 -0.22783680532E+02  0.26368307568E+02  0.00000000000E+00 0. -1.
</event>
<event>
 7    1  0.1789107E-013  0.7246154E+02  0.7816164E-02  0.1226708E+00
        -11   -1    0    0    0    0  0.00000000000E+00  0.00000000000E+00  0.45593999997E+02  0.45594000000E+02  0.51100000000E-03 0. -1.
         11   -1    0    0    0    0 -0.00000000000E+00 -0.00000000000E+00 -0.45593999997E+02  0.45594000000E+02  0.51100000000E-03 0.  1.
    9900012    2    1    2    0    0  0.16284269996E+02  0.81542013050E+01  0.43602585771E+01  0.72461540028E+02  0.69999960572E+02 0.  0.
        -12    1    1    2    0    0 -0.16284269996E+02 -0.81542013050E+01 -0.43602585771E+01  0.18726459972E+02  0.00000000000E+00 0.  1.
         11    1    3    3    0    0 -0.99640451187E+01  0.13735317534E+02 -0.14251879940E+02  0.22159811032E+02  0.51100000000E-03 0. -1.
        -11    1    3    3    0    0 -0.62567229392E+01  0.72230343479E+01  0.10953559021E+02  0.14536136441E+02  0.51100000000E-03 0.  1.
        -12    1    3    3    0    0  0.32505038054E+02 -0.12804150577E+02  0.76585794963E+01  0.35765592555E+02  0.00000000000E+00 0.  1.
</event>
<event>
 7    1  0.1789107E-013  0.7246140E+02  0.7816164E-02  0.1226708E+00
        -11   -1    0    0    0    0  0.00000000000E+00  0.00000000000E+00  0.45593999997E+02  0.45594000000E+02  0.51100000000E-03 0.  1.
         11   -1    0    0    0    0 -0.00000000000E+00 -0.00000000000E+00 -0.45593999997E+02  0.45594000000E+02  0.51100000000E-03 0. -1.
    9900012    2    1    2    0    0 -0.14515146402E+02  0.50041614803E+01  0.10721679827E+02  0.72461400588E+02  0.69999778926E+02 0.  0.
        -12    1    1    2    0    0  0.14515146402E+02 -0.50041614803E+01 -0.10721679827E+02  0.18726599412E+02  0.00000000000E+00 0.  1.
         11    1    3    3    0    0 -0.28807700614E+01  0.13366052191E+02 -0.83551345439E+01  0.16023684371E+02  0.51100000000E-03 0. -1.
        -11    1    3    3    0    0 -0.18999903278E+02  0.16232108181E+02  0.94542719621E+00  0.25007428764E+02  0.51100000000E-03 0.  1.
         12    1    3    3    0    0  0.73655269364E+01 -0.24593998891E+02  0.18131387175E+02  0.31430287453E+02  0.00000000000E+00 0. -1.
</event>
<event>
 7    1  0.1789107E-013  0.7246180E+02  0.7816164E-02  0.1226707E+00
        -11   -1    0    0    0    0  0.00000000000E+00  0.00000000000E+00  0.45593999997E+02  0.45594000000E+02  0.51100000000E-03 0. -1.
         11   -1    0    0    0    0 -0.00000000000E+00 -0.00000000000E+00 -0.45593999997E+02  0.45594000000E+02  0.51100000000E-03 0.  1.
    9900012    2    1    2    0    0 -0.88107248086E+01 -0.16502603579E+02 -0.84010652159E+00  0.72461799758E+02  0.70000298919E+02 0.  0.
        -12    1    1    2    0    0  0.88107248086E+01  0.16502603579E+02  0.84010652159E+00  0.18726200242E+02  0.00000000000E+00 0.  1.
         11    1    3    3    0    0 -0.12850044773E+02 -0.42604245709E+01 -0.64843983718E+01  0.15010739179E+02  0.51100000000E-03 0. -1.
        -11    1    3    3    0    0  0.91218574936E+01  0.16116493879E+02 -0.13449737615E+02  0.22887662643E+02  0.51100000000E-03 0.  1.
        -12    1    3    3    0    0 -0.50825375292E+01 -0.28358672887E+02  0.19094029465E+02  0.34563397936E+02  0.00000000000E+00 0.  1.
</event>
<event>
 7    1  0.1789107E-013  0.7246192E+02  0.7816164E-02  0.1226707E+00
        -11   -1    0    0    0    0  0.00000000000E+00  0.00000000000E+00  0.45593999997E+02  0.45594000000E+02  0.51100000000E-03 0.  1.
         11   -1    0    0    0    0 -0.00000000000E+00 -0.00000000000E+00 -0.45593999997E+02  0.45594000000E+02  0.51100000000E-03 0. -1.
    9900012    2    1    2    0    0  0.94295112090E+01  0.78193025686E+01 -0.14163652033E+02  0.72461916234E+02  0.70000450649E+02 0.  0.
        -12    1    1    2    0    0 -0.94295112090E+01 -0.78193025686E+01  0.14163652033E+02  0.18726083766E+02  0.00000000000E+00 0.  1.
         11    1    3    3    0    0  0.30850722486E+02  0.96246992083E+01 -0.35231020768E+01  0.32508678246E+02  0.51100000000E-03 0. -1.
        -11    1    3    3    0    0 -0.56440913483E+01 -0.11816400863E+02  0.64798527449E+01  0.14610666937E+02  0.51100000000E-03 0.  1.
        -12    1    3    3    0    0 -0.15777119929E+02  0.10011004223E+02 -0.17120402701E+02  0.25342571051E+02  0.00000000000E+00 0.  1.
</event>
<event>
 7    1  0.1789107E-013  0.7246158E+02  0.7816164E-02  0.1226708E+00
        -11   -1    0    0    0    0  0.00000000000E+00  0.00000000000E+00  0.45593999997E+02  0.45594000000E+02  0.51100000000E-03 0.  1.
         11   -1    0    0    0    0 -0.00000000000E+00 -0.00000000000E+00 -0.45593999997E+02  0.45594000000E+02  0.51100000000E-03 0. -1.
    9900012    2    1    2    0    0 -0.60586558330E+01  0.14253121878E+02 -0.10527108775E+02  0.72461579815E+02  0.70000012403E+02 0.  0.
        -12    1    1    2    0    0  0.60586558330E+01 -0.14253121878E+02  0.10527108775E+02  0.18726420185E+02  0.00000000000E+00 0.  1.
         11    1    3    3    0    0 -0.30280830684E+02  0.49953597579E+01 -0.13054787763E+02  0.33351308967E+02  0.51100000000E-03 0. -1.
        -11    1    3    3    0    0  0.10829944289E+02 -0.10496452459E+02 -0.24487333019E+00  0.15083871212E+02  0.51100000000E-03 0.  1.
        -12    1    3    3    0    0  0.13392230562E+02  0.19754214580E+02  0.27725523189E+01  0.24026399636E+02  0.00000000000E+00 0.  1.
</event>
<event>
 7    1  0.1789107E-013  0.7246156E+02  0.7816164E-02  0.1226708E+00
        -11   -1    0    0    0    0  0.00000000000E+00  0.00000000000E+00  0.45593999997E+02  0.45594000000E+02  0.51100000000E-03 0. -1.
         11   -1    0    0    0    0 -0.00000000000E+00 -0.00000000000E+00 -0.45593999997E+02  0.45594000000E+02  0.51100000000E-03 0.  1.
    9900012    2    1    2    0    0 -0.17387030646E+02  0.61566842004E+01  0.32350904964E+01  0.72461563993E+02  0.69999991791E+02 0.  0.
        -12    1    1    2    0    0  0.17387030646E+02 -0.61566842004E+01 -0.32350904964E+01  0.18726436007E+02  0.00000000000E+00 0.  1.
         11    1    3    3    0    0 -0.79327582326E+01  0.16777399856E+02 -0.22383868611E+02  0.29076577745E+02  0.51100000000E-03 0. -1.
        -11    1    3    3    0    0  0.37072729323E+01 -0.10780412698E+02 -0.30823553043E+01  0.11809406633E+02  0.51100000000E-03 0.  1.
         12    1    3    3    0    0 -0.13161545346E+02  0.15969704267E+00  0.28701314412E+02  0.31575579615E+02  0.00000000000E+00 0. -1.
</event>
<event>
 7    1  0.1789107E-013  0.7246153E+02  0.7816164E-02  0.1226708E+00
        -11   -1    0    0    0    0  0.00000000000E+00  0.00000000000E+00  0.45593999997E+02  0.45594000000E+02  0.51100000000E-03 0. -1.
         11   -1    0    0    0    0 -0.00000000000E+00 -0.00000000000E+00 -0.45593999997E+02  0.45594000000E+02  0.51100000000E-03 0.  1.
    9900012    2    1    2    0    0  0.84739980339E+00  0.15913995398E+02  0.98339829339E+01  0.72461533267E+02  0.69999951765E+02 0.  0.
        -12    1    1    2    0    0 -0.84739980339E+00 -0.15913995398E+02 -0.98339829339E+01  0.18726466733E+02  0.00000000000E+00 0.  1.
         11    1    3    3    0    0  0.18677803325E+01 -0.25839911406E+01 -0.86376312277E+01  0.92072953179E+01  0.51100000000E-03 0. -1.
        -11    1    3    3    0    0 -0.55435786356E+01  0.22918756177E+02 -0.15813043813E+02  0.28391072606E+02  0.51100000000E-03 0.  1.
         12    1    3    3    0    0  0.45231981065E+01 -0.44207696386E+01  0.34284657975E+02  0.34863165343E+02  0.00000000000E+00 0. -1.
</event>
<event>
 7    1  0.1789107E-013  0.7246155E+02  0.7816164E-02  0.1226708E+00
        -11   -1    0    0    0    0  0.00000000000E+00  0.00000000000E+00  0.45593999997E+02  0.45594000000E+02  0.51100000000E-03 0. -1.
         11   -1    0    0    0    0 -0.00000000000E+00 -0.00000000000E+00 -0.45593999997E+02  0.45594000000E+02  0.51100000000E-03 0.  1.
    9900012    2    1    2    0    0 -0.69736286269E+01 -0.13838064931E+02  0.10514585532E+02  0.72461546888E+02  0.69999969509E+02 0.  0.
        -12    1    1    2    0    0  0.69736286269E+01  0.13838064931E+02 -0.10514585532E+02  0.18726453112E+02  0.00000000000E+00 0.  1.
         11    1    3    3    0    0  0.19857858696E+02 -0.10749487156E+02  0.27959143341E+02  0.35938833074E+02  0.51100000000E-03 0. -1.
        -11    1    3    3    0    0  0.20431371928E+01  0.63742907676E+00 -0.38193465654E+01  0.43781427414E+01  0.51100000000E-03 0.  1.
        -12    1    3    3    0    0 -0.28874624515E+02 -0.37260068517E+01 -0.13625211244E+02  0.32144571072E+02  0.00000000000E+00 0.  1.
</event>
<event>
 7    1  0.1789107E-013  0.7246157E+02  0.7816164E-02  0.1226708E+00
        -11   -1    0    0    0    0  0.00000000000E+00  0.00000000000E+00  0.45593999997E+02  0.45594000000E+02  0.51100000000E-03 0.  1.
         11   -1    0    0    0    0 -0.00000000000E+00 -0.00000000000E+00 -0.45593999997E+02  0.45594000000E+02  0.51100000000E-03 0. -1.
    9900012    2    1    2    0    0 -0.54867568630E+01  0.10344124775E+02 -0.14614157606E+02  0.72461574266E+02  0.70000005174E+02 0.  0.
        -12    1    1    2    0    0  0.54867568630E+01 -0.10344124775E+02  0.14614157606E+02  0.18726425734E+02  0.00000000000E+00 0.  1.
         11    1    3    3    0    0 -0.43506989854E+01 -0.16566431102E+01  0.14017355226E+01  0.48618834615E+01  0.51100000000E-03 0. -1.
        -11    1    3    3    0    0 -0.93017959375E+01  0.98098474845E+00  0.23755076225E+02  0.25530166185E+02  0.51100000000E-03 0.  1.
        -12    1    3    3    0    0  0.81657380600E+01  0.11019783137E+02 -0.39770969353E+02  0.42069524620E+02  0.00000000000E+00 0.  1.
</event>
<event>
 7    1  0.1789107E-013  0.7246159E+02  0.7816164E-02  0.1226708E+00
        -11   -1    0    0    0    0  0.00000000000E+00  0.00000000000E+00  0.45593999997E+02  0.45594000000E+02  0.51100000000E-03 0. -1.
         11   -1    0    0    0    0 -0.00000000000E+00 -0.00000000000E+00 -0.45593999997E+02  0.45594000000E+02  0.51100000000E-03 0.  1.
    9900012    2    1    2    0    0 -0.96952033904E+01 -0.12758655046E+02  0.96901056348E+01  0.72461590986E+02  0.70000026954E+02 0.  0.
        -12    1    1    2    0    0  0.96952033904E+01  0.12758655046E+02 -0.96901056348E+01  0.18726409014E+02  0.00000000000E+00 0.  1.
         11    1    3    3    0    0 -0.19803555024E+02 -0.87861008736E+00  0.28235216872E+02  0.34498988671E+02  0.51100000000E-03 0. -1.
        -11    1    3    3    0    0 -0.71602986925E+01 -0.70225009630E+01  0.24733345072E+01  0.10329703819E+02  0.51100000000E-03 0.  1.
         12    1    3    3    0    0  0.17268650326E+02 -0.48575439953E+01 -0.21018445745E+02  0.27632898495E+02  0.00000000000E+00 0. -1.
</event>
<event>
 7    1  0.1789107E-013  0.7246156E+02  0.7816164E-02  0.1226708E+00
        -11   -1    0    0    0    0  0.00000000000E+00  0.00000000000E+00  0.45593999997E+02  0.45594000000E+02  0.51100000000E-03 0.  1.
         11   -1    0    0    0    0 -0.00000000000E+00 -0.00000000000E+00 -0.45593999997E+02  0.45594000000E+02  0.51100000000E-03 0. -1.
    9900012    2    1    2    0    0 -0.66821316288E+01 -0.34504969580E+01 -0.17150012484E+02  0.72461555048E+02  0.69999980138E+02 0.  0.
        -12    1    1    2    0    0  0.66821316288E+01  0.34504969580E+01  0.17150012484E+02  0.18726444952E+02  0.00000000000E+00 0.  1.
         11    1    3    3    0    0 -0.57431987008E+01 -0.34788478002E+01 -0.59140799874E+01  0.89477961361E+01  0.51100000000E-03 0. -1.
        -11    1    3    3    0    0 -0.28311752390E+02  0.97246823159E+01  0.48359871734E+01  0.30323448711E+02  0.51100000000E-03 0.  1.
        -12    1    3    3    0    0  0.27372819462E+02 -0.96963314737E+01 -0.16071919670E+02  0.33190310201E+02  0.00000000000E+00 0.  1.
</event>
<event>
 7    1  0.1789107E-013  0.7246161E+02  0.7816164E-02  0.1226708E+00
        -11   -1    0    0    0    0  0.00000000000E+00  0.00000000000E+00  0.45593999997E+02  0.45594000000E+02  0.51100000000E-03 0.  1.
         11   -1    0    0    0    0 -0.00000000000E+00 -0.00000000000E+00 -0.45593999997E+02  0.45594000000E+02  0.51100000000E-03 0. -1.
    9900012    2    1    2    0    0 -0.92505908970E+01 -0.64787611664E+01 -0.14937534349E+02  0.72461609248E+02  0.70000050744E+02 0.  0.
        -12    1    1    2    0    0  0.92505908970E+01  0.64787611664E+01  0.14937534349E+02  0.18726390752E+02  0.00000000000E+00 0.  1.
         11    1    3    3    0    0 -0.22125615838E+02  0.11083127720E+02 -0.10616391009E+02  0.26927427552E+02  0.51100000000E-03 0. -1.
        -11    1    3    3    0    0 -0.95213320215E+01  0.70919751157E+01 -0.27650266914E+01  0.12190047062E+02  0.51100000000E-03 0.  1.
        -12    1    3    3    0    0  0.22396356963E+02 -0.24653864002E+02 -0.15561166487E+01  0.33344134633E+02  0.00000000000E+00 0.  1.
</event>
<event>
 7    1  0.1789107E-013  0.7246158E+02  0.7816164E-02  0.1226708E+00
        -11   -1    0    0    0    0  0.00000000000E+00  0.00000000000E+00  0.45593999997E+02  0.45594000000E+02  0.51100000000E-03 0.  1.
         11   -1    0    0    0    0 -0.00000000000E+00 -0.00000000000E+00 -0.45593999997E+02  0.45594000000E+02  0.51100000000E-03 0. -1.
    9900012    2    1    2    0    0 -0.49981975948E+01 -0.81449822542E+01 -0.16104533978E+02  0.72461582036E+02  0.70000015295E+02 0.  0.
        -12    1    1    2    0    0  0.49981975948E+01  0.81449822542E+01  0.16104533978E+02  0.18726417964E+02  0.00000000000E+00 0.  1.
         11    1    3    3    0    0 -0.17116896148E+02 -0.28381371392E+01 -0.76667360021E+01  0.18968974600E+02  0.51100000000E-03 0. -1.
        -11    1    3    3    0    0 -0.68365218575E+01 -0.11799026514E+02  0.16562626948E+02  0.21454036205E+02  0.51100000000E-03 0.  1.
        -12    1    3    3    0    0  0.18955220411E+02  0.64921813986E+01 -0.25000424924E+02  0.32038571231E+02  0.00000000000E+00 0.  1.
</event>
<event>
 7    1  0.1789107E-013  0.7246157E+02  0.7816164E-02  0.1226708E+00
        -11   -1    0    0    0    0  0.00000000000E+00  0.00000000000E+00  0.45593999997E+02  0.45594000000E+02  0.51100000000E-03 0.  1.
         11   -1    0    0    0    0 -0.00000000000E+00 -0.00000000000E+00 -0.45593999997E+02  0.45594000000E+02  0.51100000000E-03 0. -1.
    9900012    2    1    2    0    0 -0.54964979140E+01  0.17488844604E+02 -0.38220640765E+01  0.72461565510E+02  0.69999993768E+02 0.  0.
        -12    1    1    2    0    0  0.54964979140E+01 -0.17488844604E+02  0.38220640765E+01  0.18726434490E+02  0.00000000000E+00 0.  1.
         11    1    3    3    0    0  0.10054215976E+02  0.10976818392E+02 -0.74406273601E+01  0.16641536488E+02  0.51100000000E-03 0. -1.
        -11    1    3    3    0    0  0.76101255144E+01 -0.17752457447E+02  0.98826209103E+01  0.21696311946E+02  0.51100000000E-03 0.  1.
         12    1    3    3    0    0 -0.23160839405E+02  0.24264483659E+02 -0.62640576267E+01  0.34123717076E+02  0.00000000000E+00 0. -1.
</event>
<event>
 7    1  0.1789107E-013  0.7246155E+02  0.7816164E-02  0.1226708E+00
        -11   -1    0    0    0    0  0.00000000000E+00  0.00000000000E+00  0.45593999997E+02  0.45594000000E+02  0.51100000000E-03 0. -1.
         11   -1    0    0    0    0 -0.00000000000E+00 -0.00000000000E+00 -0.45593999997E+02  0.45594000000E+02  0.51100000000E-03 0.  1.
    9900012    2    1    2    0    0 -0.75919625045E+01 -0.13156173135E+02  0.10952492961E+02  0.72461551103E+02  0.69999975000E+02 0.  0.
        -12    1    1    2    0    0  0.75919625045E+01  0.13156173135E+02 -0.10952492961E+02  0.18726448897E+02  0.00000000000E+00 0.  1.
         11    1    3    3    0    0 -0.48084003719E+01  0.14045825891E+02 -0.47120841977E+01  0.15575932616E+02  0.51100000000E-03 0. -1.
        -11    1    3    3    0    0 -0.19361219981E+02 -0.92664533147E+01  0.22925794600E+02  0.31405669146E+02  0.51100000000E-03 0.  1.
        -12    1    3    3    0    0  0.16577657849E+02 -0.17935545711E+02 -0.72612174409E+01  0.25479949341E+02  0.00000000000E+00 0.  1.
</event>
<event>
 7    1  0.1789107E-013  0.7246158E+02  0.7816164E-02  0.1226708E+00
        -11   -1    0    0    0    0  0.00000000000E+00  0.00000000000E+00  0.45593999997E+02  0.45594000000E+02  0.51100000000E-03 0.  1.
         11   -1    0    0    0    0 -0.00000000000E+00 -0.00000000000E+00 -0.45593999997E+02  0.45594000000E+02  0.51100000000E-03 0. -1.
    9900012    2    1    2    0    0 -0.13436186932E+01 -0.84724508671E+01 -0.16646056508E+02  0.72461576632E+02  0.70000008256E+02 0.  0.
        -12    1    1    2    0    0  0.13436186932E+01  0.84724508671E+01  0.16646056508E+02  0.18726423368E+02  0.00000000000E+00 0.  1.
         11    1    3    3    0    0 -0.23297079446E+02 -0.39631905537E+01 -0.16466308130E+02  0.28802779271E+02  0.51100000000E-03 0. -1.
        -11    1    3    3    0    0 -0.17940410801E+01  0.11646672231E+02  0.74488376149E+01  0.13940901676E+02  0.51100000000E-03 0.  1.
         12    1    3    3    0    0  0.23747501833E+02 -0.16155932545E+02 -0.76285859929E+01  0.29717895685E+02  0.00000000000E+00 0. -1.
</event>
<event>
 7    1  0.1789107E-013  0.7246186E+02  0.7816164E-02  0.1226707E+00
        -11   -1    0    0    0    0  0.00000000000E+00  0.00000000000E+00  0.45593999997E+02  0.45594000000E+02  0.51100000000E-03 0.  1.
         11   -1    0    0    0    0 -0.00000000000E+00 -0.00000000000E+00 -0.45593999997E+02  0.45594000000E+02  0.51100000000E-03 0. -1.
    9900012    2    1    2    0    0 -0.14842972430E+02 -0.10307573959E+02  0.49100137125E+01  0.72461864624E+02  0.70000383418E+02 0.  0.
        -12    1    1    2    0    0  0.14842972430E+02  0.10307573959E+02 -0.49100137125E+01  0.18726135376E+02  0.00000000000E+00 0.  1.
         11    1    3    3    0    0 -0.10377511352E+02  0.18454900968E+02  0.14256450387E+01  0.21220475387E+02  0.51100000000E-03 0. -1.
        -11    1    3    3    0    0  0.67536704574E+01 -0.13779503899E+01  0.17269774506E+02  0.18594513268E+02  0.51100000000E-03 0.  1.
        -12    1    3    3    0    0 -0.11219131535E+02 -0.27384524538E+02 -0.13785405832E+02  0.32646875968E+02  0.00000000000E+00 0.  1.
</event>
<event>
 7    1  0.1789107E-013  0.7246155E+02  0.7816164E-02  0.1226708E+00
        -11   -1    0    0    0    0  0.00000000000E+00  0.00000000000E+00  0.45593999997E+02  0.45594000000E+02  0.51100000000E-03 0.  1.
         11   -1    0    0    0    0 -0.00000000000E+00 -0.00000000000E+00 -0.45593999997E+02  0.45594000000E+02  0.51100000000E-03 0. -1.
    9900012    2    1    2    0    0 -0.16874681376E+02 -0.81152636581E+01  0.26010679969E+00  0.72461547284E+02  0.69999970025E+02 0.  0.
        -12    1    1    2    0    0  0.16874681376E+02  0.81152636581E+01 -0.26010679969E+00  0.18726452716E+02  0.00000000000E+00 0.  1.
         11    1    3    3    0    0 -0.67597999300E+01 -0.64649193472E+00  0.40505526200E+01  0.79069478121E+01  0.51100000000E-03 0. -1.
        -11    1    3    3    0    0 -0.94674058332E+01 -0.55567815201E+01  0.29358752917E+02  0.31343994116E+02  0.51100000000E-03 0.  1.
         12    1    3    3    0    0 -0.64747561246E+00 -0.19119902033E+01 -0.33149198737E+02  0.33210605356E+02  0.00000000000E+00 0. -1.
</event>
<event>
 7    1  0.1789107E-013  0.7246156E+02  0.7816164E-02  0.1226708E+00
        -11   -1    0    0    0    0  0.00000000000E+00  0.00000000000E+00  0.45593999997E+02  0.45594000000E+02  0.51100000000E-03 0. -1.
         11   -1    0    0    0    0 -0.00000000000E+00 -0.00000000000E+00 -0.45593999997E+02  0.45594000000E+02  0.51100000000E-03 0.  1.
    9900012    2    1    2    0    0 -0.14433408979E+02 -0.11807389822E+02  0.17151974491E+01  0.72461557427E+02  0.69999983237E+02 0.  0.
        -12    1    1    2    0    0  0.14433408979E+02  0.11807389822E+02 -0.17151974491E+01  0.18726442573E+02  0.00000000000E+00 0.  1.
         11    1    3    3    0    0 -0.64575122375E+01  0.15779696005E+02  0.10556329232E+02  0.20053287945E+02  0.51100000000E-03 0. -1.
        -11    1    3    3    0    0 -0.22677984717E+02 -0.84647662518E+01 -0.13683551330E+02  0.27806165428E+02  0.51100000000E-03 0.  1.
         12    1    3    3    0    0  0.14702087976E+02 -0.19122319575E+02  0.48424195478E+01  0.24602104054E+02  0.00000000000E+00 0. -1.
</event>
<event>
 7    1  0.1789107E-013  0.7246163E+02  0.7816164E-02  0.1226708E+00
        -11   -1    0    0    0    0  0.00000000000E+00  0.00000000000E+00  0.45593999997E+02  0.45594000000E+02  0.51100000000E-03 0.  1.
         11   -1    0    0    0    0 -0.00000000000E+00 -0.00000000000E+00 -0.45593999997E+02  0.45594000000E+02  0.51100000000E-03 0. -1.
    9900012    2    1    2    0    0  0.60114059955E+01  0.26889208263E+01 -0.17530250796E+02  0.72461628482E+02  0.70000075800E+02 0.  0.
        -12    1    1    2    0    0 -0.60114059955E+01 -0.26889208263E+01  0.17530250796E+02  0.18726371518E+02  0.00000000000E+00 0.  1.
         11    1    3    3    0    0 -0.14201717652E+02  0.78597168750E+01 -0.29882835711E+02  0.34006584716E+02  0.51100000000E-03 0. -1.
        -11    1    3    3    0    0  0.21361127665E+01  0.48533601765E+01 -0.79013394638E+01  0.95157368784E+01  0.51100000000E-03 0.  1.
        -12    1    3    3    0    0  0.18077010881E+02 -0.10024156225E+02  0.20253924379E+02  0.28939306888E+02  0.00000000000E+00 0.  1.
</event>
<event>
 7    1  0.1789107E-013  0.7246162E+02  0.7816164E-02  0.1226708E+00
        -11   -1    0    0    0    0  0.00000000000E+00  0.00000000000E+00  0.45593999997E+02  0.45594000000E+02  0.51100000000E-03 0. -1.
         11   -1    0    0    0    0 -0.00000000000E+00 -0.00000000000E+00 -0.45593999997E+02  0.45594000000E+02  0.51100000000E-03 0.  1.
    9900012    2    1    2    0    0 -0.12858645177E+02 -0.23319348058E+01  0.13412474642E+02  0.72461624170E+02  0.70000070183E+02 0.  0.
        -12    1    1    2    0    0  0.12858645177E+02  0.23319348058E+01 -0.13412474642E+02  0.18726375830E+02  0.00000000000E+00 0.  1.
         11    1    3    3    0    0  0.81088328799E+01  0.47923625599E+01  0.34481700638E+02  0.35745035862E+02  0.51100000000E-03 0. -1.
        -11    1    3    3    0    0 -0.37237309351E+01 -0.11123624537E+02 -0.12173927155E+02  0.16905788877E+02  0.51100000000E-03 0.  1.
        -12    1    3    3    0    0 -0.17243747122E+02  0.39993271709E+01 -0.88952988420E+01  0.19810799431E+02  0.00000000000E+00 0.  1.
</event>
<event>
 7    1  0.1789107E-013  0.7246145E+02  0.7816164E-02  0.1226708E+00
        -11   -1    0    0    0    0  0.00000000000E+00  0.00000000000E+00  0.45593999997E+02  0.45594000000E+02  0.51100000000E-03 0.  1.
         11   -1    0    0    0    0 -0.00000000000E+00 -0.00000000000E+00 -0.45593999997E+02  0.45594000000E+02  0.51100000000E-03 0. -1.
    9900012    2    1    2    0    0  0.36595031527E+01 -0.17742747564E+02  0.47420021818E+01  0.72461450955E+02  0.69999844538E+02 0.  0.
        -12    1    1    2    0    0 -0.36595031527E+01  0.17742747564E+02 -0.47420021818E+01  0.18726549045E+02  0.00000000000E+00 0.  1.
         11    1    3    3    0    0 -0.19919384217E+01 -0.19271560697E+01 -0.29584469319E+01  0.40539064744E+01  0.51100000000E-03 0. -1.
        -11    1    3    3    0    0 -0.17165624352E+02  0.18200759735E+02 -0.50210040070E+01  0.25517382229E+02  0.51100000000E-03 0.  1.
         12    1    3    3    0    0  0.22817065926E+02 -0.34016351229E+02  0.12721453121E+02  0.42890162251E+02  0.00000000000E+00 0. -1.
</event>
<event>
 7    1  0.1789107E-013  0.7246121E+02  0.7816164E-02  0.1226709E+00
        -11   -1    0    0    0    0  0.00000000000E+00  0.00000000000E+00  0.45593999997E+02  0.45594000000E+02  0.51100000000E-03 0.  1.
         11   -1    0    0    0    0 -0.00000000000E+00 -0.00000000000E+00 -0.45593999997E+02  0.45594000000E+02  0.51100000000E-03 0. -1.
    9900012    2    1    2    0    0 -0.12236285230E+02  0.98150256453E+01 -0.10228943512E+02  0.72461209298E+02  0.69999529733E+02 0.  0.
        -12    1    1    2    0    0  0.12236285230E+02 -0.98150256453E+01  0.10228943512E+02  0.18726790702E+02  0.00000000000E+00 0.  1.
         11    1    3    3    0    0  0.70202655718E+01  0.25298844905E+02 -0.13613727019E+02  0.29574469494E+02  0.51100000000E-03 0. -1.
        -11    1    3    3    0    0 -0.15229846272E+02  0.53313995776E+01 -0.88550764627E+01  0.18406097314E+02  0.51100000000E-03 0.  1.
        -12    1    3    3    0    0 -0.40267045301E+01 -0.20815218838E+02  0.12239859970E+02  0.24480642490E+02  0.00000000000E+00 0.  1.
</event>
<event>
 7    1  0.1789107E-013  0.7246160E+02  0.7816164E-02  0.1226708E+00
        -11   -1    0    0    0    0  0.00000000000E+00  0.00000000000E+00  0.45593999997E+02  0.45594000000E+02  0.51100000000E-03 0.  1.
         11   -1    0    0    0    0 -0.00000000000E+00 -0.00000000000E+00 -0.45593999997E+02  0.45594000000E+02  0.51100000000E-03 0. -1.
    9900012    2    1    2    0    0 -0.13974225569E+02 -0.11658640968E+02 -0.44130774293E+01  0.72461597732E+02  0.70000035743E+02 0.  0.
        -12    1    1    2    0    0  0.13974225569E+02  0.11658640968E+02  0.44130774293E+01  0.18726402268E+02  0.00000000000E+00 0.  1.
         11    1    3    3    0    0 -0.20620590774E+02 -0.96752474227E+00  0.17634538719E+01  0.20718461280E+02  0.51100000000E-03 0. -1.
        -11    1    3    3    0    0  0.12973464696E+02  0.14885239879E+02  0.85978448476E+01  0.21536111273E+02  0.51100000000E-03 0.  1.
        -12    1    3    3    0    0 -0.63270994919E+01 -0.25576356105E+02 -0.14774376149E+02  0.30207025179E+02  0.00000000000E+00 0.  1.
</event>
<event>
 7    1  0.1789107E-013  0.7246156E+02  0.7816164E-02  0.1226708E+00
        -11   -1    0    0    0    0  0.00000000000E+00  0.00000000000E+00  0.45593999997E+02  0.45594000000E+02  0.51100000000E-03 0.  1.
         11   -1    0    0    0    0 -0.00000000000E+00 -0.00000000000E+00 -0.45593999997E+02  0.45594000000E+02  0.51100000000E-03 0. -1.
    9900012    2    1    2    0    0 -0.75808872964E+01 -0.12294594885E+02 -0.11918580428E+02  0.72461562138E+02  0.69999989375E+02 0.  0.
        -12    1    1    2    0    0  0.75808872964E+01  0.12294594885E+02  0.11918580428E+02  0.18726437862E+02  0.00000000000E+00 0.  1.
         11    1    3    3    0    0 -0.19964974340E+02  0.13791301751E+02  0.63435826518E+01  0.25080694678E+02  0.51100000000E-03 0. -1.
        -11    1    3    3    0    0 -0.48248984987E+01 -0.17437071289E+02  0.33846023554E+01  0.18406157503E+02  0.51100000000E-03 0.  1.
         12    1    3    3    0    0  0.17208985542E+02 -0.86488253468E+01 -0.21646765435E+02  0.28974709957E+02  0.00000000000E+00 0. -1.
</event>
<event>
 7    1  0.1789107E-013  0.7246158E+02  0.7816164E-02  0.1226708E+00
        -11   -1    0    0    0    0  0.00000000000E+00  0.00000000000E+00  0.45593999997E+02  0.45594000000E+02  0.51100000000E-03 0. -1.
         11   -1    0    0    0    0 -0.00000000000E+00 -0.00000000000E+00 -0.45593999997E+02  0.45594000000E+02  0.51100000000E-03 0.  1.
    9900012    2    1    2    0    0  0.12020816223E+02  0.19026814430E+01  0.14232314387E+02  0.72461575030E+02  0.70000006169E+02 0.  0.
        -12    1    1    2    0    0 -0.12020816223E+02 -0.19026814430E+01 -0.14232314387E+02  0.18726424970E+02  0.00000000000E+00 0.  1.
         11    1    3    3    0    0  0.34906928438E+01  0.21612898126E+02 -0.97490056976E+01  0.23965504675E+02  0.51100000000E-03 0. -1.
        -11    1    3    3    0    0  0.31038223092E+01 -0.97174306620E+01 -0.90036171881E+01  0.13606149137E+02  0.51100000000E-03 0.  1.
         12    1    3    3    0    0  0.54263010704E+01 -0.99927860214E+01  0.32984937273E+02  0.34889921219E+02  0.00000000000E+00 0. -1.
</event>
<event>
 7    1  0.1789107E-013  0.7246155E+02  0.7816164E-02  0.1226708E+00
        -11   -1    0    0    0    0  0.00000000000E+00  0.00000000000E+00  0.45593999997E+02  0.45594000000E+02  0.51100000000E-03 0.  1.
         11   -1    0    0    0    0 -0.00000000000E+00 -0.00000000000E+00 -0.45593999997E+02  0.45594000000E+02  0.51100000000E-03 0. -1.
    9900012    2    1    2    0    0 -0.39271251631E+01 -0.17204971452E+02 -0.62646992775E+01  0.72461553147E+02  0.69999977662E+02 0.  0.
        -12    1    1    2    0    0  0.39271251631E+01  0.17204971452E+02  0.62646992775E+01  0.18726446853E+02  0.00000000000E+00 0.  1.
         11    1    3    3    0    0 -0.10197189582E+01 -0.12733182763E+02  0.22908134357E+02  0.26228922776E+02  0.51100000000E-03 0. -1.
        -11    1    3    3    0    0 -0.74694574269E+01 -0.92760816934E+01  0.38774078851E+01  0.12524886347E+02  0.51100000000E-03 0.  1.
        -12    1    3    3    0    0  0.45620512220E+01  0.48042930038E+01 -0.33050241520E+02  0.33707744023E+02  0.00000000000E+00 0.  1.
</event>
<event>
 7    1  0.3020133E-013  0.7246147E+02  0.7816164E-02  0.1226708E+00
        -11   -1    0    0    0    0  0.00000000000E+00  0.00000000000E+00  0.45593999997E+02  0.45594000000E+02  0.51100000000E-03 0. -1.
         11   -1    0    0    0    0 -0.00000000000E+00 -0.00000000000E+00 -0.45593999997E+02  0.45594000000E+02  0.51100000000E-03 0.  1.
    9900012    2    1    2    0    0 -0.12608039534E+02  0.11809092319E+00  0.13845805281E+02  0.72461469883E+02  0.69999869195E+02 0.  0.
        -12    1    1    2    0    0  0.12608039534E+02 -0.11809092319E+00 -0.13845805281E+02  0.18726530117E+02  0.00000000000E+00 0.  1.
         11    1    3    3    0    0 -0.95819764345E+01  0.18963087838E+02  0.25471700307E+02  0.33169571742E+02  0.51100000000E-03 0. -1.
        -11    1    3    3    0    0 -0.74850252022E+01  0.75492918003E+01 -0.18289420407E+01  0.10787142263E+02  0.51100000000E-03 0.  1.
        -12    1    3    3    0    0  0.44589621028E+01 -0.26394288715E+02 -0.97969529852E+01  0.28504755877E+02  0.00000000000E+00 0.  1.
</event>
<event>
 7    1  0.1971618E-013  0.7246150E+02  0.7816164E-02  0.1226708E+00
        -11   -1    0    0    0    0  0.00000000000E+00  0.00000000000E+00  0.45593999997E+02  0.45594000000E+02  0.51100000000E-03 0. -1.
         11   -1    0    0    0    0 -0.00000000000E+00 -0.00000000000E+00 -0.45593999997E+02  0.45594000000E+02  0.51100000000E-03 0.  1.
    9900012    2    1    2    0    0 -0.65542839977E+01 -0.44792167367E+01  0.16960534697E+02  0.72461501168E+02  0.69999909950E+02 0.  0.
        -12    1    1    2    0    0  0.65542839977E+01  0.44792167367E+01 -0.16960534697E+02  0.18726498832E+02  0.00000000000E+00 0.  1.
         11    1    3    3    0    0 -0.12978570328E+01 -0.28189360096E+00  0.20377437771E+02  0.20420672547E+02  0.51100000000E-03 0. -1.
        -11    1    3    3    0    0  0.21511007247E+02  0.28616909995E+00  0.75062531085E+01  0.22784844996E+02  0.51100000000E-03 0.  1.
        -12    1    3    3    0    0 -0.26767434211E+02 -0.44834922357E+01 -0.10923156183E+02  0.29255983625E+02  0.00000000000E+00 0.  1.
</event>
<event>
 7    1  0.1789107E-013  0.7246157E+02  0.7816164E-02  0.1226708E+00
        -11   -1    0    0    0    0  0.00000000000E+00  0.00000000000E+00  0.45593999997E+02  0.45594000000E+02  0.51100000000E-03 0.  1.
         11   -1    0    0    0    0 -0.00000000000E+00 -0.00000000000E+00 -0.45593999997E+02  0.45594000000E+02  0.51100000000E-03 0. -1.
    9900012    2    1    2    0    0 -0.10347992873E+02 -0.11488652187E+02 -0.10564520477E+02  0.72461570055E+02  0.69999999688E+02 0.  0.
        -12    1    1    2    0    0  0.10347992873E+02  0.11488652187E+02  0.10564520477E+02  0.18726429945E+02  0.00000000000E+00 0.  1.
         11    1    3    3    0    0 -0.19048847498E+02  0.90555552936E+01 -0.96822466192E+00  0.21113955857E+02  0.51100000000E-03 0. -1.
        -11    1    3    3    0    0 -0.97185868873E+01 -0.16342444988E+02  0.12131809098E+02  0.22554539044E+02  0.51100000000E-03 0.  1.
         12    1    3    3    0    0  0.18419441512E+02 -0.42017624930E+01 -0.21728104913E+02  0.28793075154E+02  0.00000000000E+00 0. -1.
</event>
<event>
 7    1  0.1789107E-013  0.7246159E+02  0.7816164E-02  0.1226708E+00
        -11   -1    0    0    0    0  0.00000000000E+00  0.00000000000E+00  0.45593999997E+02  0.45594000000E+02  0.51100000000E-03 0.  1.
         11   -1    0    0    0    0 -0.00000000000E+00 -0.00000000000E+00 -0.45593999997E+02  0.45594000000E+02  0.51100000000E-03 0. -1.
    9900012    2    1    2    0    0  0.17534206636E+02 -0.61307910763E+01 -0.23756195317E+01  0.72461586309E+02  0.70000020861E+02 0.  0.
        -12    1    1    2    0    0 -0.17534206636E+02  0.61307910763E+01  0.23756195317E+01  0.18726413691E+02  0.00000000000E+00 0.  1.
         11    1    3    3    0    0  0.14189833160E+02 -0.20121665959E+02  0.62828007010E+01  0.25410753451E+02  0.51100000000E-03 0.  1.
        -11    1    3    3    0    0 -0.15701335189E+02 -0.15017128529E+01 -0.14922326661E+02  0.21713196482E+02  0.51100000000E-03 0. -1.
        -12    1    3    3    0    0  0.19045708666E+02  0.15492587735E+02  0.62639064286E+01  0.25337636375E+02  0.00000000000E+00 0.  1.
</event>
<event>
 7    1  0.1789107E-013  0.7246155E+02  0.7816164E-02  0.1226708E+00
        -11   -1    0    0    0    0  0.00000000000E+00  0.00000000000E+00  0.45593999997E+02  0.45594000000E+02  0.51100000000E-03 0. -1.
         11   -1    0    0    0    0 -0.00000000000E+00 -0.00000000000E+00 -0.45593999997E+02  0.45594000000E+02  0.51100000000E-03 0.  1.
    9900012    2    1    2    0    0  0.10125009315E+02  0.11096277514E+02  0.11181982727E+02  0.72461550096E+02  0.69999973688E+02 0.  0.
        -12    1    1    2    0    0 -0.10125009315E+02 -0.11096277514E+02 -0.11181982727E+02  0.18726449904E+02  0.00000000000E+00 0.  1.
         11    1    3    3    0    0 -0.40943771584E+01  0.50870597124E+01  0.50924458419E+00  0.65499184071E+01  0.51100000000E-03 0. -1.
        -11    1    3    3    0    0 -0.57428325716E+01  0.78698165472E+01 -0.23976435898E+02  0.25880178073E+02  0.51100000000E-03 0.  1.
         12    1    3    3    0    0  0.19962219045E+02 -0.18605987460E+01  0.34649174041E+02  0.40031453616E+02  0.00000000000E+00 0. -1.
</event>
<event>
 7    1  0.1870315E-013  0.7246163E+02  0.7816164E-02  0.1226708E+00
        -11   -1    0    0    0    0  0.00000000000E+00  0.00000000000E+00  0.45593999997E+02  0.45594000000E+02  0.51100000000E-03 0.  1.
         11   -1    0    0    0    0 -0.00000000000E+00 -0.00000000000E+00 -0.45593999997E+02  0.45594000000E+02  0.51100000000E-03 0. -1.
    9900012    2    1    2    0    0 -0.40128496889E+01  0.18133112918E+02 -0.24009087218E+01  0.72461625300E+02  0.70000071655E+02 0.  0.
        -12    1    1    2    0    0  0.40128496889E+01 -0.18133112918E+02  0.24009087218E+01  0.18726374700E+02  0.00000000000E+00 0.  1.
         11    1    3    3    0    0 -0.26231635269E+02  0.11310457972E+02 -0.12597200069E+02  0.31220419572E+02  0.51100000000E-03 0. -1.
        -11    1    3    3    0    0 -0.25868984277E+01  0.33481271349E+00 -0.88979454738E+01  0.92724094465E+01  0.51100000000E-03 0.  1.
        -12    1    3    3    0    0  0.24805684008E+02  0.64878422318E+01  0.19094236821E+02  0.31968796281E+02  0.00000000000E+00 0.  1.
</event>
<event>
 7    1  0.1789107E-013  0.7246156E+02  0.7816164E-02  0.1226708E+00
        -11   -1    0    0    0    0  0.00000000000E+00  0.00000000000E+00  0.45593999997E+02  0.45594000000E+02  0.51100000000E-03 0.  1.
         11   -1    0    0    0    0 -0.00000000000E+00 -0.00000000000E+00 -0.45593999997E+02  0.45594000000E+02  0.51100000000E-03 0. -1.
    9900012    2    1    2    0    0  0.14463188870E+02  0.77427565292E+01 -0.90302521740E+01  0.72461559728E+02  0.69999986235E+02 0.  0.
        -12    1    1    2    0    0 -0.14463188870E+02 -0.77427565292E+01  0.90302521740E+01  0.18726440272E+02  0.00000000000E+00 0.  1.
         11    1    3    3    0    0 -0.15590210859E+01  0.66682444650E+01 -0.29691120525E+01  0.74640242251E+01  0.51100000000E-03 0. -1.
        -11    1    3    3    0    0  0.19140259742E+01 -0.11435782575E+02 -0.31365660029E+02  0.33440174160E+02  0.51100000000E-03 0.  1.
         12    1    3    3    0    0  0.14108183981E+02  0.12510294639E+02  0.25304519907E+02  0.31557361343E+02  0.00000000000E+00 0. -1.
</event>
<event>
 7    1  0.1789107E-013  0.7246155E+02  0.7816164E-02  0.1226708E+00
        -11   -1    0    0    0    0  0.00000000000E+00  0.00000000000E+00  0.45593999997E+02  0.45594000000E+02  0.51100000000E-03 0. -1.
         11   -1    0    0    0    0 -0.00000000000E+00 -0.00000000000E+00 -0.45593999997E+02  0.45594000000E+02  0.51100000000E-03 0.  1.
    9900012    2    1    2    0    0 -0.88197763879E+01  0.16203357048E+02  0.32160037849E+01  0.72461550376E+02  0.69999974053E+02 0.  0.
        -12    1    1    2    0    0  0.88197763879E+01 -0.16203357048E+02 -0.32160037849E+01  0.18726449624E+02  0.00000000000E+00 0.  1.
         11    1    3    3    0    0  0.15928103757E+01  0.34918395856E+02  0.21316127957E+02  0.40941528128E+02  0.51100000000E-03 0. -1.
        -11    1    3    3    0    0  0.17602909475E+01  0.66326136907E+00 -0.45532024147E+01  0.49264786972E+01  0.51100000000E-03 0.  1.
        -12    1    3    3    0    0 -0.12172877711E+02 -0.19378300177E+02 -0.13546921758E+02  0.26593543552E+02  0.00000000000E+00 0.  1.
</event>
<event>
 7    1  0.1789107E-013  0.7246157E+02  0.7816164E-02  0.1226708E+00
        -11   -1    0    0    0    0  0.00000000000E+00  0.00000000000E+00  0.45593999997E+02  0.45594000000E+02  0.51100000000E-03 0.  1.
         11   -1    0    0    0    0 -0.00000000000E+00 -0.00000000000E+00 -0.45593999997E+02  0.45594000000E+02  0.51100000000E-03 0. -1.
    9900012    2    1    2    0    0  0.14269595713E+02 -0.72006372498E+01 -0.97574876294E+01  0.72461572058E+02  0.70000002298E+02 0.  0.
        -12    1    1    2    0    0 -0.14269595713E+02  0.72006372498E+01  0.97574876294E+01  0.18726427942E+02  0.00000000000E+00 0.  1.
         11    1    3    3    0    0 -0.85573021520E+01 -0.20032457316E+02  0.21688507504E+01  0.21891338015E+02  0.51100000000E-03 0.  1.
        -11    1    3    3    0    0  0.26601091426E+02  0.22844518813E+02 -0.71399705017E+00  0.35071354364E+02  0.51100000000E-03 0. -1.
         12    1    3    3    0    0 -0.37741935612E+01 -0.10012698747E+02 -0.11212341330E+02  0.15498879679E+02  0.00000000000E+00 0. -1.
</event>
<event>
 7    1  0.1789107E-013  0.7246128E+02  0.7816164E-02  0.1226709E+00
        -11   -1    0    0    0    0  0.00000000000E+00  0.00000000000E+00  0.45593999997E+02  0.45594000000E+02  0.51100000000E-03 0. -1.
         11   -1    0    0    0    0 -0.00000000000E+00 -0.00000000000E+00 -0.45593999997E+02  0.45594000000E+02  0.51100000000E-03 0.  1.
    9900012    2    1    2    0    0  0.14889727281E+02 -0.96728489710E+00  0.11315932960E+02  0.72461282260E+02  0.69999624780E+02 0.  0.
        -12    1    1    2    0    0 -0.14889727281E+02  0.96728489710E+00 -0.11315932960E+02  0.18726717740E+02  0.00000000000E+00 0.  1.
         11    1    3    3    0    0 -0.95678951404E+01 -0.16072013117E+02 -0.18906257731E+02  0.26595127462E+02  0.51100000000E-03 0. -1.
        -11    1    3    3    0    0  0.34655790264E+01  0.72607321113E+01 -0.23999262564E+00  0.80489791590E+01  0.51100000000E-03 0.  1.
        -12    1    3    3    0    0  0.20992043395E+02  0.78439961086E+01  0.30462183317E+02  0.37817175639E+02  0.00000000000E+00 0.  1.
</event>
<event>
 7    1  0.1789107E-013  0.7246134E+02  0.7816164E-02  0.1226709E+00
        -11   -1    0    0    0    0  0.00000000000E+00  0.00000000000E+00  0.45593999997E+02  0.45594000000E+02  0.51100000000E-03 0. -1.
         11   -1    0    0    0    0 -0.00000000000E+00 -0.00000000000E+00 -0.45593999997E+02  0.45594000000E+02  0.51100000000E-03 0.  1.
    9900012    2    1    2    0    0 -0.15476947987E+02 -0.69600599080E-01  0.10542631775E+02  0.72461338579E+02  0.69999698147E+02 0.  0.
        -12    1    1    2    0    0  0.15476947987E+02  0.69600599080E-01 -0.10542631775E+02  0.18726661421E+02  0.00000000000E+00 0.  1.
         11    1    3    3    0    0 -0.14255565629E+02  0.29996560838E+01 -0.10146789796E+01  0.14603036044E+02  0.51100000000E-03 0. -1.
        -11    1    3    3    0    0  0.38181661419E+01  0.23616546062E+02 -0.70469371863E+01  0.24939506101E+02  0.51100000000E-03 0.  1.
         12    1    3    3    0    0 -0.50395485003E+01 -0.26685802745E+02  0.18604247941E+02  0.32918796434E+02  0.00000000000E+00 0. -1.
</event>
<event>
 7    1  0.1789107E-013  0.7246161E+02  0.7816164E-02  0.1226708E+00
        -11   -1    0    0    0    0  0.00000000000E+00  0.00000000000E+00  0.45593999997E+02  0.45594000000E+02  0.51100000000E-03 0.  1.
         11   -1    0    0    0    0 -0.00000000000E+00 -0.00000000000E+00 -0.45593999997E+02  0.45594000000E+02  0.51100000000E-03 0. -1.
    9900012    2    1    2    0    0 -0.11748247940E+02 -0.24146651466E+01 -0.14381443125E+02  0.72461605692E+02  0.70000046112E+02 0.  0.
        -12    1    1    2    0    0  0.11748247940E+02  0.24146651466E+01  0.14381443125E+02  0.18726394308E+02  0.00000000000E+00 0.  1.
         11    1    3    3    0    0 -0.43061134958E+01 -0.13034883031E+02 -0.15774091890E+02  0.20911067985E+02  0.51100000000E-03 0. -1.
        -11    1    3    3    0    0 -0.84747993967E+01  0.23625295699E+02 -0.16032468680E+02  0.29782828507E+02  0.51100000000E-03 0.  1.
        -12    1    3    3    0    0  0.10326649528E+01 -0.13005077814E+02  0.17425117444E+02  0.21767709200E+02  0.00000000000E+00 0.  1.
</event>
<event>
 7    1  0.1789107E-013  0.7246157E+02  0.7816164E-02  0.1226708E+00
        -11   -1    0    0    0    0  0.00000000000E+00  0.00000000000E+00  0.45593999997E+02  0.45594000000E+02  0.51100000000E-03 0.  1.
         11   -1    0    0    0    0 -0.00000000000E+00 -0.00000000000E+00 -0.45593999997E+02  0.45594000000E+02  0.51100000000E-03 0. -1.
    9900012    2    1    2    0    0 -0.18310411182E+02 -0.19823042285E+00 -0.39203152664E+01  0.72461566150E+02  0.69999994601E+02 0.  0.
        -12    1    1    2    0    0  0.18310411182E+02  0.19823042285E+00  0.39203152664E+01  0.18726433850E+02  0.00000000000E+00 0.  1.
         11    1    3    3    0    0  0.92302022629E+00 -0.16225250344E+02 -0.94689614311E+01  0.18808826276E+02  0.51100000000E-03 0. -1.
        -11    1    3    3    0    0 -0.82252712557E+01 -0.90939870411E+01  0.19381607307E+02  0.22934741978E+02  0.51100000000E-03 0.  1.
         12    1    3    3    0    0 -0.11008160153E+02  0.25121006962E+02 -0.13832961142E+02  0.30717997895E+02  0.00000000000E+00 0. -1.
</event>
<event>
 7    1  0.1789107E-013  0.7246157E+02  0.7816164E-02  0.1226708E+00
        -11   -1    0    0    0    0  0.00000000000E+00  0.00000000000E+00  0.45593999997E+02  0.45594000000E+02  0.51100000000E-03 0.  1.
         11   -1    0    0    0    0 -0.00000000000E+00 -0.00000000000E+00 -0.45593999997E+02  0.45594000000E+02  0.51100000000E-03 0. -1.
    9900012    2    1    2    0    0 -0.86856181416E+01  0.16135480750E+02 -0.38581562514E+01  0.72461572919E+02  0.70000003420E+02 0.  0.
        -12    1    1    2    0    0  0.86856181416E+01 -0.16135480750E+02  0.38581562514E+01  0.18726427081E+02  0.00000000000E+00 0.  1.
         11    1    3    3    0    0 -0.25525438681E+02  0.16098111658E+02 -0.14232132100E+02  0.33365413278E+02  0.51100000000E-03 0. -1.
        -11    1    3    3    0    0  0.25050467793E+00 -0.14855182646E+02  0.93431586046E+00  0.14886643357E+02  0.51100000000E-03 0.  1.
        -12    1    3    3    0    0  0.16589315862E+02  0.14892551739E+02  0.94396599880E+01  0.24209516285E+02  0.00000000000E+00 0.  1.
</event>
<event>
 7    1  0.1789107E-013  0.7246167E+02  0.7816164E-02  0.1226708E+00
        -11   -1    0    0    0    0  0.00000000000E+00  0.00000000000E+00  0.45593999997E+02  0.45594000000E+02  0.51100000000E-03 0.  1.
         11   -1    0    0    0    0 -0.00000000000E+00 -0.00000000000E+00 -0.45593999997E+02  0.45594000000E+02  0.51100000000E-03 0. -1.
    9900012    2    1    2    0    0  0.83323840858E+01  0.68661596443E+01 -0.15300411129E+02  0.72461672183E+02  0.70000132728E+02 0.  0.
        -12    1    1    2    0    0 -0.83323840858E+01 -0.68661596443E+01  0.15300411129E+02  0.18726327817E+02  0.00000000000E+00 0.  1.
         11    1    3    3    0    0  0.13472203034E+02  0.18431125571E+02  0.11875247602E+02  0.25733793935E+02  0.51100000000E-03 0. -1.
        -11    1    3    3    0    0  0.62321781780E+01 -0.15080517125E+02  0.78774482884E+00  0.16336541365E+02  0.51100000000E-03 0.  1.
        -12    1    3    3    0    0 -0.11371997126E+02  0.35155511984E+01 -0.27963403560E+02  0.30391336883E+02  0.00000000000E+00 0.  1.
</event>
<event>
 7    1  0.1789107E-013  0.7246154E+02  0.7816164E-02  0.1226708E+00
        -11   -1    0    0    0    0  0.00000000000E+00  0.00000000000E+00  0.45593999997E+02  0.45594000000E+02  0.51100000000E-03 0. -1.
         11   -1    0    0    0    0 -0.00000000000E+00 -0.00000000000E+00 -0.45593999997E+02  0.45594000000E+02  0.51100000000E-03 0.  1.
    9900012    2    1    2    0    0 -0.14369391359E+02 -0.10032732412E+02 -0.65988887187E+01  0.72461535839E+02  0.69999955115E+02 0.  0.
        -12    1    1    2    0    0  0.14369391359E+02  0.10032732412E+02  0.65988887187E+01  0.18726464161E+02  0.00000000000E+00 0.  1.
         11    1    3    3    0    0  0.75918261863E+01  0.18058951778E+02 -0.75741190365E+01  0.21003067481E+02  0.51100000000E-03 0. -1.
        -11    1    3    3    0    0  0.35364640151E+01 -0.47183716876E+01  0.13451812321E+02  0.14687438990E+02  0.51100000000E-03 0.  1.
        -12    1    3    3    0    0 -0.25497681560E+02 -0.23373312502E+02 -0.12476582003E+02  0.36771029368E+02  0.00000000000E+00 0.  1.
</event>
<event>
 7    1  0.1789107E-013  0.7246155E+02  0.7816164E-02  0.1226708E+00
        -11   -1    0    0    0    0  0.00000000000E+00  0.00000000000E+00  0.45593999997E+02  0.45594000000E+02  0.51100000000E-03 0.  1.
         11   -1    0    0    0    0 -0.00000000000E+00 -0.00000000000E+00 -0.45593999997E+02  0.45594000000E+02  0.51100000000E-03 0. -1.
    9900012    2    1    2    0    0  0.13954943956E+02  0.12391231259E+02 -0.15481660207E+01  0.72461551032E+02  0.69999974907E+02 0.  0.
        -12    1    1    2    0    0 -0.13954943956E+02 -0.12391231259E+02  0.15481660207E+01  0.18726448968E+02  0.00000000000E+00 0.  1.
         11    1    3    3    0    0  0.27508358965E+01 -0.24592559367E+01  0.77955014317E+01  0.86246669920E+01  0.51100000000E-03 0. -1.
        -11    1    3    3    0    0 -0.95746503423E+01 -0.17585996494E+02 -0.14843164503E+02  0.24925102499E+02  0.51100000000E-03 0.  1.
         12    1    3    3    0    0  0.20778758402E+02  0.32436483689E+02  0.54994970507E+01  0.38911781541E+02  0.00000000000E+00 0. -1.
</event>
<event>
 7    1  0.1789107E-013  0.7246158E+02  0.7816164E-02  0.1226708E+00
        -11   -1    0    0    0    0  0.00000000000E+00  0.00000000000E+00  0.45593999997E+02  0.45594000000E+02  0.51100000000E-03 0.  1.
         11   -1    0    0    0    0 -0.00000000000E+00 -0.00000000000E+00 -0.45593999997E+02  0.45594000000E+02  0.51100000000E-03 0. -1.
    9900012    2    1    2    0    0  0.17168588440E+02 -0.52668974305E+01  0.53083098433E+01  0.72461580402E+02  0.70000013167E+02 0.  0.
        -12    1    1    2    0    0 -0.17168588440E+02  0.52668974305E+01 -0.53083098433E+01  0.18726419598E+02  0.00000000000E+00 0.  1.
         11    1    3    3    0    0  0.28878902994E+02 -0.14282950630E+01 -0.45419915932E+00  0.28917768967E+02  0.51100000000E-03 0. -1.
        -11    1    3    3    0    0  0.93632131479E+01 -0.22641344834E+01  0.17052096317E+02  0.19584944587E+02  0.51100000000E-03 0.  1.
        -12    1    3    3    0    0 -0.21073527701E+02 -0.15744678841E+01 -0.11289587314E+02  0.23958866848E+02  0.00000000000E+00 0.  1.
</event>
<event>
 7    1  0.1789107E-013  0.7246173E+02  0.7816164E-02  0.1226708E+00
        -11   -1    0    0    0    0  0.00000000000E+00  0.00000000000E+00  0.45593999997E+02  0.45594000000E+02  0.51100000000E-03 0. -1.
         11   -1    0    0    0    0 -0.00000000000E+00 -0.00000000000E+00 -0.45593999997E+02  0.45594000000E+02  0.51100000000E-03 0.  1.
    9900012    2    1    2    0    0 -0.13626873839E+02 -0.11952314602E+02  0.47035942958E+01  0.72461726632E+02  0.70000203658E+02 0.  0.
        -12    1    1    2    0    0  0.13626873839E+02  0.11952314602E+02 -0.47035942958E+01  0.18726273368E+02  0.00000000000E+00 0.  1.
         11    1    3    3    0    0 -0.13330638352E+02  0.33899261412E+01 -0.18915457678E+02  0.23387861329E+02  0.51100000000E-03 0. -1.
        -11    1    3    3    0    0 -0.33185708758E+01 -0.12064340221E+02 -0.94660314701E+01  0.15689709037E+02  0.51100000000E-03 0.  1.
         12    1    3    3    0    0  0.30223353884E+01 -0.32779005219E+01  0.33085083444E+02  0.33384156265E+02  0.00000000000E+00 0. -1.
</event>
<event>
 7    1  0.1789107E-013  0.7246158E+02  0.7816164E-02  0.1226708E+00
        -11   -1    0    0    0    0  0.00000000000E+00  0.00000000000E+00  0.45593999997E+02  0.45594000000E+02  0.51100000000E-03 0.  1.
         11   -1    0    0    0    0 -0.00000000000E+00 -0.00000000000E+00 -0.45593999997E+02  0.45594000000E+02  0.51100000000E-03 0. -1.
    9900012    2    1    2    0    0 -0.92660941077E+01  0.15472712309E+02 -0.50411777440E+01  0.72461580181E+02  0.70000012879E+02 0.  0.
        -12    1    1    2    0    0  0.92660941077E+01 -0.15472712309E+02  0.50411777440E+01  0.18726419819E+02  0.00000000000E+00 0.  1.
         11    1    3    3    0    0 -0.11106238112E+02  0.63586965469E+01  0.20885639188E+01  0.12967021488E+02  0.51100000000E-03 0. -1.
        -11    1    3    3    0    0  0.14555261919E+02 -0.17716116120E+02  0.10223664563E+02  0.25104576023E+02  0.51100000000E-03 0.  1.
         12    1    3    3    0    0 -0.12715117916E+02  0.26830131882E+02 -0.17353406226E+02  0.34389982670E+02  0.00000000000E+00 0. -1.
</event>
<event>
 7    1  0.1789107E-013  0.7246155E+02  0.7816164E-02  0.1226708E+00
        -11   -1    0    0    0    0  0.00000000000E+00  0.00000000000E+00  0.45593999997E+02  0.45594000000E+02  0.51100000000E-03 0. -1.
         11   -1    0    0    0    0 -0.00000000000E+00 -0.00000000000E+00 -0.45593999997E+02  0.45594000000E+02  0.51100000000E-03 0.  1.
    9900012    2    1    2    0    0  0.99082795261E+01  0.11221005789E+02  0.11251440302E+02  0.72461551246E+02  0.69999975185E+02 0.  0.
        -12    1    1    2    0    0 -0.99082795261E+01 -0.11221005789E+02 -0.11251440302E+02  0.18726448754E+02  0.00000000000E+00 0.  1.
         11    1    3    3    0    0  0.22412433954E+02 -0.36789772110E+01 -0.14168698801E+02  0.26769461986E+02  0.51100000000E-03 0. -1.
        -11    1    3    3    0    0  0.52255258952E+01 -0.59140938633E+01  0.13979539162E+02  0.16053353000E+02  0.51100000000E-03 0.  1.
        -12    1    3    3    0    0 -0.17729680323E+02  0.20814076863E+02  0.11440599941E+02  0.29638736259E+02  0.00000000000E+00 0.  1.
</event>
<event>
 7    1  0.1789107E-013  0.7246143E+02  0.7816164E-02  0.1226708E+00
        -11   -1    0    0    0    0  0.00000000000E+00  0.00000000000E+00  0.45593999997E+02  0.45594000000E+02  0.51100000000E-03 0. -1.
         11   -1    0    0    0    0 -0.00000000000E+00 -0.00000000000E+00 -0.45593999997E+02  0.45594000000E+02  0.51100000000E-03 0.  1.
    9900012    2    1    2    0    0 -0.58762190652E+01 -0.10241510632E+02  0.14534984503E+02  0.72461434244E+02  0.69999822769E+02 0.  0.
        -12    1    1    2    0    0  0.58762190652E+01  0.10241510632E+02 -0.14534984503E+02  0.18726565756E+02  0.00000000000E+00 0.  1.
         11    1    3    3    0    0  0.58804920906E+01 -0.18017472978E+01  0.27607858403E+01  0.67415442792E+01  0.51100000000E-03 0. -1.
        -11    1    3    3    0    0  0.15697257476E+02 -0.19518865676E+02 -0.11977807773E+02  0.27764327632E+02  0.51100000000E-03 0.  1.
         12    1    3    3    0    0 -0.27453968631E+02  0.11079102342E+02  0.23752006435E+02  0.37955562333E+02  0.00000000000E+00 0. -1.
</event>
<event>
 7    1  0.1789107E-013  0.7246159E+02  0.7816164E-02  0.1226708E+00
        -11   -1    0    0    0    0  0.00000000000E+00  0.00000000000E+00  0.45593999997E+02  0.45594000000E+02  0.51100000000E-03 0. -1.
         11   -1    0    0    0    0 -0.00000000000E+00 -0.00000000000E+00 -0.45593999997E+02  0.45594000000E+02  0.51100000000E-03 0.  1.
    9900012    2    1    2    0    0  0.17133588443E+02 -0.79179491193E+00  0.75161016706E+01  0.72461586130E+02  0.70000020629E+02 0.  0.
        -12    1    1    2    0    0 -0.17133588443E+02  0.79179491193E+00 -0.75161016706E+01  0.18726413870E+02  0.00000000000E+00 0.  1.
         11    1    3    3    0    0  0.16143182889E+02  0.88865745723E+01 -0.71312802714E+01  0.19759269217E+02  0.51100000000E-03 0. -1.
        -11    1    3    3    0    0  0.60259518725E+01 -0.34043792183E+00 -0.17678302180E+02  0.18680213119E+02  0.51100000000E-03 0.  1.
         12    1    3    3    0    0 -0.50355463190E+01 -0.93379315624E+01  0.32325684122E+02  0.34022103794E+02  0.00000000000E+00 0. -1.
</event>
<event>
 7    1  0.1789107E-013  0.7246154E+02  0.7816164E-02  0.1226708E+00
        -11   -1    0    0    0    0  0.00000000000E+00  0.00000000000E+00  0.45593999997E+02  0.45594000000E+02  0.51100000000E-03 0.  1.
         11   -1    0    0    0    0 -0.00000000000E+00 -0.00000000000E+00 -0.45593999997E+02  0.45594000000E+02  0.51100000000E-03 0. -1.
    9900012    2    1    2    0    0 -0.62498196514E+01 -0.17374331073E+02 -0.31229475232E+01  0.72461536716E+02  0.69999956258E+02 0.  0.
        -12    1    1    2    0    0  0.62498196514E+01  0.17374331073E+02  0.31229475232E+01  0.18726463284E+02  0.00000000000E+00 0.  1.
         11    1    3    3    0    0 -0.18115078732E+02 -0.82564588707E+01 -0.49180516072E+01  0.20506399548E+02  0.51100000000E-03 0. -1.
        -11    1    3    3    0    0  0.79150462423E+01 -0.28741725059E+02  0.82334424185E+01  0.30927726892E+02  0.51100000000E-03 0.  1.
         12    1    3    3    0    0  0.39502128379E+01  0.19623852857E+02 -0.64383383344E+01  0.21027410276E+02  0.00000000000E+00 0. -1.
</event>
<event>
 7    1  0.1789107E-013  0.7246158E+02  0.7816164E-02  0.1226708E+00
        -11   -1    0    0    0    0  0.00000000000E+00  0.00000000000E+00  0.45593999997E+02  0.45594000000E+02  0.51100000000E-03 0. -1.
         11   -1    0    0    0    0 -0.00000000000E+00 -0.00000000000E+00 -0.45593999997E+02  0.45594000000E+02  0.51100000000E-03 0.  1.
    9900012    2    1    2    0    0 -0.57017122114E+01  0.15459806229E+02 -0.88973998839E+01  0.72461578680E+02  0.70000010923E+02 0.  0.
        -12    1    1    2    0    0  0.57017122114E+01 -0.15459806229E+02  0.88973998839E+01  0.18726421320E+02  0.00000000000E+00 0.  1.
         11    1    3    3    0    0 -0.21972402022E+02  0.57275127988E+01 -0.12332593954E+02  0.25839576765E+02  0.51100000000E-03 0. -1.
        -11    1    3    3    0    0  0.13825843638E+02  0.11815516055E+02 -0.17620474640E+02  0.25322746667E+02  0.51100000000E-03 0.  1.
         12    1    3    3    0    0  0.24448461728E+01 -0.20832226246E+01  0.21055668710E+02  0.21299255248E+02  0.00000000000E+00 0. -1.
</event>
<event>
 7    1  0.1789107E-013  0.7246154E+02  0.7816164E-02  0.1226708E+00
        -11   -1    0    0    0    0  0.00000000000E+00  0.00000000000E+00  0.45593999997E+02  0.45594000000E+02  0.51100000000E-03 0.  1.
         11   -1    0    0    0    0 -0.00000000000E+00 -0.00000000000E+00 -0.45593999997E+02  0.45594000000E+02  0.51100000000E-03 0. -1.
    9900012    2    1    2    0    0 -0.71164578967E+00 -0.13213667551E+02 -0.13250394748E+02  0.72461537150E+02  0.69999956824E+02 0.  0.
        -12    1    1    2    0    0  0.71164578967E+00  0.13213667551E+02  0.13250394748E+02  0.18726462850E+02  0.00000000000E+00 0.  1.
         11    1    3    3    0    0 -0.16039924234E+02 -0.13247150552E+02 -0.22519525909E+02  0.30657710525E+02  0.51100000000E-03 0. -1.
        -11    1    3    3    0    0  0.34297296321E+01 -0.18065717406E+02  0.38444790301E+00  0.18392416676E+02  0.51100000000E-03 0.  1.
         12    1    3    3    0    0  0.11898548813E+02  0.18099200407E+02  0.88846832582E+01  0.23411409949E+02  0.00000000000E+00 0. -1.
</event>
<event>
 7    1  0.1789107E-013  0.7246156E+02  0.7816164E-02  0.1226708E+00
        -11   -1    0    0    0    0  0.00000000000E+00  0.00000000000E+00  0.45593999997E+02  0.45594000000E+02  0.51100000000E-03 0. -1.
         11   -1    0    0    0    0 -0.00000000000E+00 -0.00000000000E+00 -0.45593999997E+02  0.45594000000E+02  0.51100000000E-03 0.  1.
    9900012    2    1    2    0    0 -0.97977389172E+01 -0.86223416557E+01  0.13429041405E+02  0.72461558358E+02  0.69999984451E+02 0.  0.
        -12    1    1    2    0    0  0.97977389172E+01  0.86223416557E+01 -0.13429041405E+02  0.18726441642E+02  0.00000000000E+00 0.  1.
         11    1    3    3    0    0  0.14833405792E+01 -0.91885711435E+01 -0.11899952535E+02  0.15107581194E+02  0.51100000000E-03 0. -1.
        -11    1    3    3    0    0  0.16790258999E+02  0.63674149580E+01 -0.15949121467E+01  0.18027770676E+02  0.51100000000E-03 0.  1.
         12    1    3    3    0    0 -0.28071338496E+02 -0.58011854701E+01  0.26923906087E+02  0.39326206488E+02  0.00000000000E+00 0. -1.
</event>
<event>
 7    1  0.1789107E-013  0.7246164E+02  0.7816164E-02  0.1226708E+00
        -11   -1    0    0    0    0  0.00000000000E+00  0.00000000000E+00  0.45593999997E+02  0.45594000000E+02  0.51100000000E-03 0. -1.
         11   -1    0    0    0    0 -0.00000000000E+00 -0.00000000000E+00 -0.45593999997E+02  0.45594000000E+02  0.51100000000E-03 0.  1.
    9900012    2    1    2    0    0 -0.13508635398E+01  0.32358997033E+00  0.18674769204E+02  0.72461640301E+02  0.70000091197E+02 0.  0.
        -12    1    1    2    0    0  0.13508635398E+01 -0.32358997033E+00 -0.18674769204E+02  0.18726359699E+02  0.00000000000E+00 0.  1.
         11    1    3    3    0    0 -0.20882619514E+02 -0.14325996854E+02 -0.76448118419E+01  0.26452998544E+02  0.51100000000E-03 0. -1.
        -11    1    3    3    0    0  0.23493539658E+00 -0.75721362575E+01  0.20141977460E+01  0.78389689988E+01  0.51100000000E-03 0.  1.
        -12    1    3    3    0    0  0.19296820577E+02  0.22221723082E+02  0.24305383299E+02  0.38169672758E+02  0.00000000000E+00 0.  1.
</event>
<event>
 7    1  0.1789107E-013  0.7246165E+02  0.7816164E-02  0.1226708E+00
        -11   -1    0    0    0    0  0.00000000000E+00  0.00000000000E+00  0.45593999997E+02  0.45594000000E+02  0.51100000000E-03 0. -1.
         11   -1    0    0    0    0 -0.00000000000E+00 -0.00000000000E+00 -0.45593999997E+02  0.45594000000E+02  0.51100000000E-03 0.  1.
    9900012    2    1    2    0    0 -0.16673217172E+02  0.76022176181E+01 -0.38582860503E+01  0.72461648117E+02  0.70000101379E+02 0.  0.
        -12    1    1    2    0    0  0.16673217172E+02 -0.76022176181E+01  0.38582860503E+01  0.18726351883E+02  0.00000000000E+00 0.  1.
         11    1    3    3    0    0  0.11179939050E+02 -0.55226804787E+01  0.44594123523E+01  0.13243013087E+02  0.51100000000E-03 0.  1.
        -11    1    3    3    0    0 -0.17742851568E+02  0.21847869509E+02 -0.25141906516E+02  0.37739285200E+02  0.51100000000E-03 0. -1.
         12    1    3    3    0    0 -0.10110304655E+02 -0.87229714126E+01  0.16824208114E+02  0.21479349830E+02  0.00000000000E+00 0. -1.
</event>
<event>
 7    1  0.1789107E-013  0.7246161E+02  0.7816164E-02  0.1226708E+00
        -11   -1    0    0    0    0  0.00000000000E+00  0.00000000000E+00  0.45593999997E+02  0.45594000000E+02  0.51100000000E-03 0.  1.
         11   -1    0    0    0    0 -0.00000000000E+00 -0.00000000000E+00 -0.45593999997E+02  0.45594000000E+02  0.51100000000E-03 0. -1.
    9900012    2    1    2    0    0 -0.27153124676E+01  0.16963739690E+02  0.74522743336E+01  0.72461607426E+02  0.70000048371E+02 0.  0.
        -12    1    1    2    0    0  0.27153124676E+01 -0.16963739690E+02 -0.74522743336E+01  0.18726392574E+02  0.00000000000E+00 0.  1.
         11    1    3    3    0    0  0.22205904492E+02 -0.33574061302E+01 -0.15514399226E+02  0.27295987871E+02  0.51100000000E-03 0. -1.
        -11    1    3    3    0    0 -0.40019867396E+01 -0.40056656729E+01  0.79001963441E+01  0.97197920700E+01  0.51100000000E-03 0.  1.
        -12    1    3    3    0    0 -0.20919230220E+02  0.24326811494E+02  0.15066477216E+02  0.35445827485E+02  0.00000000000E+00 0.  1.
</event>
<event>
 7    1  0.1789107E-013  0.7246161E+02  0.7816164E-02  0.1226708E+00
        -11   -1    0    0    0    0  0.00000000000E+00  0.00000000000E+00  0.45593999997E+02  0.45594000000E+02  0.51100000000E-03 0.  1.
         11   -1    0    0    0    0 -0.00000000000E+00 -0.00000000000E+00 -0.45593999997E+02  0.45594000000E+02  0.51100000000E-03 0. -1.
    9900012    2    1    2    0    0 -0.13155189349E+02 -0.54601838086E+01 -0.12157517035E+02  0.72461605940E+02  0.70000046435E+02 0.  0.
        -12    1    1    2    0    0  0.13155189349E+02  0.54601838086E+01  0.12157517035E+02  0.18726394060E+02  0.00000000000E+00 0.  1.
         11    1    3    3    0    0 -0.80859270194E+01 -0.92624753164E+01  0.50816518285E+01  0.13304091488E+02  0.51100000000E-03 0. -1.
        -11    1    3    3    0    0  0.13767655940E+02  0.21270155461E+02  0.42178335791E+01  0.25685754492E+02  0.51100000000E-03 0.  1.
         12    1    3    3    0    0 -0.18836918270E+02 -0.17467863954E+02 -0.21457002443E+02  0.33471759960E+02  0.00000000000E+00 0. -1.
</event>
<event>
 7    1  0.3260371E-013  0.7246180E+02  0.7816164E-02  0.1226707E+00
        -11   -1    0    0    0    0  0.00000000000E+00  0.00000000000E+00  0.45593999997E+02  0.45594000000E+02  0.51100000000E-03 0. -1.
         11   -1    0    0    0    0 -0.00000000000E+00 -0.00000000000E+00 -0.45593999997E+02  0.45594000000E+02  0.51100000000E-03 0.  1.
    9900012    2    1    2    0    0 -0.77908450380E+01  0.84119072318E+01  0.14805844469E+02  0.72461802305E+02  0.70000302236E+02 0.  0.
        -12    1    1    2    0    0  0.77908450380E+01 -0.84119072318E+01 -0.14805844469E+02  0.18726197695E+02  0.00000000000E+00 0.  1.
         11    1    3    3    0    0 -0.36973584371E+01  0.21108726016E+02  0.27812623915E+02  0.35111121069E+02  0.51100000000E-03 0. -1.
        -11    1    3    3    0    0  0.82012621740E+01  0.47409048979E+01  0.37831215507E+01  0.10200435747E+02  0.51100000000E-03 0.  1.
        -12    1    3    3    0    0 -0.12294748775E+02 -0.17437723682E+02 -0.16789900997E+02  0.27150245489E+02  0.00000000000E+00 0.  1.
</event>
<event>
 7    1  0.1789107E-013  0.7246149E+02  0.7816164E-02  0.1226708E+00
        -11   -1    0    0    0    0  0.00000000000E+00  0.00000000000E+00  0.45593999997E+02  0.45594000000E+02  0.51100000000E-03 0.  1.
         11   -1    0    0    0    0 -0.00000000000E+00 -0.00000000000E+00 -0.45593999997E+02  0.45594000000E+02  0.51100000000E-03 0. -1.
    9900012    2    1    2    0    0  0.33361571689E+01  0.15048268905E+02  0.10634935355E+02  0.72461489602E+02  0.69999894883E+02 0.  0.
        -12    1    1    2    0    0 -0.33361571689E+01 -0.15048268905E+02 -0.10634935355E+02  0.18726510398E+02  0.00000000000E+00 0.  1.
         11    1    3    3    0    0 -0.15067144143E+02  0.20507292278E+01  0.26656436654E+02  0.30688596226E+02  0.51100000000E-03 0. -1.
        -11    1    3    3    0    0  0.87401144893E+01 -0.15653850096E+01  0.80774313338E+01  0.12003538175E+02  0.51100000000E-03 0.  1.
        -12    1    3    3    0    0  0.96631868226E+01  0.14562924686E+02 -0.24098932633E+02  0.29769355200E+02  0.00000000000E+00 0.  1.
</event>
<event>
 7    1  0.1789107E-013  0.7246149E+02  0.7816164E-02  0.1226708E+00
        -11   -1    0    0    0    0  0.00000000000E+00  0.00000000000E+00  0.45593999997E+02  0.45594000000E+02  0.51100000000E-03 0.  1.
         11   -1    0    0    0    0 -0.00000000000E+00 -0.00000000000E+00 -0.45593999997E+02  0.45594000000E+02  0.51100000000E-03 0. -1.
    9900012    2    1    2    0    0 -0.10856748465E+02 -0.12874349923E+00 -0.15257671748E+02  0.72461491802E+02  0.69999897749E+02 0.  0.
        -12    1    1    2    0    0  0.10856748465E+02  0.12874349923E+00  0.15257671748E+02  0.18726508198E+02  0.00000000000E+00 0.  1.
         11    1    3    3    0    0 -0.56876961466E+01 -0.14632119716E+02  0.18070878111E+02  0.23937532262E+02  0.51100000000E-03 0. -1.
        -11    1    3    3    0    0 -0.45145576803E+00  0.10438513239E+02  0.36174910543E+01  0.11056790346E+02  0.51100000000E-03 0.  1.
         12    1    3    3    0    0 -0.47175965502E+01  0.40648629776E+01 -0.36946040913E+02  0.37467169194E+02  0.00000000000E+00 0. -1.
</event>
<event>
 7    1  0.1789107E-013  0.7246158E+02  0.7816164E-02  0.1226708E+00
        -11   -1    0    0    0    0  0.00000000000E+00  0.00000000000E+00  0.45593999997E+02  0.45594000000E+02  0.51100000000E-03 0.  1.
         11   -1    0    0    0    0 -0.00000000000E+00 -0.00000000000E+00 -0.45593999997E+02  0.45594000000E+02  0.51100000000E-03 0. -1.
    9900012    2    1    2    0    0  0.86634549908E+01  0.15835406273E+02 -0.49862970168E+01  0.72461582773E+02  0.70000016256E+02 0.  0.
        -12    1    1    2    0    0 -0.86634549908E+01 -0.15835406273E+02  0.49862970168E+01  0.18726417227E+02  0.00000000000E+00 0.  1.
         11    1    3    3    0    0  0.86059341898E+01 -0.13995747657E+02  0.37309729712E+01  0.16848240719E+02  0.51100000000E-03 0. -1.
        -11    1    3    3    0    0  0.35742603689E+01  0.69301901892E+01  0.18377280598E+02  0.19963148942E+02  0.51100000000E-03 0.  1.
         12    1    3    3    0    0 -0.35167395679E+01  0.22900963741E+02 -0.27094550586E+02  0.35650193112E+02  0.00000000000E+00 0. -1.
</event>
<event>
 7    1  0.1789107E-013  0.7246157E+02  0.7816164E-02  0.1226708E+00
        -11   -1    0    0    0    0  0.00000000000E+00  0.00000000000E+00  0.45593999997E+02  0.45594000000E+02  0.51100000000E-03 0.  1.
         11   -1    0    0    0    0 -0.00000000000E+00 -0.00000000000E+00 -0.45593999997E+02  0.45594000000E+02  0.51100000000E-03 0. -1.
    9900012    2    1    2    0    0 -0.15256002880E+02  0.10842709712E+02  0.60772655644E+00  0.72461566561E+02  0.69999995137E+02 0.  0.
        -12    1    1    2    0    0  0.15256002880E+02 -0.10842709712E+02 -0.60772655644E+00  0.18726433439E+02  0.00000000000E+00 0.  1.
         11    1    3    3    0    0  0.57971659008E+01  0.85461141081E+01  0.21253508550E+02  0.23629532894E+02  0.51100000000E-03 0. -1.
        -11    1    3    3    0    0  0.31179612123E+01 -0.10941307862E+02  0.37986707067E+01  0.11994323626E+02  0.51100000000E-03 0.  1.
         12    1    3    3    0    0 -0.24171129993E+02  0.13237903465E+02 -0.24444452701E+02  0.36837710042E+02  0.00000000000E+00 0. -1.
</event>
<event>
 7    1  0.1789107E-013  0.7246155E+02  0.7816164E-02  0.1226708E+00
        -11   -1    0    0    0    0  0.00000000000E+00  0.00000000000E+00  0.45593999997E+02  0.45594000000E+02  0.51100000000E-03 0. -1.
         11   -1    0    0    0    0 -0.00000000000E+00 -0.00000000000E+00 -0.45593999997E+02  0.45594000000E+02  0.51100000000E-03 0.  1.
    9900012    2    1    2    0    0 -0.16610151888E+02  0.69744371571E+01  0.51127160588E+01  0.72461553864E+02  0.69999978596E+02 0.  0.
        -12    1    1    2    0    0  0.16610151888E+02 -0.69744371571E+01 -0.51127160588E+01  0.18726446136E+02  0.00000000000E+00 0.  1.
         11    1    3    3    0    0  0.37658853332E+01  0.46577224543E+01 -0.37129114138E+01  0.70471258136E+01  0.51100000000E-03 0. -1.
        -11    1    3    3    0    0  0.82521088238E+01 -0.23469401256E+02 -0.31275318080E+01  0.25073722317E+02  0.51100000000E-03 0.  1.
         12    1    3    3    0    0 -0.28628146045E+02  0.25786115959E+02  0.11953159281E+02  0.40340705733E+02  0.00000000000E+00 0. -1.
</event>
<event>
 7    1  0.1789107E-013  0.7246155E+02  0.7816164E-02  0.1226708E+00
        -11   -1    0    0    0    0  0.00000000000E+00  0.00000000000E+00  0.45593999997E+02  0.45594000000E+02  0.51100000000E-03 0.  1.
         11   -1    0    0    0    0 -0.00000000000E+00 -0.00000000000E+00 -0.45593999997E+02  0.45594000000E+02  0.51100000000E-03 0. -1.
    9900012    2    1    2    0    0 -0.16405054079E+02 -0.66151105760E+01 -0.61477044032E+01  0.72461554617E+02  0.69999979577E+02 0.  0.
        -12    1    1    2    0    0  0.16405054079E+02  0.66151105760E+01  0.61477044032E+01  0.18726445383E+02  0.00000000000E+00 0.  1.
         11    1    3    3    0    0  0.35155755527E+01 -0.11064619346E+02  0.23122860207E+01  0.11837725273E+02  0.51100000000E-03 0. -1.
        -11    1    3    3    0    0 -0.89703765124E+01 -0.49766873059E+01  0.23449720869E+02  0.25595399595E+02  0.51100000000E-03 0.  1.
         12    1    3    3    0    0 -0.10950253119E+02  0.94261960757E+01 -0.31909711293E+02  0.35028429749E+02  0.00000000000E+00 0. -1.
</event>
<event>
 7    1  0.1789107E-013  0.7246146E+02  0.7816164E-02  0.1226708E+00
        -11   -1    0    0    0    0  0.00000000000E+00  0.00000000000E+00  0.45593999997E+02  0.45594000000E+02  0.51100000000E-03 0.  1.
         11   -1    0    0    0    0 -0.00000000000E+00 -0.00000000000E+00 -0.45593999997E+02  0.45594000000E+02  0.51100000000E-03 0. -1.
    9900012    2    1    2    0    0  0.36651100417E+01 -0.77104359726E+01 -0.16667318922E+02  0.72461458020E+02  0.69999853741E+02 0.  0.
        -12    1    1    2    0    0 -0.36651100417E+01  0.77104359726E+01  0.16667318922E+02  0.18726541980E+02  0.00000000000E+00 0.  1.
         11    1    3    3    0    0  0.11537238869E+02  0.16642302076E+02 -0.11720500052E+02  0.23397525955E+02  0.51100000000E-03 0. -1.
        -11    1    3    3    0    0  0.84265254803E+01  0.38429450769E+01  0.96496642028E+01  0.13374998244E+02  0.51100000000E-03 0.  1.
         12    1    3    3    0    0 -0.16298654307E+02 -0.28195683126E+02 -0.14596483073E+02  0.35688933820E+02  0.00000000000E+00 0. -1.
</event>
<event>
 7    1  0.1789107E-013  0.7246153E+02  0.7816164E-02  0.1226708E+00
        -11   -1    0    0    0    0  0.00000000000E+00  0.00000000000E+00  0.45593999997E+02  0.45594000000E+02  0.51100000000E-03 0.  1.
         11   -1    0    0    0    0 -0.00000000000E+00 -0.00000000000E+00 -0.45593999997E+02  0.45594000000E+02  0.51100000000E-03 0. -1.
    9900012    2    1    2    0    0 -0.18669979009E+02  0.14519768485E+01 -0.67028896421E-01  0.72461525537E+02  0.69999941695E+02 0.  0.
        -12    1    1    2    0    0  0.18669979009E+02 -0.14519768485E+01  0.67028896421E-01  0.18726474463E+02  0.00000000000E+00 0.  1.
         11    1    3    3    0    0 -0.20587777862E+02 -0.22599953829E+02 -0.67943229292E+01  0.31317364747E+02  0.51100000000E-03 0. -1.
        -11    1    3    3    0    0 -0.14750904437E+02  0.65045725898E+01  0.50056617262E+01  0.16880618942E+02  0.51100000000E-03 0.  1.
        -12    1    3    3    0    0  0.16668703290E+02  0.17547358088E+02  0.17216323066E+01  0.24263541848E+02  0.00000000000E+00 0.  1.
</event>
<event>
 7    1  0.1789107E-013  0.7246158E+02  0.7816164E-02  0.1226708E+00
        -11   -1    0    0    0    0  0.00000000000E+00  0.00000000000E+00  0.45593999997E+02  0.45594000000E+02  0.51100000000E-03 0. -1.
         11   -1    0    0    0    0 -0.00000000000E+00 -0.00000000000E+00 -0.45593999997E+02  0.45594000000E+02  0.51100000000E-03 0.  1.
    9900012    2    1    2    0    0 -0.22487018694E+01  0.17432215232E+02  0.64606492482E+01  0.72461580783E+02  0.70000013663E+02 0.  0.
        -12    1    1    2    0    0  0.22487018694E+01 -0.17432215232E+02 -0.64606492482E+01  0.18726419217E+02  0.00000000000E+00 0.  1.
         11    1    3    3    0    0 -0.13964931891E+02  0.31587310679E+02 -0.16707372043E+01  0.34576999316E+02  0.51100000000E-03 0. -1.
        -11    1    3    3    0    0 -0.10870272433E+02 -0.37034705410E+01  0.58630444117E+01  0.12893944581E+02  0.51100000000E-03 0.  1.
        -12    1    3    3    0    0  0.22586502455E+02 -0.10451624906E+02  0.22683420409E+01  0.24990636885E+02  0.00000000000E+00 0.  1.
</event>
<event>
 7    1  0.1789107E-013  0.7246153E+02  0.7816164E-02  0.1226708E+00
        -11   -1    0    0    0    0  0.00000000000E+00  0.00000000000E+00  0.45593999997E+02  0.45594000000E+02  0.51100000000E-03 0. -1.
         11   -1    0    0    0    0 -0.00000000000E+00 -0.00000000000E+00 -0.45593999997E+02  0.45594000000E+02  0.51100000000E-03 0.  1.
    9900012    2    1    2    0    0  0.63669182504E+01  0.17481055505E+02  0.21344002582E+01  0.72461531726E+02  0.69999949757E+02 0.  0.
        -12    1    1    2    0    0 -0.63669182504E+01 -0.17481055505E+02 -0.21344002582E+01  0.18726468274E+02  0.00000000000E+00 0.  1.
         11    1    3    3    0    0  0.27631800115E+01  0.10193724519E+02 -0.10719051192E+02  0.15048097623E+02  0.51100000000E-03 0. -1.
        -11    1    3    3    0    0  0.14286537946E+02  0.23741516806E+01 -0.18750899183E+02  0.23692572320E+02  0.51100000000E-03 0.  1.
        -12    1    3    3    0    0 -0.10682799707E+02  0.49131793048E+01  0.31604350633E+02  0.33720861783E+02  0.00000000000E+00 0.  1.
</event>
<event>
 7    1  0.1789107E-013  0.7246158E+02  0.7816164E-02  0.1226708E+00
        -11   -1    0    0    0    0  0.00000000000E+00  0.00000000000E+00  0.45593999997E+02  0.45594000000E+02  0.51100000000E-03 0.  1.
         11   -1    0    0    0    0 -0.00000000000E+00 -0.00000000000E+00 -0.45593999997E+02  0.45594000000E+02  0.51100000000E-03 0. -1.
    9900012    2    1    2    0    0 -0.15768334774E+02  0.95657887187E+01 -0.32456414360E+01  0.72461577926E+02  0.70000009942E+02 0.  0.
        -12    1    1    2    0    0  0.15768334774E+02 -0.95657887187E+01  0.32456414360E+01  0.18726422074E+02  0.00000000000E+00 0.  1.
         11    1    3    3    0    0 -0.67558047300E+01  0.11165803448E+01  0.12698446871E+02  0.14426995613E+02  0.51100000000E-03 0. -1.
        -11    1    3    3    0    0  0.15630041918E+02 -0.98917220285E+01  0.69111508860E+01  0.19746097890E+02  0.51100000000E-03 0.  1.
         12    1    3    3    0    0 -0.24642571962E+02  0.18340930402E+02 -0.22855239193E+02  0.38288484424E+02  0.00000000000E+00 0. -1.
</event>
<event>
 7    1  0.1789107E-013  0.7246160E+02  0.7816164E-02  0.1226708E+00
        -11   -1    0    0    0    0  0.00000000000E+00  0.00000000000E+00  0.45593999997E+02  0.45594000000E+02  0.51100000000E-03 0.  1.
         11   -1    0    0    0    0 -0.00000000000E+00 -0.00000000000E+00 -0.45593999997E+02  0.45594000000E+02  0.51100000000E-03 0. -1.
    9900012    2    1    2    0    0  0.74360650410E+01 -0.65315287943E+01 -0.15897235171E+02  0.72461601047E+02  0.70000040060E+02 0.  0.
        -12    1    1    2    0    0 -0.74360650410E+01  0.65315287943E+01  0.15897235171E+02  0.18726398953E+02  0.00000000000E+00 0.  1.
         11    1    3    3    0    0 -0.30096132533E+01  0.31743323970E+01  0.14048767309E+01  0.45943266091E+01  0.51100000000E-03 0. -1.
        -11    1    3    3    0    0 -0.71532557013E+01  0.23429416346E+02 -0.17905903096E+02  0.30343499853E+02  0.51100000000E-03 0.  1.
         12    1    3    3    0    0  0.17598933996E+02 -0.33135277537E+02  0.60379119374E+00  0.37523774584E+02  0.00000000000E+00 0. -1.
</event>
<event>
 7    1  0.1789107E-013  0.7246117E+02  0.7816164E-02  0.1226709E+00
        -11   -1    0    0    0    0  0.00000000000E+00  0.00000000000E+00  0.45593999997E+02  0.45594000000E+02  0.51100000000E-03 0.  1.
         11   -1    0    0    0    0 -0.00000000000E+00 -0.00000000000E+00 -0.45593999997E+02  0.45594000000E+02  0.51100000000E-03 0. -1.
    9900012    2    1    2    0    0  0.29619589259E+01 -0.16944024198E+02 -0.74041117102E+01  0.72461173603E+02  0.69999483234E+02 0.  0.
        -12    1    1    2    0    0 -0.29619589259E+01  0.16944024198E+02  0.74041117102E+01  0.18726826397E+02  0.00000000000E+00 0.  1.
         11    1    3    3    0    0 -0.89935834470E+01  0.45242032944E+01 -0.87665795349E+00  0.10105517705E+02  0.51100000000E-03 0. -1.
        -11    1    3    3    0    0 -0.18898588992E+02  0.20712270633E+01 -0.12972380252E+02  0.23015848824E+02  0.51100000000E-03 0.  1.
        -12    1    3    3    0    0  0.30854131365E+02 -0.23539454555E+02  0.64449264950E+01  0.39339807073E+02  0.00000000000E+00 0.  1.
</event>
<event>
 7    1  0.1789107E-013  0.7246156E+02  0.7816164E-02  0.1226708E+00
        -11   -1    0    0    0    0  0.00000000000E+00  0.00000000000E+00  0.45593999997E+02  0.45594000000E+02  0.51100000000E-03 0.  1.
         11   -1    0    0    0    0 -0.00000000000E+00 -0.00000000000E+00 -0.45593999997E+02  0.45594000000E+02  0.51100000000E-03 0. -1.
    9900012    2    1    2    0    0  0.13098589532E+02 -0.12775358000E+02 -0.39870880055E+01  0.72461556383E+02  0.69999981879E+02 0.  0.
        -12    1    1    2    0    0 -0.13098589532E+02  0.12775358000E+02  0.39870880055E+01  0.18726443617E+02  0.00000000000E+00 0.  1.
         11    1    3    3    0    0 -0.33248779558E+01  0.22835782318E+01 -0.13484608866E+02  0.14074950071E+02  0.51100000000E-03 0. -1.
        -11    1    3    3    0    0 -0.12929538501E+02 -0.22928410470E+02 -0.69908845177E+00  0.26331990002E+02  0.51100000000E-03 0.  1.
         12    1    3    3    0    0  0.29353005989E+02  0.78694742384E+01  0.10196609312E+02  0.32054616311E+02  0.00000000000E+00 0. -1.
</event>
<event>
 7    1  0.1789107E-013  0.7246157E+02  0.7816164E-02  0.1226708E+00
        -11   -1    0    0    0    0  0.00000000000E+00  0.00000000000E+00  0.45593999997E+02  0.45594000000E+02  0.51100000000E-03 0.  1.
         11   -1    0    0    0    0 -0.00000000000E+00 -0.00000000000E+00 -0.45593999997E+02  0.45594000000E+02  0.51100000000E-03 0. -1.
    9900012    2    1    2    0    0  0.21266923376E+01  0.44387228414E+01 -0.18068043355E+02  0.72461567573E+02  0.69999996454E+02 0.  0.
        -12    1    1    2    0    0 -0.21266923376E+01 -0.44387228414E+01  0.18068043355E+02  0.18726432427E+02  0.00000000000E+00 0.  1.
         11    1    3    3    0    0 -0.86812806837E+01  0.20516116795E+02 -0.16484698979E+02  0.27713191504E+02  0.51100000000E-03 0. -1.
        -11    1    3    3    0    0  0.14299174030E+02  0.10067501882E+02 -0.49062420876E+01  0.18162934338E+02  0.51100000000E-03 0.  1.
        -12    1    3    3    0    0 -0.34912010092E+01 -0.26144895836E+02  0.33228977112E+01  0.26585441730E+02  0.00000000000E+00 0.  1.
</event>
<event>
 7    1  0.1789107E-013  0.7246159E+02  0.7816164E-02  0.1226708E+00
        -11   -1    0    0    0    0  0.00000000000E+00  0.00000000000E+00  0.45593999997E+02  0.45594000000E+02  0.51100000000E-03 0. -1.
         11   -1    0    0    0    0 -0.00000000000E+00 -0.00000000000E+00 -0.45593999997E+02  0.45594000000E+02  0.51100000000E-03 0.  1.
    9900012    2    1    2    0    0 -0.10005187439E+02 -0.76556089809E+01  0.13855197242E+02  0.72461585095E+02  0.70000019281E+02 0.  0.
        -12    1    1    2    0    0  0.10005187439E+02  0.76556089809E+01 -0.13855197242E+02  0.18726414905E+02  0.00000000000E+00 0.  1.
         11    1    3    3    0    0 -0.27348274181E+01 -0.54263517197E+01 -0.79152591079E+01  0.99787725197E+01  0.51100000000E-03 0. -1.
        -11    1    3    3    0    0  0.18955786664E+02 -0.13884914413E+02 -0.40905579997E+01  0.23850479268E+02  0.51100000000E-03 0.  1.
         12    1    3    3    0    0 -0.26226146685E+02  0.11655657152E+02  0.25861014350E+02  0.38632333308E+02  0.00000000000E+00 0. -1.
</event>
<event>
 7    1  0.1789107E-013  0.7246160E+02  0.7816164E-02  0.1226708E+00
        -11   -1    0    0    0    0  0.00000000000E+00  0.00000000000E+00  0.45593999997E+02  0.45594000000E+02  0.51100000000E-03 0.  1.
         11   -1    0    0    0    0 -0.00000000000E+00 -0.00000000000E+00 -0.45593999997E+02  0.45594000000E+02  0.51100000000E-03 0. -1.
    9900012    2    1    2    0    0 -0.78450643081E+01 -0.41510295818E+01 -0.16489451119E+02  0.72461599417E+02  0.70000037938E+02 0.  0.
        -12    1    1    2    0    0  0.78450643081E+01  0.41510295818E+01  0.16489451119E+02  0.18726400583E+02  0.00000000000E+00 0.  1.
         11    1    3    3    0    0  0.20279738513E+02  0.14460652672E+02 -0.82547272547E+00  0.24921068905E+02  0.51100000000E-03 0. -1.
        -11    1    3    3    0    0  0.56449643974E+01 -0.57402753368E+00 -0.55609293741E+01  0.79447508723E+01  0.51100000000E-03 0.  1.
        -12    1    3    3    0    0 -0.33769767219E+02 -0.18037654720E+02 -0.10103049019E+02  0.39595779640E+02  0.00000000000E+00 0.  1.
</event>
<event>
 7    1  0.1789107E-013  0.7246157E+02  0.7816164E-02  0.1226708E+00
        -11   -1    0    0    0    0  0.00000000000E+00  0.00000000000E+00  0.45593999997E+02  0.45594000000E+02  0.51100000000E-03 0. -1.
         11   -1    0    0    0    0 -0.00000000000E+00 -0.00000000000E+00 -0.45593999997E+02  0.45594000000E+02  0.51100000000E-03 0.  1.
    9900012    2    1    2    0    0 -0.12403603961E+01 -0.76873481275E+00  0.18669490518E+02  0.72461566188E+02  0.69999994651E+02 0.  0.
        -12    1    1    2    0    0  0.12403603961E+01  0.76873481275E+00 -0.18669490518E+02  0.18726433812E+02  0.00000000000E+00 0.  1.
         11    1    3    3    0    0  0.22340549427E+02 -0.18119866487E+02  0.65905469583E+01  0.29510422221E+02  0.51100000000E-03 0. -1.
        -11    1    3    3    0    0 -0.55109642146E-01 -0.70127349963E+01  0.42139787472E+01  0.81816322543E+01  0.51100000000E-03 0.  1.
        -12    1    3    3    0    0 -0.23525800181E+02  0.24363866670E+02  0.78649648123E+01  0.34769511713E+02  0.00000000000E+00 0.  1.
</event>
<event>
 7    1  0.1789107E-013  0.7246162E+02  0.7816164E-02  0.1226708E+00
        -11   -1    0    0    0    0  0.00000000000E+00  0.00000000000E+00  0.45593999997E+02  0.45594000000E+02  0.51100000000E-03 0.  1.
         11   -1    0    0    0    0 -0.00000000000E+00 -0.00000000000E+00 -0.45593999997E+02  0.45594000000E+02  0.51100000000E-03 0. -1.
    9900012    2    1    2    0    0 -0.22072815056E+01 -0.16514519559E+02 -0.85484331201E+01  0.72461624037E+02  0.70000070009E+02 0.  0.
        -12    1    1    2    0    0  0.22072815056E+01  0.16514519559E+02  0.85484331201E+01  0.18726375963E+02  0.00000000000E+00 0.  1.
         11    1    3    3    0    0  0.33495485924E+02 -0.13067322354E+02 -0.58484373743E+01  0.36426730718E+02  0.51100000000E-03 0. -1.
        -11    1    3    3    0    0 -0.11153639516E+02 -0.19487677841E+01 -0.13539783787E+01  0.11403272690E+02  0.51100000000E-03 0.  1.
        -12    1    3    3    0    0 -0.24549127914E+02 -0.14984294209E+01 -0.13460173671E+01  0.24631620629E+02  0.00000000000E+00 0.  1.
</event>
<event>
 7    1  0.1789107E-013  0.7246156E+02  0.7816164E-02  0.1226708E+00
        -11   -1    0    0    0    0  0.00000000000E+00  0.00000000000E+00  0.45593999997E+02  0.45594000000E+02  0.51100000000E-03 0.  1.
         11   -1    0    0    0    0 -0.00000000000E+00 -0.00000000000E+00 -0.45593999997E+02  0.45594000000E+02  0.51100000000E-03 0. -1.
    9900012    2    1    2    0    0  0.83725707522E+01 -0.15874764298E+02 -0.53452233755E+01  0.72461561592E+02  0.69999988664E+02 0.  0.
        -12    1    1    2    0    0 -0.83725707522E+01  0.15874764298E+02  0.53452233755E+01  0.18726438408E+02  0.00000000000E+00 0.  1.
         11    1    3    3    0    0 -0.88351303941E+01  0.24031965863E+00 -0.22582009066E+02  0.24250039512E+02  0.51100000000E-03 0. -1.
        -11    1    3    3    0    0  0.32295059978E+01 -0.95745559935E+01 -0.11673914623E+02  0.15439628051E+02  0.51100000000E-03 0.  1.
        -12    1    3    3    0    0  0.13978195149E+02 -0.65405279628E+01  0.28910700313E+02  0.32771894029E+02  0.00000000000E+00 0.  1.
</event>
<event>
 7    1  0.1789107E-013  0.7246154E+02  0.7816164E-02  0.1226708E+00
        -11   -1    0    0    0    0  0.00000000000E+00  0.00000000000E+00  0.45593999997E+02  0.45594000000E+02  0.51100000000E-03 0.  1.
         11   -1    0    0    0    0 -0.00000000000E+00 -0.00000000000E+00 -0.45593999997E+02  0.45594000000E+02  0.51100000000E-03 0. -1.
    9900012    2    1    2    0    0  0.20403058001E+01 -0.25458850377E+01 -0.18440066797E+02  0.72461536322E+02  0.69999955745E+02 0.  0.
        -12    1    1    2    0    0 -0.20403058001E+01  0.25458850377E+01  0.18440066797E+02  0.18726463678E+02  0.00000000000E+00 0.  1.
         11    1    3    3    0    0  0.24130747030E+01  0.75288919436E+01  0.62985496289E+01  0.10108356499E+02  0.51100000000E-03 0. -1.
        -11    1    3    3    0    0 -0.11068828584E+02 -0.31416143058E+02 -0.13060772693E+02  0.35778160859E+02  0.51100000000E-03 0.  1.
         12    1    3    3    0    0  0.10696059681E+02  0.21341366076E+02 -0.11677843733E+02  0.26575018964E+02  0.00000000000E+00 0. -1.
</event>
<event>
 7    1  0.1789107E-013  0.7246168E+02  0.7816164E-02  0.1226708E+00
        -11   -1    0    0    0    0  0.00000000000E+00  0.00000000000E+00  0.45593999997E+02  0.45594000000E+02  0.51100000000E-03 0.  1.
         11   -1    0    0    0    0 -0.00000000000E+00 -0.00000000000E+00 -0.45593999997E+02  0.45594000000E+02  0.51100000000E-03 0. -1.
    9900012    2    1    2    0    0 -0.10788830056E+02 -0.11598634840E+02 -0.99873910823E+01  0.72461677223E+02  0.70000139294E+02 0.  0.
        -12    1    1    2    0    0  0.10788830056E+02  0.11598634840E+02  0.99873910823E+01  0.18726322777E+02  0.00000000000E+00 0.  1.
         11    1    3    3    0    0  0.30759426731E+01 -0.25874400305E+02 -0.16498149530E+02  0.30840475883E+02  0.51100000000E-03 0. -1.
        -11    1    3    3    0    0  0.82153263895E+01 -0.51850608720E+01 -0.38053140943E+01  0.10433449073E+02  0.51100000000E-03 0.  1.
        -12    1    3    3    0    0 -0.22080099119E+02  0.19460826337E+02  0.10316072542E+02  0.31187752268E+02  0.00000000000E+00 0.  1.
</event>
<event>
 7    1  0.1789107E-013  0.7246157E+02  0.7816164E-02  0.1226708E+00
        -11   -1    0    0    0    0  0.00000000000E+00  0.00000000000E+00  0.45593999997E+02  0.45594000000E+02  0.51100000000E-03 0. -1.
         11   -1    0    0    0    0 -0.00000000000E+00 -0.00000000000E+00 -0.45593999997E+02  0.45594000000E+02  0.51100000000E-03 0.  1.
    9900012    2    1    2    0    0  0.13027298302E+02 -0.12600132379E+02 -0.47122348085E+01  0.72461574983E+02  0.70000006108E+02 0.  0.
        -12    1    1    2    0    0 -0.13027298302E+02  0.12600132379E+02  0.47122348085E+01  0.18726425017E+02  0.00000000000E+00 0.  1.
         11    1    3    3    0    0  0.89576654753E+01 -0.22830027245E+02  0.18642418702E+02  0.30805676264E+02  0.51100000000E-03 0. -1.
        -11    1    3    3    0    0  0.70049024885E+01 -0.10606491652E+02 -0.47530199786E+01  0.13570465107E+02  0.51100000000E-03 0.  1.
        -12    1    3    3    0    0 -0.29352696617E+01  0.20836386518E+02 -0.18601633532E+02  0.28085433612E+02  0.00000000000E+00 0.  1.
</event>
<event>
 7    1  0.1789107E-013  0.7246145E+02  0.7816164E-02  0.1226708E+00
        -11   -1    0    0    0    0  0.00000000000E+00  0.00000000000E+00  0.45593999997E+02  0.45594000000E+02  0.51100000000E-03 0. -1.
         11   -1    0    0    0    0 -0.00000000000E+00 -0.00000000000E+00 -0.45593999997E+02  0.45594000000E+02  0.51100000000E-03 0.  1.
    9900012    2    1    2    0    0  0.18709707657E+01  0.49991727463E+01  0.17949689597E+02  0.72461451562E+02  0.69999845329E+02 0.  0.
        -12    1    1    2    0    0 -0.18709707657E+01 -0.49991727463E+01 -0.17949689597E+02  0.18726548438E+02  0.00000000000E+00 0.  1.
         11    1    3    3    0    0  0.17429936330E+02 -0.18584553826E+01  0.39162071081E+01  0.17960880135E+02  0.51100000000E-03 0. -1.
        -11    1    3    3    0    0 -0.80950971832E+01 -0.21502335319E+02  0.30124465866E+01  0.23172307984E+02  0.51100000000E-03 0.  1.
        -12    1    3    3    0    0 -0.74638683808E+01  0.28359963448E+02  0.11021035903E+02  0.31328263443E+02  0.00000000000E+00 0.  1.
</event>
<event>
 7    1  0.1789107E-013  0.7246159E+02  0.7816164E-02  0.1226708E+00
        -11   -1    0    0    0    0  0.00000000000E+00  0.00000000000E+00  0.45593999997E+02  0.45594000000E+02  0.51100000000E-03 0. -1.
         11   -1    0    0    0    0 -0.00000000000E+00 -0.00000000000E+00 -0.45593999997E+02  0.45594000000E+02  0.51100000000E-03 0.  1.
    9900012    2    1    2    0    0 -0.11686606571E+02 -0.50059212848E+01  0.13749270161E+02  0.72461589479E+02  0.70000024991E+02 0.  0.
        -12    1    1    2    0    0  0.11686606571E+02  0.50059212848E+01 -0.13749270161E+02  0.18726410521E+02  0.00000000000E+00 0.  1.
         11    1    3    3    0    0  0.23354774855E+01  0.12367379679E+02  0.31985191918E+01  0.12986033286E+02  0.51100000000E-03 0. -1.
        -11    1    3    3    0    0  0.14510650212E+02  0.72641856983E+01  0.14250854104E+02  0.21596624884E+02  0.51100000000E-03 0.  1.
        -12    1    3    3    0    0 -0.28532734268E+02 -0.24637486662E+02 -0.37001031355E+01  0.37878931309E+02  0.00000000000E+00 0.  1.
</event>
<event>
 7    1  0.1789107E-013  0.7246161E+02  0.7816164E-02  0.1226708E+00
        -11   -1    0    0    0    0  0.00000000000E+00  0.00000000000E+00  0.45593999997E+02  0.45594000000E+02  0.51100000000E-03 0.  1.
         11   -1    0    0    0    0 -0.00000000000E+00 -0.00000000000E+00 -0.45593999997E+02  0.45594000000E+02  0.51100000000E-03 0. -1.
    9900012    2    1    2    0    0  0.10833059752E+02 -0.74178114257E+00 -0.15256878006E+02  0.72461608213E+02  0.70000049396E+02 0.  0.
        -12    1    1    2    0    0 -0.10833059752E+02  0.74178114257E+00  0.15256878006E+02  0.18726391787E+02  0.00000000000E+00 0.  1.
         11    1    3    3    0    0 -0.33689971656E+01 -0.27846147880E+02 -0.54490186565E+01  0.28573587424E+02  0.51100000000E-03 0. -1.
        -11    1    3    3    0    0  0.13876995006E+02  0.20392374783E+01  0.48606905774E+01  0.14844385910E+02  0.51100000000E-03 0.  1.
        -12    1    3    3    0    0  0.32506191169E+00  0.25065129260E+02 -0.14668549927E+02  0.29043634880E+02  0.00000000000E+00 0.  1.
</event>
<event>
 7    1  0.1789107E-013  0.7246155E+02  0.7816164E-02  0.1226708E+00
        -11   -1    0    0    0    0  0.00000000000E+00  0.00000000000E+00  0.45593999997E+02  0.45594000000E+02  0.51100000000E-03 0.  1.
         11   -1    0    0    0    0 -0.00000000000E+00 -0.00000000000E+00 -0.45593999997E+02  0.45594000000E+02  0.51100000000E-03 0. -1.
    9900012    2    1    2    0    0 -0.91241795311E+01  0.12904514814E+01 -0.16302268842E+02  0.72461551150E+02  0.69999975060E+02 0.  0.
        -12    1    1    2    0    0  0.91241795311E+01 -0.12904514814E+01  0.16302268842E+02  0.18726448850E+02  0.00000000000E+00 0.  1.
         11    1    3    3    0    0 -0.12194745764E+02  0.11597243583E+02 -0.99619400485E+01  0.19556281159E+02  0.51100000000E-03 0. -1.
        -11    1    3    3    0    0 -0.12253788219E+02 -0.14824086521E+02  0.16289411998E+02  0.25204241913E+02  0.51100000000E-03 0.  1.
         12    1    3    3    0    0  0.15324354452E+02  0.45172944190E+01 -0.22629740792E+02  0.27701028077E+02  0.00000000000E+00 0. -1.
</event>
<event>
 7    1  0.1789107E-013  0.7246159E+02  0.7816164E-02  0.1226708E+00
        -11   -1    0    0    0    0  0.00000000000E+00  0.00000000000E+00  0.45593999997E+02  0.45594000000E+02  0.51100000000E-03 0.  1.
         11   -1    0    0    0    0 -0.00000000000E+00 -0.00000000000E+00 -0.45593999997E+02  0.45594000000E+02  0.51100000000E-03 0. -1.
    9900012    2    1    2    0    0  0.17964162566E+01 -0.18020241286E+02  0.47667705441E+01  0.72461593276E+02  0.70000029938E+02 0.  0.
        -12    1    1    2    0    0 -0.17964162566E+01  0.18020241286E+02 -0.47667705441E+01  0.18726406724E+02  0.00000000000E+00 0.  1.
         11    1    3    3    0    0  0.48493510432E+01  0.70983513339E+01 -0.22161325682E+00  0.85995296323E+01  0.51100000000E-03 0. -1.
        -11    1    3    3    0    0 -0.22755294734E+02 -0.11828831025E+01  0.19163731686E+02  0.29773331410E+02  0.51100000000E-03 0.  1.
         12    1    3    3    0    0  0.19702359948E+02 -0.23935709517E+02 -0.14175347885E+02  0.34088732233E+02  0.00000000000E+00 0. -1.
</event>
<event>
 7    1  0.1789107E-013  0.7246150E+02  0.7816164E-02  0.1226708E+00
        -11   -1    0    0    0    0  0.00000000000E+00  0.00000000000E+00  0.45593999997E+02  0.45594000000E+02  0.51100000000E-03 0.  1.
         11   -1    0    0    0    0 -0.00000000000E+00 -0.00000000000E+00 -0.45593999997E+02  0.45594000000E+02  0.51100000000E-03 0. -1.
    9900012    2    1    2    0    0  0.34779478993E+01  0.58248832183E+01 -0.17454406619E+02  0.72461502823E+02  0.69999912106E+02 0.  0.
        -12    1    1    2    0    0 -0.34779478993E+01 -0.58248832183E+01  0.17454406619E+02  0.18726497177E+02  0.00000000000E+00 0.  1.
         11    1    3    3    0    0 -0.85012990419E+01 -0.81362297129E+01 -0.29805914752E+02  0.32044701182E+02  0.51100000000E-03 0. -1.
        -11    1    3    3    0    0  0.19897172826E+01  0.21198887868E+01 -0.11562928757E+02  0.11922844671E+02  0.51100000000E-03 0.  1.
        -12    1    3    3    0    0  0.99895296585E+01  0.11841224144E+02  0.23914436891E+02  0.28493956971E+02  0.00000000000E+00 0.  1.
</event>
<event>
 7    1  0.1789107E-013  0.7246159E+02  0.7816164E-02  0.1226708E+00
        -11   -1    0    0    0    0  0.00000000000E+00  0.00000000000E+00  0.45593999997E+02  0.45594000000E+02  0.51100000000E-03 0.  1.
         11   -1    0    0    0    0 -0.00000000000E+00 -0.00000000000E+00 -0.45593999997E+02  0.45594000000E+02  0.51100000000E-03 0. -1.
    9900012    2    1    2    0    0  0.70242614213E+01  0.16816687386E+02 -0.43054863857E+01  0.72461589875E+02  0.70000025507E+02 0.  0.
        -12    1    1    2    0    0 -0.70242614213E+01 -0.16816687386E+02  0.43054863857E+01  0.18726410125E+02  0.00000000000E+00 0.  1.
         11    1    3    3    0    0  0.95873507366E+01  0.31892014508E+02 -0.22835113154E+02  0.40378958339E+02  0.51100000000E-03 0. -1.
        -11    1    3    3    0    0 -0.54432113363E+00 -0.10668535875E+02 -0.21037123231E+01  0.10887586923E+02  0.51100000000E-03 0.  1.
        -12    1    3    3    0    0 -0.20187681817E+01 -0.44067912466E+01  0.20633339092E+02  0.21195044613E+02  0.00000000000E+00 0.  1.
</event>
<event>
 7    1  0.2206742E-013  0.7246159E+02  0.7816164E-02  0.1226708E+00
        -11   -1    0    0    0    0  0.00000000000E+00  0.00000000000E+00  0.45593999997E+02  0.45594000000E+02  0.51100000000E-03 0. -1.
         11   -1    0    0    0    0 -0.00000000000E+00 -0.00000000000E+00 -0.45593999997E+02  0.45594000000E+02  0.51100000000E-03 0.  1.
    9900012    2    1    2    0    0 -0.14768381695E+01  0.17283889915E+02 -0.70544079753E+01  0.72461586209E+02  0.70000020732E+02 0.  0.
        -12    1    1    2    0    0  0.14768381695E+01 -0.17283889915E+02  0.70544079753E+01  0.18726413791E+02  0.00000000000E+00 0.  1.
         11    1    3    3    0    0 -0.16686361836E+01  0.21394766130E+02 -0.16011699406E+02  0.26774892766E+02  0.51100000000E-03 0. -1.
        -11    1    3    3    0    0  0.15965263023E+02  0.35233015243E+01 -0.10555007578E+02  0.19460510329E+02  0.51100000000E-03 0.  1.
        -12    1    3    3    0    0 -0.15773465009E+02 -0.76341777391E+01  0.19512299009E+02  0.26226183115E+02  0.00000000000E+00 0.  1.
</event>
<event>
 7    1  0.1789107E-013  0.7246173E+02  0.7816164E-02  0.1226708E+00
        -11   -1    0    0    0    0  0.00000000000E+00  0.00000000000E+00  0.45593999997E+02  0.45594000000E+02  0.51100000000E-03 0. -1.
         11   -1    0    0    0    0 -0.00000000000E+00 -0.00000000000E+00 -0.45593999997E+02  0.45594000000E+02  0.51100000000E-03 0.  1.
    9900012    2    1    2    0    0  0.46435664827E+01  0.17812778203E+02 -0.34373679248E+01  0.72461727673E+02  0.70000205015E+02 0.  0.
        -12    1    1    2    0    0 -0.46435664827E+01 -0.17812778203E+02  0.34373679248E+01  0.18726272327E+02  0.00000000000E+00 0.  1.
         11    1    3    3    0    0 -0.34831067124E+01 -0.76737877056E+01 -0.15895575133E+01  0.85758814981E+01  0.51100000000E-03 0. -1.
        -11    1    3    3    0    0  0.17832337014E+02 -0.56776863157E+01 -0.19290797448E+02  0.26876815877E+02  0.51100000000E-03 0.  1.
        -12    1    3    3    0    0 -0.97056638185E+01  0.31164252225E+02  0.17442987036E+02  0.37009030298E+02  0.00000000000E+00 0.  1.
</event>
<event>
 7    1  0.1789107E-013  0.7246157E+02  0.7816164E-02  0.1226708E+00
        -11   -1    0    0    0    0  0.00000000000E+00  0.00000000000E+00  0.45593999997E+02  0.45594000000E+02  0.51100000000E-03 0.  1.
         11   -1    0    0    0    0 -0.00000000000E+00 -0.00000000000E+00 -0.45593999997E+02  0.45594000000E+02  0.51100000000E-03 0. -1.
    9900012    2    1    2    0    0 -0.18352676451E+01  0.13384153453E+02 -0.12968252306E+02  0.72461565773E+02  0.69999994110E+02 0.  0.
        -12    1    1    2    0    0  0.18352676451E+01 -0.13384153453E+02  0.12968252306E+02  0.18726434227E+02  0.00000000000E+00 0.  1.
         11    1    3    3    0    0  0.20244770000E+02  0.18190123049E+02 -0.12120488275E+02  0.29793246301E+02  0.51100000000E-03 0. -1.
        -11    1    3    3    0    0  0.42386140891E+00 -0.82705092814E+01 -0.14079039034E+02  0.16334023468E+02  0.51100000000E-03 0.  1.
        -12    1    3    3    0    0 -0.22503899054E+02  0.34645396858E+01  0.13231275003E+02  0.26334296005E+02  0.00000000000E+00 0.  1.
</event>
<event>
 7    1  0.1789107E-013  0.7246166E+02  0.7816164E-02  0.1226708E+00
        -11   -1    0    0    0    0  0.00000000000E+00  0.00000000000E+00  0.45593999997E+02  0.45594000000E+02  0.51100000000E-03 0.  1.
         11   -1    0    0    0    0 -0.00000000000E+00 -0.00000000000E+00 -0.45593999997E+02  0.45594000000E+02  0.51100000000E-03 0. -1.
    9900012    2    1    2    0    0 -0.17162554808E+02 -0.72925426772E+01  0.17150304965E+01  0.72461660373E+02  0.70000117343E+02 0.  0.
        -12    1    1    2    0    0  0.17162554808E+02  0.72925426772E+01 -0.17150304965E+01  0.18726339627E+02  0.00000000000E+00 0.  1.
         11    1    3    3    0    0 -0.18859298915E+02 -0.72339340988E+01  0.25737081244E+02  0.32716972802E+02  0.51100000000E-03 0. -1.
        -11    1    3    3    0    0  0.15163330843E+02  0.24531922798E+01 -0.47080433577E+01  0.16065815483E+02  0.51100000000E-03 0.  1.
         12    1    3    3    0    0 -0.13466586736E+02 -0.25118008581E+01 -0.19314007390E+02  0.23678872087E+02  0.00000000000E+00 0. -1.
</event>
<event>
 7    1  0.1789107E-013  0.7246163E+02  0.7816164E-02  0.1226708E+00
        -11   -1    0    0    0    0  0.00000000000E+00  0.00000000000E+00  0.45593999997E+02  0.45594000000E+02  0.51100000000E-03 0. -1.
         11   -1    0    0    0    0 -0.00000000000E+00 -0.00000000000E+00 -0.45593999997E+02  0.45594000000E+02  0.51100000000E-03 0.  1.
    9900012    2    1    2    0    0  0.17342471663E+02  0.23092065489E+00 -0.70613224636E+01  0.72461630286E+02  0.70000078150E+02 0.  0.
        -12    1    1    2    0    0 -0.17342471663E+02 -0.23092065489E+00  0.70613224636E+01  0.18726369714E+02  0.00000000000E+00 0.  1.
         11    1    3    3    0    0  0.28922540300E+01  0.20383515239E+02  0.15203434238E+02  0.25592913859E+02  0.51100000000E-03 0. -1.
        -11    1    3    3    0    0 -0.93229573366E+01  0.42909097768E+00 -0.22686440441E+01  0.96046029917E+01  0.51100000000E-03 0.  1.
        -12    1    3    3    0    0  0.23773174970E+02 -0.20581685562E+02 -0.19996112658E+02  0.37264113436E+02  0.00000000000E+00 0.  1.
</event>
<event>
 7    1  0.1789107E-013  0.7246156E+02  0.7816164E-02  0.1226708E+00
        -11   -1    0    0    0    0  0.00000000000E+00  0.00000000000E+00  0.45593999997E+02  0.45594000000E+02  0.51100000000E-03 0.  1.
         11   -1    0    0    0    0 -0.00000000000E+00 -0.00000000000E+00 -0.45593999997E+02  0.45594000000E+02  0.51100000000E-03 0. -1.
    9900012    2    1    2    0    0  0.33889630905E+01 -0.51745926927E+01 -0.17675348194E+02  0.72461563763E+02  0.69999991492E+02 0.  0.
        -12    1    1    2    0    0 -0.33889630905E+01  0.51745926927E+01  0.17675348194E+02  0.18726436237E+02  0.00000000000E+00 0.  1.
         11    1    3    3    0    0  0.13752208095E+00 -0.12611991102E+02 -0.67553058587E+00  0.12630818410E+02  0.51100000000E-03 0. -1.
        -11    1    3    3    0    0  0.11221499517E+02 -0.10516530413E+02  0.15513191104E+02  0.21844417178E+02  0.51100000000E-03 0.  1.
         12    1    3    3    0    0 -0.79700585073E+01  0.17953928822E+02 -0.32513008712E+02  0.37986328175E+02  0.00000000000E+00 0. -1.
</event>
<event>
 7    1  0.1789107E-013  0.7246148E+02  0.7816164E-02  0.1226708E+00
        -11   -1    0    0    0    0  0.00000000000E+00  0.00000000000E+00  0.45593999997E+02  0.45594000000E+02  0.51100000000E-03 0.  1.
         11   -1    0    0    0    0 -0.00000000000E+00 -0.00000000000E+00 -0.45593999997E+02  0.45594000000E+02  0.51100000000E-03 0. -1.
    9900012    2    1    2    0    0 -0.10430210011E+02 -0.11802198735E+02 -0.10129233969E+02  0.72461479858E+02  0.69999882189E+02 0.  0.
        -12    1    1    2    0    0  0.10430210011E+02  0.11802198735E+02  0.10129233969E+02  0.18726520142E+02  0.00000000000E+00 0.  1.
         11    1    3    3    0    0 -0.10982229202E+01  0.86801528713E+01 -0.11478981360E+02  0.14433231128E+02  0.51100000000E-03 0. -1.
        -11    1    3    3    0    0 -0.10458277079E+02  0.15391232149E+02  0.99777820970E+01  0.21114490815E+02  0.51100000000E-03 0.  1.
         12    1    3    3    0    0  0.11262899883E+01 -0.35873583755E+02 -0.86280347056E+01  0.36913757915E+02  0.00000000000E+00 0. -1.
</event>
<event>
 7    1  0.1789107E-013  0.7246165E+02  0.7816164E-02  0.1226708E+00
        -11   -1    0    0    0    0  0.00000000000E+00  0.00000000000E+00  0.45593999997E+02  0.45594000000E+02  0.51100000000E-03 0.  1.
         11   -1    0    0    0    0 -0.00000000000E+00 -0.00000000000E+00 -0.45593999997E+02  0.45594000000E+02  0.51100000000E-03 0. -1.
    9900012    2    1    2    0    0  0.95308852236E+01  0.44083632060E+01 -0.15504995573E+02  0.72461646190E+02  0.70000098868E+02 0.  0.
        -12    1    1    2    0    0 -0.95308852236E+01 -0.44083632060E+01  0.15504995573E+02  0.18726353810E+02  0.00000000000E+00 0.  1.
         11    1    3    3    0    0 -0.89251544543E+01 -0.57811904399E+01 -0.24933866120E+01  0.10922340500E+02  0.51100000000E-03 0. -1.
        -11    1    3    3    0    0 -0.67220764591E+01 -0.12269595390E+02  0.12875160842E+02  0.19013128357E+02  0.51100000000E-03 0.  1.
         12    1    3    3    0    0  0.25178116137E+02  0.22459149036E+02 -0.25886769804E+02  0.42526177332E+02  0.00000000000E+00 0. -1.
</event>
<event>
 7    1  0.1789107E-013  0.7246144E+02  0.7816164E-02  0.1226708E+00
        -11   -1    0    0    0    0  0.00000000000E+00  0.00000000000E+00  0.45593999997E+02  0.45594000000E+02  0.51100000000E-03 0.  1.
         11   -1    0    0    0    0 -0.00000000000E+00 -0.00000000000E+00 -0.45593999997E+02  0.45594000000E+02  0.51100000000E-03 0. -1.
    9900012    2    1    2    0    0 -0.10221192842E+02  0.15600628491E+02  0.16827881299E+01  0.72461436825E+02  0.69999826131E+02 0.  0.
        -12    1    1    2    0    0  0.10221192842E+02 -0.15600628491E+02 -0.16827881299E+01  0.18726563175E+02  0.00000000000E+00 0.  1.
         11    1    3    3    0    0 -0.33912608930E+02  0.17271269416E+02  0.48636336050E+01  0.38366870133E+02  0.51100000000E-03 0. -1.
        -11    1    3    3    0    0 -0.30141094516E+01 -0.23438192749E+01  0.48750719954E+01  0.61923074698E+01  0.51100000000E-03 0.  1.
        -12    1    3    3    0    0  0.26705525539E+02  0.67317835030E+00 -0.80559174704E+01  0.27902259222E+02  0.00000000000E+00 0.  1.
</event>
<event>
 7    1  0.1789107E-013  0.7246159E+02  0.7816164E-02  0.1226708E+00
        -11   -1    0    0    0    0  0.00000000000E+00  0.00000000000E+00  0.45593999997E+02  0.45594000000E+02  0.51100000000E-03 0.  1.
         11   -1    0    0    0    0 -0.00000000000E+00 -0.00000000000E+00 -0.45593999997E+02  0.45594000000E+02  0.51100000000E-03 0. -1.
    9900012    2    1    2    0    0 -0.12297753931E+00 -0.15877240275E+02  0.99285760130E+01  0.72461588067E+02  0.70000023153E+02 0.  0.
        -12    1    1    2    0    0  0.12297753931E+00  0.15877240275E+02 -0.99285760130E+01  0.18726411933E+02  0.00000000000E+00 0.  1.
         11    1    3    3    0    0  0.14669918087E+02  0.87361102371E+01  0.94861341251E+01  0.19532354176E+02  0.51100000000E-03 0. -1.
        -11    1    3    3    0    0 -0.62316694114E+00  0.67589993582E+01 -0.14030875074E+02  0.15586464159E+02  0.51100000000E-03 0.  1.
        -12    1    3    3    0    0 -0.14169728685E+02 -0.31372349870E+02  0.14473316962E+02  0.37342769733E+02  0.00000000000E+00 0.  1.
</event>
<event>
 7    1  0.1789107E-013  0.7246158E+02  0.7816164E-02  0.1226708E+00
        -11   -1    0    0    0    0  0.00000000000E+00  0.00000000000E+00  0.45593999997E+02  0.45594000000E+02  0.51100000000E-03 0.  1.
         11   -1    0    0    0    0 -0.00000000000E+00 -0.00000000000E+00 -0.45593999997E+02  0.45594000000E+02  0.51100000000E-03 0. -1.
    9900012    2    1    2    0    0  0.93863746904E+01  0.14264326244E+02 -0.76879003769E+01  0.72461578953E+02  0.70000011279E+02 0.  0.
        -12    1    1    2    0    0 -0.93863746904E+01 -0.14264326244E+02  0.76879003769E+01  0.18726421047E+02  0.00000000000E+00 0.  1.
         11    1    3    3    0    0  0.73456872710E+01 -0.34892865067E+01 -0.26999712121E+02  0.28197849150E+02  0.51100000000E-03 0. -1.
        -11    1    3    3    0    0 -0.85982886257E+01  0.27943179506E+01 -0.75158129793E+01  0.11756964961E+02  0.51100000000E-03 0.  1.
        -12    1    3    3    0    0  0.10638976045E+02  0.14959294800E+02  0.26827624723E+02  0.32506764842E+02  0.00000000000E+00 0.  1.
</event>
<event>
 7    1  0.1789107E-013  0.7246154E+02  0.7816164E-02  0.1226708E+00
        -11   -1    0    0    0    0  0.00000000000E+00  0.00000000000E+00  0.45593999997E+02  0.45594000000E+02  0.51100000000E-03 0.  1.
         11   -1    0    0    0    0 -0.00000000000E+00 -0.00000000000E+00 -0.45593999997E+02  0.45594000000E+02  0.51100000000E-03 0. -1.
    9900012    2    1    2    0    0  0.12387055290E+02  0.66656565746E+01 -0.12361635895E+02  0.72461543893E+02  0.69999965607E+02 0.  0.
        -12    1    1    2    0    0 -0.12387055290E+02 -0.66656565746E+01  0.12361635895E+02  0.18726456107E+02  0.00000000000E+00 0.  1.
         11    1    3    3    0    0  0.26476614972E+02  0.17696965611E+02 -0.25239260112E+02  0.40635132379E+02  0.51100000000E-03 0. -1.
        -11    1    3    3    0    0  0.83458705589E+00  0.47427632040E+01 -0.22961099497E+01  0.53350219798E+01  0.51100000000E-03 0.  1.
        -12    1    3    3    0    0 -0.14924146737E+02 -0.15774072240E+02  0.15173734167E+02  0.26491389534E+02  0.00000000000E+00 0.  1.
</event>
<event>
 7    1  0.1789107E-013  0.7246162E+02  0.7816164E-02  0.1226708E+00
        -11   -1    0    0    0    0  0.00000000000E+00  0.00000000000E+00  0.45593999997E+02  0.45594000000E+02  0.51100000000E-03 0.  1.
         11   -1    0    0    0    0 -0.00000000000E+00 -0.00000000000E+00 -0.45593999997E+02  0.45594000000E+02  0.51100000000E-03 0. -1.
    9900012    2    1    2    0    0 -0.84444119193E+01 -0.12361085893E+02 -0.11250449563E+02  0.72461624150E+02  0.70000070157E+02 0.  0.
        -12    1    1    2    0    0  0.84444119193E+01  0.12361085893E+02  0.11250449563E+02  0.18726375850E+02  0.00000000000E+00 0.  1.
         11    1    3    3    0    0  0.77499654890E+01  0.13587517921E+01 -0.28604365574E+01  0.83719931363E+01  0.51100000000E-03 0. -1.
        -11    1    3    3    0    0  0.17634971021E+02  0.63423605613E+01  0.93492330667E+01  0.20943397518E+02  0.51100000000E-03 0.  1.
         12    1    3    3    0    0 -0.33829348429E+02 -0.20062198246E+02 -0.17739246072E+02  0.43146233495E+02  0.00000000000E+00 0. -1.
</event>
<event>
 7    1  0.1789107E-013  0.7246158E+02  0.7816164E-02  0.1226708E+00
        -11   -1    0    0    0    0  0.00000000000E+00  0.00000000000E+00  0.45593999997E+02  0.45594000000E+02  0.51100000000E-03 0.  1.
         11   -1    0    0    0    0 -0.00000000000E+00 -0.00000000000E+00 -0.45593999997E+02  0.45594000000E+02  0.51100000000E-03 0. -1.
    9900012    2    1    2    0    0 -0.82985270735E+01 -0.19313331049E+01 -0.16675824900E+02  0.72461581890E+02  0.70000015105E+02 0.  0.
        -12    1    1    2    0    0  0.82985270735E+01  0.19313331049E+01  0.16675824900E+02  0.18726418110E+02  0.00000000000E+00 0.  1.
         11    1    3    3    0    0 -0.11501411659E+02  0.40133703444E+01  0.15350860497E+02  0.19596901028E+02  0.51100000000E-03 0. -1.
        -11    1    3    3    0    0 -0.16061181729E+02  0.38626756597E+01 -0.31885488146E+01  0.16824050214E+02  0.51100000000E-03 0.  1.
        -12    1    3    3    0    0  0.19264066314E+02 -0.98073791091E+01 -0.28838136582E+02  0.36040630648E+02  0.00000000000E+00 0.  1.
</event>
<event>
 7    1  0.1789107E-013  0.7246158E+02  0.7816164E-02  0.1226708E+00
        -11   -1    0    0    0    0  0.00000000000E+00  0.00000000000E+00  0.45593999997E+02  0.45594000000E+02  0.51100000000E-03 0.  1.
         11   -1    0    0    0    0 -0.00000000000E+00 -0.00000000000E+00 -0.45593999997E+02  0.45594000000E+02  0.51100000000E-03 0. -1.
    9900012    2    1    2    0    0 -0.87077289216E+01  0.89482516661E+01 -0.13956470347E+02  0.72461579749E+02  0.70000012317E+02 0.  0.
        -12    1    1    2    0    0  0.87077289216E+01 -0.89482516661E+01  0.13956470347E+02  0.18726420251E+02  0.00000000000E+00 0.  1.
         11    1    3    3    0    0 -0.10742315405E+01  0.23579442080E+02 -0.14052199149E+02  0.27470135846E+02  0.51100000000E-03 0. -1.
        -11    1    3    3    0    0  0.92477652332E+01  0.98261717455E+01  0.58750466939E+01  0.14717030505E+02  0.51100000000E-03 0.  1.
         12    1    3    3    0    0 -0.16881262614E+02 -0.24457362160E+02 -0.57793178925E+01  0.30274413398E+02  0.00000000000E+00 0. -1.
</event>
<event>
 7    1  0.1789107E-013  0.7246125E+02  0.7816164E-02  0.1226709E+00
        -11   -1    0    0    0    0  0.00000000000E+00  0.00000000000E+00  0.45593999997E+02  0.45594000000E+02  0.51100000000E-03 0.  1.
         11   -1    0    0    0    0 -0.00000000000E+00 -0.00000000000E+00 -0.45593999997E+02  0.45594000000E+02  0.51100000000E-03 0. -1.
    9900012    2    1    2    0    0 -0.36833456370E+01  0.16138889769E+02 -0.87555853158E+01  0.72461252491E+02  0.69999586001E+02 0.  0.
        -12    1    1    2    0    0  0.36833456370E+01 -0.16138889769E+02  0.87555853158E+01  0.18726747509E+02  0.00000000000E+00 0.  1.
         11    1    3    3    0    0  0.17370441643E+02 -0.11859611510E+02  0.26418130876E+01  0.21198155691E+02  0.51100000000E-03 0. -1.
        -11    1    3    3    0    0  0.83065908868E+00 -0.59242281478E+01  0.48954345993E+01  0.77299258629E+01  0.51100000000E-03 0.  1.
         12    1    3    3    0    0 -0.21884446369E+02  0.33922729426E+02 -0.16292833003E+02  0.43533170937E+02  0.00000000000E+00 0. -1.
</event>
<event>
 7    1  0.1789107E-013  0.7246152E+02  0.7816164E-02  0.1226708E+00
        -11   -1    0    0    0    0  0.00000000000E+00  0.00000000000E+00  0.45593999997E+02  0.45594000000E+02  0.51100000000E-03 0.  1.
         11   -1    0    0    0    0 -0.00000000000E+00 -0.00000000000E+00 -0.45593999997E+02  0.45594000000E+02  0.51100000000E-03 0. -1.
    9900012    2    1    2    0    0  0.23347168248E+01  0.18439862282E+02  0.22806782465E+01  0.72461523639E+02  0.69999939223E+02 0.  0.
        -12    1    1    2    0    0 -0.23347168248E+01 -0.18439862282E+02 -0.22806782465E+01  0.18726476361E+02  0.00000000000E+00 0.  1.
         11    1    3    3    0    0  0.33917529830E+02  0.18534148470E+02  0.22501029543E+01  0.38716617270E+02  0.51100000000E-03 0. -1.
        -11    1    3    3    0    0 -0.14135664191E+02 -0.20142388743E+01  0.55890306361E+01  0.15333343539E+02  0.51100000000E-03 0.  1.
        -12    1    3    3    0    0 -0.17447148814E+02  0.19199526868E+01 -0.55584553439E+01  0.18411562830E+02  0.00000000000E+00 0.  1.
</event>
<event>
 7    1  0.1789107E-013  0.7246159E+02  0.7816164E-02  0.1226708E+00
        -11   -1    0    0    0    0  0.00000000000E+00  0.00000000000E+00  0.45593999997E+02  0.45594000000E+02  0.51100000000E-03 0. -1.
         11   -1    0    0    0    0 -0.00000000000E+00 -0.00000000000E+00 -0.45593999997E+02  0.45594000000E+02  0.51100000000E-03 0.  1.
    9900012    2    1    2    0    0 -0.12716617645E+02 -0.13409236787E+02  0.30262896945E+01  0.72461590177E+02  0.70000025901E+02 0.  0.
        -12    1    1    2    0    0  0.12716617645E+02  0.13409236787E+02 -0.30262896945E+01  0.18726409823E+02  0.00000000000E+00 0.  1.
         11    1    3    3    0    0 -0.20133121978E+01  0.10039282077E+01  0.48394530089E+01  0.53368158614E+01  0.51100000000E-03 0. -1.
        -11    1    3    3    0    0 -0.37577728900E+02 -0.24338131509E+01 -0.19715373703E+00  0.37656978445E+02  0.51100000000E-03 0.  1.
         12    1    3    3    0    0  0.26874423453E+02 -0.11979351844E+02 -0.16160095774E+01  0.29467795871E+02  0.00000000000E+00 0. -1.
</event>
<event>
 7    1  0.1789107E-013  0.7246167E+02  0.7816164E-02  0.1226708E+00
        -11   -1    0    0    0    0  0.00000000000E+00  0.00000000000E+00  0.45593999997E+02  0.45594000000E+02  0.51100000000E-03 0. -1.
         11   -1    0    0    0    0 -0.00000000000E+00 -0.00000000000E+00 -0.45593999997E+02  0.45594000000E+02  0.51100000000E-03 0.  1.
    9900012    2    1    2    0    0  0.34898739621E+01 -0.81090827351E+01  0.16514810006E+02  0.72461671139E+02  0.70000131368E+02 0.  0.
        -12    1    1    2    0    0 -0.34898739621E+01  0.81090827351E+01 -0.16514810006E+02  0.18726328861E+02  0.00000000000E+00 0.  1.
         11    1    3    3    0    0 -0.10927394814E+02 -0.31038590577E+02 -0.39961801144E+01  0.33147722669E+02  0.51100000000E-03 0. -1.
        -11    1    3    3    0    0 -0.16819193194E+01 -0.10516698642E+01 -0.19065343845E+01  0.27513152711E+01  0.51100000000E-03 0.  1.
        -12    1    3    3    0    0  0.16099188095E+02  0.23981177706E+02  0.22417524505E+02  0.36562633198E+02  0.00000000000E+00 0.  1.
</event>
<event>
 7    1  0.1789107E-013  0.7246156E+02  0.7816164E-02  0.1226708E+00
        -11   -1    0    0    0    0  0.00000000000E+00  0.00000000000E+00  0.45593999997E+02  0.45594000000E+02  0.51100000000E-03 0.  1.
         11   -1    0    0    0    0 -0.00000000000E+00 -0.00000000000E+00 -0.45593999997E+02  0.45594000000E+02  0.51100000000E-03 0. -1.
    9900012    2    1    2    0    0  0.98594174255E+01 -0.15549934769E+02 -0.34162607148E+01  0.72461563592E+02  0.69999991269E+02 0.  0.
        -12    1    1    2    0    0 -0.98594174255E+01  0.15549934769E+02  0.34162607148E+01  0.18726436408E+02  0.00000000000E+00 0.  1.
         11    1    3    3    0    0  0.14926556112E+02  0.13875571573E+02 -0.11999196048E+02  0.23649826002E+02  0.51100000000E-03 0. -1.
        -11    1    3    3    0    0  0.35002692631E+01 -0.34143148986E+01 -0.13034812834E+02  0.13921773487E+02  0.51100000000E-03 0.  1.
        -12    1    3    3    0    0 -0.85674079495E+01 -0.26011191443E+02  0.21617748167E+02  0.34889964103E+02  0.00000000000E+00 0.  1.
</event>
<event>
 7    1  0.1789107E-013  0.7246159E+02  0.7816164E-02  0.1226708E+00
        -11   -1    0    0    0    0  0.00000000000E+00  0.00000000000E+00  0.45593999997E+02  0.45594000000E+02  0.51100000000E-03 0.  1.
         11   -1    0    0    0    0 -0.00000000000E+00 -0.00000000000E+00 -0.45593999997E+02  0.45594000000E+02  0.51100000000E-03 0. -1.
    9900012    2    1    2    0    0  0.89153967520E+01 -0.10907692486E+02 -0.12337599257E+02  0.72461590573E+02  0.70000026416E+02 0.  0.
        -12    1    1    2    0    0 -0.89153967520E+01  0.10907692486E+02  0.12337599257E+02  0.18726409427E+02  0.00000000000E+00 0.  1.
         11    1    3    3    0    0  0.44361458213E+01 -0.10370077092E+01  0.70174527305E+01  0.83665654735E+01  0.51100000000E-03 0.  1.
        -11    1    3    3    0    0  0.28582344511E+02 -0.10439997737E+02 -0.24943292449E+02  0.39346052012E+02  0.51100000000E-03 0. -1.
         12    1    3    3    0    0 -0.24103093581E+02  0.56931295962E+00  0.55882404614E+01  0.24748973087E+02  0.00000000000E+00 0. -1.
</event>
<event>
 7    1  0.1789107E-013  0.7246158E+02  0.7816164E-02  0.1226708E+00
        -11   -1    0    0    0    0  0.00000000000E+00  0.00000000000E+00  0.45593999997E+02  0.45594000000E+02  0.51100000000E-03 0.  1.
         11   -1    0    0    0    0 -0.00000000000E+00 -0.00000000000E+00 -0.45593999997E+02  0.45594000000E+02  0.51100000000E-03 0. -1.
    9900012    2    1    2    0    0 -0.24303724715E+01 -0.14918839098E+02 -0.11054424581E+02  0.72461580876E+02  0.70000013785E+02 0.  0.
        -12    1    1    2    0    0  0.24303724715E+01  0.14918839098E+02  0.11054424581E+02  0.18726419124E+02  0.00000000000E+00 0.  1.
         11    1    3    3    0    0 -0.29093180428E+01  0.28090455662E+01  0.78132493651E+00  0.41189000212E+01  0.51100000000E-03 0. -1.
        -11    1    3    3    0    0  0.18881918745E+02 -0.31482023264E+02  0.84765018711E+01  0.37676195781E+02  0.51100000000E-03 0.  1.
         12    1    3    3    0    0 -0.18402973174E+02  0.13754138600E+02 -0.20312251389E+02  0.30666485074E+02  0.00000000000E+00 0. -1.
</event>
<event>
 7    1  0.1789107E-013  0.7246142E+02  0.7816164E-02  0.1226708E+00
        -11   -1    0    0    0    0  0.00000000000E+00  0.00000000000E+00  0.45593999997E+02  0.45594000000E+02  0.51100000000E-03 0.  1.
         11   -1    0    0    0    0 -0.00000000000E+00 -0.00000000000E+00 -0.45593999997E+02  0.45594000000E+02  0.51100000000E-03 0. -1.
    9900012    2    1    2    0    0  0.56445516901E+01  0.43857051745E+01 -0.17308656198E+02  0.72461415874E+02  0.69999798838E+02 0.  0.
        -12    1    1    2    0    0 -0.56445516901E+01 -0.43857051745E+01  0.17308656198E+02  0.18726584126E+02  0.00000000000E+00 0.  1.
         11    1    3    3    0    0 -0.87925811331E+00 -0.21072021705E+02 -0.30573730388E+02  0.37142377195E+02  0.51100000000E-03 0. -1.
        -11    1    3    3    0    0 -0.60938846271E+01  0.28451845922E+01  0.15717055481E+01  0.69065739555E+01  0.51100000000E-03 0.  1.
        -12    1    3    3    0    0  0.12617694431E+02  0.22612542288E+02  0.11693368642E+02  0.28412464723E+02  0.00000000000E+00 0.  1.
</event>
<event>
 7    1  0.1789107E-013  0.7246157E+02  0.7816164E-02  0.1226708E+00
        -11   -1    0    0    0    0  0.00000000000E+00  0.00000000000E+00  0.45593999997E+02  0.45594000000E+02  0.51100000000E-03 0. -1.
         11   -1    0    0    0    0 -0.00000000000E+00 -0.00000000000E+00 -0.45593999997E+02  0.45594000000E+02  0.51100000000E-03 0.  1.
    9900012    2    1    2    0    0  0.77014339019E+01  0.16735630388E+02  0.33594150807E+01  0.72461572730E+02  0.70000003172E+02 0.  0.
        -12    1    1    2    0    0 -0.77014339019E+01 -0.16735630388E+02 -0.33594150807E+01  0.18726427270E+02  0.00000000000E+00 0.  1.
         11    1    3    3    0    0 -0.20496661738E+02  0.26683240780E+02 -0.47815015787E+01  0.33984867788E+02  0.51100000000E-03 0. -1.
        -11    1    3    3    0    0 -0.11145200883E+01  0.44082020892E+01  0.29686137484E+01  0.54301996772E+01  0.51100000000E-03 0.  1.
        -12    1    3    3    0    0  0.29312615728E+02 -0.14355812481E+02  0.51723029110E+01  0.33046505265E+02  0.00000000000E+00 0.  1.
</event>
<event>
 7    1  0.1789107E-013  0.7246158E+02  0.7816164E-02  0.1226708E+00
        -11   -1    0    0    0    0  0.00000000000E+00  0.00000000000E+00  0.45593999997E+02  0.45594000000E+02  0.51100000000E-03 0.  1.
         11   -1    0    0    0    0 -0.00000000000E+00 -0.00000000000E+00 -0.45593999997E+02  0.45594000000E+02  0.51100000000E-03 0. -1.
    9900012    2    1    2    0    0 -0.88650129247E+01 -0.14760696653E+02 -0.73629015552E+01  0.72461576446E+02  0.70000008013E+02 0.  0.
        -12    1    1    2    0    0  0.88650129247E+01  0.14760696653E+02  0.73629015552E+01  0.18726423554E+02  0.00000000000E+00 0.  1.
         11    1    3    3    0    0  0.11180330696E+02 -0.16830940795E+02  0.47193311948E+01  0.20749757822E+02  0.51100000000E-03 0. -1.
        -11    1    3    3    0    0 -0.13706500057E+02  0.12874340915E+01  0.17034924592E+02  0.21902380840E+02  0.51100000000E-03 0.  1.
         12    1    3    3    0    0 -0.63388435632E+01  0.78281005036E+00 -0.29117157342E+02  0.29809437783E+02  0.00000000000E+00 0. -1.
</event>
<event>
 7    1  0.1789107E-013  0.7246157E+02  0.7816164E-02  0.1226708E+00
        -11   -1    0    0    0    0  0.00000000000E+00  0.00000000000E+00  0.45593999997E+02  0.45594000000E+02  0.51100000000E-03 0.  1.
         11   -1    0    0    0    0 -0.00000000000E+00 -0.00000000000E+00 -0.45593999997E+02  0.45594000000E+02  0.51100000000E-03 0. -1.
    9900012    2    1    2    0    0 -0.10587595876E+02 -0.15445406682E+02  0.14577386797E+00  0.72461574179E+02  0.70000005061E+02 0.  0.
        -12    1    1    2    0    0  0.10587595876E+02  0.15445406682E+02 -0.14577386797E+00  0.18726425821E+02  0.00000000000E+00 0.  1.
         11    1    3    3    0    0  0.20432906795E+02 -0.24086992998E+02  0.13125256200E+02  0.34204667260E+02  0.51100000000E-03 0. -1.
        -11    1    3    3    0    0 -0.41342085504E+01  0.62170291832E+01  0.15121691654E+01  0.76177285361E+01  0.51100000000E-03 0.  1.
        -12    1    3    3    0    0 -0.26886294121E+02  0.24245571332E+01 -0.14491651498E+02  0.30639178383E+02  0.00000000000E+00 0.  1.
</event>
<event>
 7    1  0.1789107E-013  0.7246153E+02  0.7816164E-02  0.1226708E+00
        -11   -1    0    0    0    0  0.00000000000E+00  0.00000000000E+00  0.45593999997E+02  0.45594000000E+02  0.51100000000E-03 0.  1.
         11   -1    0    0    0    0 -0.00000000000E+00 -0.00000000000E+00 -0.45593999997E+02  0.45594000000E+02  0.51100000000E-03 0. -1.
    9900012    2    1    2    0    0 -0.13379515858E+02  0.11030715099E+02  0.70705425627E+01  0.72461529636E+02  0.69999947035E+02 0.  0.
        -12    1    1    2    0    0  0.13379515858E+02 -0.11030715099E+02 -0.70705425627E+01  0.18726470364E+02  0.00000000000E+00 0.  1.
         11    1    3    3    0    0  0.46948941746E+01  0.34248181274E+02 -0.35522086775E+00  0.34570307115E+02  0.51100000000E-03 0.  1.
        -11    1    3    3    0    0 -0.12504035340E+02  0.29655774037E+00  0.54575570829E+01  0.13646383252E+02  0.51100000000E-03 0. -1.
        -12    1    3    3    0    0 -0.55703746923E+01 -0.23514023916E+02  0.19682063475E+01  0.24244839269E+02  0.00000000000E+00 0.  1.
</event>
<event>
 7    1  0.1789107E-013  0.7246148E+02  0.7816164E-02  0.1226708E+00
        -11   -1    0    0    0    0  0.00000000000E+00  0.00000000000E+00  0.45593999997E+02  0.45594000000E+02  0.51100000000E-03 0. -1.
         11   -1    0    0    0    0 -0.00000000000E+00 -0.00000000000E+00 -0.45593999997E+02  0.45594000000E+02  0.51100000000E-03 0.  1.
    9900012    2    1    2    0    0 -0.34758122364E+01 -0.12484530806E+02  0.13518054181E+02  0.72461479528E+02  0.69999881760E+02 0.  0.
        -12    1    1    2    0    0  0.34758122364E+01  0.12484530806E+02 -0.13518054181E+02  0.18726520472E+02  0.00000000000E+00 0.  1.
         11    1    3    3    0    0  0.20169587882E+02 -0.24406684542E+02  0.31712370228E+01  0.31820673628E+02  0.51100000000E-03 0. -1.
        -11    1    3    3    0    0 -0.13844259769E+02  0.20193245905E-01 -0.85349672283E+01  0.16263751172E+02  0.51100000000E-03 0.  1.
         12    1    3    3    0    0 -0.98011403486E+01  0.11901960490E+02  0.18881784386E+02  0.24377054728E+02  0.00000000000E+00 0. -1.
</event>
<event>
 7    1  0.1789107E-013  0.7246161E+02  0.7816164E-02  0.1226708E+00
        -11   -1    0    0    0    0  0.00000000000E+00  0.00000000000E+00  0.45593999997E+02  0.45594000000E+02  0.51100000000E-03 0.  1.
         11   -1    0    0    0    0 -0.00000000000E+00 -0.00000000000E+00 -0.45593999997E+02  0.45594000000E+02  0.51100000000E-03 0. -1.
    9900012    2    1    2    0    0  0.17277010916E+02  0.70982811934E+01  0.13405633871E+01  0.72461606533E+02  0.70000047207E+02 0.  0.
        -12    1    1    2    0    0 -0.17277010916E+02 -0.70982811934E+01 -0.13405633871E+01  0.18726393467E+02  0.00000000000E+00 0.  1.
         11    1    3    3    0    0  0.12894182361E+02  0.68907088712E+01  0.13770757510E+02  0.20084211963E+02  0.51100000000E-03 0. -1.
        -11    1    3    3    0    0 -0.18240337466E+02 -0.14281481005E+02 -0.10524225679E+02  0.25444644564E+02  0.51100000000E-03 0.  1.
         12    1    3    3    0    0  0.22623166022E+02  0.14489053328E+02 -0.19059684440E+01  0.26932750006E+02  0.00000000000E+00 0. -1.
</event>
<event>
 7    1  0.1789107E-013  0.7246154E+02  0.7816164E-02  0.1226708E+00
        -11   -1    0    0    0    0  0.00000000000E+00  0.00000000000E+00  0.45593999997E+02  0.45594000000E+02  0.51100000000E-03 0. -1.
         11   -1    0    0    0    0 -0.00000000000E+00 -0.00000000000E+00 -0.45593999997E+02  0.45594000000E+02  0.51100000000E-03 0.  1.
    9900012    2    1    2    0    0 -0.10786884491E+02  0.12600905650E+02  0.86914083113E+01  0.72461540681E+02  0.69999961423E+02 0.  0.
        -12    1    1    2    0    0  0.10786884491E+02 -0.12600905650E+02 -0.86914083113E+01  0.18726459319E+02  0.00000000000E+00 0.  1.
         11    1    3    3    0    0  0.11371347507E+01  0.16152847196E+02  0.21902006581E+02  0.27237941194E+02  0.51100000000E-03 0. -1.
        -11    1    3    3    0    0  0.32895071222E+01  0.12991636462E+02 -0.17803455087E+02  0.22283771861E+02  0.51100000000E-03 0.  1.
         12    1    3    3    0    0 -0.15213526363E+02 -0.16543578009E+02  0.45928568173E+01  0.22939827625E+02  0.00000000000E+00 0. -1.
</event>
<event>
 7    1  0.1789107E-013  0.7246153E+02  0.7816164E-02  0.1226708E+00
        -11   -1    0    0    0    0  0.00000000000E+00  0.00000000000E+00  0.45593999997E+02  0.45594000000E+02  0.51100000000E-03 0. -1.
         11   -1    0    0    0    0 -0.00000000000E+00 -0.00000000000E+00 -0.45593999997E+02  0.45594000000E+02  0.51100000000E-03 0.  1.
    9900012    2    1    2    0    0  0.43541108318E+01  0.34012778217E+01  0.17892834419E+02  0.72461534891E+02  0.69999953880E+02 0.  0.
        -12    1    1    2    0    0 -0.43541108318E+01 -0.34012778217E+01 -0.17892834419E+02  0.18726465109E+02  0.00000000000E+00 0.  1.
         11    1    3    3    0    0  0.10575309983E+01  0.29587566687E+02  0.52755204032E+01  0.30072804826E+02  0.51100000000E-03 0.  1.
        -11    1    3    3    0    0  0.12488396609E+02 -0.32673273417E+01  0.12095071915E+02  0.17689721385E+02  0.51100000000E-03 0. -1.
         12    1    3    3    0    0 -0.91918167750E+01 -0.22918961524E+02  0.52224210096E+00  0.24699008680E+02  0.00000000000E+00 0. -1.
</event>
<event>
 7    1  0.1789107E-013  0.7246154E+02  0.7816164E-02  0.1226708E+00
        -11   -1    0    0    0    0  0.00000000000E+00  0.00000000000E+00  0.45593999997E+02  0.45594000000E+02  0.51100000000E-03 0.  1.
         11   -1    0    0    0    0 -0.00000000000E+00 -0.00000000000E+00 -0.45593999997E+02  0.45594000000E+02  0.51100000000E-03 0. -1.
    9900012    2    1    2    0    0  0.15817862960E+02  0.69983778449E+01 -0.71762329257E+01  0.72461537438E+02  0.69999957199E+02 0.  0.
        -12    1    1    2    0    0 -0.15817862960E+02 -0.69983778449E+01  0.71762329257E+01  0.18726462562E+02  0.00000000000E+00 0.  1.
         11    1    3    3    0    0  0.83610385575E+01  0.22356962165E+02 -0.25945933125E+02  0.35255243142E+02  0.51100000000E-03 0. -1.
        -11    1    3    3    0    0 -0.68814847167E+01  0.29205714618E+01  0.22238190817E+00  0.74789052370E+01  0.51100000000E-03 0.  1.
        -12    1    3    3    0    0  0.14338309119E+02 -0.18279155782E+02  0.18547318291E+02  0.29727389059E+02  0.00000000000E+00 0.  1.
</event>
<event>
 7    1  0.1789107E-013  0.7246158E+02  0.7816164E-02  0.1226708E+00
        -11   -1    0    0    0    0  0.00000000000E+00  0.00000000000E+00  0.45593999997E+02  0.45594000000E+02  0.51100000000E-03 0.  1.
         11   -1    0    0    0    0 -0.00000000000E+00 -0.00000000000E+00 -0.45593999997E+02  0.45594000000E+02  0.51100000000E-03 0. -1.
    9900012    2    1    2    0    0 -0.18686829110E+02 -0.10839617662E+01 -0.55352717477E+00  0.72461576219E+02  0.70000007718E+02 0.  0.
        -12    1    1    2    0    0  0.18686829110E+02  0.10839617662E+01  0.55352717477E+00  0.18726423781E+02  0.00000000000E+00 0.  1.
         11    1    3    3    0    0  0.14783671201E+02  0.12345302582E+01 -0.65333432747E+01  0.16210045458E+02  0.51100000000E-03 0. -1.
        -11    1    3    3    0    0 -0.36163524087E+00  0.82568893884E+01  0.17730462223E+02  0.19562113723E+02  0.51100000000E-03 0.  1.
        -12    1    3    3    0    0 -0.33108865070E+02 -0.10575381413E+02 -0.11750646123E+02  0.36689417038E+02  0.00000000000E+00 0.  1.
</event>
<event>
 7    1  0.1789107E-013  0.7246166E+02  0.7816164E-02  0.1226708E+00
        -11   -1    0    0    0    0  0.00000000000E+00  0.00000000000E+00  0.45593999997E+02  0.45594000000E+02  0.51100000000E-03 0.  1.
         11   -1    0    0    0    0 -0.00000000000E+00 -0.00000000000E+00 -0.45593999997E+02  0.45594000000E+02  0.51100000000E-03 0. -1.
    9900012    2    1    2    0    0  0.32128106120E+01 -0.26400430601E+00 -0.18446784157E+02  0.72461663037E+02  0.70000120815E+02 0.  0.
        -12    1    1    2    0    0 -0.32128106120E+01  0.26400430601E+00  0.18446784157E+02  0.18726336963E+02  0.00000000000E+00 0.  1.
         11    1    3    3    0    0 -0.33102002089E+01  0.17591607716E+02 -0.63521747120E+01  0.18994004614E+02  0.51100000000E-03 0. -1.
        -11    1    3    3    0    0 -0.86904656447E+01  0.12031559071E+02  0.52100562129E+01  0.15729821766E+02  0.51100000000E-03 0.  1.
         12    1    3    3    0    0  0.15213476466E+02 -0.29887171092E+02 -0.17304665658E+02  0.37737836657E+02  0.00000000000E+00 0. -1.
</event>
<event>
 7    1  0.1789107E-013  0.7246158E+02  0.7816164E-02  0.1226708E+00
        -11   -1    0    0    0    0  0.00000000000E+00  0.00000000000E+00  0.45593999997E+02  0.45594000000E+02  0.51100000000E-03 0.  1.
         11   -1    0    0    0    0 -0.00000000000E+00 -0.00000000000E+00 -0.45593999997E+02  0.45594000000E+02  0.51100000000E-03 0. -1.
    9900012    2    1    2    0    0  0.10271689989E+02 -0.14929935021E+01 -0.15586596164E+02  0.72461584839E+02  0.70000018947E+02 0.  0.
        -12    1    1    2    0    0 -0.10271689989E+02  0.14929935021E+01  0.15586596164E+02  0.18726415161E+02  0.00000000000E+00 0.  1.
         11    1    3    3    0    0  0.33230483385E+01  0.10911985624E+02 -0.34372135005E+02  0.36215435184E+02  0.51100000000E-03 0. -1.
        -11    1    3    3    0    0  0.12602880450E+02  0.33895524799E+00 -0.29959068820E+00  0.12610996834E+02  0.51100000000E-03 0.  1.
        -12    1    3    3    0    0 -0.56542387999E+01 -0.12743934374E+02  0.19085129529E+02  0.23635152821E+02  0.00000000000E+00 0.  1.
</event>
<event>
 7    1  0.2757082E-013  0.7246125E+02  0.7816164E-02  0.1226709E+00
        -11   -1    0    0    0    0  0.00000000000E+00  0.00000000000E+00  0.45593999997E+02  0.45594000000E+02  0.51100000000E-03 0. -1.
         11   -1    0    0    0    0 -0.00000000000E+00 -0.00000000000E+00 -0.45593999997E+02  0.45594000000E+02  0.51100000000E-03 0.  1.
    9900012    2    1    2    0    0  0.52092785444E+01  0.14842495053E+02  0.10161446632E+02  0.72461248012E+02  0.69999580166E+02 0.  0.
        -12    1    1    2    0    0 -0.52092785444E+01 -0.14842495053E+02 -0.10161446632E+02  0.18726751988E+02  0.00000000000E+00 0.  1.
         11    1    3    3    0    0 -0.34822670988E+01 -0.57282669606E+01  0.24217094288E+02  0.25127810938E+02  0.51100000000E-03 0. -1.
        -11    1    3    3    0    0 -0.15146184065E+02  0.13442971447E+02 -0.50337038109E+01  0.20867643552E+02  0.51100000000E-03 0.  1.
        -12    1    3    3    0    0  0.23837729709E+02  0.71277905664E+01 -0.90219438450E+01  0.26465793522E+02  0.00000000000E+00 0.  1.
</event>
<event>
 7    1  0.1789107E-013  0.7246160E+02  0.7816164E-02  0.1226708E+00
        -11   -1    0    0    0    0  0.00000000000E+00  0.00000000000E+00  0.45593999997E+02  0.45594000000E+02  0.51100000000E-03 0.  1.
         11   -1    0    0    0    0 -0.00000000000E+00 -0.00000000000E+00 -0.45593999997E+02  0.45594000000E+02  0.51100000000E-03 0. -1.
    9900012    2    1    2    0    0 -0.12299750576E+02  0.85232809440E+01 -0.11258231226E+02  0.72461602786E+02  0.70000042326E+02 0.  0.
        -12    1    1    2    0    0  0.12299750576E+02 -0.85232809440E+01  0.11258231226E+02  0.18726397214E+02  0.00000000000E+00 0.  1.
         11    1    3    3    0    0 -0.28888846925E+01  0.23603260153E+01  0.80281733893E+01  0.88525906883E+01  0.51100000000E-03 0. -1.
        -11    1    3    3    0    0  0.84133955888E+01  0.96723410289E+01  0.18019931830E+02  0.22114641072E+02  0.51100000000E-03 0.  1.
         12    1    3    3    0    0 -0.17824261472E+02 -0.35093861001E+01 -0.37306336446E+02  0.41494371026E+02  0.00000000000E+00 0. -1.
</event>
<event>
 7    1  0.1789107E-013  0.7246156E+02  0.7816164E-02  0.1226708E+00
        -11   -1    0    0    0    0  0.00000000000E+00  0.00000000000E+00  0.45593999997E+02  0.45594000000E+02  0.51100000000E-03 0. -1.
         11   -1    0    0    0    0 -0.00000000000E+00 -0.00000000000E+00 -0.45593999997E+02  0.45594000000E+02  0.51100000000E-03 0.  1.
    9900012    2    1    2    0    0  0.15087699823E+02 -0.97696100109E+01  0.52531513028E+01  0.72461559753E+02  0.69999986268E+02 0.  0.
        -12    1    1    2    0    0 -0.15087699823E+02  0.97696100109E+01 -0.52531513028E+01  0.18726440247E+02  0.00000000000E+00 0.  1.
         11    1    3    3    0    0 -0.54129993878E+01 -0.55109340706E+01  0.13419196770E+02  0.15483726907E+02  0.51100000000E-03 0. -1.
        -11    1    3    3    0    0 -0.78736414139E+01 -0.14668274803E+02  0.12106965167E+02  0.20584730278E+02  0.51100000000E-03 0.  1.
         12    1    3    3    0    0  0.28374340625E+02  0.10409598863E+02 -0.20273010634E+02  0.36393102568E+02  0.00000000000E+00 0. -1.
</event>
<event>
 7    1  0.1789107E-013  0.7246155E+02  0.7816164E-02  0.1226708E+00
        -11   -1    0    0    0    0  0.00000000000E+00  0.00000000000E+00  0.45593999997E+02  0.45594000000E+02  0.51100000000E-03 0. -1.
         11   -1    0    0    0    0 -0.00000000000E+00 -0.00000000000E+00 -0.45593999997E+02  0.45594000000E+02  0.51100000000E-03 0.  1.
    9900012    2    1    2    0    0 -0.16661328556E+02 -0.81768194539E+01 -0.24939337726E+01  0.72461549421E+02  0.69999972809E+02 0.  0.
        -12    1    1    2    0    0  0.16661328556E+02  0.81768194539E+01  0.24939337726E+01  0.18726450579E+02  0.00000000000E+00 0.  1.
         11    1    3    3    0    0 -0.97326225527E+01  0.23506010997E+02  0.41211465352E+01  0.25772860605E+02  0.51100000000E-03 0. -1.
        -11    1    3    3    0    0 -0.14196153928E+01  0.60902180105E+01  0.35431837332E+01  0.71875040527E+01  0.51100000000E-03 0.  1.
        -12    1    3    3    0    0 -0.55090906102E+01 -0.37773048461E+02 -0.10158264041E+02  0.39501184764E+02  0.00000000000E+00 0.  1.
</event>
<event>
 7    1  0.1789107E-013  0.7246164E+02  0.7816164E-02  0.1226708E+00
        -11   -1    0    0    0    0  0.00000000000E+00  0.00000000000E+00  0.45593999997E+02  0.45594000000E+02  0.51100000000E-03 0.  1.
         11   -1    0    0    0    0 -0.00000000000E+00 -0.00000000000E+00 -0.45593999997E+02  0.45594000000E+02  0.51100000000E-03 0. -1.
    9900012    2    1    2    0    0  0.11028843917E+02 -0.97456588290E+00 -0.15102699984E+02  0.72461635601E+02  0.70000085073E+02 0.  0.
        -12    1    1    2    0    0 -0.11028843917E+02  0.97456588290E+00  0.15102699984E+02  0.18726364399E+02  0.00000000000E+00 0.  1.
         11    1    3    3    0    0  0.25069145906E+02 -0.11386427113E+02 -0.24805484613E+01  0.27645359824E+02  0.51100000000E-03 0. -1.
        -11    1    3    3    0    0  0.56415367891E+01  0.81708592585E+01 -0.21061317907E+02  0.23284522555E+02  0.51100000000E-03 0.  1.
        -12    1    3    3    0    0 -0.19681838779E+02  0.22410019716E+01  0.84391663838E+01  0.21531753222E+02  0.00000000000E+00 0.  1.
</event>
<event>
 7    1  0.1789107E-013  0.7246157E+02  0.7816164E-02  0.1226708E+00
        -11   -1    0    0    0    0  0.00000000000E+00  0.00000000000E+00  0.45593999997E+02  0.45594000000E+02  0.51100000000E-03 0.  1.
         11   -1    0    0    0    0 -0.00000000000E+00 -0.00000000000E+00 -0.45593999997E+02  0.45594000000E+02  0.51100000000E-03 0. -1.
    9900012    2    1    2    0    0  0.17970809928E+02  0.48857154860E+01 -0.19644129825E+01  0.72461570985E+02  0.70000000900E+02 0.  0.
        -12    1    1    2    0    0 -0.17970809928E+02 -0.48857154860E+01  0.19644129825E+01  0.18726429015E+02  0.00000000000E+00 0.  1.
         11    1    3    3    0    0  0.97505037754E+01  0.14010332990E+02 -0.25370037931E+02  0.30577779175E+02  0.51100000000E-03 0. -1.
        -11    1    3    3    0    0  0.85503563643E+01 -0.16107995109E+01 -0.66185127524E+01  0.10931970560E+02  0.51100000000E-03 0.  1.
        -12    1    3    3    0    0 -0.33005021168E+00 -0.75138179931E+01  0.30024137701E+02  0.30951821250E+02  0.00000000000E+00 0.  1.
</event>
<event>
 7    1  0.1789107E-013  0.7246159E+02  0.7816164E-02  0.1226708E+00
        -11   -1    0    0    0    0  0.00000000000E+00  0.00000000000E+00  0.45593999997E+02  0.45594000000E+02  0.51100000000E-03 0.  1.
         11   -1    0    0    0    0 -0.00000000000E+00 -0.00000000000E+00 -0.45593999997E+02  0.45594000000E+02  0.51100000000E-03 0. -1.
    9900012    2    1    2    0    0 -0.19552357118E+01 -0.60176509429E+01 -0.17625077392E+02  0.72461590236E+02  0.70000025978E+02 0.  0.
        -12    1    1    2    0    0  0.19552357118E+01  0.60176509429E+01  0.17625077392E+02  0.18726409764E+02  0.00000000000E+00 0.  1.
         11    1    3    3    0    0  0.99834588116E+01 -0.21046640179E+02 -0.34773577347E+02  0.41854894510E+02  0.51100000000E-03 0. -1.
        -11    1    3    3    0    0 -0.53423493600E+01  0.69488388309E+01 -0.18268099969E+01  0.89534514467E+01  0.51100000000E-03 0.  1.
        -12    1    3    3    0    0 -0.65963451633E+01  0.80801504054E+01  0.18975309951E+02  0.21653244280E+02  0.00000000000E+00 0.  1.
</event>
<event>
 7    1  0.1789107E-013  0.7246161E+02  0.7816164E-02  0.1226708E+00
        -11   -1    0    0    0    0  0.00000000000E+00  0.00000000000E+00  0.45593999997E+02  0.45594000000E+02  0.51100000000E-03 0.  1.
         11   -1    0    0    0    0 -0.00000000000E+00 -0.00000000000E+00 -0.45593999997E+02  0.45594000000E+02  0.51100000000E-03 0. -1.
    9900012    2    1    2    0    0 -0.72701761955E+01 -0.51279977369E+01 -0.16478044945E+02  0.72461607184E+02  0.70000048055E+02 0.  0.
        -12    1    1    2    0    0  0.72701761955E+01  0.51279977369E+01  0.16478044945E+02  0.18726392816E+02  0.00000000000E+00 0.  1.
         11    1    3    3    0    0  0.16140299941E+02 -0.93837215066E+01  0.13710388518E+02  0.23163295644E+02  0.51100000000E-03 0. -1.
        -11    1    3    3    0    0 -0.34708903183E+01  0.14933631806E+02 -0.68326524308E+01  0.16785278610E+02  0.51100000000E-03 0.  1.
         12    1    3    3    0    0 -0.19939585818E+02 -0.10677908037E+02 -0.23355781032E+02  0.32513032929E+02  0.00000000000E+00 0. -1.
</event>
<event>
 7    1  0.1789107E-013  0.7246153E+02  0.7816164E-02  0.1226708E+00
        -11   -1    0    0    0    0  0.00000000000E+00  0.00000000000E+00  0.45593999997E+02  0.45594000000E+02  0.51100000000E-03 0.  1.
         11   -1    0    0    0    0 -0.00000000000E+00 -0.00000000000E+00 -0.45593999997E+02  0.45594000000E+02  0.51100000000E-03 0. -1.
    9900012    2    1    2    0    0  0.19261099331E+01 -0.78377564964E+01 -0.16897938105E+02  0.72461531070E+02  0.69999948903E+02 0.  0.
        -12    1    1    2    0    0 -0.19261099331E+01  0.78377564964E+01  0.16897938105E+02  0.18726468930E+02  0.00000000000E+00 0.  1.
         11    1    3    3    0    0 -0.83601101860E+01  0.20263317743E+00 -0.26894215465E+02  0.28164362735E+02  0.51100000000E-03 0. -1.
        -11    1    3    3    0    0  0.22960507095E+02  0.55503629807E+01  0.98061715602E+00  0.23642187411E+02  0.51100000000E-03 0.  1.
        -12    1    3    3    0    0 -0.12674286976E+02 -0.13590752655E+02  0.90156602037E+01  0.20654980924E+02  0.00000000000E+00 0.  1.
</event>
<event>
 7    1  0.1789107E-013  0.7246149E+02  0.7816164E-02  0.1226708E+00
        -11   -1    0    0    0    0  0.00000000000E+00  0.00000000000E+00  0.45593999997E+02  0.45594000000E+02  0.51100000000E-03 0. -1.
         11   -1    0    0    0    0 -0.00000000000E+00 -0.00000000000E+00 -0.45593999997E+02  0.45594000000E+02  0.51100000000E-03 0.  1.
    9900012    2    1    2    0    0 -0.66889040649E+01  0.88264697372E+01  0.15100803291E+02  0.72461487627E+02  0.69999892311E+02 0.  0.
        -12    1    1    2    0    0  0.66889040649E+01 -0.88264697372E+01 -0.15100803291E+02  0.18726512373E+02  0.00000000000E+00 0.  1.
         11    1    3    3    0    0 -0.15666321688E+02 -0.63910835414E+01  0.18337378167E+02  0.24950731900E+02  0.51100000000E-03 0. -1.
        -11    1    3    3    0    0  0.53034503491E+01 -0.15437638255E+02  0.96450082324E+00  0.16351682562E+02  0.51100000000E-03 0.  1.
         12    1    3    3    0    0  0.36739672741E+01  0.30655191534E+02 -0.42010756993E+01  0.31159073165E+02  0.00000000000E+00 0. -1.
</event>
<event>
 7    1  0.1789107E-013  0.7246156E+02  0.7816164E-02  0.1226708E+00
        -11   -1    0    0    0    0  0.00000000000E+00  0.00000000000E+00  0.45593999997E+02  0.45594000000E+02  0.51100000000E-03 0.  1.
         11   -1    0    0    0    0 -0.00000000000E+00 -0.00000000000E+00 -0.45593999997E+02  0.45594000000E+02  0.51100000000E-03 0. -1.
    9900012    2    1    2    0    0  0.80334862034E+00  0.73162190974E+00 -0.18694894121E+02  0.72461555975E+02  0.69999981347E+02 0.  0.
        -12    1    1    2    0    0 -0.80334862034E+00 -0.73162190974E+00  0.18694894121E+02  0.18726444025E+02  0.00000000000E+00 0.  1.
         11    1    3    3    0    0 -0.60819227084E+01  0.58771912163E+00  0.62745080886E+01  0.87581190681E+01  0.51100000000E-03 0. -1.
        -11    1    3    3    0    0 -0.15350936255E+02 -0.19530188260E+02  0.10541057990E+00  0.24841308521E+02  0.51100000000E-03 0.  1.
         12    1    3    3    0    0  0.22236207583E+02  0.19674091049E+02 -0.25074812789E+02  0.38862128386E+02  0.00000000000E+00 0. -1.
</event>
<event>
 7    1  0.1789107E-013  0.7246157E+02  0.7816164E-02  0.1226708E+00
        -11   -1    0    0    0    0  0.00000000000E+00  0.00000000000E+00  0.45593999997E+02  0.45594000000E+02  0.51100000000E-03 0.  1.
         11   -1    0    0    0    0 -0.00000000000E+00 -0.00000000000E+00 -0.45593999997E+02  0.45594000000E+02  0.51100000000E-03 0. -1.
    9900012    2    1    2    0    0  0.11734811929E+02  0.10336788105E+02  0.10301650745E+02  0.72461574623E+02  0.70000005639E+02 0.  0.
        -12    1    1    2    0    0 -0.11734811929E+02 -0.10336788105E+02 -0.10301650745E+02  0.18726425377E+02  0.00000000000E+00 0.  1.
         11    1    3    3    0    0  0.27026699993E+02  0.13327202169E+02 -0.12020998947E+02  0.32443200306E+02  0.51100000000E-03 0. -1.
        -11    1    3    3    0    0 -0.72512226954E+01  0.10292472981E+02 -0.28349421732E+00  0.12593474496E+02  0.51100000000E-03 0.  1.
        -12    1    3    3    0    0 -0.80406653684E+01 -0.13282887045E+02  0.22606143909E+02  0.27424899822E+02  0.00000000000E+00 0.  1.
</event>
<event>
 7    1  0.1789107E-013  0.7246161E+02  0.7816164E-02  0.1226708E+00
        -11   -1    0    0    0    0  0.00000000000E+00  0.00000000000E+00  0.45593999997E+02  0.45594000000E+02  0.51100000000E-03 0.  1.
         11   -1    0    0    0    0 -0.00000000000E+00 -0.00000000000E+00 -0.45593999997E+02  0.45594000000E+02  0.51100000000E-03 0. -1.
    9900012    2    1    2    0    0  0.65643953473E+01 -0.17396132796E+02 -0.22273136996E+01  0.72461610896E+02  0.70000052892E+02 0.  0.
        -12    1    1    2    0    0 -0.65643953473E+01  0.17396132796E+02  0.22273136996E+01  0.18726389104E+02  0.00000000000E+00 0.  1.
         11    1    3    3    0    0  0.17870941688E+02  0.16521749113E+02 -0.12633810136E+02  0.27421741545E+02  0.51100000000E-03 0. -1.
        -11    1    3    3    0    0 -0.69375740917E+01  0.13976033106E-01  0.82225345803E+01  0.10758262164E+02  0.51100000000E-03 0.  1.
        -12    1    3    3    0    0 -0.43689722488E+01 -0.33931857942E+02  0.21839618562E+01  0.34281607187E+02  0.00000000000E+00 0.  1.
</event>
<event>
 7    1  0.1789107E-013  0.7246158E+02  0.7816164E-02  0.1226708E+00
        -11   -1    0    0    0    0  0.00000000000E+00  0.00000000000E+00  0.45593999997E+02  0.45594000000E+02  0.51100000000E-03 0.  1.
         11   -1    0    0    0    0 -0.00000000000E+00 -0.00000000000E+00 -0.45593999997E+02  0.45594000000E+02  0.51100000000E-03 0. -1.
    9900012    2    1    2    0    0  0.40273041622E+01  0.81266542073E+01 -0.16383440652E+02  0.72461579759E+02  0.70000012330E+02 0.  0.
        -12    1    1    2    0    0 -0.40273041622E+01 -0.81266542073E+01  0.16383440652E+02  0.18726420241E+02  0.00000000000E+00 0.  1.
         11    1    3    3    0    0  0.98576077010E+01  0.10382481901E+02 -0.25524081991E+02  0.29265117833E+02  0.51100000000E-03 0. -1.
        -11    1    3    3    0    0  0.14917445314E+02 -0.11703004354E+02  0.99056364800E+00  0.18986092337E+02  0.51100000000E-03 0.  1.
         12    1    3    3    0    0 -0.20747748853E+02  0.94471766604E+01  0.81500776908E+01  0.24210369590E+02  0.00000000000E+00 0. -1.
</event>
<event>
 7    1  0.1789107E-013  0.7246164E+02  0.7816164E-02  0.1226708E+00
        -11   -1    0    0    0    0  0.00000000000E+00  0.00000000000E+00  0.45593999997E+02  0.45594000000E+02  0.51100000000E-03 0. -1.
         11   -1    0    0    0    0 -0.00000000000E+00 -0.00000000000E+00 -0.45593999997E+02  0.45594000000E+02  0.51100000000E-03 0.  1.
    9900012    2    1    2    0    0 -0.40222759418E+01 -0.64272077063E+01  0.17122756521E+02  0.72461641744E+02  0.70000093076E+02 0.  0.
        -12    1    1    2    0    0  0.40222759418E+01  0.64272077063E+01 -0.17122756521E+02  0.18726358256E+02  0.00000000000E+00 0.  1.
         11    1    3    3    0    0  0.67651684051E+01 -0.28159625233E+02 -0.49234413702E+01  0.29376389703E+02  0.51100000000E-03 0.  1.
        -11    1    3    3    0    0 -0.34416321888E+01  0.88041854853E+00  0.20628087604E+02  0.20931745446E+02  0.51100000000E-03 0. -1.
        -12    1    3    3    0    0 -0.73458121581E+01  0.20851998978E+02  0.14181102872E+01  0.22153506595E+02  0.00000000000E+00 0.  1.
</event>
<event>
 7    1  0.1789107E-013  0.7246176E+02  0.7816164E-02  0.1226708E+00
        -11   -1    0    0    0    0  0.00000000000E+00  0.00000000000E+00  0.45593999997E+02  0.45594000000E+02  0.51100000000E-03 0.  1.
         11   -1    0    0    0    0 -0.00000000000E+00 -0.00000000000E+00 -0.45593999997E+02  0.45594000000E+02  0.51100000000E-03 0. -1.
    9900012    2    1    2    0    0  0.20835517895E+01  0.43796857397E+01 -0.18087272055E+02  0.72461755165E+02  0.70000240827E+02 0.  0.
        -12    1    1    2    0    0 -0.20835517895E+01 -0.43796857397E+01  0.18087272055E+02  0.18726244835E+02  0.00000000000E+00 0.  1.
         11    1    3    3    0    0  0.11162533462E+02 -0.10950650937E+01 -0.12510657321E+02  0.16802317332E+02  0.51100000000E-03 0. -1.
        -11    1    3    3    0    0 -0.29794050986E+01 -0.14688594432E+02 -0.23585744133E+02  0.27944927764E+02  0.51100000000E-03 0.  1.
        -12    1    3    3    0    0 -0.60995765744E+01  0.20163345266E+02  0.18009129399E+02  0.27714510069E+02  0.00000000000E+00 0.  1.
</event>
<event>
 7    1  0.1789107E-013  0.7246170E+02  0.7816164E-02  0.1226708E+00
        -11   -1    0    0    0    0  0.00000000000E+00  0.00000000000E+00  0.45593999997E+02  0.45594000000E+02  0.51100000000E-03 0. -1.
         11   -1    0    0    0    0 -0.00000000000E+00 -0.00000000000E+00 -0.45593999997E+02  0.45594000000E+02  0.51100000000E-03 0.  1.
    9900012    2    1    2    0    0  0.90448177212E+01  0.61570297733E+01  0.15197257873E+02  0.72461697906E+02  0.70000166238E+02 0.  0.
        -12    1    1    2    0    0 -0.90448177212E+01 -0.61570297733E+01 -0.15197257873E+02  0.18726302094E+02  0.00000000000E+00 0.  1.
         11    1    3    3    0    0  0.12383934762E+02  0.10791852552E+02 -0.11484043058E+02  0.20042683626E+02  0.51100000000E-03 0. -1.
        -11    1    3    3    0    0 -0.21799735107E+02  0.55657443676E+01  0.20507070499E+02  0.30442501570E+02  0.51100000000E-03 0.  1.
         12    1    3    3    0    0  0.18460618066E+02 -0.10200567146E+02  0.61742304325E+01  0.21976512711E+02  0.00000000000E+00 0. -1.
</event>
<event>
 7    1  0.1789107E-013  0.7246157E+02  0.7816164E-02  0.1226708E+00
        -11   -1    0    0    0    0  0.00000000000E+00  0.00000000000E+00  0.45593999997E+02  0.45594000000E+02  0.51100000000E-03 0.  1.
         11   -1    0    0    0    0 -0.00000000000E+00 -0.00000000000E+00 -0.45593999997E+02  0.45594000000E+02  0.51100000000E-03 0. -1.
    9900012    2    1    2    0    0 -0.13731764025E+02  0.34357063222E+01 -0.12260243907E+02  0.72461574771E+02  0.70000005832E+02 0.  0.
        -12    1    1    2    0    0  0.13731764025E+02 -0.34357063222E+01  0.12260243907E+02  0.18726425229E+02  0.00000000000E+00 0.  1.
         11    1    3    3    0    0 -0.15643413580E+02  0.82685830050E+01 -0.27414456766E+02  0.32628795464E+02  0.51100000000E-03 0.  1.
        -11    1    3    3    0    0  0.74923163494E+01 -0.17989070539E+02  0.68952691164E+00  0.19499151540E+02  0.51100000000E-03 0. -1.
        -12    1    3    3    0    0 -0.55806667945E+01  0.13156193856E+02  0.14464685947E+02  0.20333627768E+02  0.00000000000E+00 0.  1.
</event>
<event>
 7    1  0.1789107E-013  0.7246156E+02  0.7816164E-02  0.1226708E+00
        -11   -1    0    0    0    0  0.00000000000E+00  0.00000000000E+00  0.45593999997E+02  0.45594000000E+02  0.51100000000E-03 0. -1.
         11   -1    0    0    0    0 -0.00000000000E+00 -0.00000000000E+00 -0.45593999997E+02  0.45594000000E+02  0.51100000000E-03 0.  1.
    9900012    2    1    2    0    0 -0.10803279533E+02  0.60807029755E+01  0.14035441153E+02  0.72461563988E+02  0.69999991785E+02 0.  0.
        -12    1    1    2    0    0  0.10803279533E+02 -0.60807029755E+01 -0.14035441153E+02  0.18726436012E+02  0.00000000000E+00 0.  1.
         11    1    3    3    0    0 -0.11154725111E+01  0.60244900376E+01  0.16858217099E+02  0.17937063393E+02  0.51100000000E-03 0. -1.
        -11    1    3    3    0    0 -0.16151475061E+02 -0.13980040500E+02  0.18453615053E+02  0.28228488939E+02  0.51100000000E-03 0.  1.
        -12    1    3    3    0    0  0.64636680385E+01  0.14036253438E+02 -0.21276390999E+02  0.26296011656E+02  0.00000000000E+00 0.  1.
</event>
<event>
 7    1  0.1789107E-013  0.7246155E+02  0.7816164E-02  0.1226708E+00
        -11   -1    0    0    0    0  0.00000000000E+00  0.00000000000E+00  0.45593999997E+02  0.45594000000E+02  0.51100000000E-03 0.  1.
         11   -1    0    0    0    0 -0.00000000000E+00 -0.00000000000E+00 -0.45593999997E+02  0.45594000000E+02  0.51100000000E-03 0. -1.
    9900012    2    1    2    0    0  0.63138019860E+01  0.15368089929E+01 -0.17562859272E+02  0.72461550705E+02  0.69999974481E+02 0.  0.
        -12    1    1    2    0    0 -0.63138019860E+01 -0.15368089929E+01  0.17562859272E+02  0.18726449295E+02  0.00000000000E+00 0.  1.
         11    1    3    3    0    0  0.24207818999E+01  0.21930429848E+02 -0.16590316431E+02  0.27605117965E+02  0.51100000000E-03 0. -1.
        -11    1    3    3    0    0  0.14901492333E+02 -0.11258034322E+02  0.14603603793E+02  0.23707869043E+02  0.51100000000E-03 0.  1.
        -12    1    3    3    0    0 -0.11008472247E+02 -0.91355865327E+01 -0.15576146633E+02  0.21148563697E+02  0.00000000000E+00 0.  1.
</event>
<event>
 7    1  0.1789107E-013  0.7246165E+02  0.7816164E-02  0.1226708E+00
        -11   -1    0    0    0    0  0.00000000000E+00  0.00000000000E+00  0.45593999997E+02  0.45594000000E+02  0.51100000000E-03 0.  1.
         11   -1    0    0    0    0 -0.00000000000E+00 -0.00000000000E+00 -0.45593999997E+02  0.45594000000E+02  0.51100000000E-03 0. -1.
    9900012    2    1    2    0    0  0.16522154015E+02 -0.29401007821E+01 -0.83096506284E+01  0.72461653334E+02  0.70000108175E+02 0.  0.
        -12    1    1    2    0    0 -0.16522154015E+02  0.29401007821E+01  0.83096506284E+01  0.18726346666E+02  0.00000000000E+00 0.  1.
         11    1    3    3    0    0 -0.34032262188E+01  0.22016832056E+02 -0.14217294885E+02  0.26428286297E+02  0.51100000000E-03 0. -1.
        -11    1    3    3    0    0  0.89694522366E+01 -0.34423351775E+01  0.16950825344E+02  0.19484127514E+02  0.51100000000E-03 0.  1.
        -12    1    3    3    0    0  0.10955927997E+02 -0.21514597660E+02 -0.11043181087E+02  0.26549239523E+02  0.00000000000E+00 0.  1.
</event>
<event>
 7    1  0.1789107E-013  0.7246147E+02  0.7816164E-02  0.1226708E+00
        -11   -1    0    0    0    0  0.00000000000E+00  0.00000000000E+00  0.45593999997E+02  0.45594000000E+02  0.51100000000E-03 0. -1.
         11   -1    0    0    0    0 -0.00000000000E+00 -0.00000000000E+00 -0.45593999997E+02  0.45594000000E+02  0.51100000000E-03 0.  1.
    9900012    2    1    2    0    0 -0.14500905574E+02 -0.86055952759E+01  0.81455797688E+01  0.72461467959E+02  0.69999866689E+02 0.  0.
        -12    1    1    2    0    0  0.14500905574E+02  0.86055952759E+01 -0.81455797688E+01  0.18726532041E+02  0.00000000000E+00 0.  1.
         11    1    3    3    0    0 -0.18106311866E+02 -0.22120635667E+02 -0.15614481177E+02  0.32572581636E+02  0.51100000000E-03 0.  1.
        -11    1    3    3    0    0 -0.32937144284E+01  0.31761157119E+01 -0.60534388712E+01  0.75881742323E+01  0.51100000000E-03 0. -1.
         12    1    3    3    0    0  0.68991207209E+01  0.10338924679E+02  0.29813499817E+02  0.32300712091E+02  0.00000000000E+00 0. -1.
</event>
<event>
 7    1  0.1789107E-013  0.7246157E+02  0.7816164E-02  0.1226708E+00
        -11   -1    0    0    0    0  0.00000000000E+00  0.00000000000E+00  0.45593999997E+02  0.45594000000E+02  0.51100000000E-03 0.  1.
         11   -1    0    0    0    0 -0.00000000000E+00 -0.00000000000E+00 -0.45593999997E+02  0.45594000000E+02  0.51100000000E-03 0. -1.
    9900012    2    1    2    0    0 -0.15649322389E+02  0.33661755932E+01 -0.97183777579E+01  0.72461566928E+02  0.69999995615E+02 0.  0.
        -12    1    1    2    0    0  0.15649322389E+02 -0.33661755932E+01  0.97183777579E+01  0.18726433072E+02  0.00000000000E+00 0.  1.
         11    1    3    3    0    0  0.13963119629E+01  0.64978042812E+01  0.10080977967E+02  0.12074653809E+02  0.51100000000E-03 0.  1.
        -11    1    3    3    0    0 -0.18457762397E+02  0.36758657060E+01 -0.37177448213E+02  0.41669696871E+02  0.51100000000E-03 0. -1.
         12    1    3    3    0    0  0.14121280452E+01 -0.68074943941E+01  0.17378092489E+02  0.18717216248E+02  0.00000000000E+00 0. -1.
</event>
<event>
 7    1  0.1789107E-013  0.7246155E+02  0.7816164E-02  0.1226708E+00
        -11   -1    0    0    0    0  0.00000000000E+00  0.00000000000E+00  0.45593999997E+02  0.45594000000E+02  0.51100000000E-03 0. -1.
         11   -1    0    0    0    0 -0.00000000000E+00 -0.00000000000E+00 -0.45593999997E+02  0.45594000000E+02  0.51100000000E-03 0.  1.
    9900012    2    1    2    0    0  0.17687547003E+02  0.52612865889E+01 -0.31857976704E+01  0.72461554465E+02  0.69999979380E+02 0.  0.
        -12    1    1    2    0    0 -0.17687547003E+02 -0.52612865889E+01  0.31857976704E+01  0.18726445535E+02  0.00000000000E+00 0.  1.
         11    1    3    3    0    0  0.18064001077E+02  0.13509219259E+02  0.17287689579E+02  0.28419559306E+02  0.51100000000E-03 0. -1.
        -11    1    3    3    0    0  0.13448577639E+02  0.93029546253E+01 -0.59853571398E+01  0.17413606910E+02  0.51100000000E-03 0.  1.
        -12    1    3    3    0    0 -0.13825031712E+02 -0.17550887295E+02 -0.14488130109E+02  0.26628388249E+02  0.00000000000E+00 0.  1.
</event>
<event>
 7    1  0.1789107E-013  0.7246155E+02  0.7816164E-02  0.1226708E+00
        -11   -1    0    0    0    0  0.00000000000E+00  0.00000000000E+00  0.45593999997E+02  0.45594000000E+02  0.51100000000E-03 0. -1.
         11   -1    0    0    0    0 -0.00000000000E+00 -0.00000000000E+00 -0.45593999997E+02  0.45594000000E+02  0.51100000000E-03 0.  1.
    9900012    2    1    2    0    0 -0.56115923868E+01  0.73984623627E+01  0.16261997126E+02  0.72461554395E+02  0.69999979289E+02 0.  0.
        -12    1    1    2    0    0  0.56115923868E+01 -0.73984623627E+01 -0.16261997126E+02  0.18726445605E+02  0.00000000000E+00 0.  1.
         11    1    3    3    0    0  0.94569125128E+01  0.11109978724E+02  0.62433212991E+00  0.14603239791E+02  0.51100000000E-03 0.  1.
        -11    1    3    3    0    0  0.19724358414E+02  0.11145158842E+01  0.93062003840E+00  0.19777727737E+02  0.51100000000E-03 0. -1.
         12    1    3    3    0    0 -0.34792863314E+02 -0.48260322455E+01  0.14707044958E+02  0.38080586868E+02  0.00000000000E+00 0. -1.
</event>
<event>
 7    1  0.1789107E-013  0.7246159E+02  0.7816164E-02  0.1226708E+00
        -11   -1    0    0    0    0  0.00000000000E+00  0.00000000000E+00  0.45593999997E+02  0.45594000000E+02  0.51100000000E-03 0. -1.
         11   -1    0    0    0    0 -0.00000000000E+00 -0.00000000000E+00 -0.45593999997E+02  0.45594000000E+02  0.51100000000E-03 0.  1.
    9900012    2    1    2    0    0  0.15551523741E+02 -0.16089173095E+00  0.10430853957E+02  0.72461588408E+02  0.70000023597E+02 0.  0.
        -12    1    1    2    0    0 -0.15551523741E+02  0.16089173095E+00 -0.10430853957E+02  0.18726411592E+02  0.00000000000E+00 0.  1.
         11    1    3    3    0    0  0.33882774601E+01  0.71353634643E+01 -0.19252640111E+01  0.81302200270E+01  0.51100000000E-03 0. -1.
        -11    1    3    3    0    0 -0.10544146896E+02 -0.19023835819E+02 -0.15362517743E+02  0.26628787331E+02  0.51100000000E-03 0.  1.
         12    1    3    3    0    0  0.22707393177E+02  0.11727580624E+02  0.27718635711E+02  0.37702581051E+02  0.00000000000E+00 0. -1.
</event>
<event>
 7    1  0.1789107E-013  0.7246156E+02  0.7816164E-02  0.1226708E+00
        -11   -1    0    0    0    0  0.00000000000E+00  0.00000000000E+00  0.45593999997E+02  0.45594000000E+02  0.51100000000E-03 0.  1.
         11   -1    0    0    0    0 -0.00000000000E+00 -0.00000000000E+00 -0.45593999997E+02  0.45594000000E+02  0.51100000000E-03 0. -1.
    9900012    2    1    2    0    0 -0.18270022774E+02  0.17629222855E+01 -0.37118757611E+01  0.72461557497E+02  0.69999983329E+02 0.  0.
        -12    1    1    2    0    0  0.18270022774E+02 -0.17629222855E+01  0.37118757611E+01  0.18726442503E+02  0.00000000000E+00 0.  1.
         11    1    3    3    0    0 -0.53727491553E+01 -0.17881341568E+02  0.92871180645E+01  0.20853282043E+02  0.51100000000E-03 0. -1.
        -11    1    3    3    0    0 -0.98361391618E+00  0.63539127522E+01  0.16175837282E+02  0.17406820952E+02  0.51100000000E-03 0.  1.
        -12    1    3    3    0    0 -0.11913659702E+02  0.13290351102E+02 -0.29174831108E+02  0.34201454503E+02  0.00000000000E+00 0.  1.
</event>
<event>
 7    1  0.1789107E-013  0.7246159E+02  0.7816164E-02  0.1226708E+00
        -11   -1    0    0    0    0  0.00000000000E+00  0.00000000000E+00  0.45593999997E+02  0.45594000000E+02  0.51100000000E-03 0. -1.
         11   -1    0    0    0    0 -0.00000000000E+00 -0.00000000000E+00 -0.45593999997E+02  0.45594000000E+02  0.51100000000E-03 0.  1.
    9900012    2    1    2    0    0 -0.71806912959E+01  0.44245344837E+01  0.16719437564E+02  0.72461590164E+02  0.70000025884E+02 0.  0.
        -12    1    1    2    0    0  0.71806912959E+01 -0.44245344837E+01 -0.16719437564E+02  0.18726409836E+02  0.00000000000E+00 0.  1.
         11    1    3    3    0    0  0.99848267207E+01 -0.25466773944E+01  0.23293233358E+02  0.25470709667E+02  0.51100000000E-03 0. -1.
        -11    1    3    3    0    0 -0.12589936187E+01 -0.10505792783E+02  0.12675529310E+02  0.16511383663E+02  0.51100000000E-03 0.  1.
        -12    1    3    3    0    0 -0.15906524398E+02  0.17477004661E+02 -0.19249325104E+02  0.30479496835E+02  0.00000000000E+00 0.  1.
</event>
<event>
 7    1  0.1789107E-013  0.7246157E+02  0.7816164E-02  0.1226708E+00
        -11   -1    0    0    0    0  0.00000000000E+00  0.00000000000E+00  0.45593999997E+02  0.45594000000E+02  0.51100000000E-03 0.  1.
         11   -1    0    0    0    0 -0.00000000000E+00 -0.00000000000E+00 -0.45593999997E+02  0.45594000000E+02  0.51100000000E-03 0. -1.
    9900012    2    1    2    0    0  0.32945723029E+01  0.17957706448E+02  0.41648152974E+01  0.72461571777E+02  0.70000001932E+02 0.  0.
        -12    1    1    2    0    0 -0.32945723029E+01 -0.17957706448E+02 -0.41648152974E+01  0.18726428223E+02  0.00000000000E+00 0.  1.
         11    1    3    3    0    0 -0.20079903731E+02 -0.62990478030E+01  0.61985640790E+01  0.21938612855E+02  0.51100000000E-03 0. -1.
        -11    1    3    3    0    0 -0.74518564582E+01  0.65726010492E+01  0.89011064627E+01  0.13340125402E+02  0.51100000000E-03 0.  1.
        -12    1    3    3    0    0  0.30826332493E+02  0.17684153201E+02 -0.10934855244E+02  0.37182833520E+02  0.00000000000E+00 0.  1.
</event>
<event>
 7    1  0.1789107E-013  0.7246163E+02  0.7816164E-02  0.1226708E+00
        -11   -1    0    0    0    0  0.00000000000E+00  0.00000000000E+00  0.45593999997E+02  0.45594000000E+02  0.51100000000E-03 0. -1.
         11   -1    0    0    0    0 -0.00000000000E+00 -0.00000000000E+00 -0.45593999997E+02  0.45594000000E+02  0.51100000000E-03 0.  1.
    9900012    2    1    2    0    0 -0.66200927902E+01 -0.13475590968E+02  0.11191946590E+02  0.72461632254E+02  0.70000080713E+02 0.  0.
        -12    1    1    2    0    0  0.66200927902E+01  0.13475590968E+02 -0.11191946590E+02  0.18726367746E+02  0.00000000000E+00 0.  1.
         11    1    3    3    0    0 -0.12846632159E+02  0.47039107678E+01  0.78363048840E+01  0.15766115845E+02  0.51100000000E-03 0. -1.
        -11    1    3    3    0    0 -0.14155897537E+02 -0.62835596458E+01 -0.18777547608E+02  0.24340683050E+02  0.51100000000E-03 0.  1.
         12    1    3    3    0    0  0.20382436906E+02 -0.11895942090E+02  0.22133189314E+02  0.32354833359E+02  0.00000000000E+00 0. -1.
</event>
<event>
 7    1  0.1789107E-013  0.7246154E+02  0.7816164E-02  0.1226708E+00
        -11   -1    0    0    0    0  0.00000000000E+00  0.00000000000E+00  0.45593999997E+02  0.45594000000E+02  0.51100000000E-03 0.  1.
         11   -1    0    0    0    0 -0.00000000000E+00 -0.00000000000E+00 -0.45593999997E+02  0.45594000000E+02  0.51100000000E-03 0. -1.
    9900012    2    1    2    0    0  0.16935967863E+02  0.30668321032E+01 -0.73788859921E+01  0.72461536771E+02  0.69999956329E+02 0.  0.
        -12    1    1    2    0    0 -0.16935967863E+02 -0.30668321032E+01  0.73788859921E+01  0.18726463229E+02  0.00000000000E+00 0.  1.
         11    1    3    3    0    0  0.39166737264E+02 -0.20062783681E+01  0.77139834776E+01  0.39969538428E+02  0.51100000000E-03 0. -1.
        -11    1    3    3    0    0  0.97515671337E+00 -0.36100148396E+01 -0.59956852023E+00  0.37871652234E+01  0.51100000000E-03 0.  1.
        -12    1    3    3    0    0 -0.23205926115E+02  0.86831253109E+01 -0.14493300949E+02  0.28704833119E+02  0.00000000000E+00 0.  1.
</event>
<event>
 7    1  0.1789107E-013  0.7246149E+02  0.7816164E-02  0.1226708E+00
        -11   -1    0    0    0    0  0.00000000000E+00  0.00000000000E+00  0.45593999997E+02  0.45594000000E+02  0.51100000000E-03 0.  1.
         11   -1    0    0    0    0 -0.00000000000E+00 -0.00000000000E+00 -0.45593999997E+02  0.45594000000E+02  0.51100000000E-03 0. -1.
    9900012    2    1    2    0    0  0.27402898151E+01 -0.10267008129E+02 -0.15419522966E+02  0.72461485837E+02  0.69999889979E+02 0.  0.
        -12    1    1    2    0    0 -0.27402898151E+01  0.10267008129E+02  0.15419522966E+02  0.18726514163E+02  0.00000000000E+00 0.  1.
         11    1    3    3    0    0 -0.90994501237E+01  0.54846497371E+01 -0.14757165067E+02  0.18183929619E+02  0.51100000000E-03 0. -1.
        -11    1    3    3    0    0 -0.59418568321E+01 -0.22605451931E+02  0.16517049012E+02  0.28620360374E+02  0.51100000000E-03 0.  1.
         12    1    3    3    0    0  0.17781596771E+02  0.68537940652E+01 -0.17179406910E+02  0.25657195844E+02  0.00000000000E+00 0. -1.
</event>
<event>
 7    1  0.1789107E-013  0.7246139E+02  0.7816164E-02  0.1226708E+00
        -11   -1    0    0    0    0  0.00000000000E+00  0.00000000000E+00  0.45593999997E+02  0.45594000000E+02  0.51100000000E-03 0. -1.
         11   -1    0    0    0    0 -0.00000000000E+00 -0.00000000000E+00 -0.45593999997E+02  0.45594000000E+02  0.51100000000E-03 0.  1.
    9900012    2    1    2    0    0 -0.12329331600E+02 -0.86096845947E+00  0.14068837018E+02  0.72461391673E+02  0.69999767312E+02 0.  0.
        -12    1    1    2    0    0  0.12329331600E+02  0.86096845947E+00 -0.14068837018E+02  0.18726608327E+02  0.00000000000E+00 0.  1.
         11    1    3    3    0    0 -0.20254415511E+01  0.41063251788E+01 -0.14776429817E+02  0.15469557148E+02  0.51100000000E-03 0. -1.
        -11    1    3    3    0    0 -0.76498064465E+01 -0.58030750907E+01 -0.12383141205E+02  0.15669633230E+02  0.51100000000E-03 0.  1.
         12    1    3    3    0    0 -0.26540836021E+01  0.83578145239E+00  0.41228408040E+02  0.41322201296E+02  0.00000000000E+00 0. -1.
</event>
<event>
 7    1  0.1789107E-013  0.7246157E+02  0.7816164E-02  0.1226708E+00
        -11   -1    0    0    0    0  0.00000000000E+00  0.00000000000E+00  0.45593999997E+02  0.45594000000E+02  0.51100000000E-03 0.  1.
         11   -1    0    0    0    0 -0.00000000000E+00 -0.00000000000E+00 -0.45593999997E+02  0.45594000000E+02  0.51100000000E-03 0. -1.
    9900012    2    1    2    0    0  0.15191807735E+02  0.99369970039E+01 -0.45982715131E+01  0.72461573950E+02  0.70000004762E+02 0.  0.
        -12    1    1    2    0    0 -0.15191807735E+02 -0.99369970039E+01  0.45982715131E+01  0.18726426050E+02  0.00000000000E+00 0.  1.
         11    1    3    3    0    0  0.66418133542E+01  0.33710792402E+01 -0.28864755321E+02  0.29810266015E+02  0.51100000000E-03 0. -1.
        -11    1    3    3    0    0  0.38171813269E+01  0.86205064418E+01 -0.65024587146E+01  0.11452771463E+02  0.51100000000E-03 0.  1.
        -12    1    3    3    0    0  0.47328130536E+01 -0.20545886780E+01  0.30768942522E+02  0.31198536472E+02  0.00000000000E+00 0.  1.
</event>
<event>
 7    1  0.1789107E-013  0.7246149E+02  0.7816164E-02  0.1226708E+00
        -11   -1    0    0    0    0  0.00000000000E+00  0.00000000000E+00  0.45593999997E+02  0.45594000000E+02  0.51100000000E-03 0. -1.
         11   -1    0    0    0    0 -0.00000000000E+00 -0.00000000000E+00 -0.45593999997E+02  0.45594000000E+02  0.51100000000E-03 0.  1.
    9900012    2    1    2    0    0 -0.32858960270E+01 -0.13826069347E+02  0.12195277480E+02  0.72461492074E+02  0.69999898103E+02 0.  0.
        -12    1    1    2    0    0  0.32858960270E+01  0.13826069347E+02 -0.12195277480E+02  0.18726507926E+02  0.00000000000E+00 0.  1.
         11    1    3    3    0    0 -0.10400451982E+02  0.89942418035E+01  0.32622081751E+01  0.14131800645E+02  0.51100000000E-03 0. -1.
        -11    1    3    3    0    0  0.79207043206E+01 -0.45917653218E+00  0.27894209717E+02  0.29000609235E+02  0.51100000000E-03 0.  1.
        -12    1    3    3    0    0 -0.80614836603E+00 -0.22361134619E+02 -0.18961140412E+02  0.29329082194E+02  0.00000000000E+00 0.  1.
</event>
<event>
 7    1  0.1789107E-013  0.7246157E+02  0.7816164E-02  0.1226708E+00
        -11   -1    0    0    0    0  0.00000000000E+00  0.00000000000E+00  0.45593999997E+02  0.45594000000E+02  0.51100000000E-03 0.  1.
         11   -1    0    0    0    0 -0.00000000000E+00 -0.00000000000E+00 -0.45593999997E+02  0.45594000000E+02  0.51100000000E-03 0. -1.
    9900012    2    1    2    0    0  0.17242444283E+02 -0.67445462072E+01 -0.28086559158E+01  0.72461565838E+02  0.69999994194E+02 0.  0.
        -12    1    1    2    0    0 -0.17242444283E+02  0.67445462072E+01  0.28086559158E+01  0.18726434162E+02  0.00000000000E+00 0.  1.
         11    1    3    3    0    0 -0.44480750468E+01 -0.22500887071E+02 -0.79667067504E+01  0.24280521150E+02  0.51100000000E-03 0. -1.
        -11    1    3    3    0    0  0.26179691637E+02  0.64884937011E+01 -0.10911258245E+02  0.29095229187E+02  0.51100000000E-03 0.  1.
        -12    1    3    3    0    0 -0.44891723074E+01  0.92678471627E+01  0.16069309079E+02  0.19085815501E+02  0.00000000000E+00 0.  1.
</event>
<event>
 7    1  0.1789107E-013  0.7246163E+02  0.7816164E-02  0.1226708E+00
        -11   -1    0    0    0    0  0.00000000000E+00  0.00000000000E+00  0.45593999997E+02  0.45594000000E+02  0.51100000000E-03 0. -1.
         11   -1    0    0    0    0 -0.00000000000E+00 -0.00000000000E+00 -0.45593999997E+02  0.45594000000E+02  0.51100000000E-03 0.  1.
    9900012    2    1    2    0    0 -0.10817179390E+01  0.82841832655E+01  0.16759444625E+02  0.72461633823E+02  0.70000082758E+02 0.  0.
        -12    1    1    2    0    0  0.10817179390E+01 -0.82841832655E+01 -0.16759444625E+02  0.18726366177E+02  0.00000000000E+00 0.  1.
         11    1    3    3    0    0  0.51602854768E+01  0.98359681379E+00 -0.24785798303E+01  0.58085598156E+01  0.51100000000E-03 0. -1.
        -11    1    3    3    0    0 -0.22064003170E+02 -0.16374417192E+02 -0.65388861792E+01  0.28243562222E+02  0.51100000000E-03 0.  1.
         12    1    3    3    0    0  0.15821999754E+02  0.23675003644E+02  0.25776910634E+02  0.38409511785E+02  0.00000000000E+00 0. -1.
</event>
<event>
 7    1  0.1789107E-013  0.7246156E+02  0.7816164E-02  0.1226708E+00
        -11   -1    0    0    0    0  0.00000000000E+00  0.00000000000E+00  0.45593999997E+02  0.45594000000E+02  0.51100000000E-03 0.  1.
         11   -1    0    0    0    0 -0.00000000000E+00 -0.00000000000E+00 -0.45593999997E+02  0.45594000000E+02  0.51100000000E-03 0. -1.
    9900012    2    1    2    0    0 -0.85958428947E+01  0.42359475672E+01 -0.16088750306E+02  0.72461557378E+02  0.69999983174E+02 0.  0.
        -12    1    1    2    0    0  0.85958428947E+01 -0.42359475672E+01  0.16088750306E+02  0.18726442622E+02  0.00000000000E+00 0.  1.
         11    1    3    3    0    0 -0.83146456576E+01  0.10631385864E+01 -0.25872685191E+02  0.27196680594E+02  0.51100000000E-03 0. -1.
        -11    1    3    3    0    0 -0.22081600576E+02 -0.10205998184E+00  0.36410820667E+01  0.22380012938E+02  0.51100000000E-03 0.  1.
        -12    1    3    3    0    0  0.21800403339E+02  0.32748689626E+01  0.61428528181E+01  0.22884863845E+02  0.00000000000E+00 0.  1.
</event>
<event>
 7    1  0.1789107E-013  0.7246114E+02  0.7816164E-02  0.1226709E+00
        -11   -1    0    0    0    0  0.00000000000E+00  0.00000000000E+00  0.45593999997E+02  0.45594000000E+02  0.51100000000E-03 0.  1.
         11   -1    0    0    0    0 -0.00000000000E+00 -0.00000000000E+00 -0.45593999997E+02  0.45594000000E+02  0.51100000000E-03 0. -1.
    9900012    2    1    2    0    0  0.17105354049E+02  0.75146336103E+01 -0.12776021200E+01  0.72461144348E+02  0.69999445124E+02 0.  0.
        -12    1    1    2    0    0 -0.17105354049E+02 -0.75146336103E+01  0.12776021200E+01  0.18726855652E+02  0.00000000000E+00 0.  1.
         11    1    3    3    0    0  0.80592054827E+01 -0.99535531951E+01 -0.21843580901E+02  0.25321256703E+02  0.51100000000E-03 0. -1.
        -11    1    3    3    0    0  0.13311041660E+02 -0.43609101758E+01  0.20584260288E+02  0.24898054934E+02  0.51100000000E-03 0.  1.
        -12    1    3    3    0    0 -0.42648930942E+01  0.21829096981E+02 -0.18281507272E-01  0.22241832711E+02  0.00000000000E+00 0.  1.
</event>
<event>
 7    1  0.1789107E-013  0.7246162E+02  0.7816164E-02  0.1226708E+00
        -11   -1    0    0    0    0  0.00000000000E+00  0.00000000000E+00  0.45593999997E+02  0.45594000000E+02  0.51100000000E-03 0.  1.
         11   -1    0    0    0    0 -0.00000000000E+00 -0.00000000000E+00 -0.45593999997E+02  0.45594000000E+02  0.51100000000E-03 0. -1.
    9900012    2    1    2    0    0 -0.94354181551E+00 -0.13045816297E+02 -0.13401261152E+02  0.72461617688E+02  0.70000061739E+02 0.  0.
        -12    1    1    2    0    0  0.94354181551E+00  0.13045816297E+02  0.13401261152E+02  0.18726382312E+02  0.00000000000E+00 0.  1.
         11    1    3    3    0    0 -0.31583539492E+00 -0.15968471654E+02  0.13728163580E+02  0.21060729202E+02  0.51100000000E-03 0. -1.
        -11    1    3    3    0    0 -0.13925133889E+02  0.18511897767E+02 -0.14070086619E+02  0.27102897456E+02  0.51100000000E-03 0.  1.
         12    1    3    3    0    0  0.13297427469E+02 -0.15589242410E+02 -0.13059338113E+02  0.24297991031E+02  0.00000000000E+00 0. -1.
</event>
<event>
 7    1  0.1789107E-013  0.7246156E+02  0.7816164E-02  0.1226708E+00
        -11   -1    0    0    0    0  0.00000000000E+00  0.00000000000E+00  0.45593999997E+02  0.45594000000E+02  0.51100000000E-03 0.  1.
         11   -1    0    0    0    0 -0.00000000000E+00 -0.00000000000E+00 -0.45593999997E+02  0.45594000000E+02  0.51100000000E-03 0. -1.
    9900012    2    1    2    0    0 -0.21596281889E+01  0.10958463349E+02 -0.15030894314E+02  0.72461556217E+02  0.69999981661E+02 0.  0.
        -12    1    1    2    0    0  0.21596281889E+01 -0.10958463349E+02  0.15030894314E+02  0.18726443783E+02  0.00000000000E+00 0.  1.
         11    1    3    3    0    0  0.11537240479E+02  0.23375443209E+02  0.39345730451E+01  0.26362855088E+02  0.51100000000E-03 0. -1.
        -11    1    3    3    0    0 -0.30685758153E+01  0.41446587321E+01  0.99005449994E+01  0.11163115384E+02  0.51100000000E-03 0.  1.
         12    1    3    3    0    0 -0.10628292853E+02 -0.16561638592E+02 -0.28866012358E+02  0.34935585744E+02  0.00000000000E+00 0. -1.
</event>
<event>
 7    1  0.1789107E-013  0.7246160E+02  0.7816164E-02  0.1226708E+00
        -11   -1    0    0    0    0  0.00000000000E+00  0.00000000000E+00  0.45593999997E+02  0.45594000000E+02  0.51100000000E-03 0.  1.
         11   -1    0    0    0    0 -0.00000000000E+00 -0.00000000000E+00 -0.45593999997E+02  0.45594000000E+02  0.51100000000E-03 0. -1.
    9900012    2    1    2    0    0 -0.11417621445E+02  0.11989827274E+02 -0.87498645761E+01  0.72461597045E+02  0.70000034848E+02 0.  0.
        -12    1    1    2    0    0  0.11417621445E+02 -0.11989827274E+02  0.87498645761E+01  0.18726402955E+02  0.00000000000E+00 0.  1.
         11    1    3    3    0    0 -0.25508685723E+01  0.26480458960E+01  0.64603409252E+01  0.74333762633E+01  0.51100000000E-03 0. -1.
        -11    1    3    3    0    0  0.15516590106E+02  0.27620888664E+02 -0.17942146290E+01  0.31731644545E+02  0.51100000000E-03 0.  1.
         12    1    3    3    0    0 -0.24383342980E+02 -0.18279107286E+02 -0.13415990872E+02  0.33296576237E+02  0.00000000000E+00 0. -1.
</event>
<event>
 7    1  0.1789107E-013  0.7246159E+02  0.7816164E-02  0.1226708E+00
        -11   -1    0    0    0    0  0.00000000000E+00  0.00000000000E+00  0.45593999997E+02  0.45594000000E+02  0.51100000000E-03 0. -1.
         11   -1    0    0    0    0 -0.00000000000E+00 -0.00000000000E+00 -0.45593999997E+02  0.45594000000E+02  0.51100000000E-03 0.  1.
    9900012    2    1    2    0    0 -0.14962987714E+02 -0.11229691042E+02  0.82562453224E+00  0.72461585017E+02  0.70000019180E+02 0.  0.
        -12    1    1    2    0    0  0.14962987714E+02  0.11229691042E+02 -0.82562453224E+00  0.18726414983E+02  0.00000000000E+00 0.  1.
         11    1    3    3    0    0 -0.36604119849E+02 -0.11962639449E+02 -0.13098520345E+02  0.40676007277E+02  0.51100000000E-03 0. -1.
        -11    1    3    3    0    0  0.94298688355E+01  0.47198850931E+01 -0.25949600512E+01  0.10859721888E+02  0.51100000000E-03 0.  1.
        -12    1    3    3    0    0  0.12211263300E+02 -0.39869366861E+01  0.16519104929E+02  0.20925855852E+02  0.00000000000E+00 0.  1.
</event>
<event>
 7    1  0.1789107E-013  0.7246154E+02  0.7816164E-02  0.1226708E+00
        -11   -1    0    0    0    0  0.00000000000E+00  0.00000000000E+00  0.45593999997E+02  0.45594000000E+02  0.51100000000E-03 0. -1.
         11   -1    0    0    0    0 -0.00000000000E+00 -0.00000000000E+00 -0.45593999997E+02  0.45594000000E+02  0.51100000000E-03 0.  1.
    9900012    2    1    2    0    0 -0.10342187654E+02  0.15158127200E+02  0.37350594358E+01  0.72461539184E+02  0.69999959473E+02 0.  0.
        -12    1    1    2    0    0  0.10342187654E+02 -0.15158127200E+02 -0.37350594358E+01  0.18726460816E+02  0.00000000000E+00 0.  1.
         11    1    3    3    0    0 -0.38695563005E+00 -0.17069510337E+02  0.90241449019E+01  0.19311993923E+02  0.51100000000E-03 0. -1.
        -11    1    3    3    0    0  0.84087567364E+01  0.11465968343E+01  0.10707970636E+02  0.13663180800E+02  0.51100000000E-03 0.  1.
        -12    1    3    3    0    0 -0.18363988761E+02  0.31081040704E+02 -0.15997056102E+02  0.39486364461E+02  0.00000000000E+00 0.  1.
</event>
<event>
 7    1  0.1789107E-013  0.7246160E+02  0.7816164E-02  0.1226708E+00
        -11   -1    0    0    0    0  0.00000000000E+00  0.00000000000E+00  0.45593999997E+02  0.45594000000E+02  0.51100000000E-03 0.  1.
         11   -1    0    0    0    0 -0.00000000000E+00 -0.00000000000E+00 -0.45593999997E+02  0.45594000000E+02  0.51100000000E-03 0. -1.
    9900012    2    1    2    0    0  0.10056120491E+02 -0.13262286889E+02 -0.85827946173E+01  0.72461596814E+02  0.70000034546E+02 0.  0.
        -12    1    1    2    0    0 -0.10056120491E+02  0.13262286889E+02  0.85827946173E+01  0.18726403186E+02  0.00000000000E+00 0.  1.
         11    1    3    3    0    0  0.73714413124E+01  0.91075765312E+01  0.64703692585E+01  0.13384759090E+02  0.51100000000E-03 0. -1.
        -11    1    3    3    0    0  0.24127718342E+02  0.16023542230E+01 -0.16639980160E+01  0.24238053163E+02  0.51100000000E-03 0.  1.
         12    1    3    3    0    0 -0.21443039164E+02 -0.23972217643E+02 -0.13389165860E+02  0.34838784561E+02  0.00000000000E+00 0. -1.
</event>
<event>
 7    1  0.1789107E-013  0.7246158E+02  0.7816164E-02  0.1226708E+00
        -11   -1    0    0    0    0  0.00000000000E+00  0.00000000000E+00  0.45593999997E+02  0.45594000000E+02  0.51100000000E-03 0. -1.
         11   -1    0    0    0    0 -0.00000000000E+00 -0.00000000000E+00 -0.45593999997E+02  0.45594000000E+02  0.51100000000E-03 0.  1.
    9900012    2    1    2    0    0 -0.15549922954E+01 -0.13352726920E+02  0.13037082286E+02  0.72461579312E+02  0.70000011748E+02 0.  0.
        -12    1    1    2    0    0  0.15549922954E+01  0.13352726920E+02 -0.13037082286E+02  0.18726420688E+02  0.00000000000E+00 0.  1.
         11    1    3    3    0    0  0.22749759810E+01 -0.94405496267E+01  0.25900109665E+01  0.10050256217E+02  0.51100000000E-03 0.  1.
        -11    1    3    3    0    0  0.39283067887E+01 -0.31517164829E+02  0.11335058807E+02  0.33723090480E+02  0.51100000000E-03 0. -1.
         12    1    3    3    0    0 -0.77582750650E+01  0.27604987535E+02 -0.88798748766E+00  0.28688232615E+02  0.00000000000E+00 0. -1.
</event>
<event>
 7    1  0.1789107E-013  0.7246127E+02  0.7816164E-02  0.1226709E+00
        -11   -1    0    0    0    0  0.00000000000E+00  0.00000000000E+00  0.45593999997E+02  0.45594000000E+02  0.51100000000E-03 0.  1.
         11   -1    0    0    0    0 -0.00000000000E+00 -0.00000000000E+00 -0.45593999997E+02  0.45594000000E+02  0.51100000000E-03 0. -1.
    9900012    2    1    2    0    0  0.12044434434E+02  0.11923072577E+02  0.79663173875E+01  0.72461273825E+02  0.69999613792E+02 0.  0.
        -12    1    1    2    0    0 -0.12044434434E+02 -0.11923072577E+02 -0.79663173875E+01  0.18726726175E+02  0.00000000000E+00 0.  1.
         11    1    3    3    0    0  0.30656184591E+01  0.22198162269E+01  0.84832675476E+01  0.92893180139E+01  0.51100000000E-03 0. -1.
        -11    1    3    3    0    0 -0.77459397996E+01 -0.23109450137E+02  0.74591930610E+01  0.25488935451E+02  0.51100000000E-03 0.  1.
         12    1    3    3    0    0  0.16724755775E+02  0.32812706488E+02 -0.79761432211E+01  0.37683020360E+02  0.00000000000E+00 0. -1.
</event>
<event>
 7    1  0.1789107E-013  0.7246151E+02  0.7816164E-02  0.1226708E+00
        -11   -1    0    0    0    0  0.00000000000E+00  0.00000000000E+00  0.45593999997E+02  0.45594000000E+02  0.51100000000E-03 0.  1.
         11   -1    0    0    0    0 -0.00000000000E+00 -0.00000000000E+00 -0.45593999997E+02  0.45594000000E+02  0.51100000000E-03 0. -1.
    9900012    2    1    2    0    0 -0.38367944390E+01 -0.17254235049E+02 -0.61848173983E+01  0.72461505802E+02  0.69999915987E+02 0.  0.
        -12    1    1    2    0    0  0.38367944390E+01  0.17254235049E+02  0.61848173983E+01  0.18726494198E+02  0.00000000000E+00 0.  1.
         11    1    3    3    0    0 -0.12482782981E+02 -0.20253814282E+02 -0.90718328816E+01  0.25462423608E+02  0.51100000000E-03 0. -1.
        -11    1    3    3    0    0  0.72076959584E+01  0.18029201718E+02 -0.14305975849E+02  0.24117710108E+02  0.51100000000E-03 0.  1.
        -12    1    3    3    0    0  0.14382925834E+01 -0.15029622485E+02  0.17192991332E+02  0.22881372086E+02  0.00000000000E+00 0.  1.
</event>
<event>
 7    1  0.1789107E-013  0.7246162E+02  0.7816164E-02  0.1226708E+00
        -11   -1    0    0    0    0  0.00000000000E+00  0.00000000000E+00  0.45593999997E+02  0.45594000000E+02  0.51100000000E-03 0.  1.
         11   -1    0    0    0    0 -0.00000000000E+00 -0.00000000000E+00 -0.45593999997E+02  0.45594000000E+02  0.51100000000E-03 0. -1.
    9900012    2    1    2    0    0  0.16727502858E+02  0.72072974458E+01 -0.43500451214E+01  0.72461618051E+02  0.70000062212E+02 0.  0.
        -12    1    1    2    0    0 -0.16727502858E+02 -0.72072974458E+01  0.43500451214E+01  0.18726381949E+02  0.00000000000E+00 0.  1.
         11    1    3    3    0    0 -0.53903886369E+01  0.12588404231E+02 -0.10949063272E+02  0.17533003096E+02  0.51100000000E-03 0. -1.
        -11    1    3    3    0    0 -0.91836928690E+01 -0.45709965222E+01 -0.14068004779E+02  0.17411001770E+02  0.51100000000E-03 0.  1.
        -12    1    3    3    0    0  0.31301584364E+02 -0.81011026352E+00  0.20667022930E+02  0.37517613185E+02  0.00000000000E+00 0.  1.
</event>
<event>
 7    1  0.1789107E-013  0.7246162E+02  0.7816164E-02  0.1226708E+00
        -11   -1    0    0    0    0  0.00000000000E+00  0.00000000000E+00  0.45593999997E+02  0.45594000000E+02  0.51100000000E-03 0.  1.
         11   -1    0    0    0    0 -0.00000000000E+00 -0.00000000000E+00 -0.45593999997E+02  0.45594000000E+02  0.51100000000E-03 0. -1.
    9900012    2    1    2    0    0 -0.13917915602E+02  0.72901462584E+01 -0.10189339828E+02  0.72461621458E+02  0.70000066650E+02 0.  0.
        -12    1    1    2    0    0  0.13917915602E+02 -0.72901462584E+01  0.10189339828E+02  0.18726378542E+02  0.00000000000E+00 0.  1.
         11    1    3    3    0    0  0.67861038251E-02 -0.19679058956E+02  0.48754424600E+01  0.20274006681E+02  0.51100000000E-03 0. -1.
        -11    1    3    3    0    0 -0.23718840434E+02  0.41166829537E+01 -0.21464579696E+01  0.24168941891E+02  0.51100000000E-03 0.  1.
         12    1    3    3    0    0  0.97941387278E+01  0.22852522261E+02 -0.12918324318E+02  0.28018672886E+02  0.00000000000E+00 0. -1.
</event>
<event>
 7    1  0.1789107E-013  0.7246155E+02  0.7816164E-02  0.1226708E+00
        -11   -1    0    0    0    0  0.00000000000E+00  0.00000000000E+00  0.45593999997E+02  0.45594000000E+02  0.51100000000E-03 0. -1.
         11   -1    0    0    0    0 -0.00000000000E+00 -0.00000000000E+00 -0.45593999997E+02  0.45594000000E+02  0.51100000000E-03 0.  1.
    9900012    2    1    2    0    0 -0.39199142119E+01  0.18283078572E+02  0.10214117321E+01  0.72461548883E+02  0.69999972108E+02 0.  0.
        -12    1    1    2    0    0  0.39199142119E+01 -0.18283078572E+02 -0.10214117321E+01  0.18726451117E+02  0.00000000000E+00 0.  1.
         11    1    3    3    0    0 -0.12714490370E+02  0.44617390975E+00  0.24291818347E+02  0.27421702635E+02  0.51100000000E-03 0. -1.
        -11    1    3    3    0    0  0.35442610686E+01 -0.99500122766E+00  0.76315035474E+01  0.84729959649E+01  0.51100000000E-03 0.  1.
        -12    1    3    3    0    0  0.52503150899E+01  0.18831905890E+02 -0.30901910162E+02  0.36566850284E+02  0.00000000000E+00 0.  1.
</event>
<event>
 7    1  0.1789107E-013  0.7246156E+02  0.7816164E-02  0.1226708E+00
        -11   -1    0    0    0    0  0.00000000000E+00  0.00000000000E+00  0.45593999997E+02  0.45594000000E+02  0.51100000000E-03 0.  1.
         11   -1    0    0    0    0 -0.00000000000E+00 -0.00000000000E+00 -0.45593999997E+02  0.45594000000E+02  0.51100000000E-03 0. -1.
    9900012    2    1    2    0    0 -0.12502996384E+02 -0.70992165667E+01 -0.11998149986E+02  0.72461564206E+02  0.69999992069E+02 0.  0.
        -12    1    1    2    0    0  0.12502996384E+02  0.70992165667E+01  0.11998149986E+02  0.18726435794E+02  0.00000000000E+00 0.  1.
         11    1    3    3    0    0 -0.17163335776E+01  0.61971314145E+01  0.22620689618E+01  0.68166850424E+01  0.51100000000E-03 0. -1.
        -11    1    3    3    0    0  0.17434163342E+02 -0.25186191769E+02  0.25030673835E+01  0.30733689233E+02  0.51100000000E-03 0.  1.
         12    1    3    3    0    0 -0.28220826148E+02  0.11889843788E+02 -0.16763286332E+02  0.34911189931E+02  0.00000000000E+00 0. -1.
</event>
<event>
 7    1  0.1789107E-013  0.7246154E+02  0.7816164E-02  0.1226708E+00
        -11   -1    0    0    0    0  0.00000000000E+00  0.00000000000E+00  0.45593999997E+02  0.45594000000E+02  0.51100000000E-03 0.  1.
         11   -1    0    0    0    0 -0.00000000000E+00 -0.00000000000E+00 -0.45593999997E+02  0.45594000000E+02  0.51100000000E-03 0. -1.
    9900012    2    1    2    0    0 -0.98664917346E+01  0.36308220682E+01 -0.15496763810E+02  0.72461542336E+02  0.69999963579E+02 0.  0.
        -12    1    1    2    0    0  0.98664917346E+01 -0.36308220682E+01  0.15496763810E+02  0.18726457664E+02  0.00000000000E+00 0.  1.
         11    1    3    3    0    0 -0.15564206918E+02  0.91715552462E+01  0.13643740419E+02  0.22638763559E+02  0.51100000000E-03 0.  1.
        -11    1    3    3    0    0 -0.14196497212E+02  0.54689311210E+01 -0.36116272372E+01  0.15636290872E+02  0.51100000000E-03 0. -1.
         12    1    3    3    0    0  0.19894212395E+02 -0.11009664299E+02 -0.25528876992E+02  0.34186487905E+02  0.00000000000E+00 0. -1.
</event>
<event>
 7    1  0.1789107E-013  0.7246155E+02  0.7816164E-02  0.1226708E+00
        -11   -1    0    0    0    0  0.00000000000E+00  0.00000000000E+00  0.45593999997E+02  0.45594000000E+02  0.51100000000E-03 0.  1.
         11   -1    0    0    0    0 -0.00000000000E+00 -0.00000000000E+00 -0.45593999997E+02  0.45594000000E+02  0.51100000000E-03 0. -1.
    9900012    2    1    2    0    0  0.77327974144E+01 -0.16515785790E+02 -0.42558679748E+01  0.72461554840E+02  0.69999979868E+02 0.  0.
        -12    1    1    2    0    0 -0.77327974144E+01  0.16515785790E+02  0.42558679748E+01  0.18726445160E+02  0.00000000000E+00 0.  1.
         11    1    3    3    0    0 -0.14790951703E+02 -0.14236462716E+02 -0.19814421132E+02  0.28531743866E+02  0.51100000000E-03 0. -1.
        -11    1    3    3    0    0 -0.72329824921E+01  0.55113760310E+00 -0.39267262202E+01  0.82485736620E+01  0.51100000000E-03 0.  1.
        -12    1    3    3    0    0  0.29756731609E+02 -0.28304606770E+01  0.19485279378E+02  0.35681237312E+02  0.00000000000E+00 0.  1.
</event>
<event>
 7    1  0.1789107E-013  0.7246164E+02  0.7816164E-02  0.1226708E+00
        -11   -1    0    0    0    0  0.00000000000E+00  0.00000000000E+00  0.45593999997E+02  0.45594000000E+02  0.51100000000E-03 0.  1.
         11   -1    0    0    0    0 -0.00000000000E+00 -0.00000000000E+00 -0.45593999997E+02  0.45594000000E+02  0.51100000000E-03 0. -1.
    9900012    2    1    2    0    0  0.37240947608E+01 -0.62029802403E+01 -0.17272251464E+02  0.72461641136E+02  0.70000092285E+02 0.  0.
        -12    1    1    2    0    0 -0.37240947608E+01  0.62029802403E+01  0.17272251464E+02  0.18726358864E+02  0.00000000000E+00 0.  1.
         11    1    3    3    0    0 -0.27190696765E+02 -0.12271181867E+02 -0.17960464543E+02  0.34820887149E+02  0.51100000000E-03 0. -1.
        -11    1    3    3    0    0  0.13793891922E+02  0.80875941415E+01 -0.84964220151E+01  0.18107175944E+02  0.51100000000E-03 0.  1.
        -12    1    3    3    0    0  0.17120899604E+02 -0.20193925152E+01  0.91846350937E+01  0.19533578044E+02  0.00000000000E+00 0.  1.
</event>
<event>
 7    1  0.1789107E-013  0.7246155E+02  0.7816164E-02  0.1226708E+00
        -11   -1    0    0    0    0  0.00000000000E+00  0.00000000000E+00  0.45593999997E+02  0.45594000000E+02  0.51100000000E-03 0.  1.
         11   -1    0    0    0    0 -0.00000000000E+00 -0.00000000000E+00 -0.45593999997E+02  0.45594000000E+02  0.51100000000E-03 0. -1.
    9900012    2    1    2    0    0  0.39686669280E+01  0.17104977220E+02 -0.65076286785E+01  0.72461553623E+02  0.69999978282E+02 0.  0.
        -12    1    1    2    0    0 -0.39686669280E+01 -0.17104977220E+02  0.65076286785E+01  0.18726446377E+02  0.00000000000E+00 0.  1.
         11    1    3    3    0    0 -0.14336886119E+02  0.13223025357E+02 -0.42537761571E+00  0.19508348202E+02  0.51100000000E-03 0. -1.
        -11    1    3    3    0    0 -0.75862873736E+01  0.20272198958E+02 -0.53700493723E+01  0.22301372990E+02  0.51100000000E-03 0.  1.
        -12    1    3    3    0    0  0.25891840420E+02 -0.16390247094E+02 -0.71220169049E+00  0.30651832432E+02  0.00000000000E+00 0.  1.
</event>
<event>
 7    1  0.1789107E-013  0.7246158E+02  0.7816164E-02  0.1226708E+00
        -11   -1    0    0    0    0  0.00000000000E+00  0.00000000000E+00  0.45593999997E+02  0.45594000000E+02  0.51100000000E-03 0.  1.
         11   -1    0    0    0    0 -0.00000000000E+00 -0.00000000000E+00 -0.45593999997E+02  0.45594000000E+02  0.51100000000E-03 0. -1.
    9900012    2    1    2    0    0  0.10680558048E+02  0.15208886876E+02  0.23008872186E+01  0.72461584374E+02  0.70000018341E+02 0.  0.
        -12    1    1    2    0    0 -0.10680558048E+02 -0.15208886876E+02 -0.23008872186E+01  0.18726415626E+02  0.00000000000E+00 0.  1.
         11    1    3    3    0    0  0.23686155214E+02 -0.47715067893E+01 -0.15244654284E+02  0.28569226633E+02  0.51100000000E-03 0. -1.
        -11    1    3    3    0    0 -0.95975653366E+01 -0.68569782263E+01  0.27868530333E+00  0.11798689611E+02  0.51100000000E-03 0.  1.
        -12    1    3    3    0    0 -0.34080318303E+01  0.26837371892E+02  0.17266856200E+02  0.32093668130E+02  0.00000000000E+00 0.  1.
</event>
<event>
 7    1  0.1789107E-013  0.7246143E+02  0.7816164E-02  0.1226708E+00
        -11   -1    0    0    0    0  0.00000000000E+00  0.00000000000E+00  0.45593999997E+02  0.45594000000E+02  0.51100000000E-03 0.  1.
         11   -1    0    0    0    0 -0.00000000000E+00 -0.00000000000E+00 -0.45593999997E+02  0.45594000000E+02  0.51100000000E-03 0. -1.
    9900012    2    1    2    0    0 -0.13443468627E+00 -0.14066190679E+02 -0.12361576910E+02  0.72461431264E+02  0.69999818887E+02 0.  0.
        -12    1    1    2    0    0  0.13443468627E+00  0.14066190679E+02  0.12361576910E+02  0.18726568736E+02  0.00000000000E+00 0.  1.
         11    1    3    3    0    0 -0.35010071793E+01 -0.31775862452E+02 -0.68390131758E+01  0.32691506348E+02  0.51100000000E-03 0. -1.
        -11    1    3    3    0    0 -0.14471335332E+02  0.59630336364E+01 -0.91138447972E+01  0.18111860304E+02  0.51100000000E-03 0.  1.
        -12    1    3    3    0    0  0.17837907825E+02  0.11746638136E+02  0.35912810632E+01  0.21658064612E+02  0.00000000000E+00 0.  1.
</event>
<event>
 7    1  0.1789107E-013  0.7246158E+02  0.7816164E-02  0.1226708E+00
        -11   -1    0    0    0    0  0.00000000000E+00  0.00000000000E+00  0.45593999997E+02  0.45594000000E+02  0.51100000000E-03 0.  1.
         11   -1    0    0    0    0 -0.00000000000E+00 -0.00000000000E+00 -0.45593999997E+02  0.45594000000E+02  0.51100000000E-03 0. -1.
    9900012    2    1    2    0    0 -0.42190218061E+01 -0.11241944208E+02 -0.14370010151E+02  0.72461584264E+02  0.70000018198E+02 0.  0.
        -12    1    1    2    0    0  0.42190218061E+01  0.11241944208E+02  0.14370010151E+02  0.18726415736E+02  0.00000000000E+00 0.  1.
         11    1    3    3    0    0 -0.24569374717E+02 -0.12469633100E+01 -0.20981214538E+02  0.32332962364E+02  0.51100000000E-03 0. -1.
        -11    1    3    3    0    0 -0.79878183143E+01 -0.64011753276E+01  0.53155850412E+01  0.11534111651E+02  0.51100000000E-03 0.  1.
        -12    1    3    3    0    0  0.28338171225E+02 -0.35938055702E+01  0.12956193460E+01  0.28594510249E+02  0.00000000000E+00 0.  1.
</event>
<event>
 7    1  0.1789107E-013  0.7246153E+02  0.7816164E-02  0.1226708E+00
        -11   -1    0    0    0    0  0.00000000000E+00  0.00000000000E+00  0.45593999997E+02  0.45594000000E+02  0.51100000000E-03 0.  1.
         11   -1    0    0    0    0 -0.00000000000E+00 -0.00000000000E+00 -0.45593999997E+02  0.45594000000E+02  0.51100000000E-03 0. -1.
    9900012    2    1    2    0    0 -0.10117076936E+02 -0.80955765752E+01 -0.13519871376E+02  0.72461534027E+02  0.69999952755E+02 0.  0.
        -12    1    1    2    0    0  0.10117076936E+02  0.80955765752E+01  0.13519871376E+02  0.18726465973E+02  0.00000000000E+00 0.  1.
         11    1    3    3    0    0 -0.11105690825E+02  0.21564673439E+02  0.39215461310E+01  0.24571325434E+02  0.51100000000E-03 0. -1.
        -11    1    3    3    0    0 -0.12606078772E+02 -0.25869179291E+01  0.12774391890E+00  0.12869408889E+02  0.51100000000E-03 0.  1.
        -12    1    3    3    0    0  0.13594692661E+02 -0.27073332085E+02 -0.17569161426E+02  0.35020799705E+02  0.00000000000E+00 0.  1.
</event>
<event>
 7    1  0.1789107E-013  0.7246155E+02  0.7816164E-02  0.1226708E+00
        -11   -1    0    0    0    0  0.00000000000E+00  0.00000000000E+00  0.45593999997E+02  0.45594000000E+02  0.51100000000E-03 0. -1.
         11   -1    0    0    0    0 -0.00000000000E+00 -0.00000000000E+00 -0.45593999997E+02  0.45594000000E+02  0.51100000000E-03 0.  1.
    9900012    2    1    2    0    0 -0.47714625259E+00 -0.10480941315E+02  0.15511353315E+02  0.72461551296E+02  0.69999975252E+02 0.  0.
        -12    1    1    2    0    0  0.47714625259E+00  0.10480941315E+02 -0.15511353315E+02  0.18726448704E+02  0.00000000000E+00 0.  1.
         11    1    3    3    0    0  0.10363319968E+02 -0.10704021103E+02  0.26773928618E+02  0.30640132546E+02  0.51100000000E-03 0. -1.
        -11    1    3    3    0    0  0.71733009936E+01 -0.39692886090E+01  0.10461153982E+02  0.13290870630E+02  0.51100000000E-03 0.  1.
        -12    1    3    3    0    0 -0.18013767214E+02  0.41923683970E+01 -0.21723729285E+02  0.28530548121E+02  0.00000000000E+00 0.  1.
</event>
<event>
 7    1  0.1789107E-013  0.7246176E+02  0.7816164E-02  0.1226708E+00
        -11   -1    0    0    0    0  0.00000000000E+00  0.00000000000E+00  0.45593999997E+02  0.45594000000E+02  0.51100000000E-03 0.  1.
         11   -1    0    0    0    0 -0.00000000000E+00 -0.00000000000E+00 -0.45593999997E+02  0.45594000000E+02  0.51100000000E-03 0. -1.
    9900012    2    1    2    0    0  0.81363276317E+01 -0.14293015649E+02 -0.89544341879E+01  0.72461761315E+02  0.70000248839E+02 0.  0.
        -12    1    1    2    0    0 -0.81363276317E+01  0.14293015649E+02  0.89544341879E+01  0.18726238685E+02  0.00000000000E+00 0.  1.
         11    1    3    3    0    0  0.90191829287E+00 -0.15369013842E+01 -0.15075713088E+02  0.15180666910E+02  0.51100000000E-03 0. -1.
        -11    1    3    3    0    0  0.17174901577E+02 -0.30140474635E+02 -0.38622507248E+01  0.34904762373E+02  0.51100000000E-03 0.  1.
        -12    1    3    3    0    0 -0.99404922383E+01  0.17384360371E+02  0.99835296245E+01  0.22376332032E+02  0.00000000000E+00 0.  1.
</event>
<event>
 7    1  0.1789107E-013  0.7246156E+02  0.7816164E-02  0.1226708E+00
        -11   -1    0    0    0    0  0.00000000000E+00  0.00000000000E+00  0.45593999997E+02  0.45594000000E+02  0.51100000000E-03 0.  1.
         11   -1    0    0    0    0 -0.00000000000E+00 -0.00000000000E+00 -0.45593999997E+02  0.45594000000E+02  0.51100000000E-03 0. -1.
    9900012    2    1    2    0    0 -0.80847154355E+01  0.15996472263E+02 -0.54249127303E+01  0.72461563428E+02  0.69999991056E+02 0.  0.
        -12    1    1    2    0    0  0.80847154355E+01 -0.15996472263E+02  0.54249127303E+01  0.18726436572E+02  0.00000000000E+00 0.  1.
         11    1    3    3    0    0 -0.65946424487E+01  0.12525102778E+02  0.49381343805E+00  0.14163733992E+02  0.51100000000E-03 0. -1.
        -11    1    3    3    0    0 -0.11868048302E+02  0.24793488635E+02  0.10532585157E+02  0.29436423008E+02  0.51100000000E-03 0.  1.
         12    1    3    3    0    0  0.10377975315E+02 -0.21322119150E+02 -0.16451311325E+02  0.28861406428E+02  0.00000000000E+00 0. -1.
</event>
<event>
 7    1  0.1789107E-013  0.7246155E+02  0.7816164E-02  0.1226708E+00
        -11   -1    0    0    0    0  0.00000000000E+00  0.00000000000E+00  0.45593999997E+02  0.45594000000E+02  0.51100000000E-03 0. -1.
         11   -1    0    0    0    0 -0.00000000000E+00 -0.00000000000E+00 -0.45593999997E+02  0.45594000000E+02  0.51100000000E-03 0.  1.
    9900012    2    1    2    0    0 -0.67473040688E+01 -0.17193103849E+02  0.30904477694E+01  0.72461553472E+02  0.69999978086E+02 0.  0.
        -12    1    1    2    0    0  0.67473040688E+01  0.17193103849E+02 -0.30904477694E+01  0.18726446528E+02  0.00000000000E+00 0.  1.
         11    1    3    3    0    0 -0.97418708568E+01 -0.20602861420E+02  0.11333192964E+02  0.25452371392E+02  0.51100000000E-03 0.  1.
        -11    1    3    3    0    0 -0.20937582518E+02 -0.11564914840E+01  0.89375496672E+00  0.20988535739E+02  0.51100000000E-03 0. -1.
        -12    1    3    3    0    0  0.23932149306E+02  0.45662490550E+01 -0.91365001610E+01  0.26020646341E+02  0.00000000000E+00 0.  1.
</event>
<event>
 7    1  0.1789107E-013  0.7246159E+02  0.7816164E-02  0.1226708E+00
        -11   -1    0    0    0    0  0.00000000000E+00  0.00000000000E+00  0.45593999997E+02  0.45594000000E+02  0.51100000000E-03 0.  1.
         11   -1    0    0    0    0 -0.00000000000E+00 -0.00000000000E+00 -0.45593999997E+02  0.45594000000E+02  0.51100000000E-03 0. -1.
    9900012    2    1    2    0    0  0.62735631537E+01 -0.15271101979E+02 -0.88382282115E+01  0.72461590087E+02  0.70000025784E+02 0.  0.
        -12    1    1    2    0    0 -0.62735631537E+01  0.15271101979E+02  0.88382282115E+01  0.18726409913E+02  0.00000000000E+00 0.  1.
         11    1    3    3    0    0 -0.12514479992E+01  0.81746904458E+01  0.17995381922E+01  0.84634522475E+01  0.51100000000E-03 0. -1.
        -11    1    3    3    0    0  0.77675637412E+01 -0.37600187014E+02  0.93392868978E+01  0.39513686109E+02  0.51100000000E-03 0.  1.
         12    1    3    3    0    0 -0.24255258831E+00  0.14154394589E+02 -0.19977053302E+02  0.24484451730E+02  0.00000000000E+00 0. -1.
</event>
<event>
 7    1  0.1789107E-013  0.7246157E+02  0.7816164E-02  0.1226708E+00
        -11   -1    0    0    0    0  0.00000000000E+00  0.00000000000E+00  0.45593999997E+02  0.45594000000E+02  0.51100000000E-03 0.  1.
         11   -1    0    0    0    0 -0.00000000000E+00 -0.00000000000E+00 -0.45593999997E+02  0.45594000000E+02  0.51100000000E-03 0. -1.
    9900012    2    1    2    0    0 -0.11326789114E+02 -0.11084994911E+02 -0.99752570977E+01  0.72461574341E+02  0.70000005271E+02 0.  0.
        -12    1    1    2    0    0  0.11326789114E+02  0.11084994911E+02  0.99752570977E+01  0.18726425659E+02  0.00000000000E+00 0.  1.
         11    1    3    3    0    0  0.15821969361E+02  0.79024786303E+01 -0.67154911872E+01  0.18917761631E+02  0.51100000000E-03 0. -1.
        -11    1    3    3    0    0 -0.44486899781E+01  0.12073719730E+02 -0.74104934613E+01  0.14848601424E+02  0.51100000000E-03 0.  1.
        -12    1    3    3    0    0 -0.22700068497E+02 -0.31061193272E+02  0.41507275508E+01  0.38695211286E+02  0.00000000000E+00 0.  1.
</event>
<event>
 7    1  0.1789107E-013  0.7246158E+02  0.7816164E-02  0.1226708E+00
        -11   -1    0    0    0    0  0.00000000000E+00  0.00000000000E+00  0.45593999997E+02  0.45594000000E+02  0.51100000000E-03 0.  1.
         11   -1    0    0    0    0 -0.00000000000E+00 -0.00000000000E+00 -0.45593999997E+02  0.45594000000E+02  0.51100000000E-03 0. -1.
    9900012    2    1    2    0    0  0.99693465216E+01 -0.86906912072E+01 -0.13257556123E+02  0.72461580746E+02  0.70000013615E+02 0.  0.
        -12    1    1    2    0    0 -0.99693465216E+01  0.86906912072E+01  0.13257556123E+02  0.18726419254E+02  0.00000000000E+00 0.  1.
         11    1    3    3    0    0 -0.33397095536E+01 -0.28481936890E+02 -0.15298941150E+02  0.32502799717E+02  0.51100000000E-03 0. -1.
        -11    1    3    3    0    0  0.74203284905E+01 -0.83326090248E+01  0.10660475658E+01  0.11208483650E+02  0.51100000000E-03 0.  1.
        -12    1    3    3    0    0  0.58887275848E+01  0.28123854707E+02  0.97533746065E+00  0.28750297378E+02  0.00000000000E+00 0.  1.
</event>
<event>
 7    1  0.1789107E-013  0.7246160E+02  0.7816164E-02  0.1226708E+00
        -11   -1    0    0    0    0  0.00000000000E+00  0.00000000000E+00  0.45593999997E+02  0.45594000000E+02  0.51100000000E-03 0. -1.
         11   -1    0    0    0    0 -0.00000000000E+00 -0.00000000000E+00 -0.45593999997E+02  0.45594000000E+02  0.51100000000E-03 0.  1.
    9900012    2    1    2    0    0  0.67513832654E+01  0.15910944898E+02  0.72068637858E+01  0.72461595402E+02  0.70000032708E+02 0.  0.
        -12    1    1    2    0    0 -0.67513832654E+01 -0.15910944898E+02 -0.72068637858E+01  0.18726404598E+02  0.00000000000E+00 0.  1.
         11    1    3    3    0    0  0.13491893773E+02  0.19161102718E+02  0.41152900026E+01  0.23793164291E+02  0.51100000000E-03 0. -1.
        -11    1    3    3    0    0  0.19365259044E+02 -0.13998703368E+01 -0.69710792975E+01  0.20629319951E+02  0.51100000000E-03 0.  1.
         12    1    3    3    0    0 -0.26105769551E+02 -0.18502874833E+01  0.10062653081E+02  0.28039111160E+02  0.00000000000E+00 0. -1.
</event>
<event>
 7    1  0.1789107E-013  0.7246156E+02  0.7816164E-02  0.1226708E+00
        -11   -1    0    0    0    0  0.00000000000E+00  0.00000000000E+00  0.45593999997E+02  0.45594000000E+02  0.51100000000E-03 0.  1.
         11   -1    0    0    0    0 -0.00000000000E+00 -0.00000000000E+00 -0.45593999997E+02  0.45594000000E+02  0.51100000000E-03 0. -1.
    9900012    2    1    2    0    0 -0.12457095110E+02 -0.38890098008E+01 -0.13430406528E+02  0.72461563198E+02  0.69999990755E+02 0.  0.
        -12    1    1    2    0    0  0.12457095110E+02  0.38890098008E+01  0.13430406528E+02  0.18726436802E+02  0.00000000000E+00 0.  1.
         11    1    3    3    0    0  0.19065723189E+02 -0.12408489164E+02 -0.46398234756E+01  0.23216381419E+02  0.51100000000E-03 0. -1.
        -11    1    3    3    0    0 -0.45312321674E+01 -0.54276045344E+01 -0.16456387504E+02  0.17910992320E+02  0.51100000000E-03 0.  1.
         12    1    3    3    0    0 -0.26991586131E+02  0.13947083897E+02  0.76658044525E+01  0.31334189459E+02  0.00000000000E+00 0. -1.
</event>
<event>
 7    1  0.1789107E-013  0.7246152E+02  0.7816164E-02  0.1226708E+00
        -11   -1    0    0    0    0  0.00000000000E+00  0.00000000000E+00  0.45593999997E+02  0.45594000000E+02  0.51100000000E-03 0. -1.
         11   -1    0    0    0    0 -0.00000000000E+00 -0.00000000000E+00 -0.45593999997E+02  0.45594000000E+02  0.51100000000E-03 0.  1.
    9900012    2    1    2    0    0 -0.86702532028E+01  0.15411776912E+02 -0.61631994566E+01  0.72461516461E+02  0.69999929873E+02 0.  0.
        -12    1    1    2    0    0  0.86702532028E+01 -0.15411776912E+02  0.61631994566E+01  0.18726483539E+02  0.00000000000E+00 0.  1.
         11    1    3    3    0    0 -0.33457128172E+02  0.44177222945E+01 -0.52872097749E+01  0.34159190319E+02  0.51100000000E-03 0. -1.
        -11    1    3    3    0    0  0.20304343196E+01 -0.51668022466E+01 -0.77728620151E+01  0.95517481724E+01  0.51100000000E-03 0.  1.
        -12    1    3    3    0    0  0.22756440650E+02  0.16160856864E+02  0.68968723333E+01  0.28750577970E+02  0.00000000000E+00 0.  1.
</event>
<event>
 7    1  0.1789107E-013  0.7246153E+02  0.7816164E-02  0.1226708E+00
        -11   -1    0    0    0    0  0.00000000000E+00  0.00000000000E+00  0.45593999997E+02  0.45594000000E+02  0.51100000000E-03 0.  1.
         11   -1    0    0    0    0 -0.00000000000E+00 -0.00000000000E+00 -0.45593999997E+02  0.45594000000E+02  0.51100000000E-03 0. -1.
    9900012    2    1    2    0    0 -0.80687090455E+01  0.15265043383E+02 -0.72494948251E+01  0.72461527017E+02  0.69999943623E+02 0.  0.
        -12    1    1    2    0    0  0.80687090455E+01 -0.15265043383E+02  0.72494948251E+01  0.18726472983E+02  0.00000000000E+00 0.  1.
         11    1    3    3    0    0  0.84915749936E+00 -0.10213366837E+02 -0.14339682424E+02  0.17625561634E+02  0.51100000000E-03 0. -1.
        -11    1    3    3    0    0 -0.12730721293E+02  0.34016779743E+01  0.23584020505E+02  0.27015712115E+02  0.51100000000E-03 0.  1.
         12    1    3    3    0    0  0.38128547480E+01  0.22076732246E+02 -0.16493832905E+02  0.27820253268E+02  0.00000000000E+00 0. -1.
</event>
<event>
 7    1  0.2156364E-013  0.7246138E+02  0.7816164E-02  0.1226709E+00
        -11   -1    0    0    0    0  0.00000000000E+00  0.00000000000E+00  0.45593999997E+02  0.45594000000E+02  0.51100000000E-03 0. -1.
         11   -1    0    0    0    0 -0.00000000000E+00 -0.00000000000E+00 -0.45593999997E+02  0.45594000000E+02  0.51100000000E-03 0.  1.
    9900012    2    1    2    0    0 -0.19179731938E+01 -0.77518404500E+01  0.16938619291E+02  0.72461375237E+02  0.69999745901E+02 0.  0.
        -12    1    1    2    0    0  0.19179731938E+01  0.77518404500E+01 -0.16938619291E+02  0.18726624763E+02  0.00000000000E+00 0.  1.
         11    1    3    3    0    0 -0.39807902925E+01 -0.12239270489E+02  0.17198531020E+02  0.21481059168E+02  0.51100000000E-03 0. -1.
        -11    1    3    3    0    0 -0.16970450291E+02 -0.15638953503E+02 -0.23717010075E+01  0.23199095147E+02  0.51100000000E-03 0.  1.
        -12    1    3    3    0    0  0.19033267389E+02  0.20126383542E+02  0.21117892780E+01  0.27781220922E+02  0.00000000000E+00 0.  1.
</event>
<event>
 7    1  0.1789107E-013  0.7246154E+02  0.7816164E-02  0.1226708E+00
        -11   -1    0    0    0    0  0.00000000000E+00  0.00000000000E+00  0.45593999997E+02  0.45594000000E+02  0.51100000000E-03 0. -1.
         11   -1    0    0    0    0 -0.00000000000E+00 -0.00000000000E+00 -0.45593999997E+02  0.45594000000E+02  0.51100000000E-03 0.  1.
    9900012    2    1    2    0    0  0.40084695308E+01  0.39184985609E+01 -0.17867786342E+02  0.72461541506E+02  0.69999962498E+02 0.  0.
        -12    1    1    2    0    0 -0.40084695308E+01 -0.39184985609E+01  0.17867786342E+02  0.18726458494E+02  0.00000000000E+00 0.  1.
         11    1    3    3    0    0  0.35800078806E+02  0.46242376310E+01 -0.42100817224E+01  0.36342179414E+02  0.51100000000E-03 0. -1.
        -11    1    3    3    0    0 -0.25997332626E+01  0.18055845042E+01  0.10507000404E+01  0.33350741033E+01  0.51100000000E-03 0.  1.
        -12    1    3    3    0    0 -0.29191876013E+02 -0.25113235743E+01 -0.14708404660E+02  0.32784287988E+02  0.00000000000E+00 0.  1.
</event>
<event>
 7    1  0.1789107E-013  0.7246158E+02  0.7816164E-02  0.1226708E+00
        -11   -1    0    0    0    0  0.00000000000E+00  0.00000000000E+00  0.45593999997E+02  0.45594000000E+02  0.51100000000E-03 0. -1.
         11   -1    0    0    0    0 -0.00000000000E+00 -0.00000000000E+00 -0.45593999997E+02  0.45594000000E+02  0.51100000000E-03 0.  1.
    9900012    2    1    2    0    0 -0.40728033461E+01  0.18254378239E+02  0.93201848128E+00  0.72461582552E+02  0.70000015968E+02 0.  0.
        -12    1    1    2    0    0  0.40728033461E+01 -0.18254378239E+02 -0.93201848128E+00  0.18726417448E+02  0.00000000000E+00 0.  1.
         11    1    3    3    0    0  0.55115640355E+01  0.17457990701E+01 -0.93692553664E+00  0.58568747838E+01  0.51100000000E-03 0. -1.
        -11    1    3    3    0    0 -0.13088349118E+02  0.34209532303E+02 -0.17101116510E+02  0.40423324568E+02  0.51100000000E-03 0.  1.
         12    1    3    3    0    0  0.35039817365E+01 -0.17700953134E+02  0.18970060527E+02  0.26181383200E+02  0.00000000000E+00 0. -1.
</event>
<event>
 7    1  0.1789107E-013  0.7246160E+02  0.7816164E-02  0.1226708E+00
        -11   -1    0    0    0    0  0.00000000000E+00  0.00000000000E+00  0.45593999997E+02  0.45594000000E+02  0.51100000000E-03 0. -1.
         11   -1    0    0    0    0 -0.00000000000E+00 -0.00000000000E+00 -0.45593999997E+02  0.45594000000E+02  0.51100000000E-03 0.  1.
    9900012    2    1    2    0    0  0.90127409383E+01 -0.13696426578E+02  0.90474657352E+01  0.72461595207E+02  0.70000032454E+02 0.  0.
        -12    1    1    2    0    0 -0.90127409383E+01  0.13696426578E+02 -0.90474657352E+01  0.18726404793E+02  0.00000000000E+00 0.  1.
         11    1    3    3    0    0 -0.17246569703E+02 -0.36661496091E+01  0.98974422650E+01  0.20219895725E+02  0.51100000000E-03 0. -1.
        -11    1    3    3    0    0 -0.91799094986E+00 -0.21499945259E+02  0.51777806847E+01  0.22133679464E+02  0.51100000000E-03 0.  1.
        -12    1    3    3    0    0  0.27177301591E+02  0.11469668290E+02 -0.60277572145E+01  0.30108020019E+02  0.00000000000E+00 0.  1.
</event>
<event>
 7    1  0.1789107E-013  0.7246160E+02  0.7816164E-02  0.1226708E+00
        -11   -1    0    0    0    0  0.00000000000E+00  0.00000000000E+00  0.45593999997E+02  0.45594000000E+02  0.51100000000E-03 0.  1.
         11   -1    0    0    0    0 -0.00000000000E+00 -0.00000000000E+00 -0.45593999997E+02  0.45594000000E+02  0.51100000000E-03 0. -1.
    9900012    2    1    2    0    0  0.77455780701E+01  0.16844439798E+02  0.26360770613E+01  0.72461600612E+02  0.70000039495E+02 0.  0.
        -12    1    1    2    0    0 -0.77455780701E+01 -0.16844439798E+02 -0.26360770613E+01  0.18726399388E+02  0.00000000000E+00 0.  1.
         11    1    3    3    0    0  0.11004687578E+02  0.20726237879E+02  0.22632459545E+02  0.32602274624E+02  0.51100000000E-03 0. -1.
        -11    1    3    3    0    0 -0.18649509826E+02 -0.18806654410E+00 -0.10569183454E+02  0.21437052618E+02  0.51100000000E-03 0.  1.
         12    1    3    3    0    0  0.15390400318E+02 -0.36937315369E+01 -0.94271990291E+01  0.18422273371E+02  0.00000000000E+00 0. -1.
</event>
<event>
 7    1  0.1789107E-013  0.7246147E+02  0.7816164E-02  0.1226708E+00
        -11   -1    0    0    0    0  0.00000000000E+00  0.00000000000E+00  0.45593999997E+02  0.45594000000E+02  0.51100000000E-03 0. -1.
         11   -1    0    0    0    0 -0.00000000000E+00 -0.00000000000E+00 -0.45593999997E+02  0.45594000000E+02  0.51100000000E-03 0.  1.
    9900012    2    1    2    0    0  0.48468359826E+01  0.73632508162E+01  0.16521911553E+02  0.72461472213E+02  0.69999872230E+02 0.  0.
        -12    1    1    2    0    0 -0.48468359826E+01 -0.73632508162E+01 -0.16521911553E+02  0.18726527787E+02  0.00000000000E+00 0.  1.
         11    1    3    3    0    0  0.97738871870E+01 -0.43280647615E+01  0.21752065197E+02  0.24236611890E+02  0.51100000000E-03 0. -1.
        -11    1    3    3    0    0  0.14882802326E+02 -0.36902948767E+01  0.10532563130E+02  0.18602445208E+02  0.51100000000E-03 0.  1.
        -12    1    3    3    0    0 -0.19809853530E+02  0.15381610454E+02 -0.15762716775E+02  0.29622415114E+02  0.00000000000E+00 0.  1.
</event>
<event>
 7    1  0.1789107E-013  0.7246158E+02  0.7816164E-02  0.1226708E+00
        -11   -1    0    0    0    0  0.00000000000E+00  0.00000000000E+00  0.45593999997E+02  0.45594000000E+02  0.51100000000E-03 0. -1.
         11   -1    0    0    0    0 -0.00000000000E+00 -0.00000000000E+00 -0.45593999997E+02  0.45594000000E+02  0.51100000000E-03 0.  1.
    9900012    2    1    2    0    0 -0.55883717247E+01  0.10774335191E+02  0.14260521052E+02  0.72461583952E+02  0.70000017791E+02 0.  0.
        -12    1    1    2    0    0  0.55883717247E+01 -0.10774335191E+02 -0.14260521052E+02  0.18726416048E+02  0.00000000000E+00 0.  1.
         11    1    3    3    0    0 -0.40436556894E+01  0.16785725332E+02  0.67039043762E+01  0.18521718614E+02  0.51100000000E-03 0. -1.
        -11    1    3    3    0    0 -0.23427823750E+02  0.54798558457E+01 -0.72483808280E+01  0.25128286265E+02  0.51100000000E-03 0.  1.
         12    1    3    3    0    0  0.21883107715E+02 -0.11491245987E+02  0.14804997503E+02  0.28811579073E+02  0.00000000000E+00 0. -1.
</event>
<event>
 7    1  0.1789107E-013  0.7246156E+02  0.7816164E-02  0.1226708E+00
        -11   -1    0    0    0    0  0.00000000000E+00  0.00000000000E+00  0.45593999997E+02  0.45594000000E+02  0.51100000000E-03 0.  1.
         11   -1    0    0    0    0 -0.00000000000E+00 -0.00000000000E+00 -0.45593999997E+02  0.45594000000E+02  0.51100000000E-03 0. -1.
    9900012    2    1    2    0    0 -0.48857593903E+00 -0.74994351711E+01 -0.17152241663E+02  0.72461558043E+02  0.69999984040E+02 0.  0.
        -12    1    1    2    0    0  0.48857593903E+00  0.74994351711E+01  0.17152241663E+02  0.18726441957E+02  0.00000000000E+00 0.  1.
         11    1    3    3    0    0  0.10092439012E+02 -0.71138627465E+01  0.39487807854E+00  0.12353958772E+02  0.51100000000E-03 0. -1.
        -11    1    3    3    0    0  0.15297485255E+01 -0.20323696504E+02 -0.27927989125E+02  0.34574055981E+02  0.51100000000E-03 0.  1.
        -12    1    3    3    0    0 -0.12110763476E+02  0.19938124079E+02  0.10380869384E+02  0.25533543290E+02  0.00000000000E+00 0.  1.
</event>
<event>
 7    1  0.1789107E-013  0.7246159E+02  0.7816164E-02  0.1226708E+00
        -11   -1    0    0    0    0  0.00000000000E+00  0.00000000000E+00  0.45593999997E+02  0.45594000000E+02  0.51100000000E-03 0. -1.
         11   -1    0    0    0    0 -0.00000000000E+00 -0.00000000000E+00 -0.45593999997E+02  0.45594000000E+02  0.51100000000E-03 0.  1.
    9900012    2    1    2    0    0  0.82453422336E+01  0.11582206077E+02  0.12187918634E+02  0.72461587456E+02  0.70000022356E+02 0.  0.
        -12    1    1    2    0    0 -0.82453422336E+01 -0.11582206077E+02 -0.12187918634E+02  0.18726412544E+02  0.00000000000E+00 0.  1.
         11    1    3    3    0    0 -0.78030489592E+01  0.30163189916E+02  0.82562255142E+01  0.32231519650E+02  0.51100000000E-03 0. -1.
        -11    1    3    3    0    0  0.37364948643E+00  0.12995517854E+01  0.13200834021E+02  0.13269908360E+02  0.51100000000E-03 0.  1.
        -12    1    3    3    0    0  0.15674741706E+02 -0.19880535624E+02 -0.92691409015E+01  0.26960159445E+02  0.00000000000E+00 0.  1.
</event>
<event>
 7    1  0.1789107E-013  0.7246155E+02  0.7816164E-02  0.1226708E+00
        -11   -1    0    0    0    0  0.00000000000E+00  0.00000000000E+00  0.45593999997E+02  0.45594000000E+02  0.51100000000E-03 0.  1.
         11   -1    0    0    0    0 -0.00000000000E+00 -0.00000000000E+00 -0.45593999997E+02  0.45594000000E+02  0.51100000000E-03 0. -1.
    9900012    2    1    2    0    0  0.71825583044E+01 -0.13579343233E+02 -0.10709443029E+02  0.72461551420E+02  0.69999975413E+02 0.  0.
        -12    1    1    2    0    0 -0.71825583044E+01  0.13579343233E+02  0.10709443029E+02  0.18726448580E+02  0.00000000000E+00 0.  1.
         11    1    3    3    0    0  0.59260125470E+01  0.52372358237E+01 -0.10143736146E+02  0.12862412178E+02  0.51100000000E-03 0. -1.
        -11    1    3    3    0    0 -0.16498190615E+02  0.62026292151E+01  0.16797252742E+02  0.24347702206E+02  0.51100000000E-03 0.  1.
         12    1    3    3    0    0  0.17754736373E+02 -0.25019208272E+02 -0.17362959624E+02  0.35251437036E+02  0.00000000000E+00 0. -1.
</event>
<event>
 7    1  0.1789107E-013  0.7246138E+02  0.7816164E-02  0.1226709E+00
        -11   -1    0    0    0    0  0.00000000000E+00  0.00000000000E+00  0.45593999997E+02  0.45594000000E+02  0.51100000000E-03 0. -1.
         11   -1    0    0    0    0 -0.00000000000E+00 -0.00000000000E+00 -0.45593999997E+02  0.45594000000E+02  0.51100000000E-03 0.  1.
    9900012    2    1    2    0    0 -0.15344589687E+02  0.10725360118E+02 -0.44329026047E+00  0.72461380215E+02  0.69999752386E+02 0.  0.
        -12    1    1    2    0    0  0.15344589687E+02 -0.10725360118E+02  0.44329026047E+00  0.18726619785E+02  0.00000000000E+00 0.  1.
         11    1    3    3    0    0 -0.13471260335E+02  0.60757935013E+01  0.26843719417E+02  0.30642705397E+02  0.51100000000E-03 0. -1.
        -11    1    3    3    0    0 -0.11699365535E+02  0.12560527620E+02 -0.84101887849E+01  0.19114739959E+02  0.51100000000E-03 0.  1.
         12    1    3    3    0    0  0.98260361837E+01 -0.79109610032E+01 -0.18876820892E+02  0.22703934859E+02  0.00000000000E+00 0. -1.
</event>
<event>
 7    1  0.1789107E-013  0.7246157E+02  0.7816164E-02  0.1226708E+00
        -11   -1    0    0    0    0  0.00000000000E+00  0.00000000000E+00  0.45593999997E+02  0.45594000000E+02  0.51100000000E-03 0.  1.
         11   -1    0    0    0    0 -0.00000000000E+00 -0.00000000000E+00 -0.45593999997E+02  0.45594000000E+02  0.51100000000E-03 0. -1.
    9900012    2    1    2    0    0  0.16154816656E+02 -0.89837733003E+01  0.29987942319E+01  0.72461573466E+02  0.70000004131E+02 0.  0.
        -12    1    1    2    0    0 -0.16154816656E+02  0.89837733003E+01 -0.29987942319E+01  0.18726426534E+02  0.00000000000E+00 0.  1.
         11    1    3    3    0    0  0.43644463582E+01  0.43556377061E+01  0.14365681485E+01  0.63311689400E+01  0.51100000000E-03 0. -1.
        -11    1    3    3    0    0 -0.24760540914E+02  0.32691101837E+01 -0.49417064484E+01  0.25459613718E+02  0.51100000000E-03 0.  1.
        -12    1    3    3    0    0  0.36550911212E+02 -0.16608521190E+02  0.65039325318E+01  0.40670790808E+02  0.00000000000E+00 0.  1.
</event>
<event>
 7    1  0.1789107E-013  0.7246156E+02  0.7816164E-02  0.1226708E+00
        -11   -1    0    0    0    0  0.00000000000E+00  0.00000000000E+00  0.45593999997E+02  0.45594000000E+02  0.51100000000E-03 0. -1.
         11   -1    0    0    0    0 -0.00000000000E+00 -0.00000000000E+00 -0.45593999997E+02  0.45594000000E+02  0.51100000000E-03 0.  1.
    9900012    2    1    2    0    0 -0.88238546760E+01 -0.98156657385E+01  0.13284276516E+02  0.72461555922E+02  0.69999981278E+02 0.  0.
        -12    1    1    2    0    0  0.88238546760E+01  0.98156657385E+01 -0.13284276516E+02  0.18726444078E+02  0.00000000000E+00 0.  1.
         11    1    3    3    0    0  0.28967436256E+01 -0.34151992299E+01 -0.12363756447E+02  0.13149797837E+02  0.51100000000E-03 0.  1.
        -11    1    3    3    0    0 -0.29714207254E+02 -0.13736358425E+01  0.29174547596E+01  0.29888668935E+02  0.51100000000E-03 0. -1.
        -12    1    3    3    0    0  0.17993608952E+02 -0.50268306661E+01  0.22730578204E+02  0.29423089150E+02  0.00000000000E+00 0.  1.
</event>
<event>
 7    1  0.1789107E-013  0.7246156E+02  0.7816164E-02  0.1226708E+00
        -11   -1    0    0    0    0  0.00000000000E+00  0.00000000000E+00  0.45593999997E+02  0.45594000000E+02  0.51100000000E-03 0.  1.
         11   -1    0    0    0    0 -0.00000000000E+00 -0.00000000000E+00 -0.45593999997E+02  0.45594000000E+02  0.51100000000E-03 0. -1.
    9900012    2    1    2    0    0 -0.65092787587E+01 -0.17558021917E+02 -0.15705805030E+00  0.72461561182E+02  0.69999988129E+02 0.  0.
        -12    1    1    2    0    0  0.65092787587E+01  0.17558021917E+02  0.15705805030E+00  0.18726438818E+02  0.00000000000E+00 0.  1.
         11    1    3    3    0    0  0.89246612397E+01 -0.17428113459E+02  0.59547859002E+01  0.20465781010E+02  0.51100000000E-03 0. -1.
        -11    1    3    3    0    0  0.75270794906E+01 -0.28270298842E+01 -0.22344556105E+02  0.23747172704E+02  0.51100000000E-03 0.  1.
        -12    1    3    3    0    0 -0.22961019489E+02  0.26971214263E+01  0.16232712155E+02  0.28248607468E+02  0.00000000000E+00 0.  1.
</event>
<event>
 7    1  0.1789107E-013  0.7246168E+02  0.7816164E-02  0.1226708E+00
        -11   -1    0    0    0    0  0.00000000000E+00  0.00000000000E+00  0.45593999997E+02  0.45594000000E+02  0.51100000000E-03 0. -1.
         11   -1    0    0    0    0 -0.00000000000E+00 -0.00000000000E+00 -0.45593999997E+02  0.45594000000E+02  0.51100000000E-03 0.  1.
    9900012    2    1    2    0    0  0.10431691006E+02  0.11316040684E+02  0.10667811649E+02  0.72461677366E+02  0.70000139481E+02 0.  0.
        -12    1    1    2    0    0 -0.10431691006E+02 -0.11316040684E+02 -0.10667811649E+02  0.18726322634E+02  0.00000000000E+00 0.  1.
         11    1    3    3    0    0  0.27405050204E+02  0.54648019806E+01  0.38990864119E+01  0.28215309895E+02  0.51100000000E-03 0. -1.
        -11    1    3    3    0    0  0.11395123566E+02  0.95725494880E-01 -0.56846544645E+01  0.12734728151E+02  0.51100000000E-03 0.  1.
        -12    1    3    3    0    0 -0.28368482764E+02  0.57555132089E+01  0.12453379701E+02  0.31511639320E+02  0.00000000000E+00 0.  1.
</event>
<event>
 7    1  0.1789107E-013  0.7246155E+02  0.7816164E-02  0.1226708E+00
        -11   -1    0    0    0    0  0.00000000000E+00  0.00000000000E+00  0.45593999997E+02  0.45594000000E+02  0.51100000000E-03 0.  1.
         11   -1    0    0    0    0 -0.00000000000E+00 -0.00000000000E+00 -0.45593999997E+02  0.45594000000E+02  0.51100000000E-03 0. -1.
    9900012    2    1    2    0    0 -0.37580543692E+01  0.89697494618E+01 -0.16003137011E+02  0.72461554201E+02  0.69999979036E+02 0.  0.
        -12    1    1    2    0    0  0.37580543692E+01 -0.89697494618E+01  0.16003137011E+02  0.18726445799E+02  0.00000000000E+00 0.  1.
         11    1    3    3    0    0  0.11342038997E+02  0.91166873087E+01 -0.26200180535E+02  0.29970073347E+02  0.51100000000E-03 0. -1.
        -11    1    3    3    0    0 -0.62271006587E+01  0.18867357356E+02  0.20164502111E+01  0.19970478910E+02  0.51100000000E-03 0.  1.
         12    1    3    3    0    0 -0.88729927071E+01 -0.19014295202E+02  0.81805933124E+01  0.22521001944E+02  0.00000000000E+00 0. -1.
</event>
<event>
 7    1  0.1789107E-013  0.7246186E+02  0.7816164E-02  0.1226707E+00
        -11   -1    0    0    0    0  0.00000000000E+00  0.00000000000E+00  0.45593999997E+02  0.45594000000E+02  0.51100000000E-03 0.  1.
         11   -1    0    0    0    0 -0.00000000000E+00 -0.00000000000E+00 -0.45593999997E+02  0.45594000000E+02  0.51100000000E-03 0. -1.
    9900012    2    1    2    0    0 -0.12357937618E+02  0.10963257962E+02 -0.88179834322E+01  0.72461855732E+02  0.70000371835E+02 0.  0.
        -12    1    1    2    0    0  0.12357937618E+02 -0.10963257962E+02  0.88179834322E+01  0.18726144268E+02  0.00000000000E+00 0.  1.
         11    1    3    3    0    0 -0.21645185045E+00  0.67599141050E+01 -0.23786122240E+02  0.24728989094E+02  0.51100000000E-03 0. -1.
        -11    1    3    3    0    0 -0.18036966357E+02  0.18660040106E+02 -0.21720093883E+00  0.25953351009E+02  0.51100000000E-03 0.  1.
        -12    1    3    3    0    0  0.58954805887E+01 -0.14456696249E+02  0.15185339747E+02  0.21779515629E+02  0.00000000000E+00 0.  1.
</event>
<event>
 7    1  0.1789107E-013  0.7246159E+02  0.7816164E-02  0.1226708E+00
        -11   -1    0    0    0    0  0.00000000000E+00  0.00000000000E+00  0.45593999997E+02  0.45594000000E+02  0.51100000000E-03 0. -1.
         11   -1    0    0    0    0 -0.00000000000E+00 -0.00000000000E+00 -0.45593999997E+02  0.45594000000E+02  0.51100000000E-03 0.  1.
    9900012    2    1    2    0    0 -0.11533003362E+02  0.10088031058E+02 -0.10765684428E+02  0.72461588214E+02  0.70000023344E+02 0.  0.
        -12    1    1    2    0    0  0.11533003362E+02 -0.10088031058E+02  0.10765684428E+02  0.18726411786E+02  0.00000000000E+00 0.  1.
         11    1    3    3    0    0 -0.29288152010E+02 -0.13601673411E+02 -0.29450113989E+01  0.32426446925E+02  0.51100000000E-03 0. -1.
        -11    1    3    3    0    0 -0.44150104455E+01  0.14415593564E+02 -0.12887670812E+01  0.15131509372E+02  0.51100000000E-03 0.  1.
        -12    1    3    3    0    0  0.22170159094E+02  0.92741109063E+01 -0.65319059476E+01  0.24903631917E+02  0.00000000000E+00 0.  1.
</event>
<event>
 7    1  0.1789107E-013  0.7246156E+02  0.7816164E-02  0.1226708E+00
        -11   -1    0    0    0    0  0.00000000000E+00  0.00000000000E+00  0.45593999997E+02  0.45594000000E+02  0.51100000000E-03 0.  1.
         11   -1    0    0    0    0 -0.00000000000E+00 -0.00000000000E+00 -0.45593999997E+02  0.45594000000E+02  0.51100000000E-03 0. -1.
    9900012    2    1    2    0    0  0.83779623842E+01 -0.76375035802E+01 -0.14904965079E+02  0.72461556166E+02  0.69999981596E+02 0.  0.
        -12    1    1    2    0    0 -0.83779623842E+01  0.76375035802E+01  0.14904965079E+02  0.18726443834E+02  0.00000000000E+00 0.  1.
         11    1    3    3    0    0  0.54474725961E+01  0.25737474811E+01  0.31081719266E+01  0.67793706764E+01  0.51100000000E-03 0. -1.
        -11    1    3    3    0    0  0.20670435819E+02  0.15866068754E+02  0.51362135933E+01  0.26558986144E+02  0.51100000000E-03 0.  1.
         12    1    3    3    0    0 -0.17739946031E+02 -0.26077319815E+02 -0.23149350599E+02  0.39123199346E+02  0.00000000000E+00 0. -1.
</event>
<event>
 7    1  0.1789107E-013  0.7246153E+02  0.7816164E-02  0.1226708E+00
        -11   -1    0    0    0    0  0.00000000000E+00  0.00000000000E+00  0.45593999997E+02  0.45594000000E+02  0.51100000000E-03 0.  1.
         11   -1    0    0    0    0 -0.00000000000E+00 -0.00000000000E+00 -0.45593999997E+02  0.45594000000E+02  0.51100000000E-03 0. -1.
    9900012    2    1    2    0    0 -0.37656607987E+01  0.10094086443E+01 -0.18316152887E+02  0.72461533071E+02  0.69999951510E+02 0.  0.
        -12    1    1    2    0    0  0.37656607987E+01 -0.10094086443E+01  0.18316152887E+02  0.18726466929E+02  0.00000000000E+00 0.  1.
         11    1    3    3    0    0  0.92295764274E+01  0.75383896415E+01 -0.15605207260E+02  0.19635042483E+02  0.51100000000E-03 0. -1.
        -11    1    3    3    0    0 -0.37365274341E+01  0.32290727206E+01 -0.25711376798E+02  0.26181356821E+02  0.51100000000E-03 0.  1.
        -12    1    3    3    0    0 -0.92587097920E+01 -0.97580537178E+01  0.23000431171E+02  0.26645133767E+02  0.00000000000E+00 0.  1.
</event>
<event>
 7    1  0.1789107E-013  0.7246142E+02  0.7816164E-02  0.1226708E+00
        -11   -1    0    0    0    0  0.00000000000E+00  0.00000000000E+00  0.45593999997E+02  0.45594000000E+02  0.51100000000E-03 0.  1.
         11   -1    0    0    0    0 -0.00000000000E+00 -0.00000000000E+00 -0.45593999997E+02  0.45594000000E+02  0.51100000000E-03 0. -1.
    9900012    2    1    2    0    0  0.71908891034E+01 -0.16529969343E+02  0.50730627122E+01  0.72461421619E+02  0.69999806322E+02 0.  0.
        -12    1    1    2    0    0 -0.71908891034E+01  0.16529969343E+02 -0.50730627122E+01  0.18726578381E+02  0.00000000000E+00 0.  1.
         11    1    3    3    0    0  0.16922030858E+02 -0.16173786917E+02 -0.21669568552E+02  0.31898537789E+02  0.51100000000E-03 0.  1.
        -11    1    3    3    0    0  0.87266202382E+01  0.26708219071E+01  0.17415919897E+02  0.19662183413E+02  0.51100000000E-03 0. -1.
        -12    1    3    3    0    0 -0.18457761993E+02 -0.30270043335E+01  0.93267113665E+01  0.20900700417E+02  0.00000000000E+00 0.  1.
</event>
<event>
 7    1  0.1789107E-013  0.7246159E+02  0.7816164E-02  0.1226708E+00
        -11   -1    0    0    0    0  0.00000000000E+00  0.00000000000E+00  0.45593999997E+02  0.45594000000E+02  0.51100000000E-03 0.  1.
         11   -1    0    0    0    0 -0.00000000000E+00 -0.00000000000E+00 -0.45593999997E+02  0.45594000000E+02  0.51100000000E-03 0. -1.
    9900012    2    1    2    0    0 -0.65024303270E+01 -0.12563015901E+01 -0.17516241171E+02  0.72461585538E+02  0.70000019858E+02 0.  0.
        -12    1    1    2    0    0  0.65024303270E+01  0.12563015901E+01  0.17516241171E+02  0.18726414462E+02  0.00000000000E+00 0.  1.
         11    1    3    3    0    0  0.17431042149E+02 -0.65656427428E+01 -0.14403150720E+02  0.23545692726E+02  0.51100000000E-03 0. -1.
        -11    1    3    3    0    0 -0.49821751778E+01  0.12617432170E+02  0.16033738422E+02  0.21002438718E+02  0.51100000000E-03 0.  1.
         12    1    3    3    0    0 -0.18951297298E+02 -0.73080910177E+01 -0.19146828873E+02  0.27913454094E+02  0.00000000000E+00 0. -1.
</event>
<event>
 7    1  0.1789107E-013  0.7246156E+02  0.7816164E-02  0.1226708E+00
        -11   -1    0    0    0    0  0.00000000000E+00  0.00000000000E+00  0.45593999997E+02  0.45594000000E+02  0.51100000000E-03 0.  1.
         11   -1    0    0    0    0 -0.00000000000E+00 -0.00000000000E+00 -0.45593999997E+02  0.45594000000E+02  0.51100000000E-03 0. -1.
    9900012    2    1    2    0    0 -0.16773265942E+02 -0.53840519294E+01 -0.63520831892E+01  0.72461563436E+02  0.69999991066E+02 0.  0.
        -12    1    1    2    0    0  0.16773265942E+02  0.53840519294E+01  0.63520831892E+01  0.18726436564E+02  0.00000000000E+00 0.  1.
         11    1    3    3    0    0 -0.46735042342E+01  0.15034646506E+01 -0.34280940014E+01  0.59878106622E+01  0.51100000000E-03 0. -1.
        -11    1    3    3    0    0  0.21588150034E+02  0.14870086159E+02 -0.28696862142E+01  0.26370490771E+02  0.51100000000E-03 0.  1.
         12    1    3    3    0    0 -0.33687911742E+02 -0.21757602739E+02 -0.54302973588E-01  0.40103262003E+02  0.00000000000E+00 0. -1.
</event>
<event>
 7    1  0.1789107E-013  0.7246160E+02  0.7816164E-02  0.1226708E+00
        -11   -1    0    0    0    0  0.00000000000E+00  0.00000000000E+00  0.45593999997E+02  0.45594000000E+02  0.51100000000E-03 0. -1.
         11   -1    0    0    0    0 -0.00000000000E+00 -0.00000000000E+00 -0.45593999997E+02  0.45594000000E+02  0.51100000000E-03 0.  1.
    9900012    2    1    2    0    0  0.57758605250E+01 -0.15782109513E+02  0.82609057843E+01  0.72461598587E+02  0.70000036857E+02 0.  0.
        -12    1    1    2    0    0 -0.57758605250E+01  0.15782109513E+02 -0.82609057843E+01  0.18726401413E+02  0.00000000000E+00 0.  1.
         11    1    3    3    0    0  0.24555433412E+02 -0.23766168273E+01  0.16412601294E+02  0.29630914584E+02  0.51100000000E-03 0. -1.
        -11    1    3    3    0    0  0.29090272110E+01  0.97897925719E+01 -0.31209997355E+01  0.10679097224E+02  0.51100000000E-03 0.  1.
        -12    1    3    3    0    0 -0.21688600098E+02 -0.23195285258E+02 -0.50306957747E+01  0.32151586779E+02  0.00000000000E+00 0.  1.
</event>
<event>
 7    1  0.1789107E-013  0.7246157E+02  0.7816164E-02  0.1226708E+00
        -11   -1    0    0    0    0  0.00000000000E+00  0.00000000000E+00  0.45593999997E+02  0.45594000000E+02  0.51100000000E-03 0. -1.
         11   -1    0    0    0    0 -0.00000000000E+00 -0.00000000000E+00 -0.45593999997E+02  0.45594000000E+02  0.51100000000E-03 0.  1.
    9900012    2    1    2    0    0  0.74591244336E+01 -0.13569625042E+02 -0.10531182444E+02  0.72461573091E+02  0.70000003643E+02 0.  0.
        -12    1    1    2    0    0 -0.74591244336E+01  0.13569625042E+02  0.10531182444E+02  0.18726426909E+02  0.00000000000E+00 0.  1.
         11    1    3    3    0    0 -0.46355177207E+01 -0.10759569098E+02 -0.60229298362E+00  0.11731117117E+02  0.51100000000E-03 0. -1.
        -11    1    3    3    0    0  0.73402781408E+01 -0.29207701049E+02  0.42115407766E+01  0.30408988141E+02  0.51100000000E-03 0.  1.
        -12    1    3    3    0    0  0.47543640135E+01  0.26397645105E+02 -0.14140430237E+02  0.30321467833E+02  0.00000000000E+00 0.  1.
</event>
<event>
 7    1  0.1789107E-013  0.7246156E+02  0.7816164E-02  0.1226708E+00
        -11   -1    0    0    0    0  0.00000000000E+00  0.00000000000E+00  0.45593999997E+02  0.45594000000E+02  0.51100000000E-03 0.  1.
         11   -1    0    0    0    0 -0.00000000000E+00 -0.00000000000E+00 -0.45593999997E+02  0.45594000000E+02  0.51100000000E-03 0. -1.
    9900012    2    1    2    0    0 -0.11628237317E+01 -0.16328117071E+02 -0.90950466190E+01  0.72461563096E+02  0.69999990623E+02 0.  0.
        -12    1    1    2    0    0  0.11628237317E+01  0.16328117071E+02  0.90950466190E+01  0.18726436904E+02  0.00000000000E+00 0.  1.
         11    1    3    3    0    0 -0.56426128432E+00  0.91937125445E+01 -0.62454271275E+01  0.11128706188E+02  0.51100000000E-03 0. -1.
        -11    1    3    3    0    0 -0.28098738055E+02 -0.11339029470E+02 -0.22713681269E+01  0.30385387657E+02  0.51100000000E-03 0.  1.
        -12    1    3    3    0    0  0.27500175608E+02 -0.14182800145E+02 -0.57825136454E+00  0.30947469251E+02  0.00000000000E+00 0.  1.
</event>
<event>
 7    1  0.1789107E-013  0.7246131E+02  0.7816164E-02  0.1226709E+00
        -11   -1    0    0    0    0  0.00000000000E+00  0.00000000000E+00  0.45593999997E+02  0.45594000000E+02  0.51100000000E-03 0. -1.
         11   -1    0    0    0    0 -0.00000000000E+00 -0.00000000000E+00 -0.45593999997E+02  0.45594000000E+02  0.51100000000E-03 0.  1.
    9900012    2    1    2    0    0 -0.11211504687E+02  0.13698845803E+02  0.61100491144E+01  0.72461310121E+02  0.69999661075E+02 0.  0.
        -12    1    1    2    0    0  0.11211504687E+02 -0.13698845803E+02 -0.61100491144E+01  0.18726689879E+02  0.00000000000E+00 0.  1.
         11    1    3    3    0    0 -0.30516019856E+02 -0.46059383583E+01 -0.19625202949E+01  0.30923997513E+02  0.51100000000E-03 0. -1.
        -11    1    3    3    0    0  0.94787884019E+00 -0.30035060617E+01 -0.83809133748E+01  0.89531688365E+01  0.51100000000E-03 0.  1.
        -12    1    3    3    0    0  0.18356636330E+02  0.21308290223E+02  0.16453482784E+02  0.32584143771E+02  0.00000000000E+00 0.  1.
</event>
<event>
 7    1  0.1789107E-013  0.7246162E+02  0.7816164E-02  0.1226708E+00
        -11   -1    0    0    0    0  0.00000000000E+00  0.00000000000E+00  0.45593999997E+02  0.45594000000E+02  0.51100000000E-03 0. -1.
         11   -1    0    0    0    0 -0.00000000000E+00 -0.00000000000E+00 -0.45593999997E+02  0.45594000000E+02  0.51100000000E-03 0.  1.
    9900012    2    1    2    0    0  0.85870478497E+01  0.83923756329E+01  0.14370387181E+02  0.72461617881E+02  0.70000061990E+02 0.  0.
        -12    1    1    2    0    0 -0.85870478497E+01 -0.83923756329E+01 -0.14370387181E+02  0.18726382119E+02  0.00000000000E+00 0.  1.
         11    1    3    3    0    0  0.14133626520E+02 -0.21194259923E+02 -0.43559356153E+01  0.25844346145E+02  0.51100000000E-03 0. -1.
        -11    1    3    3    0    0  0.90269231425E+01  0.16260436889E+00  0.80325199830E+01  0.12084418031E+02  0.51100000000E-03 0.  1.
        -12    1    3    3    0    0 -0.14573501813E+02  0.29424031187E+02  0.10693802814E+02  0.34532853705E+02  0.00000000000E+00 0.  1.
</event>
<event>
 7    1  0.1789107E-013  0.7246156E+02  0.7816164E-02  0.1226708E+00
        -11   -1    0    0    0    0  0.00000000000E+00  0.00000000000E+00  0.45593999997E+02  0.45594000000E+02  0.51100000000E-03 0. -1.
         11   -1    0    0    0    0 -0.00000000000E+00 -0.00000000000E+00 -0.45593999997E+02  0.45594000000E+02  0.51100000000E-03 0.  1.
    9900012    2    1    2    0    0 -0.42355757384E+01  0.15415397364E+02  0.97521822131E+01  0.72461557849E+02  0.69999983787E+02 0.  0.
        -12    1    1    2    0    0  0.42355757384E+01 -0.15415397364E+02 -0.97521822131E+01  0.18726442151E+02  0.00000000000E+00 0.  1.
         11    1    3    3    0    0  0.90031844932E+01 -0.36152445974E+01 -0.10409376847E+02  0.14229632853E+02  0.51100000000E-03 0. -1.
        -11    1    3    3    0    0 -0.16257876010E+02 -0.12876646261E+02  0.73154607309E+00  0.20752390494E+02  0.51100000000E-03 0.  1.
         12    1    3    3    0    0  0.30191157787E+01  0.31907288222E+02  0.19430012987E+02  0.37479534502E+02  0.00000000000E+00 0. -1.
</event>
<event>
 7    1  0.1789107E-013  0.7246150E+02  0.7816164E-02  0.1226708E+00
        -11   -1    0    0    0    0  0.00000000000E+00  0.00000000000E+00  0.45593999997E+02  0.45594000000E+02  0.51100000000E-03 0. -1.
         11   -1    0    0    0    0 -0.00000000000E+00 -0.00000000000E+00 -0.45593999997E+02  0.45594000000E+02  0.51100000000E-03 0.  1.
    9900012    2    1    2    0    0  0.15577106754E+01  0.54471789591E+01  0.17848905593E+02  0.72461504011E+02  0.69999913653E+02 0.  0.
        -12    1    1    2    0    0 -0.15577106754E+01 -0.54471789591E+01 -0.17848905593E+02  0.18726495989E+02  0.00000000000E+00 0.  1.
         11    1    3    3    0    0  0.82091506519E+01  0.12991490945E+02 -0.11995645406E+01  0.15414536864E+02  0.51100000000E-03 0. -1.
        -11    1    3    3    0    0  0.16925152520E+02  0.48971979654E+01  0.24161055156E+02  0.29903175789E+02  0.51100000000E-03 0.  1.
        -12    1    3    3    0    0 -0.23576592497E+02 -0.12441509951E+02 -0.51125850222E+01  0.27143791357E+02  0.00000000000E+00 0.  1.
</event>
<event>
 7    1  0.1789107E-013  0.7246156E+02  0.7816164E-02  0.1226708E+00
        -11   -1    0    0    0    0  0.00000000000E+00  0.00000000000E+00  0.45593999997E+02  0.45594000000E+02  0.51100000000E-03 0.  1.
         11   -1    0    0    0    0 -0.00000000000E+00 -0.00000000000E+00 -0.45593999997E+02  0.45594000000E+02  0.51100000000E-03 0. -1.
    9900012    2    1    2    0    0  0.15835512118E+02 -0.67074226437E+01  0.74112598000E+01  0.72461555212E+02  0.69999980353E+02 0.  0.
        -12    1    1    2    0    0 -0.15835512118E+02  0.67074226437E+01 -0.74112598000E+01  0.18726444788E+02  0.00000000000E+00 0.  1.
         11    1    3    3    0    0  0.25331919466E+02  0.71765751609E+01 -0.20169918420E+02  0.33166775306E+02  0.51100000000E-03 0. -1.
        -11    1    3    3    0    0  0.28259618442E+01 -0.29133910838E+01 -0.26551865709E+01  0.48501467957E+01  0.51100000000E-03 0.  1.
        -12    1    3    3    0    0 -0.12322369192E+02 -0.10970606721E+02  0.30236364791E+02  0.34444633110E+02  0.00000000000E+00 0.  1.
</event>
<event>
 7    1  0.1789107E-013  0.7246153E+02  0.7816164E-02  0.1226708E+00
        -11   -1    0    0    0    0  0.00000000000E+00  0.00000000000E+00  0.45593999997E+02  0.45594000000E+02  0.51100000000E-03 0. -1.
         11   -1    0    0    0    0 -0.00000000000E+00 -0.00000000000E+00 -0.45593999997E+02  0.45594000000E+02  0.51100000000E-03 0.  1.
    9900012    2    1    2    0    0 -0.86020818306E+01 -0.94975966348E+01  0.13655787563E+02  0.72461529761E+02  0.69999947198E+02 0.  0.
        -12    1    1    2    0    0  0.86020818306E+01  0.94975966348E+01 -0.13655787563E+02  0.18726470239E+02  0.00000000000E+00 0.  1.
         11    1    3    3    0    0 -0.14310818662E+02 -0.17829033799E+02  0.10427054022E+02  0.25127622905E+02  0.51100000000E-03 0. -1.
        -11    1    3    3    0    0 -0.62552068465E+01 -0.15547960599E+01  0.22030475708E+02  0.22954016286E+02  0.51100000000E-03 0.  1.
        -12    1    3    3    0    0  0.11963943678E+02  0.98862332238E+01 -0.18801742167E+02  0.24379890570E+02  0.00000000000E+00 0.  1.
</event>
<event>
 7    1  0.1789107E-013  0.7246158E+02  0.7816164E-02  0.1226708E+00
        -11   -1    0    0    0    0  0.00000000000E+00  0.00000000000E+00  0.45593999997E+02  0.45594000000E+02  0.51100000000E-03 0.  1.
         11   -1    0    0    0    0 -0.00000000000E+00 -0.00000000000E+00 -0.45593999997E+02  0.45594000000E+02  0.51100000000E-03 0. -1.
    9900012    2    1    2    0    0 -0.11079415343E+02 -0.12142128297E+02 -0.89718494736E+01  0.72461579976E+02  0.70000012613E+02 0.  0.
        -12    1    1    2    0    0  0.11079415343E+02  0.12142128297E+02  0.89718494736E+01  0.18726420024E+02  0.00000000000E+00 0.  1.
         11    1    3    3    0    0  0.41721121223E+01  0.30198968401E+01 -0.21453737805E+01  0.55793301932E+01  0.51100000000E-03 0.  1.
        -11    1    3    3    0    0 -0.60816012132E+01 -0.13457473521E+02 -0.34581065743E+02  0.37602387890E+02  0.51100000000E-03 0. -1.
        -12    1    3    3    0    0 -0.91699262516E+01 -0.17045516168E+01  0.27754590049E+02  0.29279861893E+02  0.00000000000E+00 0.  1.
</event>
<event>
 7    1  0.1789107E-013  0.7246158E+02  0.7816164E-02  0.1226708E+00
        -11   -1    0    0    0    0  0.00000000000E+00  0.00000000000E+00  0.45593999997E+02  0.45594000000E+02  0.51100000000E-03 0.  1.
         11   -1    0    0    0    0 -0.00000000000E+00 -0.00000000000E+00 -0.45593999997E+02  0.45594000000E+02  0.51100000000E-03 0. -1.
    9900012    2    1    2    0    0  0.90534954696E+01 -0.16391064144E+02 -0.21487463799E+00  0.72461576553E+02  0.70000008153E+02 0.  0.
        -12    1    1    2    0    0 -0.90534954696E+01  0.16391064144E+02  0.21487463799E+00  0.18726423447E+02  0.00000000000E+00 0.  1.
         11    1    3    3    0    0  0.11641006803E+02  0.75515718060E+01 -0.83555072487E+01  0.16197338601E+02  0.51100000000E-03 0. -1.
        -11    1    3    3    0    0  0.81266088813E+01 -0.35518569326E+02 -0.35817902616E+01  0.36612016615E+02  0.51100000000E-03 0.  1.
         12    1    3    3    0    0 -0.10714120214E+02  0.11575933375E+02  0.11722422872E+02  0.19652221337E+02  0.00000000000E+00 0. -1.
</event>
<event>
 7    1  0.1789107E-013  0.7246157E+02  0.7816164E-02  0.1226708E+00
        -11   -1    0    0    0    0  0.00000000000E+00  0.00000000000E+00  0.45593999997E+02  0.45594000000E+02  0.51100000000E-03 0. -1.
         11   -1    0    0    0    0 -0.00000000000E+00 -0.00000000000E+00 -0.45593999997E+02  0.45594000000E+02  0.51100000000E-03 0.  1.
    9900012    2    1    2    0    0 -0.44710195789E+01 -0.48157468476E+00  0.18178482133E+02  0.72461571005E+02  0.70000000926E+02 0.  0.
        -12    1    1    2    0    0  0.44710195789E+01  0.48157468476E+00 -0.18178482133E+02  0.18726428995E+02  0.00000000000E+00 0.  1.
         11    1    3    3    0    0 -0.25975708686E+02 -0.17711304602E+02  0.26038687204E+02  0.40822064916E+02  0.51100000000E-03 0. -1.
        -11    1    3    3    0    0  0.14866607504E+01  0.63629148646E+01 -0.58555642377E+01  0.87740799269E+01  0.51100000000E-03 0.  1.
        -12    1    3    3    0    0  0.20018028357E+02  0.10866815053E+02 -0.20046408332E+01  0.22865426162E+02  0.00000000000E+00 0.  1.
</event>
<event>
 7    1  0.1789107E-013  0.7246114E+02  0.7816164E-02  0.1226709E+00
        -11   -1    0    0    0    0  0.00000000000E+00  0.00000000000E+00  0.45593999997E+02  0.45594000000E+02  0.51100000000E-03 0.  1.
         11   -1    0    0    0    0 -0.00000000000E+00 -0.00000000000E+00 -0.45593999997E+02  0.45594000000E+02  0.51100000000E-03 0. -1.
    9900012    2    1    2    0    0 -0.15137844065E+02 -0.16325867728E+01 -0.10903016041E+02  0.72461136373E+02  0.69999434734E+02 0.  0.
        -12    1    1    2    0    0  0.15137844065E+02  0.16325867728E+01  0.10903016041E+02  0.18726863627E+02  0.00000000000E+00 0.  1.
         11    1    3    3    0    0 -0.11498618892E+01  0.11060286538E+02  0.14413421343E+02  0.18204363097E+02  0.51100000000E-03 0. -1.
        -11    1    3    3    0    0  0.13708039152E+02  0.30773445079E+01 -0.15474247142E+02  0.20900543330E+02  0.51100000000E-03 0.  1.
         12    1    3    3    0    0 -0.27696021328E+02 -0.15770217819E+02 -0.98421902420E+01  0.33356229946E+02  0.00000000000E+00 0. -1.
</event>
<event>
 7    1  0.1789107E-013  0.7246164E+02  0.7816164E-02  0.1226708E+00
        -11   -1    0    0    0    0  0.00000000000E+00  0.00000000000E+00  0.45593999997E+02  0.45594000000E+02  0.51100000000E-03 0.  1.
         11   -1    0    0    0    0 -0.00000000000E+00 -0.00000000000E+00 -0.45593999997E+02  0.45594000000E+02  0.51100000000E-03 0. -1.
    9900012    2    1    2    0    0 -0.53591891753E+01  0.59831896014E+01 -0.16916178869E+02  0.72461639596E+02  0.70000090279E+02 0.  0.
        -12    1    1    2    0    0  0.53591891753E+01 -0.59831896014E+01  0.16916178869E+02  0.18726360404E+02  0.00000000000E+00 0.  1.
         11    1    3    3    0    0  0.19996900636E+01  0.18983387692E+02 -0.10677456801E+02  0.21871804969E+02  0.51100000000E-03 0. -1.
        -11    1    3    3    0    0  0.14853385161E+02 -0.85083285314E+01  0.12490353042E+02  0.21190177548E+02  0.51100000000E-03 0.  1.
         12    1    3    3    0    0 -0.22212264400E+02 -0.44918695594E+01 -0.18729075110E+02  0.29399657079E+02  0.00000000000E+00 0. -1.
</event>
<event>
 7    1  0.1789107E-013  0.7246159E+02  0.7816164E-02  0.1226708E+00
        -11   -1    0    0    0    0  0.00000000000E+00  0.00000000000E+00  0.45593999997E+02  0.45594000000E+02  0.51100000000E-03 0. -1.
         11   -1    0    0    0    0 -0.00000000000E+00 -0.00000000000E+00 -0.45593999997E+02  0.45594000000E+02  0.51100000000E-03 0.  1.
    9900012    2    1    2    0    0 -0.38597400279E+01 -0.10491296936E+01  0.18294269538E+02  0.72461586458E+02  0.70000021056E+02 0.  0.
        -12    1    1    2    0    0  0.38597400279E+01  0.10491296936E+01 -0.18294269538E+02  0.18726413542E+02  0.00000000000E+00 0.  1.
         11    1    3    3    0    0 -0.38835551213E+01 -0.50336504836E+01  0.21004936514E+02  0.21946001818E+02  0.51100000000E-03 0. -1.
        -11    1    3    3    0    0  0.15522012097E+02 -0.17265557100E+01  0.18126185420E+02  0.23926396558E+02  0.51100000000E-03 0.  1.
        -12    1    3    3    0    0 -0.15498197003E+02  0.57110765000E+01 -0.20836852395E+02  0.26589188082E+02  0.00000000000E+00 0.  1.
</event>
<event>
 7    1  0.1789107E-013  0.7246157E+02  0.7816164E-02  0.1226708E+00
        -11   -1    0    0    0    0  0.00000000000E+00  0.00000000000E+00  0.45593999997E+02  0.45594000000E+02  0.51100000000E-03 0.  1.
         11   -1    0    0    0    0 -0.00000000000E+00 -0.00000000000E+00 -0.45593999997E+02  0.45594000000E+02  0.51100000000E-03 0. -1.
    9900012    2    1    2    0    0  0.12359079181E+02  0.27026100808E+01 -0.13806818213E+02  0.72461570319E+02  0.70000000032E+02 0.  0.
        -12    1    1    2    0    0 -0.12359079181E+02 -0.27026100808E+01  0.13806818213E+02  0.18726429681E+02  0.00000000000E+00 0.  1.
         11    1    3    3    0    0  0.74241397540E+01 -0.60488629868E+01 -0.22793599109E+01  0.98438852281E+01  0.51100000000E-03 0. -1.
        -11    1    3    3    0    0  0.30300790439E+02  0.14620826458E+02  0.11409624211E+01  0.33663158840E+02  0.51100000000E-03 0.  1.
         12    1    3    3    0    0 -0.25365851012E+02 -0.58693533905E+01 -0.12668420723E+02  0.28954526251E+02  0.00000000000E+00 0. -1.
</event>
<event>
 7    1  0.1789107E-013  0.7246159E+02  0.7816164E-02  0.1226708E+00
        -11   -1    0    0    0    0  0.00000000000E+00  0.00000000000E+00  0.45593999997E+02  0.45594000000E+02  0.51100000000E-03 0.  1.
         11   -1    0    0    0    0 -0.00000000000E+00 -0.00000000000E+00 -0.45593999997E+02  0.45594000000E+02  0.51100000000E-03 0. -1.
    9900012    2    1    2    0    0 -0.11861086112E+02 -0.64378227282E+01 -0.12982590849E+02  0.72461585757E+02  0.70000020144E+02 0.  0.
        -12    1    1    2    0    0  0.11861086112E+02  0.64378227282E+01  0.12982590849E+02  0.18726414243E+02  0.00000000000E+00 0.  1.
         11    1    3    3    0    0 -0.89894994425E+00  0.55713897393E+01 -0.68815864743E+01  0.88997037756E+01  0.51100000000E-03 0. -1.
        -11    1    3    3    0    0  0.13791618912E+02 -0.52259716555E+01 -0.26799228729E+02  0.30589511155E+02  0.51100000000E-03 0.  1.
         12    1    3    3    0    0 -0.24753755080E+02 -0.67832408120E+01  0.20698224355E+02  0.32972370827E+02  0.00000000000E+00 0. -1.
</event>
<event>
 7    1  0.1789107E-013  0.7246154E+02  0.7816164E-02  0.1226708E+00
        -11   -1    0    0    0    0  0.00000000000E+00  0.00000000000E+00  0.45593999997E+02  0.45594000000E+02  0.51100000000E-03 0.  1.
         11   -1    0    0    0    0 -0.00000000000E+00 -0.00000000000E+00 -0.45593999997E+02  0.45594000000E+02  0.51100000000E-03 0. -1.
    9900012    2    1    2    0    0  0.12740525831E+01  0.31897362201E+01 -0.18408766942E+02  0.72461539377E+02  0.69999959724E+02 0.  0.
        -12    1    1    2    0    0 -0.12740525831E+01 -0.31897362201E+01  0.18408766942E+02  0.18726460623E+02  0.00000000000E+00 0.  1.
         11    1    3    3    0    0  0.48774614120E+01 -0.58470394980E+01  0.10080435992E+02  0.12633000070E+02  0.51100000000E-03 0.  1.
        -11    1    3    3    0    0  0.20203126941E+02 -0.37521145596E+01 -0.25335369466E+02  0.32620938798E+02  0.51100000000E-03 0. -1.
         12    1    3    3    0    0 -0.23806535770E+02  0.12788890278E+02 -0.31538334687E+01  0.27207600509E+02  0.00000000000E+00 0. -1.
</event>
<event>
 7    1  0.1789107E-013  0.7246144E+02  0.7816164E-02  0.1226708E+00
        -11   -1    0    0    0    0  0.00000000000E+00  0.00000000000E+00  0.45593999997E+02  0.45594000000E+02  0.51100000000E-03 0.  1.
         11   -1    0    0    0    0 -0.00000000000E+00 -0.00000000000E+00 -0.45593999997E+02  0.45594000000E+02  0.51100000000E-03 0. -1.
    9900012    2    1    2    0    0 -0.97131358647E+01 -0.10659801029E+01 -0.15975071011E+02  0.72461435560E+02  0.69999824484E+02 0.  0.
        -12    1    1    2    0    0  0.97131358647E+01  0.10659801029E+01  0.15975071011E+02  0.18726564440E+02  0.00000000000E+00 0.  1.
         11    1    3    3    0    0  0.54575640495E+00 -0.20221048689E+02 -0.26350782294E+02  0.33219758998E+02  0.51100000000E-03 0. -1.
        -11    1    3    3    0    0 -0.52491663135E+01 -0.16034797393E+01 -0.89117431188E+01  0.10466329822E+02  0.51100000000E-03 0.  1.
        -12    1    3    3    0    0 -0.50097259562E+01  0.20758548325E+02  0.19287454402E+02  0.28775346740E+02  0.00000000000E+00 0.  1.
</event>
<event>
 7    1  0.1789107E-013  0.7246154E+02  0.7816164E-02  0.1226708E+00
        -11   -1    0    0    0    0  0.00000000000E+00  0.00000000000E+00  0.45593999997E+02  0.45594000000E+02  0.51100000000E-03 0. -1.
         11   -1    0    0    0    0 -0.00000000000E+00 -0.00000000000E+00 -0.45593999997E+02  0.45594000000E+02  0.51100000000E-03 0.  1.
    9900012    2    1    2    0    0  0.61270738530E+01  0.13592547374E+02 -0.11330576560E+02  0.72461538954E+02  0.69999959173E+02 0.  0.
        -12    1    1    2    0    0 -0.61270738530E+01 -0.13592547374E+02  0.11330576560E+02  0.18726461046E+02  0.00000000000E+00 0.  1.
         11    1    3    3    0    0 -0.55999267115E+01  0.99322940302E+00 -0.23996846156E+00  0.56923869286E+01  0.51100000000E-03 0. -1.
        -11    1    3    3    0    0 -0.24888592250E+02 -0.45431606012E+01 -0.23789075163E+01  0.25411444935E+02  0.51100000000E-03 0.  1.
         12    1    3    3    0    0  0.36615592815E+02  0.17142478572E+02 -0.87117005824E+01  0.41357707091E+02  0.00000000000E+00 0. -1.
</event>
<event>
 7    1  0.1789107E-013  0.7246155E+02  0.7816164E-02  0.1226708E+00
        -11   -1    0    0    0    0  0.00000000000E+00  0.00000000000E+00  0.45593999997E+02  0.45594000000E+02  0.51100000000E-03 0.  1.
         11   -1    0    0    0    0 -0.00000000000E+00 -0.00000000000E+00 -0.45593999997E+02  0.45594000000E+02  0.51100000000E-03 0. -1.
    9900012    2    1    2    0    0 -0.11797888275E+02  0.11213756441E+02 -0.92596594065E+01  0.72461553632E+02  0.69999978294E+02 0.  0.
        -12    1    1    2    0    0  0.11797888275E+02 -0.11213756441E+02  0.92596594065E+01  0.18726446368E+02  0.00000000000E+00 0.  1.
         11    1    3    3    0    0  0.19276570998E+02  0.43703799382E+01 -0.81336543518E+01  0.21373879938E+02  0.51100000000E-03 0. -1.
        -11    1    3    3    0    0  0.68404188204E+00  0.16505307313E+02 -0.59187055418E+01  0.17547767902E+02  0.51100000000E-03 0.  1.
        -12    1    3    3    0    0 -0.31758501155E+02 -0.96619308099E+01  0.47927004871E+01  0.33539905792E+02  0.00000000000E+00 0.  1.
</event>
<event>
 7    1  0.1789107E-013  0.7246163E+02  0.7816164E-02  0.1226708E+00
        -11   -1    0    0    0    0  0.00000000000E+00  0.00000000000E+00  0.45593999997E+02  0.45594000000E+02  0.51100000000E-03 0.  1.
         11   -1    0    0    0    0 -0.00000000000E+00 -0.00000000000E+00 -0.45593999997E+02  0.45594000000E+02  0.51100000000E-03 0. -1.
    9900012    2    1    2    0    0  0.13426741042E+02 -0.11333687688E+02 -0.64766676088E+01  0.72461626220E+02  0.70000072853E+02 0.  0.
        -12    1    1    2    0    0 -0.13426741042E+02  0.11333687688E+02  0.64766676088E+01  0.18726373780E+02  0.00000000000E+00 0.  1.
         11    1    3    3    0    0 -0.80364947249E+01  0.11971202132E+02 -0.10772550697E+02  0.17998410394E+02  0.51100000000E-03 0. -1.
        -11    1    3    3    0    0  0.47693873596E+01 -0.32765011454E+02 -0.43914309169E+01  0.33400264926E+02  0.51100000000E-03 0.  1.
         12    1    3    3    0    0  0.16693848408E+02  0.94601216335E+01  0.86873140049E+01  0.21062950899E+02  0.00000000000E+00 0. -1.
</event>
<event>
 7    1  0.1789107E-013  0.7246156E+02  0.7816164E-02  0.1226708E+00
        -11   -1    0    0    0    0  0.00000000000E+00  0.00000000000E+00  0.45593999997E+02  0.45594000000E+02  0.51100000000E-03 0.  1.
         11   -1    0    0    0    0 -0.00000000000E+00 -0.00000000000E+00 -0.45593999997E+02  0.45594000000E+02  0.51100000000E-03 0. -1.
    9900012    2    1    2    0    0  0.89140187320E+01 -0.15436166023E+02 -0.57397548533E+01  0.72461555136E+02  0.69999980254E+02 0.  0.
        -12    1    1    2    0    0 -0.89140187320E+01  0.15436166023E+02  0.57397548533E+01  0.18726444864E+02  0.00000000000E+00 0.  1.
         11    1    3    3    0    0  0.23113982119E+02 -0.14644335165E+02  0.39570066244E+01  0.27647253453E+02  0.51100000000E-03 0. -1.
        -11    1    3    3    0    0  0.43229552876E+01 -0.15220228807E+02 -0.13781087175E+02  0.20982413382E+02  0.51100000000E-03 0.  1.
        -12    1    3    3    0    0 -0.18522918675E+02  0.14428397949E+02  0.40843256971E+01  0.23831888301E+02  0.00000000000E+00 0.  1.
</event>
<event>
 7    1  0.1789107E-013  0.7246163E+02  0.7816164E-02  0.1226708E+00
        -11   -1    0    0    0    0  0.00000000000E+00  0.00000000000E+00  0.45593999997E+02  0.45594000000E+02  0.51100000000E-03 0.  1.
         11   -1    0    0    0    0 -0.00000000000E+00 -0.00000000000E+00 -0.45593999997E+02  0.45594000000E+02  0.51100000000E-03 0. -1.
    9900012    2    1    2    0    0  0.15007031673E+02 -0.96301494624E+01  0.57206900417E+01  0.72461626276E+02  0.70000072927E+02 0.  0.
        -12    1    1    2    0    0 -0.15007031673E+02  0.96301494624E+01 -0.57206900417E+01  0.18726373724E+02  0.00000000000E+00 0.  1.
         11    1    3    3    0    0 -0.20131971453E+02 -0.15233413940E+01 -0.77725235240E+01  0.21633977114E+02  0.51100000000E-03 0. -1.
        -11    1    3    3    0    0  0.77183901394E+01  0.12501943108E+02  0.45075444117E+01  0.15368476981E+02  0.51100000000E-03 0.  1.
        -12    1    3    3    0    0  0.27420612986E+02 -0.20608751177E+02  0.89856691540E+01  0.35459172181E+02  0.00000000000E+00 0.  1.
</event>
<event>
 7    1  0.1789107E-013  0.7246158E+02  0.7816164E-02  0.1226708E+00
        -11   -1    0    0    0    0  0.00000000000E+00  0.00000000000E+00  0.45593999997E+02  0.45594000000E+02  0.51100000000E-03 0. -1.
         11   -1    0    0    0    0 -0.00000000000E+00 -0.00000000000E+00 -0.45593999997E+02  0.45594000000E+02  0.51100000000E-03 0.  1.
    9900012    2    1    2    0    0 -0.11700855532E+02 -0.14396607863E+02 -0.25508079435E+01  0.72461575907E+02  0.70000007312E+02 0.  0.
        -12    1    1    2    0    0  0.11700855532E+02  0.14396607863E+02  0.25508079435E+01  0.18726424093E+02  0.00000000000E+00 0.  1.
         11    1    3    3    0    0 -0.24250713476E+02  0.75960235300E+01  0.18809286793E+02  0.31616229179E+02  0.51100000000E-03 0. -1.
        -11    1    3    3    0    0 -0.66945051901E+00  0.47989606110E+01 -0.40662313846E+01  0.63255375168E+01  0.51100000000E-03 0.  1.
        -12    1    3    3    0    0  0.13219308463E+02 -0.26791592004E+02 -0.17293863352E+02  0.34519809211E+02  0.00000000000E+00 0.  1.
</event>
<event>
 7    1  0.1789107E-013  0.7246155E+02  0.7816164E-02  0.1226708E+00
        -11   -1    0    0    0    0  0.00000000000E+00  0.00000000000E+00  0.45593999997E+02  0.45594000000E+02  0.51100000000E-03 0. -1.
         11   -1    0    0    0    0 -0.00000000000E+00 -0.00000000000E+00 -0.45593999997E+02  0.45594000000E+02  0.51100000000E-03 0.  1.
    9900012    2    1    2    0    0 -0.88656938674E+01 -0.15543493616E+02  0.55207856513E+01  0.72461553574E+02  0.69999978218E+02 0.  0.
        -12    1    1    2    0    0  0.88656938674E+01  0.15543493616E+02 -0.55207856513E+01  0.18726446426E+02  0.00000000000E+00 0.  1.
         11    1    3    3    0    0  0.87520950714E+01 -0.59984480846E+00 -0.63460613719E+01  0.10827348573E+02  0.51100000000E-03 0. -1.
        -11    1    3    3    0    0 -0.68176697121E+00  0.93695745813E+01 -0.17534252518E+02  0.19892303679E+02  0.51100000000E-03 0.  1.
         12    1    3    3    0    0 -0.16936021968E+02 -0.24313223389E+02  0.29401099541E+02  0.41741901321E+02  0.00000000000E+00 0. -1.
</event>
<event>
 7    1  0.1789107E-013  0.7246155E+02  0.7816164E-02  0.1226708E+00
        -11   -1    0    0    0    0  0.00000000000E+00  0.00000000000E+00  0.45593999997E+02  0.45594000000E+02  0.51100000000E-03 0. -1.
         11   -1    0    0    0    0 -0.00000000000E+00 -0.00000000000E+00 -0.45593999997E+02  0.45594000000E+02  0.51100000000E-03 0.  1.
    9900012    2    1    2    0    0  0.16089479695E+02 -0.92376382097E+01  0.25445140035E+01  0.72461551643E+02  0.69999975704E+02 0.  0.
        -12    1    1    2    0    0 -0.16089479695E+02  0.92376382097E+01 -0.25445140035E+01  0.18726448357E+02  0.00000000000E+00 0.  1.
         11    1    3    3    0    0  0.24126155679E+02  0.18788217588E+02 -0.15839299813E+02  0.34437652748E+02  0.51100000000E-03 0. -1.
        -11    1    3    3    0    0  0.15662878700E+01 -0.62168932521E+01 -0.19466430785E+01  0.67001820077E+01  0.51100000000E-03 0.  1.
        -12    1    3    3    0    0 -0.96029638541E+01 -0.21808962546E+02  0.20330456895E+02  0.31323716888E+02  0.00000000000E+00 0.  1.
</event>
<event>
 7    1  0.1789107E-013  0.7246157E+02  0.7816164E-02  0.1226708E+00
        -11   -1    0    0    0    0  0.00000000000E+00  0.00000000000E+00  0.45593999997E+02  0.45594000000E+02  0.51100000000E-03 0.  1.
         11   -1    0    0    0    0 -0.00000000000E+00 -0.00000000000E+00 -0.45593999997E+02  0.45594000000E+02  0.51100000000E-03 0. -1.
    9900012    2    1    2    0    0 -0.23587575439E+01 -0.18543874687E+02  0.11135513382E+01  0.72461574229E+02  0.70000005126E+02 0.  0.
        -12    1    1    2    0    0  0.23587575439E+01  0.18543874687E+02 -0.11135513382E+01  0.18726425771E+02  0.00000000000E+00 0.  1.
         11    1    3    3    0    0  0.29843829413E+01 -0.22153334561E+02  0.18996150592E+02  0.29334800345E+02  0.51100000000E-03 0. -1.
        -11    1    3    3    0    0  0.93976192161E+01  0.11441154290E+02  0.42514207565E+01  0.15404214915E+02  0.51100000000E-03 0.  1.
        -12    1    3    3    0    0 -0.14740759701E+02 -0.78316944166E+01 -0.22134020010E+02  0.27722558970E+02  0.00000000000E+00 0.  1.
</event>
<event>
 7    1  0.1789107E-013  0.7246154E+02  0.7816164E-02  0.1226708E+00
        -11   -1    0    0    0    0  0.00000000000E+00  0.00000000000E+00  0.45593999997E+02  0.45594000000E+02  0.51100000000E-03 0.  1.
         11   -1    0    0    0    0 -0.00000000000E+00 -0.00000000000E+00 -0.45593999997E+02  0.45594000000E+02  0.51100000000E-03 0. -1.
    9900012    2    1    2    0    0  0.13879997214E+02 -0.66286520868E+00 -0.12553355759E+02  0.72461536005E+02  0.69999955331E+02 0.  0.
        -12    1    1    2    0    0 -0.13879997214E+02  0.66286520868E+00  0.12553355759E+02  0.18726463995E+02  0.00000000000E+00 0.  1.
         11    1    3    3    0    0  0.67748725864E+01  0.11254778238E+02 -0.37156444755E+01  0.13651920959E+02  0.51100000000E-03 0. -1.
        -11    1    3    3    0    0  0.76485570299E+01  0.22195616677E+02  0.34078296246E+00  0.23478968410E+02  0.51100000000E-03 0.  1.
         12    1    3    3    0    0 -0.54343240218E+00 -0.34113260124E+02 -0.91784942460E+01  0.35330646635E+02  0.00000000000E+00 0. -1.
</event>
<event>
 7    1  0.1789107E-013  0.7246161E+02  0.7816164E-02  0.1226708E+00
        -11   -1    0    0    0    0  0.00000000000E+00  0.00000000000E+00  0.45593999997E+02  0.45594000000E+02  0.51100000000E-03 0.  1.
         11   -1    0    0    0    0 -0.00000000000E+00 -0.00000000000E+00 -0.45593999997E+02  0.45594000000E+02  0.51100000000E-03 0. -1.
    9900012    2    1    2    0    0 -0.16669490824E+02 -0.45391737830E+01  0.72250844951E+01  0.72461605020E+02  0.70000045237E+02 0.  0.
        -12    1    1    2    0    0  0.16669490824E+02  0.45391737830E+01 -0.72250844951E+01  0.18726394980E+02  0.00000000000E+00 0.  1.
         11    1    3    3    0    0  0.14909511377E+02  0.22546438184E+02  0.31585990886E+01  0.27214190283E+02  0.51100000000E-03 0. -1.
        -11    1    3    3    0    0  0.11138683519E+01 -0.36020267153E+01 -0.24128590535E+01  0.44762917953E+01  0.51100000000E-03 0.  1.
        -12    1    3    3    0    0 -0.32692870554E+02 -0.23483585252E+02  0.64793444600E+01  0.40771122942E+02  0.00000000000E+00 0.  1.
</event>
<event>
 7    1  0.1789107E-013  0.7246115E+02  0.7816164E-02  0.1226709E+00
        -11   -1    0    0    0    0  0.00000000000E+00  0.00000000000E+00  0.45593999997E+02  0.45594000000E+02  0.51100000000E-03 0.  1.
         11   -1    0    0    0    0 -0.00000000000E+00 -0.00000000000E+00 -0.45593999997E+02  0.45594000000E+02  0.51100000000E-03 0. -1.
    9900012    2    1    2    0    0  0.31043174350E+01  0.52679654074E+01 -0.17700476032E+02  0.72461145005E+02  0.69999445979E+02 0.  0.
        -12    1    1    2    0    0 -0.31043174350E+01 -0.52679654074E+01  0.17700476032E+02  0.18726854995E+02  0.00000000000E+00 0.  1.
         11    1    3    3    0    0  0.11687772226E+02  0.15756157785E+02 -0.29425028920E+02  0.35365136151E+02  0.51100000000E-03 0. -1.
        -11    1    3    3    0    0 -0.35802818366E+01  0.52387770150E+01 -0.87434320908E+01  0.10803277634E+02  0.51100000000E-03 0.  1.
        -12    1    3    3    0    0 -0.50031729547E+01 -0.15726969392E+02  0.20467984980E+02  0.26292731220E+02  0.00000000000E+00 0.  1.
</event>
<event>
 7    1  0.1789107E-013  0.7246162E+02  0.7816164E-02  0.1226708E+00
        -11   -1    0    0    0    0  0.00000000000E+00  0.00000000000E+00  0.45593999997E+02  0.45594000000E+02  0.51100000000E-03 0.  1.
         11   -1    0    0    0    0 -0.00000000000E+00 -0.00000000000E+00 -0.45593999997E+02  0.45594000000E+02  0.51100000000E-03 0. -1.
    9900012    2    1    2    0    0  0.17368133349E+02  0.50508189777E+01 -0.48491725716E+01  0.72461620131E+02  0.70000064921E+02 0.  0.
        -12    1    1    2    0    0 -0.17368133349E+02 -0.50508189777E+01  0.48491725716E+01  0.18726379869E+02  0.00000000000E+00 0.  1.
         11    1    3    3    0    0 -0.26838078547E+01  0.11039512478E+02 -0.24295901996E+02  0.26820971541E+02  0.51100000000E-03 0. -1.
        -11    1    3    3    0    0 -0.81328238945E+01 -0.32715369575E+01  0.14430287776E+02  0.16884282162E+02  0.51100000000E-03 0.  1.
        -12    1    3    3    0    0  0.28184765098E+02 -0.27171565427E+01  0.50164416490E+01  0.28756366428E+02  0.00000000000E+00 0.  1.
</event>
<event>
 7    1  0.1789107E-013  0.7246160E+02  0.7816164E-02  0.1226708E+00
        -11   -1    0    0    0    0  0.00000000000E+00  0.00000000000E+00  0.45593999997E+02  0.45594000000E+02  0.51100000000E-03 0.  1.
         11   -1    0    0    0    0 -0.00000000000E+00 -0.00000000000E+00 -0.45593999997E+02  0.45594000000E+02  0.51100000000E-03 0. -1.
    9900012    2    1    2    0    0  0.12941001819E+02 -0.13443345126E+02 -0.15763750268E+01  0.72461601134E+02  0.70000040174E+02 0.  0.
        -12    1    1    2    0    0 -0.12941001819E+02  0.13443345126E+02  0.15763750268E+01  0.18726398866E+02  0.00000000000E+00 0.  1.
         11    1    3    3    0    0 -0.29407501285E+01  0.37681878629E+01 -0.28730534995E+02  0.29125433773E+02  0.51100000000E-03 0. -1.
        -11    1    3    3    0    0  0.51531382810E+01  0.15839465748E+01 -0.30383683503E+01  0.61883279961E+01  0.51100000000E-03 0.  1.
        -12    1    3    3    0    0  0.10728613667E+02 -0.18795479564E+02  0.30192528318E+02  0.37147839365E+02  0.00000000000E+00 0.  1.
</event>
<event>
 7    1  0.1789107E-013  0.7246165E+02  0.7816164E-02  0.1226708E+00
        -11   -1    0    0    0    0  0.00000000000E+00  0.00000000000E+00  0.45593999997E+02  0.45594000000E+02  0.51100000000E-03 0.  1.
         11   -1    0    0    0    0 -0.00000000000E+00 -0.00000000000E+00 -0.45593999997E+02  0.45594000000E+02  0.51100000000E-03 0. -1.
    9900012    2    1    2    0    0 -0.54395887547E+01  0.14923698105E+02 -0.99181846643E+01  0.72461647499E+02  0.70000100574E+02 0.  0.
        -12    1    1    2    0    0  0.54395887547E+01 -0.14923698105E+02  0.99181846643E+01  0.18726352501E+02  0.00000000000E+00 0.  1.
         11    1    3    3    0    0 -0.69042675137E+01  0.13824561737E+02 -0.37706589259E+01  0.15906139887E+02  0.51100000000E-03 0. -1.
        -11    1    3    3    0    0  0.26280921064E+02 -0.72555177941E+01 -0.11897241682E+02  0.29746826896E+02  0.51100000000E-03 0.  1.
        -12    1    3    3    0    0 -0.24816242305E+02  0.83546541620E+01  0.57497159439E+01  0.26808680716E+02  0.00000000000E+00 0.  1.
</event>
<event>
 7    1  0.1789107E-013  0.7246163E+02  0.7816164E-02  0.1226708E+00
        -11   -1    0    0    0    0  0.00000000000E+00  0.00000000000E+00  0.45593999997E+02  0.45594000000E+02  0.51100000000E-03 0. -1.
         11   -1    0    0    0    0 -0.00000000000E+00 -0.00000000000E+00 -0.45593999997E+02  0.45594000000E+02  0.51100000000E-03 0.  1.
    9900012    2    1    2    0    0  0.64548501837E+01 -0.13239914115E+02 -0.11563591669E+02  0.72461626380E+02  0.70000073062E+02 0.  0.
        -12    1    1    2    0    0 -0.64548501837E+01  0.13239914115E+02  0.11563591669E+02  0.18726373620E+02  0.00000000000E+00 0.  1.
         11    1    3    3    0    0 -0.11173442198E+02  0.23937005419E+02 -0.57137412169E+01  0.27027261754E+02  0.51100000000E-03 0. -1.
        -11    1    3    3    0    0  0.13811732313E+01 -0.20391901959E+00  0.36834093102E+01  0.39391276786E+01  0.51100000000E-03 0.  1.
        -12    1    3    3    0    0  0.16247119150E+02 -0.36973000514E+02 -0.95332597619E+01  0.41495236948E+02  0.00000000000E+00 0.  1.
</event>
<event>
 7    1  0.1789107E-013  0.7246155E+02  0.7816164E-02  0.1226708E+00
        -11   -1    0    0    0    0  0.00000000000E+00  0.00000000000E+00  0.45593999997E+02  0.45594000000E+02  0.51100000000E-03 0.  1.
         11   -1    0    0    0    0 -0.00000000000E+00 -0.00000000000E+00 -0.45593999997E+02  0.45594000000E+02  0.51100000000E-03 0. -1.
    9900012    2    1    2    0    0  0.58750984211E+01  0.20273213731E+01 -0.17665022811E+02  0.72461552277E+02  0.69999976529E+02 0.  0.
        -12    1    1    2    0    0 -0.58750984211E+01 -0.20273213731E+01  0.17665022811E+02  0.18726447723E+02  0.00000000000E+00 0.  1.
         11    1    3    3    0    0  0.11953112175E+02  0.13211124007E+02 -0.10674015415E+02  0.20768853929E+02  0.51100000000E-03 0. -1.
        -11    1    3    3    0    0 -0.11310226063E+02  0.12770630262E+02 -0.18014093461E+02  0.24809630677E+02  0.51100000000E-03 0.  1.
         12    1    3    3    0    0  0.52322123090E+01 -0.23954432895E+02  0.11023086064E+02  0.26883067670E+02  0.00000000000E+00 0. -1.
</event>
<event>
 7    1  0.1789107E-013  0.7246183E+02  0.7816164E-02  0.1226707E+00
        -11   -1    0    0    0    0  0.00000000000E+00  0.00000000000E+00  0.45593999997E+02  0.45594000000E+02  0.51100000000E-03 0.  1.
         11   -1    0    0    0    0 -0.00000000000E+00 -0.00000000000E+00 -0.45593999997E+02  0.45594000000E+02  0.51100000000E-03 0. -1.
    9900012    2    1    2    0    0  0.11656815309E+02  0.97668420545E+01 -0.10926896861E+02  0.72461825220E+02  0.70000332088E+02 0.  0.
        -12    1    1    2    0    0 -0.11656815309E+02 -0.97668420545E+01  0.10926896861E+02  0.18726174780E+02  0.00000000000E+00 0.  1.
         11    1    3    3    0    0  0.15488415638E+02  0.78218183845E+01 -0.37119195082E+01  0.17744018950E+02  0.51100000000E-03 0. -1.
        -11    1    3    3    0    0 -0.80132076188E+00 -0.26311875155E+01 -0.30586776879E+02  0.30710196723E+02  0.51100000000E-03 0.  1.
        -12    1    3    3    0    0 -0.30302795667E+01  0.45762111855E+01  0.23371799526E+02  0.24007609547E+02  0.00000000000E+00 0.  1.
</event>
<event>
 7    1  0.1789107E-013  0.7246146E+02  0.7816164E-02  0.1226708E+00
        -11   -1    0    0    0    0  0.00000000000E+00  0.00000000000E+00  0.45593999997E+02  0.45594000000E+02  0.51100000000E-03 0.  1.
         11   -1    0    0    0    0 -0.00000000000E+00 -0.00000000000E+00 -0.45593999997E+02  0.45594000000E+02  0.51100000000E-03 0. -1.
    9900012    2    1    2    0    0  0.16126475288E+02 -0.53025437050E+01 -0.79058810148E+01  0.72461464560E+02  0.69999862261E+02 0.  0.
        -12    1    1    2    0    0 -0.16126475288E+02  0.53025437050E+01  0.79058810148E+01  0.18726535440E+02  0.00000000000E+00 0.  1.
         11    1    3    3    0    0  0.78242325355E+01  0.21520571593E+02 -0.93940793135E+01  0.24750804893E+02  0.51100000000E-03 0. -1.
        -11    1    3    3    0    0 -0.49407346290E+01  0.28593134633E+00 -0.13241594468E+02  0.14136210232E+02  0.51100000000E-03 0.  1.
         12    1    3    3    0    0  0.13242977382E+02 -0.27109046644E+02  0.14729792766E+02  0.33574449435E+02  0.00000000000E+00 0. -1.
</event>
<event>
 7    1  0.1789107E-013  0.7246164E+02  0.7816164E-02  0.1226708E+00
        -11   -1    0    0    0    0  0.00000000000E+00  0.00000000000E+00  0.45593999997E+02  0.45594000000E+02  0.51100000000E-03 0.  1.
         11   -1    0    0    0    0 -0.00000000000E+00 -0.00000000000E+00 -0.45593999997E+02  0.45594000000E+02  0.51100000000E-03 0. -1.
    9900012    2    1    2    0    0  0.10252985674E+02 -0.59577424242E+01 -0.14493377479E+02  0.72461644221E+02  0.70000096303E+02 0.  0.
        -12    1    1    2    0    0 -0.10252985674E+02  0.59577424242E+01  0.14493377479E+02  0.18726355779E+02  0.00000000000E+00 0.  1.
         11    1    3    3    0    0 -0.10060099301E+02 -0.20336449112E+02  0.77562589839E+01  0.23977829638E+02  0.51100000000E-03 0. -1.
        -11    1    3    3    0    0  0.20685767587E+02 -0.51910807198E+01 -0.19156861776E+02  0.28667641219E+02  0.51100000000E-03 0.  1.
        -12    1    3    3    0    0 -0.37268261227E+00  0.19569787408E+02 -0.30927746870E+01  0.19816173364E+02  0.00000000000E+00 0.  1.
</event>
<event>
 7    1  0.1789107E-013  0.7246157E+02  0.7816164E-02  0.1226708E+00
        -11   -1    0    0    0    0  0.00000000000E+00  0.00000000000E+00  0.45593999997E+02  0.45594000000E+02  0.51100000000E-03 0.  1.
         11   -1    0    0    0    0 -0.00000000000E+00 -0.00000000000E+00 -0.45593999997E+02  0.45594000000E+02  0.51100000000E-03 0. -1.
    9900012    2    1    2    0    0 -0.25959172075E+01 -0.18535859494E+02  0.60187892484E+00  0.72461571308E+02  0.70000001320E+02 0.  0.
        -12    1    1    2    0    0  0.25959172075E+01  0.18535859494E+02 -0.60187892484E+00  0.18726428692E+02  0.00000000000E+00 0.  1.
         11    1    3    3    0    0 -0.10161444081E+02  0.72847477965E+01 -0.16615704739E+01  0.12612823354E+02  0.51100000000E-03 0. -1.
        -11    1    3    3    0    0 -0.83425455519E+01 -0.37938394710E+02  0.65596391921E+01  0.39394780442E+02  0.51100000000E-03 0.  1.
         12    1    3    3    0    0  0.15908072425E+02  0.12117787419E+02 -0.42961897933E+01  0.20453967512E+02  0.00000000000E+00 0. -1.
</event>
<event>
 7    1  0.1789107E-013  0.7246169E+02  0.7816164E-02  0.1226708E+00
        -11   -1    0    0    0    0  0.00000000000E+00  0.00000000000E+00  0.45593999997E+02  0.45594000000E+02  0.51100000000E-03 0.  1.
         11   -1    0    0    0    0 -0.00000000000E+00 -0.00000000000E+00 -0.45593999997E+02  0.45594000000E+02  0.51100000000E-03 0. -1.
    9900012    2    1    2    0    0 -0.15846165248E+02  0.91645747213E+01 -0.39477157822E+01  0.72461685819E+02  0.70000150492E+02 0.  0.
        -12    1    1    2    0    0  0.15846165248E+02 -0.91645747213E+01  0.39477157822E+01  0.18726314181E+02  0.00000000000E+00 0.  1.
         11    1    3    3    0    0  0.33135375214E+01  0.26231028133E+01  0.12433409145E+02  0.13132016696E+02  0.51100000000E-03 0. -1.
        -11    1    3    3    0    0  0.10110521281E+02 -0.13436112588E+02  0.54866969779E+01  0.17687724727E+02  0.51100000000E-03 0.  1.
         12    1    3    3    0    0 -0.29270224050E+02  0.19977584496E+02 -0.21867821905E+02  0.41641944396E+02  0.00000000000E+00 0. -1.
</event>
<event>
 7    1  0.1789107E-013  0.7246150E+02  0.7816164E-02  0.1226708E+00
        -11   -1    0    0    0    0  0.00000000000E+00  0.00000000000E+00  0.45593999997E+02  0.45594000000E+02  0.51100000000E-03 0.  1.
         11   -1    0    0    0    0 -0.00000000000E+00 -0.00000000000E+00 -0.45593999997E+02  0.45594000000E+02  0.51100000000E-03 0. -1.
    9900012    2    1    2    0    0 -0.14992784209E+02  0.87636315982E+01 -0.70069123660E+01  0.72461504385E+02  0.69999914141E+02 0.  0.
        -12    1    1    2    0    0  0.14992784209E+02 -0.87636315982E+01  0.70069123660E+01  0.18726495615E+02  0.00000000000E+00 0.  1.
         11    1    3    3    0    0  0.72406377513E+01 -0.96531352390E+00  0.13903686883E+02  0.15705768827E+02  0.51100000000E-03 0. -1.
        -11    1    3    3    0    0 -0.27993595219E+02 -0.11191185333E+02 -0.69010318444E+01  0.30927467456E+02  0.51100000000E-03 0.  1.
         12    1    3    3    0    0  0.57601732593E+01  0.20920130455E+02 -0.14009567405E+02  0.25828268102E+02  0.00000000000E+00 0. -1.
</event>
<event>
 7    1  0.1789107E-013  0.7246161E+02  0.7816164E-02  0.1226708E+00
        -11   -1    0    0    0    0  0.00000000000E+00  0.00000000000E+00  0.45593999997E+02  0.45594000000E+02  0.51100000000E-03 0.  1.
         11   -1    0    0    0    0 -0.00000000000E+00 -0.00000000000E+00 -0.45593999997E+02  0.45594000000E+02  0.51100000000E-03 0. -1.
    9900012    2    1    2    0    0  0.16248727720E+02 -0.91495609318E+01 -0.17152433315E+01  0.72461610133E+02  0.70000051898E+02 0.  0.
        -12    1    1    2    0    0 -0.16248727720E+02  0.91495609318E+01  0.17152433315E+01  0.18726389867E+02  0.00000000000E+00 0.  1.
         11    1    3    3    0    0  0.33082620707E+02 -0.15787812527E+01  0.12521118887E+02  0.35408060686E+02  0.51100000000E-03 0. -1.
        -11    1    3    3    0    0  0.77246643883E+01 -0.39901437509E+01 -0.71130332884E+01  0.11233295593E+02  0.51100000000E-03 0.  1.
        -12    1    3    3    0    0 -0.24558557376E+02 -0.35806359283E+01 -0.71233289302E+01  0.25820253854E+02  0.00000000000E+00 0.  1.
</event>
<event>
 7    1  0.1789107E-013  0.7246154E+02  0.7816164E-02  0.1226708E+00
        -11   -1    0    0    0    0  0.00000000000E+00  0.00000000000E+00  0.45593999997E+02  0.45594000000E+02  0.51100000000E-03 0. -1.
         11   -1    0    0    0    0 -0.00000000000E+00 -0.00000000000E+00 -0.45593999997E+02  0.45594000000E+02  0.51100000000E-03 0.  1.
    9900012    2    1    2    0    0 -0.45893935485E+01 -0.30840168064E+00  0.18152760253E+02  0.72461538788E+02  0.69999958957E+02 0.  0.
        -12    1    1    2    0    0  0.45893935485E+01  0.30840168064E+00 -0.18152760253E+02  0.18726461212E+02  0.00000000000E+00 0.  1.
         11    1    3    3    0    0 -0.29124667262E+01  0.11053074788E+02  0.31596882917E+01  0.11859028420E+02  0.51100000000E-03 0. -1.
        -11    1    3    3    0    0  0.14976359872E+02  0.13830251845E+02 -0.87537733522E+01  0.22185485554E+02  0.51100000000E-03 0.  1.
         12    1    3    3    0    0 -0.16653286694E+02 -0.25191728314E+02  0.23746845313E+02  0.38417024813E+02  0.00000000000E+00 0. -1.
</event>
<event>
 7    1  0.1789107E-013  0.7246148E+02  0.7816164E-02  0.1226708E+00
        -11   -1    0    0    0    0  0.00000000000E+00  0.00000000000E+00  0.45593999997E+02  0.45594000000E+02  0.51100000000E-03 0.  1.
         11   -1    0    0    0    0 -0.00000000000E+00 -0.00000000000E+00 -0.45593999997E+02  0.45594000000E+02  0.51100000000E-03 0. -1.
    9900012    2    1    2    0    0  0.17353733321E+02  0.65018979722E+01 -0.26936608611E+01  0.72461480135E+02  0.69999882551E+02 0.  0.
        -12    1    1    2    0    0 -0.17353733321E+02 -0.65018979722E+01  0.26936608611E+01  0.18726519865E+02  0.00000000000E+00 0.  1.
         11    1    3    3    0    0  0.59961514675E+01 -0.17960753786E+02  0.57176399694E+01  0.19779633871E+02  0.51100000000E-03 0.  1.
        -11    1    3    3    0    0 -0.11731611607E+02  0.14695277418E+02  0.10261854725E+02  0.21421660812E+02  0.51100000000E-03 0. -1.
         12    1    3    3    0    0  0.23089193460E+02  0.97673743406E+01 -0.18673155555E+02  0.31260185453E+02  0.00000000000E+00 0. -1.
</event>
<event>
 7    1  0.1789107E-013  0.7246160E+02  0.7816164E-02  0.1226708E+00
        -11   -1    0    0    0    0  0.00000000000E+00  0.00000000000E+00  0.45593999997E+02  0.45594000000E+02  0.51100000000E-03 0.  1.
         11   -1    0    0    0    0 -0.00000000000E+00 -0.00000000000E+00 -0.45593999997E+02  0.45594000000E+02  0.51100000000E-03 0. -1.
    9900012    2    1    2    0    0  0.12219177559E+02  0.63759286209E+00 -0.14176144029E+02  0.72461604607E+02  0.70000044699E+02 0.  0.
        -12    1    1    2    0    0 -0.12219177559E+02 -0.63759286209E+00  0.14176144029E+02  0.18726395393E+02  0.00000000000E+00 0.  1.
         11    1    3    3    0    0 -0.68532001387E+01  0.98862962779E+01 -0.48546912871E+01  0.12972017345E+02  0.51100000000E-03 0. -1.
        -11    1    3    3    0    0  0.12081255680E+02  0.20534082438E+02  0.69789099479E+01  0.24825600993E+02  0.51100000000E-03 0.  1.
         12    1    3    3    0    0  0.69911220176E+01 -0.29782785853E+02 -0.16300362690E+02  0.34663986269E+02  0.00000000000E+00 0. -1.
</event>
<event>
 7    1  0.1789107E-013  0.7246161E+02  0.7816164E-02  0.1226708E+00
        -11   -1    0    0    0    0  0.00000000000E+00  0.00000000000E+00  0.45593999997E+02  0.45594000000E+02  0.51100000000E-03 0.  1.
         11   -1    0    0    0    0 -0.00000000000E+00 -0.00000000000E+00 -0.45593999997E+02  0.45594000000E+02  0.51100000000E-03 0. -1.
    9900012    2    1    2    0    0  0.16290509909E+02 -0.50853016615E+00 -0.92216213882E+01  0.72461611746E+02  0.70000053998E+02 0.  0.
        -12    1    1    2    0    0 -0.16290509909E+02  0.50853016615E+00  0.92216213882E+01  0.18726388254E+02  0.00000000000E+00 0.  1.
         11    1    3    3    0    0 -0.57923392493E+01  0.84093569233E+01 -0.20170338689E+02  0.22607765059E+02  0.51100000000E-03 0. -1.
        -11    1    3    3    0    0 -0.45999573900E+01  0.12625845157E+02 -0.11525568700E+01  0.13487029381E+02  0.51100000000E-03 0.  1.
        -12    1    3    3    0    0  0.26682806548E+02 -0.21543732247E+02  0.12101274171E+02  0.36366817306E+02  0.00000000000E+00 0.  1.
</event>
<event>
 7    1  0.1789107E-013  0.7246159E+02  0.7816164E-02  0.1226708E+00
        -11   -1    0    0    0    0  0.00000000000E+00  0.00000000000E+00  0.45593999997E+02  0.45594000000E+02  0.51100000000E-03 0.  1.
         11   -1    0    0    0    0 -0.00000000000E+00 -0.00000000000E+00 -0.45593999997E+02  0.45594000000E+02  0.51100000000E-03 0. -1.
    9900012    2    1    2    0    0  0.10769625126E+02  0.15262062441E+02 -0.13278149190E+01  0.72461589032E+02  0.70000024409E+02 0.  0.
        -12    1    1    2    0    0 -0.10769625126E+02 -0.15262062441E+02  0.13278149190E+01  0.18726410968E+02  0.00000000000E+00 0.  1.
         11    1    3    3    0    0  0.14993151473E+02 -0.33583372165E+01 -0.13392099715E+02  0.20381887916E+02  0.51100000000E-03 0. -1.
        -11    1    3    3    0    0  0.20214773180E+02  0.73426283187E+00  0.68046836547E+01  0.21341975460E+02  0.51100000000E-03 0.  1.
        -12    1    3    3    0    0 -0.24438299528E+02  0.17886136825E+02  0.52596011417E+01  0.30737725656E+02  0.00000000000E+00 0.  1.
</event>
<event>
 7    1  0.1789107E-013  0.7246156E+02  0.7816164E-02  0.1226708E+00
        -11   -1    0    0    0    0  0.00000000000E+00  0.00000000000E+00  0.45593999997E+02  0.45594000000E+02  0.51100000000E-03 0.  1.
         11   -1    0    0    0    0 -0.00000000000E+00 -0.00000000000E+00 -0.45593999997E+02  0.45594000000E+02  0.51100000000E-03 0. -1.
    9900012    2    1    2    0    0 -0.11382626598E+02 -0.14622790423E+02  0.26999005140E+01  0.72461557444E+02  0.69999983260E+02 0.  0.
        -12    1    1    2    0    0  0.11382626598E+02  0.14622790423E+02 -0.26999005140E+01  0.18726442556E+02  0.00000000000E+00 0.  1.
         11    1    3    3    0    0  0.36079813870E+01 -0.20876937555E+02 -0.13681889606E+01  0.21230543861E+02  0.51100000000E-03 0. -1.
        -11    1    3    3    0    0 -0.89820960157E+01 -0.79991357488E+01  0.23497169444E+02  0.26396613299E+02  0.51100000000E-03 0.  1.
        -12    1    3    3    0    0 -0.60085119696E+01  0.14253282881E+02 -0.19429079969E+02  0.24834400283E+02  0.00000000000E+00 0.  1.
</event>
<event>
 7    1  0.2322580E-013  0.7246156E+02  0.7816164E-02  0.1226708E+00
        -11   -1    0    0    0    0  0.00000000000E+00  0.00000000000E+00  0.45593999997E+02  0.45594000000E+02  0.51100000000E-03 0.  1.
         11   -1    0    0    0    0 -0.00000000000E+00 -0.00000000000E+00 -0.45593999997E+02  0.45594000000E+02  0.51100000000E-03 0. -1.
    9900012    2    1    2    0    0 -0.62775209876E+01  0.17588547665E+02  0.13839784998E+01  0.72461556793E+02  0.69999982412E+02 0.  0.
        -12    1    1    2    0    0  0.62775209876E+01 -0.17588547665E+02 -0.13839784998E+01  0.18726443207E+02  0.00000000000E+00 0.  1.
         11    1    3    3    0    0 -0.23965089980E+02  0.20181954414E+02  0.70990923763E+01  0.32125284972E+02  0.51100000000E-03 0. -1.
        -11    1    3    3    0    0 -0.66703894611E+01 -0.96706619183E+01 -0.89455136170E+01  0.14766110240E+02  0.51100000000E-03 0.  1.
        -12    1    3    3    0    0  0.24357958454E+02  0.70772551688E+01  0.32303997405E+01  0.25570161580E+02  0.00000000000E+00 0.  1.
</event>
<event>
 7    1  0.1789107E-013  0.7246156E+02  0.7816164E-02  0.1226708E+00
        -11   -1    0    0    0    0  0.00000000000E+00  0.00000000000E+00  0.45593999997E+02  0.45594000000E+02  0.51100000000E-03 0. -1.
         11   -1    0    0    0    0 -0.00000000000E+00 -0.00000000000E+00 -0.45593999997E+02  0.45594000000E+02  0.51100000000E-03 0.  1.
    9900012    2    1    2    0    0 -0.83225285825E+01  0.62307575943E+01  0.15575389995E+02  0.72461558915E+02  0.69999985177E+02 0.  0.
        -12    1    1    2    0    0  0.83225285825E+01 -0.62307575943E+01 -0.15575389995E+02  0.18726441085E+02  0.00000000000E+00 0.  1.
         11    1    3    3    0    0  0.20019505545E+02  0.44499922582E+01  0.86678154273E+01  0.22264636936E+02  0.51100000000E-03 0. -1.
        -11    1    3    3    0    0 -0.48173233508E+01 -0.17091242742E+02  0.91098728303E+01  0.19957629268E+02  0.51100000000E-03 0.  1.
        -12    1    3    3    0    0 -0.23524710777E+02  0.18872008078E+02 -0.22022982626E+01  0.30239292711E+02  0.00000000000E+00 0.  1.
</event>
<event>
 7    1  0.1789107E-013  0.7246146E+02  0.7816164E-02  0.1226708E+00
        -11   -1    0    0    0    0  0.00000000000E+00  0.00000000000E+00  0.45593999997E+02  0.45594000000E+02  0.51100000000E-03 0.  1.
         11   -1    0    0    0    0 -0.00000000000E+00 -0.00000000000E+00 -0.45593999997E+02  0.45594000000E+02  0.51100000000E-03 0. -1.
    9900012    2    1    2    0    0 -0.12960006312E+02 -0.80039225308E+01 -0.10893064864E+02  0.72461457297E+02  0.69999852800E+02 0.  0.
        -12    1    1    2    0    0  0.12960006312E+02  0.80039225308E+01  0.10893064864E+02  0.18726542703E+02  0.00000000000E+00 0.  1.
         11    1    3    3    0    0  0.17131147663E+02 -0.16929800318E+02 -0.15439497751E+01  0.24134583904E+02  0.51100000000E-03 0. -1.
        -11    1    3    3    0    0 -0.11621107840E+02  0.36766866012E+00 -0.21627066139E+02  0.24554333990E+02  0.51100000000E-03 0.  1.
         12    1    3    3    0    0 -0.18470046135E+02  0.85582091266E+01  0.12277951050E+02  0.23772539403E+02  0.00000000000E+00 0. -1.
</event>
<event>
 7    1  0.1789107E-013  0.7246157E+02  0.7816164E-02  0.1226708E+00
        -11   -1    0    0    0    0  0.00000000000E+00  0.00000000000E+00  0.45593999997E+02  0.45594000000E+02  0.51100000000E-03 0.  1.
         11   -1    0    0    0    0 -0.00000000000E+00 -0.00000000000E+00 -0.45593999997E+02  0.45594000000E+02  0.51100000000E-03 0. -1.
    9900012    2    1    2    0    0 -0.11022060602E+02 -0.20718778178E+01 -0.14996693539E+02  0.72461566417E+02  0.69999994950E+02 0.  0.
        -12    1    1    2    0    0  0.11022060602E+02  0.20718778178E+01  0.14996693539E+02  0.18726433583E+02  0.00000000000E+00 0.  1.
         11    1    3    3    0    0 -0.19796683503E+02 -0.12276830116E+02 -0.16119035319E+02  0.28327593178E+02  0.51100000000E-03 0. -1.
        -11    1    3    3    0    0  0.28929230323E+01  0.17815799831E+02 -0.16243546647E+02  0.24282185553E+02  0.51100000000E-03 0.  1.
         12    1    3    3    0    0  0.58816998685E+01 -0.76108475333E+01  0.17365888426E+02  0.19851787686E+02  0.00000000000E+00 0. -1.
</event>
<event>
 7    1  0.1789107E-013  0.7246160E+02  0.7816164E-02  0.1226708E+00
        -11   -1    0    0    0    0  0.00000000000E+00  0.00000000000E+00  0.45593999997E+02  0.45594000000E+02  0.51100000000E-03 0. -1.
         11   -1    0    0    0    0 -0.00000000000E+00 -0.00000000000E+00 -0.45593999997E+02  0.45594000000E+02  0.51100000000E-03 0.  1.
    9900012    2    1    2    0    0 -0.13732564536E+02 -0.98312571151E+01  0.80895652975E+01  0.72461601203E+02  0.70000040265E+02 0.  0.
        -12    1    1    2    0    0  0.13732564536E+02  0.98312571151E+01 -0.80895652975E+01  0.18726398797E+02  0.00000000000E+00 0.  1.
         11    1    3    3    0    0 -0.15931181753E+02  0.46767818126E+00 -0.12136405517E+02  0.20032813434E+02  0.51100000000E-03 0. -1.
        -11    1    3    3    0    0  0.24019261306E+01  0.18479322133E+02  0.29617911147E+01  0.18868672515E+02  0.51100000000E-03 0.  1.
         12    1    3    3    0    0 -0.20330891304E+00 -0.28778257429E+02  0.17264179700E+02  0.33560115254E+02  0.00000000000E+00 0. -1.
</event>
<event>
 7    1  0.1789107E-013  0.7246157E+02  0.7816164E-02  0.1226708E+00
        -11   -1    0    0    0    0  0.00000000000E+00  0.00000000000E+00  0.45593999997E+02  0.45594000000E+02  0.51100000000E-03 0.  1.
         11   -1    0    0    0    0 -0.00000000000E+00 -0.00000000000E+00 -0.45593999997E+02  0.45594000000E+02  0.51100000000E-03 0. -1.
    9900012    2    1    2    0    0 -0.72934677407E+01 -0.90172769232E+01 -0.14702835105E+02  0.72461566412E+02  0.69999994943E+02 0.  0.
        -12    1    1    2    0    0  0.72934677407E+01  0.90172769232E+01  0.14702835105E+02  0.18726433588E+02  0.00000000000E+00 0.  1.
         11    1    3    3    0    0  0.95932097702E+01 -0.25507330697E+01 -0.13019833205E+02  0.16372292749E+02  0.51100000000E-03 0. -1.
        -11    1    3    3    0    0  0.10116348116E+02  0.88873971163E+01 -0.16810359920E+02  0.21538675159E+02  0.51100000000E-03 0.  1.
         12    1    3    3    0    0 -0.27003025627E+02 -0.15353940970E+02  0.15127358021E+02  0.34550598504E+02  0.00000000000E+00 0. -1.
</event>
<event>
 7    1  0.1789107E-013  0.7246149E+02  0.7816164E-02  0.1226708E+00
        -11   -1    0    0    0    0  0.00000000000E+00  0.00000000000E+00  0.45593999997E+02  0.45594000000E+02  0.51100000000E-03 0. -1.
         11   -1    0    0    0    0 -0.00000000000E+00 -0.00000000000E+00 -0.45593999997E+02  0.45594000000E+02  0.51100000000E-03 0.  1.
    9900012    2    1    2    0    0 -0.65442983710E+01 -0.34010278569E+01  0.17213001081E+02  0.72461488369E+02  0.69999893277E+02 0.  0.
        -12    1    1    2    0    0  0.65442983710E+01  0.34010278569E+01 -0.17213001081E+02  0.18726511631E+02  0.00000000000E+00 0.  1.
         11    1    3    3    0    0  0.25619003076E+01 -0.11524507346E+02  0.13278779294E+02  0.17768049486E+02  0.51100000000E-03 0. -1.
        -11    1    3    3    0    0 -0.87249324155E+01 -0.21864551539E+02  0.69660363190E+01  0.24550126719E+02  0.51100000000E-03 0.  1.
         12    1    3    3    0    0 -0.38126626315E+00  0.29988031027E+02 -0.30318145317E+01  0.30143312164E+02  0.00000000000E+00 0. -1.
</event>
<event>
 7    1  0.1789107E-013  0.7246183E+02  0.7816164E-02  0.1226707E+00
        -11   -1    0    0    0    0  0.00000000000E+00  0.00000000000E+00  0.45593999997E+02  0.45594000000E+02  0.51100000000E-03 0.  1.
         11   -1    0    0    0    0 -0.00000000000E+00 -0.00000000000E+00 -0.45593999997E+02  0.45594000000E+02  0.51100000000E-03 0. -1.
    9900012    2    1    2    0    0  0.59015575929E+01  0.12691248929E+02 -0.12440783745E+02  0.72461834306E+02  0.70000343924E+02 0.  0.
        -12    1    1    2    0    0 -0.59015575929E+01 -0.12691248929E+02  0.12440783745E+02  0.18726165694E+02  0.00000000000E+00 0.  1.
         11    1    3    3    0    0 -0.67582260075E+01  0.62566376179E+01 -0.26173428313E+02  0.27746485957E+02  0.51100000000E-03 0. -1.
        -11    1    3    3    0    0 -0.13163528704E+02 -0.52962543581E+01  0.43548270294E+01  0.14842281391E+02  0.51100000000E-03 0.  1.
        -12    1    3    3    0    0  0.25823312304E+02  0.11730865670E+02  0.93778175387E+01  0.29873066959E+02  0.00000000000E+00 0.  1.
</event>
<event>
 7    1  0.1789107E-013  0.7246156E+02  0.7816164E-02  0.1226708E+00
        -11   -1    0    0    0    0  0.00000000000E+00  0.00000000000E+00  0.45593999997E+02  0.45594000000E+02  0.51100000000E-03 0.  1.
         11   -1    0    0    0    0 -0.00000000000E+00 -0.00000000000E+00 -0.45593999997E+02  0.45594000000E+02  0.51100000000E-03 0. -1.
    9900012    2    1    2    0    0  0.29779280044E+01 -0.17720157731E+02 -0.52732838191E+01  0.72461559670E+02  0.69999986159E+02 0.  0.
        -12    1    1    2    0    0 -0.29779280044E+01  0.17720157731E+02  0.52732838191E+01  0.18726440330E+02  0.00000000000E+00 0.  1.
         11    1    3    3    0    0 -0.13067875530E+01 -0.16020117621E+02 -0.25404755483E+02  0.30062492640E+02  0.51100000000E-03 0. -1.
        -11    1    3    3    0    0 -0.82762691015E+01 -0.68431650310E+01 -0.64682230198E+01  0.12536484642E+02  0.51100000000E-03 0.  1.
         12    1    3    3    0    0  0.12560984659E+02  0.51431249213E+01  0.26599694684E+02  0.29862582387E+02  0.00000000000E+00 0. -1.
</event>
<event>
 7    1  0.1789107E-013  0.7246157E+02  0.7816164E-02  0.1226708E+00
        -11   -1    0    0    0    0  0.00000000000E+00  0.00000000000E+00  0.45593999997E+02  0.45594000000E+02  0.51100000000E-03 0.  1.
         11   -1    0    0    0    0 -0.00000000000E+00 -0.00000000000E+00 -0.45593999997E+02  0.45594000000E+02  0.51100000000E-03 0. -1.
    9900012    2    1    2    0    0  0.77855471318E-01 -0.10057158920E+02 -0.15796414148E+02  0.72461569295E+02  0.69999998698E+02 0.  0.
        -12    1    1    2    0    0 -0.77855471318E-01  0.10057158920E+02  0.15796414148E+02  0.18726430705E+02  0.00000000000E+00 0.  1.
         11    1    3    3    0    0  0.92585995386E+01  0.39636373425E+01  0.20988147763E+02  0.23279485243E+02  0.51100000000E-03 0. -1.
        -11    1    3    3    0    0 -0.48976290573E+00  0.75925826197E+01 -0.30746788568E+01  0.82061457990E+01  0.51100000000E-03 0.  1.
         12    1    3    3    0    0 -0.86909811616E+01 -0.21613378882E+02 -0.33709883054E+02  0.40975938253E+02  0.00000000000E+00 0. -1.
</event>
<event>
 7    1  0.1789107E-013  0.7246156E+02  0.7816164E-02  0.1226708E+00
        -11   -1    0    0    0    0  0.00000000000E+00  0.00000000000E+00  0.45593999997E+02  0.45594000000E+02  0.51100000000E-03 0. -1.
         11   -1    0    0    0    0 -0.00000000000E+00 -0.00000000000E+00 -0.45593999997E+02  0.45594000000E+02  0.51100000000E-03 0.  1.
    9900012    2    1    2    0    0  0.18000658582E+02 -0.37384476182E+01 -0.35608537420E+01  0.72461564692E+02  0.69999992702E+02 0.  0.
        -12    1    1    2    0    0 -0.18000658582E+02  0.37384476182E+01  0.35608537420E+01  0.18726435308E+02  0.00000000000E+00 0.  1.
         11    1    3    3    0    0  0.25732487407E+01 -0.11940051418E+02  0.23138447680E+02  0.26164368867E+02  0.51100000000E-03 0. -1.
        -11    1    3    3    0    0  0.68516645541E+01  0.17507664736E+02 -0.24700607604E+01  0.18962194812E+02  0.51100000000E-03 0.  1.
        -12    1    3    3    0    0  0.85757452868E+01 -0.93060609356E+01 -0.24229240661E+02  0.27335001013E+02  0.00000000000E+00 0.  1.
</event>
<event>
 7    1  0.1789107E-013  0.7246154E+02  0.7816164E-02  0.1226708E+00
        -11   -1    0    0    0    0  0.00000000000E+00  0.00000000000E+00  0.45593999997E+02  0.45594000000E+02  0.51100000000E-03 0. -1.
         11   -1    0    0    0    0 -0.00000000000E+00 -0.00000000000E+00 -0.45593999997E+02  0.45594000000E+02  0.51100000000E-03 0.  1.
    9900012    2    1    2    0    0  0.72152286812E+00 -0.14053971102E+02  0.12354990159E+02  0.72461535282E+02  0.69999954390E+02 0.  0.
        -12    1    1    2    0    0 -0.72152286812E+00  0.14053971102E+02 -0.12354990159E+02  0.18726464718E+02  0.00000000000E+00 0.  1.
         11    1    3    3    0    0  0.96363537793E+00  0.75707170837E+01  0.23898579509E+02  0.25087575673E+02  0.51100000000E-03 0. -1.
        -11    1    3    3    0    0  0.92092572996E+01  0.96102706763E+01 -0.31437475493E+01  0.13676654247E+02  0.51100000000E-03 0.  1.
         12    1    3    3    0    0 -0.94513698094E+01 -0.31234958862E+02 -0.83998418011E+01  0.33697305362E+02  0.00000000000E+00 0. -1.
</event>
<event>
 7    1  0.1789107E-013  0.7246156E+02  0.7816164E-02  0.1226708E+00
        -11   -1    0    0    0    0  0.00000000000E+00  0.00000000000E+00  0.45593999997E+02  0.45594000000E+02  0.51100000000E-03 0.  1.
         11   -1    0    0    0    0 -0.00000000000E+00 -0.00000000000E+00 -0.45593999997E+02  0.45594000000E+02  0.51100000000E-03 0. -1.
    9900012    2    1    2    0    0 -0.18072631294E+02  0.32328162082E+01  0.36889690077E+01  0.72461558938E+02  0.69999985206E+02 0.  0.
        -12    1    1    2    0    0  0.18072631294E+02 -0.32328162082E+01 -0.36889690077E+01  0.18726441062E+02  0.00000000000E+00 0.  1.
         11    1    3    3    0    0  0.41199020854E+01  0.63603382456E+01 -0.73411145862E+01  0.10550803733E+02  0.51100000000E-03 0. -1.
        -11    1    3    3    0    0  0.17361287214E+02 -0.94902714773E+01 -0.17404959654E+01  0.19862247428E+02  0.51100000000E-03 0.  1.
         12    1    3    3    0    0 -0.39553820593E+02  0.63627494399E+01  0.12770579559E+02  0.42048507776E+02  0.00000000000E+00 0. -1.
</event>
<event>
 7    1  0.1789107E-013  0.7246161E+02  0.7816164E-02  0.1226708E+00
        -11   -1    0    0    0    0  0.00000000000E+00  0.00000000000E+00  0.45593999997E+02  0.45594000000E+02  0.51100000000E-03 0.  1.
         11   -1    0    0    0    0 -0.00000000000E+00 -0.00000000000E+00 -0.45593999997E+02  0.45594000000E+02  0.51100000000E-03 0. -1.
    9900012    2    1    2    0    0  0.12329461830E+02  0.11983976683E+02  0.74193304476E+01  0.72461607116E+02  0.70000047967E+02 0.  0.
        -12    1    1    2    0    0 -0.12329461830E+02 -0.11983976683E+02 -0.74193304476E+01  0.18726392884E+02  0.00000000000E+00 0.  1.
         11    1    3    3    0    0  0.28876312606E+01  0.46005498047E+01  0.27869864670E+00  0.54388552103E+01  0.51100000000E-03 0. -1.
        -11    1    3    3    0    0 -0.33982867839E+01  0.20712379002E+02  0.30621767090E+02  0.37124703594E+02  0.51100000000E-03 0.  1.
         12    1    3    3    0    0  0.12840117354E+02 -0.13328952123E+02 -0.23481135289E+02  0.29898048311E+02  0.00000000000E+00 0. -1.
</event>
<event>
 7    1  0.1789107E-013  0.7246166E+02  0.7816164E-02  0.1226708E+00
        -11   -1    0    0    0    0  0.00000000000E+00  0.00000000000E+00  0.45593999997E+02  0.45594000000E+02  0.51100000000E-03 0.  1.
         11   -1    0    0    0    0 -0.00000000000E+00 -0.00000000000E+00 -0.45593999997E+02  0.45594000000E+02  0.51100000000E-03 0. -1.
    9900012    2    1    2    0    0  0.97859632721E+01 -0.26068036966E+01 -0.15751682240E+02  0.72461655027E+02  0.70000110379E+02 0.  0.
        -12    1    1    2    0    0 -0.97859632721E+01  0.26068036966E+01  0.15751682240E+02  0.18726344973E+02  0.00000000000E+00 0.  1.
         11    1    3    3    0    0  0.70212436978E+01  0.22018033586E+02  0.65532872725E-01  0.23110516240E+02  0.51100000000E-03 0. -1.
        -11    1    3    3    0    0  0.52519421207E+01 -0.17324343761E+01  0.12015804760E+02  0.13227387845E+02  0.51100000000E-03 0.  1.
         12    1    3    3    0    0 -0.24872225464E+01 -0.22892402907E+02 -0.27833019873E+02  0.36123750941E+02  0.00000000000E+00 0. -1.
</event>
<event>
 7    1  0.1789107E-013  0.7246161E+02  0.7816164E-02  0.1226708E+00
        -11   -1    0    0    0    0  0.00000000000E+00  0.00000000000E+00  0.45593999997E+02  0.45594000000E+02  0.51100000000E-03 0.  1.
         11   -1    0    0    0    0 -0.00000000000E+00 -0.00000000000E+00 -0.45593999997E+02  0.45594000000E+02  0.51100000000E-03 0. -1.
    9900012    2    1    2    0    0 -0.12187009772E+02  0.13946602099E+02 -0.27652480205E+01  0.72461614499E+02  0.70000057585E+02 0.  0.
        -12    1    1    2    0    0  0.12187009772E+02 -0.13946602099E+02  0.27652480205E+01  0.18726385501E+02  0.00000000000E+00 0.  1.
         11    1    3    3    0    0  0.45395026962E+01 -0.18396615202E+02 -0.14164838787E+02  0.23657666701E+02  0.51100000000E-03 0. -1.
        -11    1    3    3    0    0 -0.47128252228E+01  0.97599737477E+01 -0.10529581186E+02  0.15110919540E+02  0.51100000000E-03 0.  1.
        -12    1    3    3    0    0 -0.12013687246E+02  0.22583243553E+02  0.21929171953E+02  0.33693028258E+02  0.00000000000E+00 0.  1.
</event>
<event>
 7    1  0.1789107E-013  0.7246159E+02  0.7816164E-02  0.1226708E+00
        -11   -1    0    0    0    0  0.00000000000E+00  0.00000000000E+00  0.45593999997E+02  0.45594000000E+02  0.51100000000E-03 0. -1.
         11   -1    0    0    0    0 -0.00000000000E+00 -0.00000000000E+00 -0.45593999997E+02  0.45594000000E+02  0.51100000000E-03 0.  1.
    9900012    2    1    2    0    0 -0.91034180360E+01  0.15330501144E+02 -0.57255590843E+01  0.72461587848E+02  0.70000022866E+02 0.  0.
        -12    1    1    2    0    0  0.91034180360E+01 -0.15330501144E+02  0.57255590843E+01  0.18726412152E+02  0.00000000000E+00 0.  1.
         11    1    3    3    0    0 -0.53044987197E+01  0.99239138393E+01 -0.57478419524E+01  0.12635642442E+02  0.51100000000E-03 0. -1.
        -11    1    3    3    0    0  0.24713504983E+02  0.18436785830E+01 -0.13331393221E+02  0.28140407331E+02  0.51100000000E-03 0.  1.
         12    1    3    3    0    0 -0.28512424299E+02  0.35629087219E+01  0.13353676089E+02  0.31685538075E+02  0.00000000000E+00 0. -1.
</event>
<event>
 7    1  0.1789107E-013  0.7246156E+02  0.7816164E-02  0.1226708E+00
        -11   -1    0    0    0    0  0.00000000000E+00  0.00000000000E+00  0.45593999997E+02  0.45594000000E+02  0.51100000000E-03 0. -1.
         11   -1    0    0    0    0 -0.00000000000E+00 -0.00000000000E+00 -0.45593999997E+02  0.45594000000E+02  0.51100000000E-03 0.  1.
    9900012    2    1    2    0    0  0.17515568268E+01 -0.11859095287E+02  0.14386569892E+02  0.72461561855E+02  0.69999989007E+02 0.  0.
        -12    1    1    2    0    0 -0.17515568268E+01  0.11859095287E+02 -0.14386569892E+02  0.18726438145E+02  0.00000000000E+00 0.  1.
         11    1    3    3    0    0 -0.47945807576E+01 -0.59043029917E+01 -0.12245233014E+02  0.14415079961E+02  0.51100000000E-03 0. -1.
        -11    1    3    3    0    0  0.26470813797E+02 -0.13368544513E+02  0.10881504364E+02  0.31588433056E+02  0.51100000000E-03 0.  1.
         12    1    3    3    0    0 -0.19924676213E+02  0.74137522182E+01  0.15750298542E+02  0.26458048838E+02  0.00000000000E+00 0. -1.
</event>
<event>
 7    1  0.1789107E-013  0.7246152E+02  0.7816164E-02  0.1226708E+00
        -11   -1    0    0    0    0  0.00000000000E+00  0.00000000000E+00  0.45593999997E+02  0.45594000000E+02  0.51100000000E-03 0.  1.
         11   -1    0    0    0    0 -0.00000000000E+00 -0.00000000000E+00 -0.45593999997E+02  0.45594000000E+02  0.51100000000E-03 0. -1.
    9900012    2    1    2    0    0 -0.16333461872E+02 -0.75499986131E+01 -0.51862062745E+01  0.72461516313E+02  0.69999929679E+02 0.  0.
        -12    1    1    2    0    0  0.16333461872E+02  0.75499986131E+01  0.51862062745E+01  0.18726483687E+02  0.00000000000E+00 0.  1.
         11    1    3    3    0    0  0.34656009439E+01  0.36844995257E+00 -0.41846783120E+01  0.54458863471E+01  0.51100000000E-03 0. -1.
        -11    1    3    3    0    0  0.18432553789E+02 -0.16088740229E+02  0.99554282045E+01  0.26414336113E+02  0.51100000000E-03 0.  1.
         12    1    3    3    0    0 -0.38231616604E+02  0.81702916629E+01 -0.10956956167E+02  0.40601293852E+02  0.00000000000E+00 0. -1.
</event>
<event>
 7    1  0.1789107E-013  0.7246154E+02  0.7816164E-02  0.1226708E+00
        -11   -1    0    0    0    0  0.00000000000E+00  0.00000000000E+00  0.45593999997E+02  0.45594000000E+02  0.51100000000E-03 0.  1.
         11   -1    0    0    0    0 -0.00000000000E+00 -0.00000000000E+00 -0.45593999997E+02  0.45594000000E+02  0.51100000000E-03 0. -1.
    9900012    2    1    2    0    0  0.24863869552E+00 -0.39852466798E+01 -0.18295795542E+02  0.72461544200E+02  0.69999966008E+02 0.  0.
        -12    1    1    2    0    0 -0.24863869552E+00  0.39852466798E+01  0.18295795542E+02  0.18726455800E+02  0.00000000000E+00 0.  1.
         11    1    3    3    0    0  0.99560086739E+01 -0.15974590554E+02  0.13512169074E+02  0.23170851633E+02  0.51100000000E-03 0. -1.
        -11    1    3    3    0    0  0.10274537502E+02  0.88910849619E+01 -0.27073067987E+01  0.13854494687E+02  0.51100000000E-03 0.  1.
        -12    1    3    3    0    0 -0.19981907480E+02  0.30982589121E+01 -0.29100657817E+02  0.35436197880E+02  0.00000000000E+00 0.  1.
</event>
<event>
 7    1  0.1789107E-013  0.7246161E+02  0.7816164E-02  0.1226708E+00
        -11   -1    0    0    0    0  0.00000000000E+00  0.00000000000E+00  0.45593999997E+02  0.45594000000E+02  0.51100000000E-03 0.  1.
         11   -1    0    0    0    0 -0.00000000000E+00 -0.00000000000E+00 -0.45593999997E+02  0.45594000000E+02  0.51100000000E-03 0. -1.
    9900012    2    1    2    0    0 -0.85674985102E+00 -0.11614034021E+02 -0.14664851746E+02  0.72461609977E+02  0.70000051694E+02 0.  0.
        -12    1    1    2    0    0  0.85674985102E+00  0.11614034021E+02  0.14664851746E+02  0.18726390023E+02  0.00000000000E+00 0.  1.
         11    1    3    3    0    0  0.85506261604E+01  0.48148170686E+01 -0.61564551139E+01  0.11584369252E+02  0.51100000000E-03 0.  1.
        -11    1    3    3    0    0  0.12411775513E+02 -0.11618364480E+02 -0.26978322840E+02  0.31888375124E+02  0.51100000000E-03 0. -1.
        -12    1    3    3    0    0 -0.21819151525E+02 -0.48104866101E+01  0.18469926208E+02  0.28988865600E+02  0.00000000000E+00 0.  1.
</event>
<event>
 7    1  0.1789107E-013  0.7246153E+02  0.7816164E-02  0.1226708E+00
        -11   -1    0    0    0    0  0.00000000000E+00  0.00000000000E+00  0.45593999997E+02  0.45594000000E+02  0.51100000000E-03 0. -1.
         11   -1    0    0    0    0 -0.00000000000E+00 -0.00000000000E+00 -0.45593999997E+02  0.45594000000E+02  0.51100000000E-03 0.  1.
    9900012    2    1    2    0    0 -0.21551981488E+01 -0.12199018528E+01  0.18561994938E+02  0.72461529546E+02  0.69999946918E+02 0.  0.
        -12    1    1    2    0    0  0.21551981488E+01  0.12199018528E+01 -0.18561994938E+02  0.18726470454E+02  0.00000000000E+00 0.  1.
         11    1    3    3    0    0 -0.26020466081E+02 -0.13631897276E+02  0.85459549363E+01  0.30592917881E+02  0.51100000000E-03 0. -1.
        -11    1    3    3    0    0  0.32095023724E+01  0.60485867536E+01  0.17661569807E+02  0.18942474904E+02  0.51100000000E-03 0.  1.
        -12    1    3    3    0    0  0.20655765560E+02  0.63634086701E+01 -0.76455298049E+01  0.22926136761E+02  0.00000000000E+00 0.  1.
</event>
<event>
 7    1  0.1789107E-013  0.7246153E+02  0.7816164E-02  0.1226708E+00
        -11   -1    0    0    0    0  0.00000000000E+00  0.00000000000E+00  0.45593999997E+02  0.45594000000E+02  0.51100000000E-03 0.  1.
         11   -1    0    0    0    0 -0.00000000000E+00 -0.00000000000E+00 -0.45593999997E+02  0.45594000000E+02  0.51100000000E-03 0. -1.
    9900012    2    1    2    0    0 -0.68677388085E+01 -0.17390671375E+02  0.10389053788E+01  0.72461531791E+02  0.69999949842E+02 0.  0.
        -12    1    1    2    0    0  0.68677388085E+01  0.17390671375E+02 -0.10389053788E+01  0.18726468209E+02  0.00000000000E+00 0.  1.
         11    1    3    3    0    0 -0.19647307026E+02  0.29603120841E+01 -0.52046279117E+01  0.20539432148E+02  0.51100000000E-03 0. -1.
        -11    1    3    3    0    0 -0.36549153525E+01 -0.29569752752E+02 -0.46514033062E+01  0.30155666748E+02  0.51100000000E-03 0.  1.
         12    1    3    3    0    0  0.16434483570E+02  0.92187692935E+01  0.10894936597E+02  0.21766432894E+02  0.00000000000E+00 0. -1.
</event>
<event>
 7    1  0.1789107E-013  0.7246158E+02  0.7816164E-02  0.1226708E+00
        -11   -1    0    0    0    0  0.00000000000E+00  0.00000000000E+00  0.45593999997E+02  0.45594000000E+02  0.51100000000E-03 0.  1.
         11   -1    0    0    0    0 -0.00000000000E+00 -0.00000000000E+00 -0.45593999997E+02  0.45594000000E+02  0.51100000000E-03 0. -1.
    9900012    2    1    2    0    0  0.10999410213E+02  0.10577203073E+02 -0.10854234679E+02  0.72461583890E+02  0.70000017710E+02 0.  0.
        -12    1    1    2    0    0 -0.10999410213E+02 -0.10577203073E+02  0.10854234679E+02  0.18726416110E+02  0.00000000000E+00 0.  1.
         11    1    3    3    0    0  0.79229725174E+01  0.15506536887E+02 -0.89873082200E+01  0.19595864080E+02  0.51100000000E-03 0. -1.
        -11    1    3    3    0    0  0.24577685831E+02  0.89323288092E+01 -0.63088142352E+01  0.26900748616E+02  0.51100000000E-03 0.  1.
        -12    1    3    3    0    0 -0.21501248136E+02 -0.13861662623E+02  0.44418877759E+01  0.25964971194E+02  0.00000000000E+00 0.  1.
</event>
<event>
 7    1  0.1789107E-013  0.7246161E+02  0.7816164E-02  0.1226708E+00
        -11   -1    0    0    0    0  0.00000000000E+00  0.00000000000E+00  0.45593999997E+02  0.45594000000E+02  0.51100000000E-03 0.  1.
         11   -1    0    0    0    0 -0.00000000000E+00 -0.00000000000E+00 -0.45593999997E+02  0.45594000000E+02  0.51100000000E-03 0. -1.
    9900012    2    1    2    0    0  0.17573863734E+02  0.64674973336E+01 -0.92652041025E-01  0.72461607056E+02  0.70000047889E+02 0.  0.
        -12    1    1    2    0    0 -0.17573863734E+02 -0.64674973336E+01  0.92652041025E-01  0.18726392944E+02  0.00000000000E+00 0.  1.
         11    1    3    3    0    0  0.27468599938E+02  0.23319626446E+02  0.10512994985E+02  0.37534677619E+02  0.51100000000E-03 0. -1.
        -11    1    3    3    0    0  0.85573901137E+01 -0.43773101719E+01  0.12532386048E+01  0.96933161075E+01  0.51100000000E-03 0.  1.
         12    1    3    3    0    0 -0.18452126318E+02 -0.12474818941E+02 -0.11858885630E+02  0.25233613330E+02  0.00000000000E+00 0. -1.
</event>
<event>
 7    1  0.1789107E-013  0.7246155E+02  0.7816164E-02  0.1226708E+00
        -11   -1    0    0    0    0  0.00000000000E+00  0.00000000000E+00  0.45593999997E+02  0.45594000000E+02  0.51100000000E-03 0.  1.
         11   -1    0    0    0    0 -0.00000000000E+00 -0.00000000000E+00 -0.45593999997E+02  0.45594000000E+02  0.51100000000E-03 0. -1.
    9900012    2    1    2    0    0 -0.17295718036E+02  0.71704020590E+01  0.35103689703E+00  0.72461554663E+02  0.69999979637E+02 0.  0.
        -12    1    1    2    0    0  0.17295718036E+02 -0.71704020590E+01 -0.35103689703E+00  0.18726445337E+02  0.00000000000E+00 0.  1.
         11    1    3    3    0    0 -0.18774050230E+02 -0.96360752796E+01 -0.16523096634E+02  0.26801709488E+02  0.51100000000E-03 0. -1.
        -11    1    3    3    0    0 -0.13821441527E+02  0.22204341304E+02  0.93462384725E+01  0.27774398148E+02  0.51100000000E-03 0.  1.
        -12    1    3    3    0    0  0.15299773722E+02 -0.53978639654E+01  0.75278950588E+01  0.17885447027E+02  0.00000000000E+00 0.  1.
</event>
<event>
 7    1  0.1789107E-013  0.7246156E+02  0.7816164E-02  0.1226708E+00
        -11   -1    0    0    0    0  0.00000000000E+00  0.00000000000E+00  0.45593999997E+02  0.45594000000E+02  0.51100000000E-03 0. -1.
         11   -1    0    0    0    0 -0.00000000000E+00 -0.00000000000E+00 -0.45593999997E+02  0.45594000000E+02  0.51100000000E-03 0.  1.
    9900012    2    1    2    0    0  0.76881994608E+01  0.14991687593E+02  0.81743835633E+01  0.72461557346E+02  0.69999983133E+02 0.  0.
        -12    1    1    2    0    0 -0.76881994608E+01 -0.14991687593E+02 -0.81743835633E+01  0.18726442654E+02  0.00000000000E+00 0.  1.
         11    1    3    3    0    0 -0.13345929052E+02  0.56657556474E+01  0.32950738069E+02  0.35999524286E+02  0.51100000000E-03 0. -1.
        -11    1    3    3    0    0 -0.12223762616E+01  0.35451471567E+01 -0.32104238168E+01  0.49365061970E+01  0.51100000000E-03 0.  1.
        -12    1    3    3    0    0  0.22256504774E+02  0.57807847887E+01 -0.21565930688E+02  0.31525526863E+02  0.00000000000E+00 0.  1.
</event>
<event>
 7    1  0.1789107E-013  0.7246156E+02  0.7816164E-02  0.1226708E+00
        -11   -1    0    0    0    0  0.00000000000E+00  0.00000000000E+00  0.45593999997E+02  0.45594000000E+02  0.51100000000E-03 0. -1.
         11   -1    0    0    0    0 -0.00000000000E+00 -0.00000000000E+00 -0.45593999997E+02  0.45594000000E+02  0.51100000000E-03 0.  1.
    9900012    2    1    2    0    0  0.13379522161E+02  0.13093375168E+02 -0.48119805110E+00  0.72461557783E+02  0.69999983701E+02 0.  0.
        -12    1    1    2    0    0 -0.13379522161E+02 -0.13093375168E+02  0.48119805110E+00  0.18726442217E+02  0.00000000000E+00 0.  1.
         11    1    3    3    0    0 -0.13842623143E+02 -0.39457193234E+00  0.25447359789E+02  0.28971400087E+02  0.51100000000E-03 0. -1.
        -11    1    3    3    0    0 -0.55622837996E+00  0.60662584847E+01 -0.56234978189E+01  0.82905132528E+01  0.51100000000E-03 0.  1.
        -12    1    3    3    0    0  0.27778373684E+02  0.74216886161E+01 -0.20305060022E+02  0.35199644443E+02  0.00000000000E+00 0.  1.
</event>
<event>
 7    1  0.1789107E-013  0.7246160E+02  0.7816164E-02  0.1226708E+00
        -11   -1    0    0    0    0  0.00000000000E+00  0.00000000000E+00  0.45593999997E+02  0.45594000000E+02  0.51100000000E-03 0.  1.
         11   -1    0    0    0    0 -0.00000000000E+00 -0.00000000000E+00 -0.45593999997E+02  0.45594000000E+02  0.51100000000E-03 0. -1.
    9900012    2    1    2    0    0 -0.18404705776E+02  0.27859412614E+01 -0.20453081849E+01  0.72461602883E+02  0.70000042452E+02 0.  0.
        -12    1    1    2    0    0  0.18404705776E+02 -0.27859412614E+01  0.20453081849E+01  0.18726397117E+02  0.00000000000E+00 0.  1.
         11    1    3    3    0    0  0.21436811184E+02 -0.44475528618E+01  0.12351492198E+02  0.25137162927E+02  0.51100000000E-03 0.  1.
        -11    1    3    3    0    0 -0.11219810521E+02 -0.52916140139E+01 -0.96653470559E+01  0.15725910497E+02  0.51100000000E-03 0. -1.
        -12    1    3    3    0    0 -0.28621706440E+02  0.12525108137E+02 -0.47314533270E+01  0.31598529459E+02  0.00000000000E+00 0.  1.
</event>
<event>
 7    1  0.1789107E-013  0.7246146E+02  0.7816164E-02  0.1226708E+00
        -11   -1    0    0    0    0  0.00000000000E+00  0.00000000000E+00  0.45593999997E+02  0.45594000000E+02  0.51100000000E-03 0. -1.
         11   -1    0    0    0    0 -0.00000000000E+00 -0.00000000000E+00 -0.45593999997E+02  0.45594000000E+02  0.51100000000E-03 0.  1.
    9900012    2    1    2    0    0 -0.12074835085E+02  0.63614056703E+01  0.12822408664E+02  0.72461460320E+02  0.69999856738E+02 0.  0.
        -12    1    1    2    0    0  0.12074835085E+02 -0.63614056703E+01 -0.12822408664E+02  0.18726539680E+02  0.00000000000E+00 0.  1.
         11    1    3    3    0    0  0.10592048249E+02  0.29128041376E+02  0.12496418707E+00  0.30994352660E+02  0.51100000000E-03 0. -1.
        -11    1    3    3    0    0 -0.52648338318E+01  0.30231935436E+01 -0.28270639122E+01  0.66970489847E+01  0.51100000000E-03 0.  1.
        -12    1    3    3    0    0 -0.17402049501E+02 -0.25789829250E+02  0.15524508389E+02  0.34770058675E+02  0.00000000000E+00 0.  1.
</event>
<event>
 7    1  0.1789107E-013  0.7246168E+02  0.7816164E-02  0.1226708E+00
        -11   -1    0    0    0    0  0.00000000000E+00  0.00000000000E+00  0.45593999997E+02  0.45594000000E+02  0.51100000000E-03 0. -1.
         11   -1    0    0    0    0 -0.00000000000E+00 -0.00000000000E+00 -0.45593999997E+02  0.45594000000E+02  0.51100000000E-03 0.  1.
    9900012    2    1    2    0    0 -0.90693515394E+01  0.14977177285E+02 -0.66412468727E+01  0.72461677970E+02  0.70000140267E+02 0.  0.
        -12    1    1    2    0    0  0.90693515394E+01 -0.14977177285E+02  0.66412468727E+01  0.18726322030E+02  0.00000000000E+00 0.  1.
         11    1    3    3    0    0 -0.62839876959E+01 -0.53544932479E+01  0.64630809601E+01  0.10484775394E+02  0.51100000000E-03 0. -1.
        -11    1    3    3    0    0 -0.10314923713E+02  0.40625299319E+01 -0.33226581831E+02  0.35027239986E+02  0.51100000000E-03 0.  1.
         12    1    3    3    0    0  0.75295598697E+01  0.16269140601E+02  0.20122253998E+02  0.26949662589E+02  0.00000000000E+00 0. -1.
</event>
<event>
 7    1  0.1789107E-013  0.7246156E+02  0.7816164E-02  0.1226708E+00
        -11   -1    0    0    0    0  0.00000000000E+00  0.00000000000E+00  0.45593999997E+02  0.45594000000E+02  0.51100000000E-03 0. -1.
         11   -1    0    0    0    0 -0.00000000000E+00 -0.00000000000E+00 -0.45593999997E+02  0.45594000000E+02  0.51100000000E-03 0.  1.
    9900012    2    1    2    0    0 -0.23393648065E+01  0.17048940378E+02  0.73851678373E+01  0.72461556138E+02  0.69999981559E+02 0.  0.
        -12    1    1    2    0    0  0.23393648065E+01 -0.17048940378E+02 -0.73851678373E+01  0.18726443862E+02  0.00000000000E+00 0.  1.
         11    1    3    3    0    0 -0.13505666285E+02  0.30967249309E+02 -0.15519815608E+02  0.37178464577E+02  0.51100000000E-03 0. -1.
        -11    1    3    3    0    0  0.89399341443E+01  0.24731017135E+01  0.38321113920E+01  0.10036121391E+02  0.51100000000E-03 0.  1.
        -12    1    3    3    0    0  0.22263673340E+01 -0.16391410644E+02  0.19072872054E+02  0.25246970170E+02  0.00000000000E+00 0.  1.
</event>
<event>
 7    1  0.1789107E-013  0.7246159E+02  0.7816164E-02  0.1226708E+00
        -11   -1    0    0    0    0  0.00000000000E+00  0.00000000000E+00  0.45593999997E+02  0.45594000000E+02  0.51100000000E-03 0.  1.
         11   -1    0    0    0    0 -0.00000000000E+00 -0.00000000000E+00 -0.45593999997E+02  0.45594000000E+02  0.51100000000E-03 0. -1.
    9900012    2    1    2    0    0  0.27606470461E+01 -0.66648175436E+01 -0.17281133844E+02  0.72461586784E+02  0.70000021481E+02 0.  0.
        -12    1    1    2    0    0 -0.27606470461E+01  0.66648175436E+01  0.17281133844E+02  0.18726413216E+02  0.00000000000E+00 0.  1.
         11    1    3    3    0    0 -0.25188345760E+01 -0.20575819477E+02  0.21378394431E+01  0.20839367373E+02  0.51100000000E-03 0. -1.
        -11    1    3    3    0    0 -0.80204023340E+01  0.16127975520E+02  0.90232078923E+01  0.20145886153E+02  0.51100000000E-03 0.  1.
         12    1    3    3    0    0  0.13299883956E+02 -0.22169735870E+01 -0.28442181179E+02  0.31476333258E+02  0.00000000000E+00 0. -1.
</event>
<event>
 7    1  0.1789107E-013  0.7246146E+02  0.7816164E-02  0.1226708E+00
        -11   -1    0    0    0    0  0.00000000000E+00  0.00000000000E+00  0.45593999997E+02  0.45594000000E+02  0.51100000000E-03 0.  1.
         11   -1    0    0    0    0 -0.00000000000E+00 -0.00000000000E+00 -0.45593999997E+02  0.45594000000E+02  0.51100000000E-03 0. -1.
    9900012    2    1    2    0    0  0.16204211066E+00  0.59106307634E+01 -0.17768553419E+02  0.72461459895E+02  0.69999856185E+02 0.  0.
        -12    1    1    2    0    0 -0.16204211066E+00 -0.59106307634E+01  0.17768553419E+02  0.18726540105E+02  0.00000000000E+00 0.  1.
         11    1    3    3    0    0  0.44745952866E+01  0.96026221789E+00 -0.76226459502E+01  0.88909413477E+01  0.51100000000E-03 0. -1.
        -11    1    3    3    0    0  0.26840566032E+02 -0.94082709733E+01 -0.51930710360E+01  0.28911927204E+02  0.51100000000E-03 0.  1.
         12    1    3    3    0    0 -0.31153119208E+02  0.14358639519E+02 -0.49528364333E+01  0.34658591344E+02  0.00000000000E+00 0. -1.
</event>
<event>
 7    1  0.1789107E-013  0.7246157E+02  0.7816164E-02  0.1226708E+00
        -11   -1    0    0    0    0  0.00000000000E+00  0.00000000000E+00  0.45593999997E+02  0.45594000000E+02  0.51100000000E-03 0.  1.
         11   -1    0    0    0    0 -0.00000000000E+00 -0.00000000000E+00 -0.45593999997E+02  0.45594000000E+02  0.51100000000E-03 0. -1.
    9900012    2    1    2    0    0  0.87283174429E+01 -0.13825287498E+02 -0.91300170623E+01  0.72461566508E+02  0.69999995067E+02 0.  0.
        -12    1    1    2    0    0 -0.87283174429E+01  0.13825287498E+02  0.91300170623E+01  0.18726433492E+02  0.00000000000E+00 0.  1.
         11    1    3    3    0    0 -0.69955925996E+01 -0.87315559569E+01 -0.15849009258E+02  0.19400244327E+02  0.51100000000E-03 0. -1.
        -11    1    3    3    0    0  0.60812353184E+01 -0.21491292264E+02 -0.12851953980E+02  0.25768775438E+02  0.51100000000E-03 0.  1.
        -12    1    3    3    0    0  0.96426747241E+01  0.16397560724E+02  0.19570946175E+02  0.27292546743E+02  0.00000000000E+00 0.  1.
</event>
<event>
 7    1  0.1789107E-013  0.7246157E+02  0.7816164E-02  0.1226708E+00
        -11   -1    0    0    0    0  0.00000000000E+00  0.00000000000E+00  0.45593999997E+02  0.45594000000E+02  0.51100000000E-03 0.  1.
         11   -1    0    0    0    0 -0.00000000000E+00 -0.00000000000E+00 -0.45593999997E+02  0.45594000000E+02  0.51100000000E-03 0. -1.
    9900012    2    1    2    0    0 -0.45095617673E+01 -0.18151678461E+02 -0.92717093387E+00  0.72461568834E+02  0.69999998098E+02 0.  0.
        -12    1    1    2    0    0  0.45095617673E+01  0.18151678461E+02  0.92717093387E+00  0.18726431166E+02  0.00000000000E+00 0.  1.
         11    1    3    3    0    0  0.19429016055E+01  0.86037718535E-04  0.10959918349E+02  0.11130798585E+02  0.51100000000E-03 0. -1.
        -11    1    3    3    0    0 -0.18773555089E+02 -0.14739722394E+02  0.17291797988E+02  0.29473921775E+02  0.51100000000E-03 0.  1.
         12    1    3    3    0    0  0.12321091716E+02 -0.34120421047E+01 -0.29178887270E+02  0.31856848474E+02  0.00000000000E+00 0. -1.
</event>
<event>
 7    1  0.1789107E-013  0.7246155E+02  0.7816164E-02  0.1226708E+00
        -11   -1    0    0    0    0  0.00000000000E+00  0.00000000000E+00  0.45593999997E+02  0.45594000000E+02  0.51100000000E-03 0. -1.
         11   -1    0    0    0    0 -0.00000000000E+00 -0.00000000000E+00 -0.45593999997E+02  0.45594000000E+02  0.51100000000E-03 0.  1.
    9900012    2    1    2    0    0 -0.48903793421E+01 -0.17469829321E+02  0.46442466023E+01  0.72461554178E+02  0.69999979006E+02 0.  0.
        -12    1    1    2    0    0  0.48903793421E+01  0.17469829321E+02 -0.46442466023E+01  0.18726445822E+02  0.00000000000E+00 0.  1.
         11    1    3    3    0    0  0.77365949792E-01  0.12031748118E+01 -0.95640282214E+01  0.96397225685E+01  0.51100000000E-03 0. -1.
        -11    1    3    3    0    0  0.22961749262E+02 -0.95589354559E+00  0.18456215712E+02  0.29475202464E+02  0.51100000000E-03 0.  1.
         12    1    3    3    0    0 -0.27929494554E+02 -0.17717110587E+02 -0.42479408883E+01  0.33346629146E+02  0.00000000000E+00 0. -1.
</event>
<event>
 7    1  0.1789107E-013  0.7246151E+02  0.7816164E-02  0.1226708E+00
        -11   -1    0    0    0    0  0.00000000000E+00  0.00000000000E+00  0.45593999997E+02  0.45594000000E+02  0.51100000000E-03 0. -1.
         11   -1    0    0    0    0 -0.00000000000E+00 -0.00000000000E+00 -0.45593999997E+02  0.45594000000E+02  0.51100000000E-03 0.  1.
    9900012    2    1    2    0    0 -0.73081887101E+01  0.14576523929E+02 -0.92085080862E+01  0.72461513591E+02  0.69999926133E+02 0.  0.
        -12    1    1    2    0    0  0.73081887101E+01 -0.14576523929E+02  0.92085080862E+01  0.18726486409E+02  0.00000000000E+00 0.  1.
         11    1    3    3    0    0 -0.11796278486E+01  0.40068462314E+01 -0.18982747628E+02  0.19436847645E+02  0.51100000000E-03 0. -1.
        -11    1    3    3    0    0  0.30134485914E+01  0.14713247535E+02 -0.18029092004E+02  0.23465052401E+02  0.51100000000E-03 0.  1.
         12    1    3    3    0    0 -0.91420094529E+01 -0.41435698373E+01  0.27803331546E+02  0.29559613545E+02  0.00000000000E+00 0. -1.
</event>
<event>
 7    1  0.1789107E-013  0.7246158E+02  0.7816164E-02  0.1226708E+00
        -11   -1    0    0    0    0  0.00000000000E+00  0.00000000000E+00  0.45593999997E+02  0.45594000000E+02  0.51100000000E-03 0.  1.
         11   -1    0    0    0    0 -0.00000000000E+00 -0.00000000000E+00 -0.45593999997E+02  0.45594000000E+02  0.51100000000E-03 0. -1.
    9900012    2    1    2    0    0  0.11560636261E+02 -0.14224605845E+02 -0.38329182696E+01  0.72461575230E+02  0.70000006430E+02 0.  0.
        -12    1    1    2    0    0 -0.11560636261E+02  0.14224605845E+02  0.38329182696E+01  0.18726424770E+02  0.00000000000E+00 0.  1.
         11    1    3    3    0    0 -0.94637979635E+01  0.35106679686E+01 -0.30183232965E+02  0.31826338369E+02  0.51100000000E-03 0. -1.
        -11    1    3    3    0    0 -0.86420774434E+00  0.10755728590E+01  0.36953448844E+01  0.39445260901E+01  0.51100000000E-03 0.  1.
        -12    1    3    3    0    0  0.21888641969E+02 -0.18810846672E+02  0.22654969811E+02  0.36690710771E+02  0.00000000000E+00 0.  1.
</event>
<event>
 7    1  0.1789107E-013  0.7246156E+02  0.7816164E-02  0.1226708E+00
        -11   -1    0    0    0    0  0.00000000000E+00  0.00000000000E+00  0.45593999997E+02  0.45594000000E+02  0.51100000000E-03 0.  1.
         11   -1    0    0    0    0 -0.00000000000E+00 -0.00000000000E+00 -0.45593999997E+02  0.45594000000E+02  0.51100000000E-03 0. -1.
    9900012    2    1    2    0    0 -0.15360983712E+02  0.10705299277E+02  0.34109071804E+00  0.72461558905E+02  0.69999985164E+02 0.  0.
        -12    1    1    2    0    0  0.15360983712E+02 -0.10705299277E+02 -0.34109071804E+00  0.18726441095E+02  0.00000000000E+00 0.  1.
         11    1    3    3    0    0  0.12083338732E+02  0.85761577863E+01 -0.10300791382E+02  0.18046159166E+02  0.51100000000E-03 0.  1.
        -11    1    3    3    0    0 -0.18834280887E+02 -0.20680821119E+02  0.10933492181E+02  0.30032777930E+02  0.51100000000E-03 0. -1.
         12    1    3    3    0    0 -0.86100415571E+01  0.22809962609E+02 -0.29161008122E+00  0.24382621809E+02  0.00000000000E+00 0. -1.
</event>
<event>
 7    1  0.1789107E-013  0.7246155E+02  0.7816164E-02  0.1226708E+00
        -11   -1    0    0    0    0  0.00000000000E+00  0.00000000000E+00  0.45593999997E+02  0.45594000000E+02  0.51100000000E-03 0. -1.
         11   -1    0    0    0    0 -0.00000000000E+00 -0.00000000000E+00 -0.45593999997E+02  0.45594000000E+02  0.51100000000E-03 0.  1.
    9900012    2    1    2    0    0 -0.57833395271E+01 -0.14732672305E+01  0.17749994025E+02  0.72461552918E+02  0.69999977365E+02 0.  0.
        -12    1    1    2    0    0  0.57833395271E+01  0.14732672305E+01 -0.17749994025E+02  0.18726447082E+02  0.00000000000E+00 0.  1.
         11    1    3    3    0    0  0.28419819672E+01  0.30108982860E+02  0.21332437813E+02  0.37009466542E+02  0.51100000000E-03 0. -1.
        -11    1    3    3    0    0 -0.67687195032E+01 -0.46485568657E+01  0.48598580506E-01  0.82113949320E+01  0.51100000000E-03 0.  1.
        -12    1    3    3    0    0 -0.18566019911E+01 -0.26933693225E+02 -0.36310423689E+01  0.27240691445E+02  0.00000000000E+00 0.  1.
</event>
<event>
 7    1  0.1789107E-013  0.7246162E+02  0.7816164E-02  0.1226708E+00
        -11   -1    0    0    0    0  0.00000000000E+00  0.00000000000E+00  0.45593999997E+02  0.45594000000E+02  0.51100000000E-03 0.  1.
         11   -1    0    0    0    0 -0.00000000000E+00 -0.00000000000E+00 -0.45593999997E+02  0.45594000000E+02  0.51100000000E-03 0. -1.
    9900012    2    1    2    0    0 -0.74181348304E+01  0.91920237057E+01 -0.14531177038E+02  0.72461624743E+02  0.70000070929E+02 0.  0.
        -12    1    1    2    0    0  0.74181348304E+01 -0.91920237057E+01  0.14531177038E+02  0.18726375257E+02  0.00000000000E+00 0.  1.
         11    1    3    3    0    0 -0.15978507378E+02 -0.17948310965E+02  0.98609999756E+01  0.25974870265E+02  0.51100000000E-03 0. -1.
        -11    1    3    3    0    0 -0.66604188192E+01  0.19297032923E+01  0.17020113925E+01  0.71401524273E+01  0.51100000000E-03 0.  1.
        -12    1    3    3    0    0  0.15220791367E+02  0.25210631378E+02 -0.26094188406E+02  0.39346602050E+02  0.00000000000E+00 0.  1.
</event>
<event>
 7    1  0.1789107E-013  0.7246141E+02  0.7816164E-02  0.1226708E+00
        -11   -1    0    0    0    0  0.00000000000E+00  0.00000000000E+00  0.45593999997E+02  0.45594000000E+02  0.51100000000E-03 0.  1.
         11   -1    0    0    0    0 -0.00000000000E+00 -0.00000000000E+00 -0.45593999997E+02  0.45594000000E+02  0.51100000000E-03 0. -1.
    9900012    2    1    2    0    0  0.10810542682E+02  0.88238392477E+01  0.12488283864E+02  0.72461409120E+02  0.69999790040E+02 0.  0.
        -12    1    1    2    0    0 -0.10810542682E+02 -0.88238392477E+01 -0.12488283864E+02  0.18726590880E+02  0.00000000000E+00 0.  1.
         11    1    3    3    0    0 -0.61443597277E+00  0.80548711324E+01 -0.92579552531E+01  0.12286912397E+02  0.51100000000E-03 0. -1.
        -11    1    3    3    0    0  0.79906396004E+01  0.21978115738E+02 -0.68851610634E+01  0.24378132327E+02  0.51100000000E-03 0.  1.
        -12    1    3    3    0    0  0.34343390539E+01 -0.21209147623E+02  0.28631400180E+02  0.35796364395E+02  0.00000000000E+00 0.  1.
</event>
<event>
 7    1  0.1789107E-013  0.7246161E+02  0.7816164E-02  0.1226708E+00
        -11   -1    0    0    0    0  0.00000000000E+00  0.00000000000E+00  0.45593999997E+02  0.45594000000E+02  0.51100000000E-03 0.  1.
         11   -1    0    0    0    0 -0.00000000000E+00 -0.00000000000E+00 -0.45593999997E+02  0.45594000000E+02  0.51100000000E-03 0. -1.
    9900012    2    1    2    0    0  0.12644216859E+02 -0.13796087991E+02  0.68509370649E+00  0.72461611742E+02  0.70000053993E+02 0.  0.
        -12    1    1    2    0    0 -0.12644216859E+02  0.13796087991E+02 -0.68509370649E+00  0.18726388258E+02  0.00000000000E+00 0.  1.
         11    1    3    3    0    0  0.31276069923E+02 -0.11396411205E+02 -0.15836881699E+02  0.36862956479E+02  0.51100000000E-03 0. -1.
        -11    1    3    3    0    0  0.25301268913E+01  0.76609994269E+01  0.35333678629E+01  0.88077887702E+01  0.51100000000E-03 0.  1.
        -12    1    3    3    0    0 -0.21161979956E+02 -0.10060676212E+02  0.12988607542E+02  0.26790866492E+02  0.00000000000E+00 0.  1.
</event>
<event>
 7    1  0.1789107E-013  0.7246120E+02  0.7816164E-02  0.1226709E+00
        -11   -1    0    0    0    0  0.00000000000E+00  0.00000000000E+00  0.45593999997E+02  0.45594000000E+02  0.51100000000E-03 0. -1.
         11   -1    0    0    0    0 -0.00000000000E+00 -0.00000000000E+00 -0.45593999997E+02  0.45594000000E+02  0.51100000000E-03 0.  1.
    9900012    2    1    2    0    0  0.30596870813E+01 -0.11172895676E+02  0.14713859249E+02  0.72461202708E+02  0.69999521149E+02 0.  0.
        -12    1    1    2    0    0 -0.30596870813E+01  0.11172895676E+02 -0.14713859249E+02  0.18726797292E+02  0.00000000000E+00 0.  1.
         11    1    3    3    0    0 -0.14909376620E+02  0.18314588803E+02  0.13315480416E+02  0.27111172847E+02  0.51100000000E-03 0. -1.
        -11    1    3    3    0    0 -0.51010968807E+01 -0.18456157492E+02  0.42667627700E+01  0.19617752255E+02  0.51100000000E-03 0.  1.
        -12    1    3    3    0    0  0.23070160582E+02 -0.11031326987E+02 -0.28683839369E+01  0.25732277605E+02  0.00000000000E+00 0.  1.
</event>
<event>
 7    1  0.1789107E-013  0.7246151E+02  0.7816164E-02  0.1226708E+00
        -11   -1    0    0    0    0  0.00000000000E+00  0.00000000000E+00  0.45593999997E+02  0.45594000000E+02  0.51100000000E-03 0.  1.
         11   -1    0    0    0    0 -0.00000000000E+00 -0.00000000000E+00 -0.45593999997E+02  0.45594000000E+02  0.51100000000E-03 0. -1.
    9900012    2    1    2    0    0 -0.13801950600E+01 -0.18160694391E+02 -0.43549399293E+01  0.72461514453E+02  0.69999927256E+02 0.  0.
        -12    1    1    2    0    0  0.13801950600E+01  0.18160694391E+02  0.43549399293E+01  0.18726485547E+02  0.00000000000E+00 0.  1.
         11    1    3    3    0    0  0.31587954209E+01  0.19237656235E+02 -0.13129190562E+02  0.23504064563E+02  0.51100000000E-03 0. -1.
        -11    1    3    3    0    0  0.11423215932E+02 -0.14213581955E+02 -0.29371293894E+01  0.18470043410E+02  0.51100000000E-03 0.  1.
         12    1    3    3    0    0 -0.15962206413E+02 -0.23184768670E+02  0.11711380022E+02  0.30487406480E+02  0.00000000000E+00 0. -1.
</event>
<event>
 7    1  0.1789107E-013  0.7246165E+02  0.7816164E-02  0.1226708E+00
        -11   -1    0    0    0    0  0.00000000000E+00  0.00000000000E+00  0.45593999997E+02  0.45594000000E+02  0.51100000000E-03 0.  1.
         11   -1    0    0    0    0 -0.00000000000E+00 -0.00000000000E+00 -0.45593999997E+02  0.45594000000E+02  0.51100000000E-03 0. -1.
    9900012    2    1    2    0    0  0.88642749882E+01 -0.44266647417E+01 -0.15890417285E+02  0.72461652431E+02  0.70000106998E+02 0.  0.
        -12    1    1    2    0    0 -0.88642749882E+01  0.44266647417E+01  0.15890417285E+02  0.18726347569E+02  0.00000000000E+00 0.  1.
         11    1    3    3    0    0  0.14423440451E+02 -0.29488317530E+01 -0.40836842837E+02  0.43409434185E+02  0.51100000000E-03 0. -1.
        -11    1    3    3    0    0  0.25904409701E+01  0.92318466427E+00  0.54748834069E-01  0.27505730384E+01  0.51100000000E-03 0.  1.
        -12    1    3    3    0    0 -0.81496064330E+01 -0.24010176529E+01  0.24891676718E+02  0.26301645207E+02  0.00000000000E+00 0.  1.
</event>
<event>
 7    1  0.1789107E-013  0.7246158E+02  0.7816164E-02  0.1226708E+00
        -11   -1    0    0    0    0  0.00000000000E+00  0.00000000000E+00  0.45593999997E+02  0.45594000000E+02  0.51100000000E-03 0. -1.
         11   -1    0    0    0    0 -0.00000000000E+00 -0.00000000000E+00 -0.45593999997E+02  0.45594000000E+02  0.51100000000E-03 0.  1.
    9900012    2    1    2    0    0  0.17792246987E+02 -0.64135800739E+00 -0.58054509357E+01  0.72461584072E+02  0.70000017948E+02 0.  0.
        -12    1    1    2    0    0 -0.17792246987E+02  0.64135800739E+00  0.58054509357E+01  0.18726415928E+02  0.00000000000E+00 0.  1.
         11    1    3    3    0    0  0.16479928715E+02 -0.79164693540E+01 -0.25363999475E+02  0.31266451783E+02  0.51100000000E-03 0. -1.
        -11    1    3    3    0    0 -0.12256892527E+01 -0.92536671006E+01 -0.56744501580E+01  0.10923921174E+02  0.51100000000E-03 0.  1.
         12    1    3    3    0    0  0.25380075250E+01  0.16528778447E+02  0.25232998697E+02  0.30271211115E+02  0.00000000000E+00 0. -1.
</event>
<event>
 7    1  0.1789107E-013  0.7246157E+02  0.7816164E-02  0.1226708E+00
        -11   -1    0    0    0    0  0.00000000000E+00  0.00000000000E+00  0.45593999997E+02  0.45594000000E+02  0.51100000000E-03 0.  1.
         11   -1    0    0    0    0 -0.00000000000E+00 -0.00000000000E+00 -0.45593999997E+02  0.45594000000E+02  0.51100000000E-03 0. -1.
    9900012    2    1    2    0    0  0.13929850969E+02 -0.12220787818E+01 -0.12455726353E+02  0.72461565648E+02  0.69999993947E+02 0.  0.
        -12    1    1    2    0    0 -0.13929850969E+02  0.12220787818E+01  0.12455726353E+02  0.18726434352E+02  0.00000000000E+00 0.  1.
         11    1    3    3    0    0 -0.38387990985E+01 -0.13570405314E+02  0.13821512297E+01  0.14170484155E+02  0.51100000000E-03 0. -1.
        -11    1    3    3    0    0  0.25734180720E+02 -0.13832150102E+02 -0.82837742770E+01  0.30367702420E+02  0.51100000000E-03 0.  1.
         12    1    3    3    0    0 -0.79655306519E+01  0.26180476634E+02 -0.55541033055E+01  0.27923379073E+02  0.00000000000E+00 0. -1.
</event>
<event>
 7    1  0.1789107E-013  0.7246157E+02  0.7816164E-02  0.1226708E+00
        -11   -1    0    0    0    0  0.00000000000E+00  0.00000000000E+00  0.45593999997E+02  0.45594000000E+02  0.51100000000E-03 0.  1.
         11   -1    0    0    0    0 -0.00000000000E+00 -0.00000000000E+00 -0.45593999997E+02  0.45594000000E+02  0.51100000000E-03 0. -1.
    9900012    2    1    2    0    0 -0.17132910843E+02 -0.67067376345E+01 -0.34874112688E+01  0.72461574794E+02  0.70000005861E+02 0.  0.
        -12    1    1    2    0    0  0.17132910843E+02  0.67067376345E+01  0.34874112688E+01  0.18726425206E+02  0.00000000000E+00 0.  1.
         11    1    3    3    0    0  0.20970948442E+02 -0.83290882131E+00  0.21255656267E+01  0.21094844042E+02  0.51100000000E-03 0. -1.
        -11    1    3    3    0    0 -0.89137012576E+01  0.12962562086E+02 -0.53792592914E+01  0.16625838828E+02  0.51100000000E-03 0.  1.
         12    1    3    3    0    0 -0.29190158027E+02 -0.18836390899E+02 -0.23371760414E+00  0.34740891924E+02  0.00000000000E+00 0. -1.
</event>
<event>
 7    1  0.1789107E-013  0.7246158E+02  0.7816164E-02  0.1226708E+00
        -11   -1    0    0    0    0  0.00000000000E+00  0.00000000000E+00  0.45593999997E+02  0.45594000000E+02  0.51100000000E-03 0.  1.
         11   -1    0    0    0    0 -0.00000000000E+00 -0.00000000000E+00 -0.45593999997E+02  0.45594000000E+02  0.51100000000E-03 0. -1.
    9900012    2    1    2    0    0 -0.12517049193E+02 -0.35155305277E+01 -0.13477508384E+02  0.72461582627E+02  0.70000016066E+02 0.  0.
        -12    1    1    2    0    0  0.12517049193E+02  0.35155305277E+01  0.13477508384E+02  0.18726417373E+02  0.00000000000E+00 0.  1.
         11    1    3    3    0    0 -0.14491690658E+02 -0.19444585080E+02 -0.33518717135E+02  0.41371552856E+02  0.51100000000E-03 0. -1.
        -11    1    3    3    0    0 -0.23678468594E+01 -0.31737542091E+01  0.50760839820E+01  0.64378601556E+01  0.51100000000E-03 0.  1.
        -12    1    3    3    0    0  0.43424883251E+01  0.19102808761E+02  0.14965124769E+02  0.24652169616E+02  0.00000000000E+00 0.  1.
</event>
<event>
 7    1  0.1789107E-013  0.7246166E+02  0.7816164E-02  0.1226708E+00
        -11   -1    0    0    0    0  0.00000000000E+00  0.00000000000E+00  0.45593999997E+02  0.45594000000E+02  0.51100000000E-03 0.  1.
         11   -1    0    0    0    0 -0.00000000000E+00 -0.00000000000E+00 -0.45593999997E+02  0.45594000000E+02  0.51100000000E-03 0. -1.
    9900012    2    1    2    0    0  0.14413151779E+02  0.11940800401E+02  0.59508795369E+00  0.72461660580E+02  0.70000117614E+02 0.  0.
        -12    1    1    2    0    0 -0.14413151779E+02 -0.11940800401E+02 -0.59508795369E+00  0.18726339420E+02  0.00000000000E+00 0.  1.
         11    1    3    3    0    0 -0.12638675504E+01 -0.41103292541E+01  0.81831004262E+01  0.92442036222E+01  0.51100000000E-03 0. -1.
        -11    1    3    3    0    0 -0.24941806715E+01 -0.20146997527E+02  0.48033423896E+01  0.20861316951E+02  0.51100000000E-03 0.  1.
        -12    1    3    3    0    0  0.18171200001E+02  0.36198127182E+02 -0.12391354862E+02  0.42356140006E+02  0.00000000000E+00 0.  1.
</event>
<event>
 7    1  0.1789107E-013  0.7246160E+02  0.7816164E-02  0.1226708E+00
        -11   -1    0    0    0    0  0.00000000000E+00  0.00000000000E+00  0.45593999997E+02  0.45594000000E+02  0.51100000000E-03 0.  1.
         11   -1    0    0    0    0 -0.00000000000E+00 -0.00000000000E+00 -0.45593999997E+02  0.45594000000E+02  0.51100000000E-03 0. -1.
    9900012    2    1    2    0    0 -0.55880182064E+01  0.47414241212E-01 -0.17873156563E+02  0.72461603627E+02  0.70000043422E+02 0.  0.
        -12    1    1    2    0    0  0.55880182064E+01 -0.47414241212E-01  0.17873156563E+02  0.18726396373E+02  0.00000000000E+00 0.  1.
         11    1    3    3    0    0 -0.73555067810E+01 -0.18650506946E+02  0.71374736923E+01  0.21281175257E+02  0.51100000000E-03 0. -1.
        -11    1    3    3    0    0  0.58576732320E+00 -0.99810034274E+00  0.10496002890E+02  0.10559611952E+02  0.51100000000E-03 0.  1.
        -12    1    3    3    0    0  0.11817212514E+01  0.19696021530E+02 -0.35506633145E+02  0.40620816419E+02  0.00000000000E+00 0.  1.
</event>
<event>
 7    1  0.1789107E-013  0.7246155E+02  0.7816164E-02  0.1226708E+00
        -11   -1    0    0    0    0  0.00000000000E+00  0.00000000000E+00  0.45593999997E+02  0.45594000000E+02  0.51100000000E-03 0.  1.
         11   -1    0    0    0    0 -0.00000000000E+00 -0.00000000000E+00 -0.45593999997E+02  0.45594000000E+02  0.51100000000E-03 0. -1.
    9900012    2    1    2    0    0 -0.71576619361E+01  0.63821268492E+01  0.16084654591E+02  0.72461553973E+02  0.69999978738E+02 0.  0.
        -12    1    1    2    0    0  0.71576619361E+01 -0.63821268492E+01 -0.16084654591E+02  0.18726446027E+02  0.00000000000E+00 0.  1.
         11    1    3    3    0    0  0.21425985133E+02 -0.86685084756E+01 -0.11069133504E+02  0.25626970068E+02  0.51100000000E-03 0. -1.
        -11    1    3    3    0    0 -0.81029569411E+00 -0.38850239388E+01  0.57421788701E+01  0.69801582041E+01  0.51100000000E-03 0.  1.
        -12    1    3    3    0    0 -0.27773351375E+02  0.18935659264E+02  0.21411609224E+02  0.39854425700E+02  0.00000000000E+00 0.  1.
</event>
<event>
 7    1  0.1789107E-013  0.7246158E+02  0.7816164E-02  0.1226708E+00
        -11   -1    0    0    0    0  0.00000000000E+00  0.00000000000E+00  0.45593999997E+02  0.45594000000E+02  0.51100000000E-03 0.  1.
         11   -1    0    0    0    0 -0.00000000000E+00 -0.00000000000E+00 -0.45593999997E+02  0.45594000000E+02  0.51100000000E-03 0. -1.
    9900012    2    1    2    0    0 -0.12048594594E+02  0.34007476755E+01 -0.13926419354E+02  0.72461578226E+02  0.70000010332E+02 0.  0.
        -12    1    1    2    0    0  0.12048594594E+02 -0.34007476755E+01  0.13926419354E+02  0.18726421774E+02  0.00000000000E+00 0.  1.
         11    1    3    3    0    0 -0.87550175036E+01  0.24428856188E+02 -0.25257630003E+02  0.36212804638E+02  0.51100000000E-03 0. -1.
        -11    1    3    3    0    0 -0.73389832824E+01  0.44364368666E+01  0.38592138186E+01  0.94040512148E+01  0.51100000000E-03 0.  1.
         12    1    3    3    0    0  0.40454061923E+01 -0.25464545379E+02  0.74719968303E+01  0.26844722372E+02  0.00000000000E+00 0. -1.
</event>
<event>
 7    1  0.1789107E-013  0.7246153E+02  0.7816164E-02  0.1226708E+00
        -11   -1    0    0    0    0  0.00000000000E+00  0.00000000000E+00  0.45593999997E+02  0.45594000000E+02  0.51100000000E-03 0.  1.
         11   -1    0    0    0    0 -0.00000000000E+00 -0.00000000000E+00 -0.45593999997E+02  0.45594000000E+02  0.51100000000E-03 0. -1.
    9900012    2    1    2    0    0  0.13524726117E+02 -0.12936243752E+02 -0.64507060029E+00  0.72461528495E+02  0.69999945548E+02 0.  0.
        -12    1    1    2    0    0 -0.13524726117E+02  0.12936243752E+02  0.64507060029E+00  0.18726471505E+02  0.00000000000E+00 0.  1.
         11    1    3    3    0    0 -0.14780388995E+00  0.63369332743E+00  0.21615803639E+02  0.21625595494E+02  0.51100000000E-03 0. -1.
        -11    1    3    3    0    0 -0.30960155144E+00  0.98108104440E+01  0.60628605866E+01  0.11537163145E+02  0.51100000000E-03 0.  1.
         12    1    3    3    0    0  0.13982131559E+02 -0.23380747523E+02 -0.28323734826E+02  0.39298769856E+02  0.00000000000E+00 0. -1.
</event>
<event>
 7    1  0.1789107E-013  0.7246156E+02  0.7816164E-02  0.1226708E+00
        -11   -1    0    0    0    0  0.00000000000E+00  0.00000000000E+00  0.45593999997E+02  0.45594000000E+02  0.51100000000E-03 0.  1.
         11   -1    0    0    0    0 -0.00000000000E+00 -0.00000000000E+00 -0.45593999997E+02  0.45594000000E+02  0.51100000000E-03 0. -1.
    9900012    2    1    2    0    0  0.98031551221E+01  0.13447106243E+02 -0.85879628527E+01  0.72461558196E+02  0.69999984240E+02 0.  0.
        -12    1    1    2    0    0 -0.98031551221E+01 -0.13447106243E+02  0.85879628527E+01  0.18726441804E+02  0.00000000000E+00 0.  1.
         11    1    3    3    0    0  0.11841012323E+02  0.38921796999E+01 -0.82057880075E+01  0.14922921722E+02  0.51100000000E-03 0. -1.
        -11    1    3    3    0    0  0.11252779637E+02 -0.15009808955E+02 -0.16764533651E+02  0.25158875238E+02  0.51100000000E-03 0.  1.
         12    1    3    3    0    0 -0.13290636838E+02  0.24564735498E+02  0.16382358806E+02  0.32379761236E+02  0.00000000000E+00 0. -1.
</event>
<event>
 7    1  0.1789107E-013  0.7246155E+02  0.7816164E-02  0.1226708E+00
        -11   -1    0    0    0    0  0.00000000000E+00  0.00000000000E+00  0.45593999997E+02  0.45594000000E+02  0.51100000000E-03 0.  1.
         11   -1    0    0    0    0 -0.00000000000E+00 -0.00000000000E+00 -0.45593999997E+02  0.45594000000E+02  0.51100000000E-03 0. -1.
    9900012    2    1    2    0    0 -0.94740656066E+01 -0.15981108907E+02  0.23508003935E+01  0.72461547493E+02  0.69999970296E+02 0.  0.
        -12    1    1    2    0    0  0.94740656066E+01  0.15981108907E+02 -0.23508003935E+01  0.18726452507E+02  0.00000000000E+00 0.  1.
         11    1    3    3    0    0  0.12510110784E+02 -0.24776344594E+02 -0.14293830598E+02  0.31219924995E+02  0.51100000000E-03 0. -1.
        -11    1    3    3    0    0  0.33446419626E+01  0.31847406802E+01 -0.54652977665E+01  0.71553254990E+01  0.51100000000E-03 0.  1.
        -12    1    3    3    0    0 -0.25328818353E+02  0.56104950067E+01  0.22109928758E+02  0.34086296998E+02  0.00000000000E+00 0.  1.
</event>
<event>
 7    1  0.1789107E-013  0.7246156E+02  0.7816164E-02  0.1226708E+00
        -11   -1    0    0    0    0  0.00000000000E+00  0.00000000000E+00  0.45593999997E+02  0.45594000000E+02  0.51100000000E-03 0.  1.
         11   -1    0    0    0    0 -0.00000000000E+00 -0.00000000000E+00 -0.45593999997E+02  0.45594000000E+02  0.51100000000E-03 0. -1.
    9900012    2    1    2    0    0  0.17914095760E+02 -0.19415775804E+01 -0.50985418892E+01  0.72461556670E+02  0.69999982252E+02 0.  0.
        -12    1    1    2    0    0 -0.17914095760E+02  0.19415775804E+01  0.50985418892E+01  0.18726443330E+02  0.00000000000E+00 0.  1.
         11    1    3    3    0    0  0.24672436467E+02 -0.13690670248E+01 -0.25028098069E+02  0.35171140996E+02  0.51100000000E-03 0. -1.
        -11    1    3    3    0    0  0.31409925240E+01 -0.14249449247E+02  0.82706854203E+01  0.16772503554E+02  0.51100000000E-03 0.  1.
        -12    1    3    3    0    0 -0.98993332312E+01  0.13676938692E+02  0.11658870760E+02  0.20517912120E+02  0.00000000000E+00 0.  1.
</event>
<event>
 7    1  0.1789107E-013  0.7246153E+02  0.7816164E-02  0.1226708E+00
        -11   -1    0    0    0    0  0.00000000000E+00  0.00000000000E+00  0.45593999997E+02  0.45594000000E+02  0.51100000000E-03 0. -1.
         11   -1    0    0    0    0 -0.00000000000E+00 -0.00000000000E+00 -0.45593999997E+02  0.45594000000E+02  0.51100000000E-03 0.  1.
    9900012    2    1    2    0    0 -0.30638699141E+01  0.13142407885E+02  0.12983473232E+02  0.72461527801E+02  0.69999944644E+02 0.  0.
        -12    1    1    2    0    0  0.30638699141E+01 -0.13142407885E+02 -0.12983473232E+02  0.18726472199E+02  0.00000000000E+00 0.  1.
         11    1    3    3    0    0 -0.85161837756E+01  0.10204851975E+02 -0.48349076642E+01  0.14143575302E+02  0.51100000000E-03 0. -1.
        -11    1    3    3    0    0 -0.22705824337E+02 -0.82070211430E+01  0.13689264858E+02  0.27754380330E+02  0.51100000000E-03 0.  1.
        -12    1    3    3    0    0  0.28158138198E+02  0.11144577053E+02  0.41291160380E+01  0.30563572169E+02  0.00000000000E+00 0.  1.
</event>
<event>
 7    1  0.1789107E-013  0.7246150E+02  0.7816164E-02  0.1226708E+00
        -11   -1    0    0    0    0  0.00000000000E+00  0.00000000000E+00  0.45593999997E+02  0.45594000000E+02  0.51100000000E-03 0. -1.
         11   -1    0    0    0    0 -0.00000000000E+00 -0.00000000000E+00 -0.45593999997E+02  0.45594000000E+02  0.51100000000E-03 0.  1.
    9900012    2    1    2    0    0 -0.18313381457E+02 -0.29497598562E+01  0.25692189887E+01  0.72461497128E+02  0.69999904687E+02 0.  0.
        -12    1    1    2    0    0  0.18313381457E+02  0.29497598562E+01 -0.25692189887E+01  0.18726502872E+02  0.00000000000E+00 0.  1.
         11    1    3    3    0    0  0.16663711779E+01  0.20167831908E+00  0.26039109487E+01  0.30980347862E+01  0.51100000000E-03 0. -1.
        -11    1    3    3    0    0 -0.83923820166E+00  0.30014281145E+02 -0.59695304018E+01  0.30613668302E+02  0.51100000000E-03 0.  1.
         12    1    3    3    0    0 -0.19140514434E+02 -0.33165719320E+02  0.59348384419E+01  0.38749794040E+02  0.00000000000E+00 0. -1.
</event>
<event>
 7    1  0.1789107E-013  0.7246155E+02  0.7816164E-02  0.1226708E+00
        -11   -1    0    0    0    0  0.00000000000E+00  0.00000000000E+00  0.45593999997E+02  0.45594000000E+02  0.51100000000E-03 0. -1.
         11   -1    0    0    0    0 -0.00000000000E+00 -0.00000000000E+00 -0.45593999997E+02  0.45594000000E+02  0.51100000000E-03 0.  1.
    9900012    2    1    2    0    0  0.12800934340E+02  0.13667300867E+02 -0.14468498602E+00  0.72461549009E+02  0.69999972272E+02 0.  0.
        -12    1    1    2    0    0 -0.12800934340E+02 -0.13667300867E+02  0.14468498602E+00  0.18726450991E+02  0.00000000000E+00 0.  1.
         11    1    3    3    0    0 -0.85080051781E+01 -0.28967811545E+01 -0.10830193528E+00  0.89882825243E+01  0.51100000000E-03 0. -1.
        -11    1    3    3    0    0 -0.17318566717E+02  0.37792244858E+01  0.11562781045E+02  0.21163959851E+02  0.51100000000E-03 0.  1.
         12    1    3    3    0    0  0.38627506235E+02  0.12784857535E+02 -0.11599164095E+02  0.42309306634E+02  0.00000000000E+00 0. -1.
</event>
<event>
 7    1  0.1789107E-013  0.7246159E+02  0.7816164E-02  0.1226708E+00
        -11   -1    0    0    0    0  0.00000000000E+00  0.00000000000E+00  0.45593999997E+02  0.45594000000E+02  0.51100000000E-03 0. -1.
         11   -1    0    0    0    0 -0.00000000000E+00 -0.00000000000E+00 -0.45593999997E+02  0.45594000000E+02  0.51100000000E-03 0.  1.
    9900012    2    1    2    0    0  0.14299118407E+02 -0.11363093304E+02 -0.41344525596E+01  0.72461591518E+02  0.70000027648E+02 0.  0.
        -12    1    1    2    0    0 -0.14299118407E+02  0.11363093304E+02  0.41344525596E+01  0.18726408482E+02  0.00000000000E+00 0.  1.
         11    1    3    3    0    0  0.24835851724E+01 -0.78209770043E+01 -0.18854703876E+02  0.20562969998E+02  0.51100000000E-03 0. -1.
        -11    1    3    3    0    0 -0.47418865756E+01 -0.18146722903E+02 -0.78436629604E+01  0.20330078438E+02  0.51100000000E-03 0.  1.
         12    1    3    3    0    0  0.16557419810E+02  0.14604606603E+02  0.22563914277E+02  0.31568543082E+02  0.00000000000E+00 0. -1.
</event>
<event>
 7    1  0.1789107E-013  0.7246164E+02  0.7816164E-02  0.1226708E+00
        -11   -1    0    0    0    0  0.00000000000E+00  0.00000000000E+00  0.45593999997E+02  0.45594000000E+02  0.51100000000E-03 0. -1.
         11   -1    0    0    0    0 -0.00000000000E+00 -0.00000000000E+00 -0.45593999997E+02  0.45594000000E+02  0.51100000000E-03 0.  1.
    9900012    2    1    2    0    0  0.67354737172E+01  0.31122446450E+01 -0.17193715576E+02  0.72461640817E+02  0.70000091869E+02 0.  0.
        -12    1    1    2    0    0 -0.67354737172E+01 -0.31122446450E+01  0.17193715576E+02  0.18726359183E+02  0.00000000000E+00 0.  1.
         11    1    3    3    0    0 -0.78059589819E+01  0.23670751917E+02  0.50188682126E+01  0.25424919476E+02  0.51100000000E-03 0. -1.
        -11    1    3    3    0    0  0.10180909929E+02  0.52685225274E+01  0.16776395110E+01  0.11585453431E+02  0.51100000000E-03 0.  1.
        -12    1    3    3    0    0  0.43605227696E+01 -0.25827029800E+02 -0.23890223300E+02  0.35451267910E+02  0.00000000000E+00 0.  1.
</event>
<event>
 7    1  0.1789107E-013  0.7246157E+02  0.7816164E-02  0.1226708E+00
        -11   -1    0    0    0    0  0.00000000000E+00  0.00000000000E+00  0.45593999997E+02  0.45594000000E+02  0.51100000000E-03 0.  1.
         11   -1    0    0    0    0 -0.00000000000E+00 -0.00000000000E+00 -0.45593999997E+02  0.45594000000E+02  0.51100000000E-03 0. -1.
    9900012    2    1    2    0    0 -0.98317108682E+01  0.14066647504E+02 -0.74930775593E+01  0.72461566226E+02  0.69999994700E+02 0.  0.
        -12    1    1    2    0    0  0.98317108682E+01 -0.14066647504E+02  0.74930775593E+01  0.18726433774E+02  0.00000000000E+00 0.  1.
         11    1    3    3    0    0 -0.33914262568E+00 -0.39833323151E+01  0.29013993817E+01  0.49396429716E+01  0.51100000000E-03 0. -1.
        -11    1    3    3    0    0  0.15934436765E+02  0.39671898418E+00  0.19023468163E+02  0.24818460914E+02  0.51100000000E-03 0.  1.
         12    1    3    3    0    0 -0.25427005007E+02  0.17653260835E+02 -0.29417945104E+02  0.42703462340E+02  0.00000000000E+00 0. -1.
</event>
<event>
 7    1  0.1789107E-013  0.7246159E+02  0.7816164E-02  0.1226708E+00
        -11   -1    0    0    0    0  0.00000000000E+00  0.00000000000E+00  0.45593999997E+02  0.45594000000E+02  0.51100000000E-03 0.  1.
         11   -1    0    0    0    0 -0.00000000000E+00 -0.00000000000E+00 -0.45593999997E+02  0.45594000000E+02  0.51100000000E-03 0. -1.
    9900012    2    1    2    0    0  0.49799884046E+00  0.88203924229E+01 -0.16511544263E+02  0.72461590325E+02  0.70000026094E+02 0.  0.
        -12    1    1    2    0    0 -0.49799884046E+00 -0.88203924229E+01  0.16511544263E+02  0.18726409675E+02  0.00000000000E+00 0.  1.
         11    1    3    3    0    0 -0.10131142808E+02  0.10921789246E+02 -0.75160461646E+01  0.16685816885E+02  0.51100000000E-03 0. -1.
        -11    1    3    3    0    0 -0.94104487563E+01  0.80479823664E+01 -0.25199916059E+02  0.28077790789E+02  0.51100000000E-03 0.  1.
        -12    1    3    3    0    0  0.20039590405E+02 -0.10149379189E+02  0.16204417960E+02  0.27697982651E+02  0.00000000000E+00 0.  1.
</event>
<event>
 7    1  0.1789107E-013  0.7246158E+02  0.7816164E-02  0.1226708E+00
        -11   -1    0    0    0    0  0.00000000000E+00  0.00000000000E+00  0.45593999997E+02  0.45594000000E+02  0.51100000000E-03 0.  1.
         11   -1    0    0    0    0 -0.00000000000E+00 -0.00000000000E+00 -0.45593999997E+02  0.45594000000E+02  0.51100000000E-03 0. -1.
    9900012    2    1    2    0    0  0.12297789062E+02 -0.22265085158E+01 -0.13945822146E+02  0.72461577188E+02  0.70000008981E+02 0.  0.
        -12    1    1    2    0    0 -0.12297789062E+02  0.22265085158E+01  0.13945822146E+02  0.18726422812E+02  0.00000000000E+00 0.  1.
         11    1    3    3    0    0  0.37317770727E+02 -0.18790060068E+01  0.10948315455E+01  0.37381082541E+02  0.51100000000E-03 0. -1.
        -11    1    3    3    0    0  0.29208458890E+01  0.68337818708E+00  0.57669951534E+00  0.30546569440E+01  0.51100000000E-03 0.  1.
        -12    1    3    3    0    0 -0.27940827553E+02 -0.10308806961E+01 -0.15617353207E+02  0.32025837703E+02  0.00000000000E+00 0.  1.
</event>
<event>
 7    1  0.1789107E-013  0.7246158E+02  0.7816164E-02  0.1226708E+00
        -11   -1    0    0    0    0  0.00000000000E+00  0.00000000000E+00  0.45593999997E+02  0.45594000000E+02  0.51100000000E-03 0.  1.
         11   -1    0    0    0    0 -0.00000000000E+00 -0.00000000000E+00 -0.45593999997E+02  0.45594000000E+02  0.51100000000E-03 0. -1.
    9900012    2    1    2    0    0  0.57079814300E+01  0.16899621545E+02 -0.57009373949E+01  0.72461576221E+02  0.70000007720E+02 0.  0.
        -12    1    1    2    0    0 -0.57079814300E+01 -0.16899621545E+02  0.57009373949E+01  0.18726423779E+02  0.00000000000E+00 0.  1.
         11    1    3    3    0    0 -0.20213909055E+02  0.18124221823E+02  0.50238011161E+01  0.27610290000E+02  0.51100000000E-03 0. -1.
        -11    1    3    3    0    0 -0.75785811568E+01  0.38292013881E+01 -0.65329838340E+01  0.10713428660E+02  0.51100000000E-03 0.  1.
        -12    1    3    3    0    0  0.33500471642E+02 -0.50538016656E+01 -0.41917546770E+01  0.34137857560E+02  0.00000000000E+00 0.  1.
</event>
<event>
 7    1  0.1789107E-013  0.7246154E+02  0.7816164E-02  0.1226708E+00
        -11   -1    0    0    0    0  0.00000000000E+00  0.00000000000E+00  0.45593999997E+02  0.45594000000E+02  0.51100000000E-03 0. -1.
         11   -1    0    0    0    0 -0.00000000000E+00 -0.00000000000E+00 -0.45593999997E+02  0.45594000000E+02  0.51100000000E-03 0.  1.
    9900012    2    1    2    0    0 -0.83926910178E+00  0.76646503773E+01  0.17065439058E+02  0.72461536152E+02  0.69999955523E+02 0.  0.
        -12    1    1    2    0    0  0.83926910178E+00 -0.76646503773E+01 -0.17065439058E+02  0.18726463848E+02  0.00000000000E+00 0.  1.
         11    1    3    3    0    0  0.83881963772E+01 -0.11510286462E+02  0.28672715809E+01  0.14528240757E+02  0.51100000000E-03 0. -1.
        -11    1    3    3    0    0  0.14441521093E+02  0.25178277515E+02 -0.12252675680E+01  0.29051755041E+02  0.51100000000E-03 0.  1.
         12    1    3    3    0    0 -0.23668986572E+02 -0.60033406752E+01  0.15423435045E+02  0.28881540354E+02  0.00000000000E+00 0. -1.
</event>
<event>
 7    1  0.1789107E-013  0.7246160E+02  0.7816164E-02  0.1226708E+00
        -11   -1    0    0    0    0  0.00000000000E+00  0.00000000000E+00  0.45593999997E+02  0.45594000000E+02  0.51100000000E-03 0. -1.
         11   -1    0    0    0    0 -0.00000000000E+00 -0.00000000000E+00 -0.45593999997E+02  0.45594000000E+02  0.51100000000E-03 0.  1.
    9900012    2    1    2    0    0  0.12790707042E+02 -0.10987749521E+02  0.81452492378E+01  0.72461603889E+02  0.70000043763E+02 0.  0.
        -12    1    1    2    0    0 -0.12790707042E+02  0.10987749521E+02 -0.81452492378E+01  0.18726396111E+02  0.00000000000E+00 0.  1.
         11    1    3    3    0    0  0.83578610591E+01 -0.13703582111E+01  0.25864125828E+02  0.27215523663E+02  0.51100000000E-03 0. -1.
        -11    1    3    3    0    0 -0.21429422551E+01  0.13187973563E+02  0.30534201685E+01  0.13705408538E+02  0.51100000000E-03 0.  1.
         12    1    3    3    0    0  0.65757882377E+01 -0.22805364873E+02 -0.20772296759E+02  0.31540671689E+02  0.00000000000E+00 0. -1.
</event>
<event>
 7    1  0.1789107E-013  0.7246161E+02  0.7816164E-02  0.1226708E+00
        -11   -1    0    0    0    0  0.00000000000E+00  0.00000000000E+00  0.45593999997E+02  0.45594000000E+02  0.51100000000E-03 0.  1.
         11   -1    0    0    0    0 -0.00000000000E+00 -0.00000000000E+00 -0.45593999997E+02  0.45594000000E+02  0.51100000000E-03 0. -1.
    9900012    2    1    2    0    0 -0.12726381059E+02  0.12939362047E+02 -0.46141056928E+01  0.72461605889E+02  0.70000046369E+02 0.  0.
        -12    1    1    2    0    0  0.12726381059E+02 -0.12939362047E+02  0.46141056928E+01  0.18726394111E+02  0.00000000000E+00 0.  1.
         11    1    3    3    0    0  0.73873241513E+01 -0.76780040799E+01 -0.45773779477E+01  0.11596408664E+02  0.51100000000E-03 0. -1.
        -11    1    3    3    0    0  0.10396639046E+02 -0.65722095108E+01  0.13069970864E+02  0.17947372508E+02  0.51100000000E-03 0.  1.
         12    1    3    3    0    0 -0.30510344256E+02  0.27189575638E+02 -0.13106698609E+02  0.42917824717E+02  0.00000000000E+00 0. -1.
</event>
<event>
 7    1  0.1789107E-013  0.7246157E+02  0.7816164E-02  0.1226708E+00
        -11   -1    0    0    0    0  0.00000000000E+00  0.00000000000E+00  0.45593999997E+02  0.45594000000E+02  0.51100000000E-03 0.  1.
         11   -1    0    0    0    0 -0.00000000000E+00 -0.00000000000E+00 -0.45593999997E+02  0.45594000000E+02  0.51100000000E-03 0. -1.
    9900012    2    1    2    0    0  0.12343645096E+02  0.13970289049E+02  0.17733137732E+01  0.72461569691E+02  0.69999999214E+02 0.  0.
        -12    1    1    2    0    0 -0.12343645096E+02 -0.13970289049E+02 -0.17733137732E+01  0.18726430309E+02  0.00000000000E+00 0.  1.
         11    1    3    3    0    0  0.36751912957E+01  0.14661127116E+02  0.12611038014E+01  0.15167269445E+02  0.51100000000E-03 0. -1.
        -11    1    3    3    0    0 -0.17314746638E+02  0.28425433403E+01  0.18498227505E+02  0.25496370818E+02  0.51100000000E-03 0.  1.
         12    1    3    3    0    0  0.25983200439E+02 -0.35333814066E+01 -0.17986017533E+02  0.31797929428E+02  0.00000000000E+00 0. -1.
</event>
<event>
 7    1  0.1789107E-013  0.7246162E+02  0.7816164E-02  0.1226708E+00
        -11   -1    0    0    0    0  0.00000000000E+00  0.00000000000E+00  0.45593999997E+02  0.45594000000E+02  0.51100000000E-03 0.  1.
         11   -1    0    0    0    0 -0.00000000000E+00 -0.00000000000E+00 -0.45593999997E+02  0.45594000000E+02  0.51100000000E-03 0. -1.
    9900012    2    1    2    0    0  0.52614775822E+01  0.17538758960E+02  0.39225235380E+01  0.72461617458E+02  0.70000061440E+02 0.  0.
        -12    1    1    2    0    0 -0.52614775822E+01 -0.17538758960E+02 -0.39225235380E+01  0.18726382542E+02  0.00000000000E+00 0.  1.
         11    1    3    3    0    0  0.12477587036E+02  0.24548950473E+02 -0.25583951394E+02  0.37588292283E+02  0.51100000000E-03 0. -1.
        -11    1    3    3    0    0 -0.31162778059E+01 -0.77776170793E+01  0.44791418019E+01  0.95008013525E+01  0.51100000000E-03 0.  1.
        -12    1    3    3    0    0 -0.40998316479E+01  0.76742556587E+00  0.25027333130E+02  0.25372523823E+02  0.00000000000E+00 0.  1.
</event>
<event>
 7    1  0.1789107E-013  0.7246154E+02  0.7816164E-02  0.1226708E+00
        -11   -1    0    0    0    0  0.00000000000E+00  0.00000000000E+00  0.45593999997E+02  0.45594000000E+02  0.51100000000E-03 0. -1.
         11   -1    0    0    0    0 -0.00000000000E+00 -0.00000000000E+00 -0.45593999997E+02  0.45594000000E+02  0.51100000000E-03 0.  1.
    9900012    2    1    2    0    0  0.12576317359E+02 -0.55552488498E+01 -0.12714391797E+02  0.72461539927E+02  0.69999960441E+02 0.  0.
        -12    1    1    2    0    0 -0.12576317359E+02  0.55552488498E+01  0.12714391797E+02  0.18726460073E+02  0.00000000000E+00 0.  1.
         11    1    3    3    0    0 -0.16595398856E+02  0.41315055915E+01 -0.14928515124E+02  0.22701038869E+02  0.51100000000E-03 0. -1.
        -11    1    3    3    0    0  0.93734027474E+01 -0.20258762942E+02 -0.97132700559E+01  0.24343906228E+02  0.51100000000E-03 0.  1.
         12    1    3    3    0    0  0.19798313467E+02  0.10572008501E+02  0.11927393383E+02  0.25416594830E+02  0.00000000000E+00 0. -1.
</event>
<event>
 7    1  0.1789107E-013  0.7246154E+02  0.7816164E-02  0.1226708E+00
        -11   -1    0    0    0    0  0.00000000000E+00  0.00000000000E+00  0.45593999997E+02  0.45594000000E+02  0.51100000000E-03 0.  1.
         11   -1    0    0    0    0 -0.00000000000E+00 -0.00000000000E+00 -0.45593999997E+02  0.45594000000E+02  0.51100000000E-03 0. -1.
    9900012    2    1    2    0    0 -0.65890748359E+01 -0.12383989004E+02 -0.12405698563E+02  0.72461536167E+02  0.69999955543E+02 0.  0.
        -12    1    1    2    0    0  0.65890748359E+01  0.12383989004E+02  0.12405698563E+02  0.18726463833E+02  0.00000000000E+00 0.  1.
         11    1    3    3    0    0 -0.15712449997E+02 -0.25406618661E+00 -0.21969457022E+01  0.15867331383E+02  0.51100000000E-03 0. -1.
        -11    1    3    3    0    0 -0.11024958468E+02 -0.17249776215E+01  0.17521112739E+02  0.20772930676E+02  0.51100000000E-03 0.  1.
         12    1    3    3    0    0  0.20148333629E+02 -0.10404945196E+02 -0.27729865600E+02  0.35821274108E+02  0.00000000000E+00 0. -1.
</event>
<event>
 7    1  0.1789107E-013  0.7246156E+02  0.7816164E-02  0.1226708E+00
        -11   -1    0    0    0    0  0.00000000000E+00  0.00000000000E+00  0.45593999997E+02  0.45594000000E+02  0.51100000000E-03 0.  1.
         11   -1    0    0    0    0 -0.00000000000E+00 -0.00000000000E+00 -0.45593999997E+02  0.45594000000E+02  0.51100000000E-03 0. -1.
    9900012    2    1    2    0    0  0.10385678108E+02 -0.14448718223E+02  0.58353755672E+01  0.72461564779E+02  0.69999992816E+02 0.  0.
        -12    1    1    2    0    0 -0.10385678108E+02  0.14448718223E+02 -0.58353755672E+01  0.18726435221E+02  0.00000000000E+00 0.  1.
         11    1    3    3    0    0 -0.22969926814E+02  0.10613986781E+01 -0.81026326733E+01  0.24380253516E+02  0.51100000000E-03 0. -1.
        -11    1    3    3    0    0  0.29847068462E+01 -0.12642250183E+02 -0.27955728751E+01  0.13287219145E+02  0.51100000000E-03 0.  1.
        -12    1    3    3    0    0  0.30370898076E+02 -0.28678667188E+01  0.16733581115E+02  0.34794092119E+02  0.00000000000E+00 0.  1.
</event>
<event>
 7    1  0.1789107E-013  0.7246157E+02  0.7816164E-02  0.1226708E+00
        -11   -1    0    0    0    0  0.00000000000E+00  0.00000000000E+00  0.45593999997E+02  0.45594000000E+02  0.51100000000E-03 0. -1.
         11   -1    0    0    0    0 -0.00000000000E+00 -0.00000000000E+00 -0.45593999997E+02  0.45594000000E+02  0.51100000000E-03 0.  1.
    9900012    2    1    2    0    0  0.14085346492E+02  0.10163153965E+02  0.69994657744E+01  0.72461569335E+02  0.69999998750E+02 0.  0.
        -12    1    1    2    0    0 -0.14085346492E+02 -0.10163153965E+02 -0.69994657744E+01  0.18726430665E+02  0.00000000000E+00 0.  1.
         11    1    3    3    0    0 -0.88469634217E+01 -0.11697147089E+02 -0.79530169642E+01  0.16683599459E+02  0.51100000000E-03 0. -1.
        -11    1    3    3    0    0 -0.10747940663E+02  0.94061462137E+01 -0.44531616065E+01  0.14960764140E+02  0.51100000000E-03 0.  1.
        -12    1    3    3    0    0  0.33680250577E+02  0.12454154840E+02  0.19405644345E+02  0.40817205737E+02  0.00000000000E+00 0.  1.
</event>
<event>
 7    1  0.1789107E-013  0.7246161E+02  0.7816164E-02  0.1226708E+00
        -11   -1    0    0    0    0  0.00000000000E+00  0.00000000000E+00  0.45593999997E+02  0.45594000000E+02  0.51100000000E-03 0. -1.
         11   -1    0    0    0    0 -0.00000000000E+00 -0.00000000000E+00 -0.45593999997E+02  0.45594000000E+02  0.51100000000E-03 0.  1.
    9900012    2    1    2    0    0  0.38213820855E+01 -0.15233361089E+02  0.10198992698E+02  0.72461609447E+02  0.70000051004E+02 0.  0.
        -12    1    1    2    0    0 -0.38213820855E+01  0.15233361089E+02 -0.10198992698E+02  0.18726390553E+02  0.00000000000E+00 0.  1.
         11    1    3    3    0    0 -0.61532909448E+01 -0.13997414452E+02 -0.35550497854E+00  0.15294344865E+02  0.51100000000E-03 0. -1.
        -11    1    3    3    0    0 -0.10411393801E+02 -0.93414419790E+01 -0.16955569841E+02  0.21980696259E+02  0.51100000000E-03 0.  1.
         12    1    3    3    0    0  0.20386066831E+02  0.81054953424E+01  0.27510067517E+02  0.35186568323E+02  0.00000000000E+00 0. -1.
</event>
<event>
 7    1  0.1789107E-013  0.7246166E+02  0.7816164E-02  0.1226708E+00
        -11   -1    0    0    0    0  0.00000000000E+00  0.00000000000E+00  0.45593999997E+02  0.45594000000E+02  0.51100000000E-03 0. -1.
         11   -1    0    0    0    0 -0.00000000000E+00 -0.00000000000E+00 -0.45593999997E+02  0.45594000000E+02  0.51100000000E-03 0.  1.
    9900012    2    1    2    0    0  0.10155946642E+02  0.54826737436E+01  0.14746963504E+02  0.72461657694E+02  0.70000113854E+02 0.  0.
        -12    1    1    2    0    0 -0.10155946642E+02 -0.54826737436E+01 -0.14746963504E+02  0.18726342306E+02  0.00000000000E+00 0.  1.
         11    1    3    3    0    0  0.94900289160E+01  0.23829892429E+02 -0.66615354738E+01  0.26500952382E+02  0.51100000000E-03 0. -1.
        -11    1    3    3    0    0  0.56439691092E+01  0.10198423347E+02  0.70451143600E+01  0.13619686585E+02  0.51100000000E-03 0.  1.
        -12    1    3    3    0    0 -0.49780513832E+01 -0.28545642033E+02  0.14363384618E+02  0.32341018727E+02  0.00000000000E+00 0.  1.
</event>
<event>
 7    1  0.1789107E-013  0.7246166E+02  0.7816164E-02  0.1226708E+00
        -11   -1    0    0    0    0  0.00000000000E+00  0.00000000000E+00  0.45593999997E+02  0.45594000000E+02  0.51100000000E-03 0.  1.
         11   -1    0    0    0    0 -0.00000000000E+00 -0.00000000000E+00 -0.45593999997E+02  0.45594000000E+02  0.51100000000E-03 0. -1.
    9900012    2    1    2    0    0 -0.28450078490E+01  0.16725759637E+02 -0.79265720009E+01  0.72461664299E+02  0.70000122459E+02 0.  0.
        -12    1    1    2    0    0  0.28450078490E+01 -0.16725759637E+02  0.79265720009E+01  0.18726335701E+02  0.00000000000E+00 0.  1.
         11    1    3    3    0    0  0.13066787089E+02  0.26199146762E+02  0.64736056759E+01  0.29984058875E+02  0.51100000000E-03 0. -1.
        -11    1    3    3    0    0  0.39915172026E+01 -0.31787220046E+01  0.94761199849E+01  0.10762589530E+02  0.51100000000E-03 0.  1.
        -12    1    3    3    0    0 -0.19903312141E+02 -0.62946651203E+01 -0.23876297662E+02  0.31715015894E+02  0.00000000000E+00 0.  1.
</event>
<event>
 7    1  0.1789107E-013  0.7246161E+02  0.7816164E-02  0.1226708E+00
        -11   -1    0    0    0    0  0.00000000000E+00  0.00000000000E+00  0.45593999997E+02  0.45594000000E+02  0.51100000000E-03 0. -1.
         11   -1    0    0    0    0 -0.00000000000E+00 -0.00000000000E+00 -0.45593999997E+02  0.45594000000E+02  0.51100000000E-03 0.  1.
    9900012    2    1    2    0    0 -0.31311133498E+01  0.17969140109E+02  0.42407431089E+01  0.72461607683E+02  0.70000048706E+02 0.  0.
        -12    1    1    2    0    0  0.31311133498E+01 -0.17969140109E+02 -0.42407431089E+01  0.18726392317E+02  0.00000000000E+00 0.  1.
         11    1    3    3    0    0  0.10504710572E+02  0.13989385867E+02 -0.63904861215E+01  0.18624987899E+02  0.51100000000E-03 0.  1.
        -11    1    3    3    0    0 -0.25518604723E+02  0.15720157322E+02 -0.56617795288E+01  0.30502102894E+02  0.51100000000E-03 0. -1.
         12    1    3    3    0    0  0.11882780802E+02 -0.11740403080E+02  0.16293008759E+02  0.23334516890E+02  0.00000000000E+00 0. -1.
</event>
<event>
 7    1  0.1789107E-013  0.7246157E+02  0.7816164E-02  0.1226708E+00
        -11   -1    0    0    0    0  0.00000000000E+00  0.00000000000E+00  0.45593999997E+02  0.45594000000E+02  0.51100000000E-03 0.  1.
         11   -1    0    0    0    0 -0.00000000000E+00 -0.00000000000E+00 -0.45593999997E+02  0.45594000000E+02  0.51100000000E-03 0. -1.
    9900012    2    1    2    0    0  0.11407243227E+02 -0.94252204669E+01  0.11476904690E+02  0.72461566273E+02  0.69999994761E+02 0.  0.
        -12    1    1    2    0    0 -0.11407243227E+02  0.94252204669E+01 -0.11476904690E+02  0.18726433727E+02  0.00000000000E+00 0.  1.
         11    1    3    3    0    0  0.13247945913E+02  0.13031784151E+02  0.22297362244E+02  0.29025985468E+02  0.51100000000E-03 0. -1.
        -11    1    3    3    0    0 -0.71523518946E+00  0.21587869741E+01  0.10565778132E+02  0.10807756029E+02  0.51100000000E-03 0.  1.
         12    1    3    3    0    0 -0.11254674971E+01 -0.24615791592E+02 -0.21386235687E+02  0.32627824776E+02  0.00000000000E+00 0. -1.
</event>
<event>
 7    1  0.1789107E-013  0.7246156E+02  0.7816164E-02  0.1226708E+00
        -11   -1    0    0    0    0  0.00000000000E+00  0.00000000000E+00  0.45593999997E+02  0.45594000000E+02  0.51100000000E-03 0.  1.
         11   -1    0    0    0    0 -0.00000000000E+00 -0.00000000000E+00 -0.45593999997E+02  0.45594000000E+02  0.51100000000E-03 0. -1.
    9900012    2    1    2    0    0 -0.11423461986E+02  0.14635710448E+02  0.24454346833E+01  0.72461557336E+02  0.69999983119E+02 0.  0.
        -12    1    1    2    0    0  0.11423461986E+02 -0.14635710448E+02 -0.24454346833E+01  0.18726442664E+02  0.00000000000E+00 0.  1.
         11    1    3    3    0    0 -0.15217457256E+02  0.12002565967E+02  0.63485351774E+01  0.20394521183E+02  0.51100000000E-03 0. -1.
        -11    1    3    3    0    0 -0.10406670319E+02  0.15246671209E+02  0.16091774650E+02  0.24488874653E+02  0.51100000000E-03 0.  1.
         12    1    3    3    0    0  0.14200665589E+02 -0.12613526728E+02 -0.19994875144E+02  0.27578161500E+02  0.00000000000E+00 0. -1.
</event>
<event>
 7    1  0.1789107E-013  0.7246150E+02  0.7816164E-02  0.1226708E+00
        -11   -1    0    0    0    0  0.00000000000E+00  0.00000000000E+00  0.45593999997E+02  0.45594000000E+02  0.51100000000E-03 0.  1.
         11   -1    0    0    0    0 -0.00000000000E+00 -0.00000000000E+00 -0.45593999997E+02  0.45594000000E+02  0.51100000000E-03 0. -1.
    9900012    2    1    2    0    0 -0.56454639133E+01 -0.35893324650E+01 -0.17490773411E+02  0.72461502067E+02  0.69999911121E+02 0.  0.
        -12    1    1    2    0    0  0.56454639133E+01  0.35893324650E+01  0.17490773411E+02  0.18726497933E+02  0.00000000000E+00 0.  1.
         11    1    3    3    0    0 -0.24399273251E+02  0.13882527851E+02 -0.34638338759E+01  0.28285106683E+02  0.51100000000E-03 0. -1.
        -11    1    3    3    0    0 -0.78521742900E+00  0.82074111571E+01  0.14790097387E+01  0.83764929642E+01  0.51100000000E-03 0.  1.
        -12    1    3    3    0    0  0.19539026766E+02 -0.25679271473E+02 -0.15505949273E+02  0.35799902419E+02  0.00000000000E+00 0.  1.
</event>
<event>
 7    1  0.1789107E-013  0.7246150E+02  0.7816164E-02  0.1226708E+00
        -11   -1    0    0    0    0  0.00000000000E+00  0.00000000000E+00  0.45593999997E+02  0.45594000000E+02  0.51100000000E-03 0.  1.
         11   -1    0    0    0    0 -0.00000000000E+00 -0.00000000000E+00 -0.45593999997E+02  0.45594000000E+02  0.51100000000E-03 0. -1.
    9900012    2    1    2    0    0 -0.59314130975E+01 -0.44700964827E+01 -0.17190645410E+02  0.72461502370E+02  0.69999911515E+02 0.  0.
        -12    1    1    2    0    0  0.59314130975E+01  0.44700964827E+01  0.17190645410E+02  0.18726497630E+02  0.00000000000E+00 0.  1.
         11    1    3    3    0    0  0.23473968166E+01 -0.24617544413E+02  0.10866350197E+02  0.27011318583E+02  0.51100000000E-03 0. -1.
        -11    1    3    3    0    0  0.63217574822E+01 -0.34063041251E+01 -0.10231913710E+02  0.12500383349E+02  0.51100000000E-03 0.  1.
        -12    1    3    3    0    0 -0.14600567396E+02  0.23553752056E+02 -0.17825081897E+02  0.32949800437E+02  0.00000000000E+00 0.  1.
</event>
<event>
 7    1  0.1789107E-013  0.7246128E+02  0.7816164E-02  0.1226709E+00
        -11   -1    0    0    0    0  0.00000000000E+00  0.00000000000E+00  0.45593999997E+02  0.45594000000E+02  0.51100000000E-03 0. -1.
         11   -1    0    0    0    0 -0.00000000000E+00 -0.00000000000E+00 -0.45593999997E+02  0.45594000000E+02  0.51100000000E-03 0.  1.
    9900012    2    1    2    0    0  0.12620652722E+02  0.12983187256E+02  0.47797356822E+01  0.72461283800E+02  0.69999626787E+02 0.  0.
        -12    1    1    2    0    0 -0.12620652722E+02 -0.12983187256E+02 -0.47797356822E+01  0.18726716200E+02  0.00000000000E+00 0.  1.
         11    1    3    3    0    0  0.92651492849E+01  0.40676783033E+01 -0.39449201485E+01  0.10860542956E+02  0.51100000000E-03 0. -1.
        -11    1    3    3    0    0 -0.21910306643E+01 -0.97213463962E+01 -0.22618214404E+02  0.24716165039E+02  0.51100000000E-03 0.  1.
         12    1    3    3    0    0  0.55465341011E+01  0.18636855349E+02  0.31342870235E+02  0.36884575806E+02  0.00000000000E+00 0. -1.
</event>
<event>
 7    1  0.1789107E-013  0.7246162E+02  0.7816164E-02  0.1226708E+00
        -11   -1    0    0    0    0  0.00000000000E+00  0.00000000000E+00  0.45593999997E+02  0.45594000000E+02  0.51100000000E-03 0. -1.
         11   -1    0    0    0    0 -0.00000000000E+00 -0.00000000000E+00 -0.45593999997E+02  0.45594000000E+02  0.51100000000E-03 0.  1.
    9900012    2    1    2    0    0  0.11934485979E+02 -0.48918293262E+01  0.13576285167E+02  0.72461615707E+02  0.70000059159E+02 0.  0.
        -12    1    1    2    0    0 -0.11934485979E+02  0.48918293262E+01 -0.13576285167E+02  0.18726384293E+02  0.00000000000E+00 0.  1.
         11    1    3    3    0    0  0.14156896150E+02 -0.31723388683E+02  0.12845413077E+02  0.37037760941E+02  0.51100000000E-03 0. -1.
        -11    1    3    3    0    0  0.44990681745E+01  0.50443780859E+01 -0.84704531698E+01  0.10836786511E+02  0.51100000000E-03 0.  1.
        -12    1    3    3    0    0 -0.67214783451E+01  0.21787181271E+02  0.92013252596E+01  0.24587068256E+02  0.00000000000E+00 0.  1.
</event>
<event>
 7    1  0.1789107E-013  0.7246138E+02  0.7816164E-02  0.1226709E+00
        -11   -1    0    0    0    0  0.00000000000E+00  0.00000000000E+00  0.45593999997E+02  0.45594000000E+02  0.51100000000E-03 0.  1.
         11   -1    0    0    0    0 -0.00000000000E+00 -0.00000000000E+00 -0.45593999997E+02  0.45594000000E+02  0.51100000000E-03 0. -1.
    9900012    2    1    2    0    0  0.40407039012E+01 -0.18261730466E+02  0.93168131834E+00  0.72461384777E+02  0.69999758329E+02 0.  0.
        -12    1    1    2    0    0 -0.40407039012E+01  0.18261730466E+02 -0.93168131834E+00  0.18726615223E+02  0.00000000000E+00 0.  1.
         11    1    3    3    0    0 -0.21542394125E+02 -0.12579433450E+02 -0.20625712916E+02  0.32368764637E+02  0.51100000000E-03 0. -1.
        -11    1    3    3    0    0  0.79920496186E+00 -0.80763075266E+01  0.18148384352E+01  0.83161956833E+01  0.51100000000E-03 0.  1.
        -12    1    3    3    0    0  0.24783893065E+02  0.23940105105E+01  0.19742555799E+02  0.31776424457E+02  0.00000000000E+00 0.  1.
</event>
<event>
 7    1  0.1789107E-013  0.7246156E+02  0.7816164E-02  0.1226708E+00
        -11   -1    0    0    0    0  0.00000000000E+00  0.00000000000E+00  0.45593999997E+02  0.45594000000E+02  0.51100000000E-03 0.  1.
         11   -1    0    0    0    0 -0.00000000000E+00 -0.00000000000E+00 -0.45593999997E+02  0.45594000000E+02  0.51100000000E-03 0. -1.
    9900012    2    1    2    0    0  0.72977910876E+01 -0.17225243370E+02  0.84436510099E+00  0.72461555694E+02  0.69999980981E+02 0.  0.
        -12    1    1    2    0    0 -0.72977910876E+01  0.17225243370E+02 -0.84436510099E+00  0.18726444306E+02  0.00000000000E+00 0.  1.
         11    1    3    3    0    0  0.58325016065E+01  0.22522628154E+01 -0.12218340625E+02  0.13725108767E+02  0.51100000000E-03 0. -1.
        -11    1    3    3    0    0 -0.22965719550E+02 -0.93145385314E+01 -0.67440064281E+01  0.25683974098E+02  0.51100000000E-03 0.  1.
         12    1    3    3    0    0  0.24431009031E+02 -0.10162967654E+02  0.19806712154E+02  0.33052472830E+02  0.00000000000E+00 0. -1.
</event>
<event>
 7    1  0.1789107E-013  0.7246153E+02  0.7816164E-02  0.1226708E+00
        -11   -1    0    0    0    0  0.00000000000E+00  0.00000000000E+00  0.45593999997E+02  0.45594000000E+02  0.51100000000E-03 0. -1.
         11   -1    0    0    0    0 -0.00000000000E+00 -0.00000000000E+00 -0.45593999997E+02  0.45594000000E+02  0.51100000000E-03 0.  1.
    9900012    2    1    2    0    0 -0.50489403577E+01 -0.53991252316E+01  0.17205766210E+02  0.72461528285E+02  0.69999945275E+02 0.  0.
        -12    1    1    2    0    0  0.50489403577E+01  0.53991252316E+01 -0.17205766210E+02  0.18726471715E+02  0.00000000000E+00 0.  1.
         11    1    3    3    0    0  0.15427036220E+02  0.11488208254E+02  0.69544978993E+01  0.20453298431E+02  0.51100000000E-03 0. -1.
        -11    1    3    3    0    0  0.10560838385E+02  0.54665922867E+01  0.65610277280E+01  0.13581679709E+02  0.51100000000E-03 0.  1.
         12    1    3    3    0    0 -0.31036814963E+02 -0.22353925772E+02  0.36902405828E+01  0.38426550145E+02  0.00000000000E+00 0. -1.
</event>
<event>
 7    1  0.1789107E-013  0.7246154E+02  0.7816164E-02  0.1226708E+00
        -11   -1    0    0    0    0  0.00000000000E+00  0.00000000000E+00  0.45593999997E+02  0.45594000000E+02  0.51100000000E-03 0. -1.
         11   -1    0    0    0    0 -0.00000000000E+00 -0.00000000000E+00 -0.45593999997E+02  0.45594000000E+02  0.51100000000E-03 0.  1.
    9900012    2    1    2    0    0 -0.93178253231E+01 -0.11179858733E+02  0.11784271592E+02  0.72461543661E+02  0.69999965306E+02 0.  0.
        -12    1    1    2    0    0  0.93178253231E+01  0.11179858733E+02 -0.11784271592E+02  0.18726456339E+02  0.00000000000E+00 0.  1.
         11    1    3    3    0    0 -0.22383988827E+02  0.55699880825E+01 -0.59442638567E+01  0.23820201428E+02  0.51100000000E-03 0. -1.
        -11    1    3    3    0    0  0.59395303071E+01 -0.10365648979E+02 -0.12287101594E+02  0.17137606743E+02  0.51100000000E-03 0.  1.
         12    1    3    3    0    0  0.71266331964E+01 -0.63841978372E+01  0.30015637043E+02  0.31503735490E+02  0.00000000000E+00 0. -1.
</event>
<event>
 7    1  0.1789107E-013  0.7246158E+02  0.7816164E-02  0.1226708E+00
        -11   -1    0    0    0    0  0.00000000000E+00  0.00000000000E+00  0.45593999997E+02  0.45594000000E+02  0.51100000000E-03 0.  1.
         11   -1    0    0    0    0 -0.00000000000E+00 -0.00000000000E+00 -0.45593999997E+02  0.45594000000E+02  0.51100000000E-03 0. -1.
    9900012    2    1    2    0    0  0.65519133190E+01  0.10802630323E+02 -0.13822248379E+02  0.72461576415E+02  0.70000007973E+02 0.  0.
        -12    1    1    2    0    0 -0.65519133190E+01 -0.10802630323E+02  0.13822248379E+02  0.18726423585E+02  0.00000000000E+00 0.  1.
         11    1    3    3    0    0 -0.16184159808E+01  0.50976204850E+01  0.41007009216E+01  0.67394920584E+01  0.51100000000E-03 0. -1.
        -11    1    3    3    0    0  0.58191365075E+01 -0.26937325532E+02  0.16162828043E+01  0.27606054170E+02  0.51100000000E-03 0.  1.
         12    1    3    3    0    0  0.23511927923E+01  0.32642335369E+02 -0.19539232105E+02  0.38116030186E+02  0.00000000000E+00 0. -1.
</event>
<event>
 7    1  0.1789107E-013  0.7246161E+02  0.7816164E-02  0.1226708E+00
        -11   -1    0    0    0    0  0.00000000000E+00  0.00000000000E+00  0.45593999997E+02  0.45594000000E+02  0.51100000000E-03 0. -1.
         11   -1    0    0    0    0 -0.00000000000E+00 -0.00000000000E+00 -0.45593999997E+02  0.45594000000E+02  0.51100000000E-03 0.  1.
    9900012    2    1    2    0    0 -0.10727087276E+02 -0.10233412175E+02  0.11440483089E+02  0.72461607409E+02  0.70000048349E+02 0.  0.
        -12    1    1    2    0    0  0.10727087276E+02  0.10233412175E+02 -0.11440483089E+02  0.18726392591E+02  0.00000000000E+00 0.  1.
         11    1    3    3    0    0  0.16063534703E+02  0.17659162717E+01 -0.12512443797E+00  0.16160794035E+02  0.51100000000E-03 0. -1.
        -11    1    3    3    0    0  0.29430457513E+01  0.14676077577E+02  0.11102598318E+01  0.15009378685E+02  0.51100000000E-03 0.  1.
        -12    1    3    3    0    0 -0.29733667730E+02 -0.26675406024E+02  0.10455347695E+02  0.41291434689E+02  0.00000000000E+00 0.  1.
</event>
<event>
 7    1  0.1789107E-013  0.7246163E+02  0.7816164E-02  0.1226708E+00
        -11   -1    0    0    0    0  0.00000000000E+00  0.00000000000E+00  0.45593999997E+02  0.45594000000E+02  0.51100000000E-03 0. -1.
         11   -1    0    0    0    0 -0.00000000000E+00 -0.00000000000E+00 -0.45593999997E+02  0.45594000000E+02  0.51100000000E-03 0.  1.
    9900012    2    1    2    0    0  0.11636868245E+02 -0.86683055633E+01  0.11837264099E+02  0.72461627013E+02  0.70000073887E+02 0.  0.
        -12    1    1    2    0    0 -0.11636868245E+02  0.86683055633E+01 -0.11837264099E+02  0.18726372987E+02  0.00000000000E+00 0.  1.
         11    1    3    3    0    0 -0.13468463026E+02  0.21072366123E+01 -0.76023290191E+01  0.15608822800E+02  0.51100000000E-03 0. -1.
        -11    1    3    3    0    0 -0.64094466194E+01  0.12038215058E+02  0.66588419124E+00  0.13654414296E+02  0.51100000000E-03 0.  1.
         12    1    3    3    0    0  0.31514777891E+02 -0.22813757233E+02  0.18773708927E+02  0.43198389918E+02  0.00000000000E+00 0. -1.
</event>
<event>
 7    1  0.1789107E-013  0.7246089E+02  0.7816164E-02  0.1226710E+00
        -11   -1    0    0    0    0  0.00000000000E+00  0.00000000000E+00  0.45593999997E+02  0.45594000000E+02  0.51100000000E-03 0. -1.
         11   -1    0    0    0    0 -0.00000000000E+00 -0.00000000000E+00 -0.45593999997E+02  0.45594000000E+02  0.51100000000E-03 0.  1.
    9900012    2    1    2    0    0 -0.15952904021E+02 -0.93792403952E+01  0.28704207402E+01  0.72460890978E+02  0.69999115059E+02 0.  0.
        -12    1    1    2    0    0  0.15952904021E+02  0.93792403952E+01 -0.28704207402E+01  0.18727109022E+02  0.00000000000E+00 0.  1.
         11    1    3    3    0    0 -0.99697027041E+01 -0.13868400799E+02  0.12695120162E+02  0.21281296693E+02  0.51100000000E-03 0. -1.
        -11    1    3    3    0    0 -0.22115154681E+02  0.36846971121E+01 -0.21645735918E+02  0.31164000755E+02  0.51100000000E-03 0.  1.
         12    1    3    3    0    0  0.16131953364E+02  0.80446329186E+00  0.11821036496E+02  0.20015593530E+02  0.00000000000E+00 0. -1.
</event>
<event>
 7    1  0.1789107E-013  0.7246157E+02  0.7816164E-02  0.1226708E+00
        -11   -1    0    0    0    0  0.00000000000E+00  0.00000000000E+00  0.45593999997E+02  0.45594000000E+02  0.51100000000E-03 0. -1.
         11   -1    0    0    0    0 -0.00000000000E+00 -0.00000000000E+00 -0.45593999997E+02  0.45594000000E+02  0.51100000000E-03 0.  1.
    9900012    2    1    2    0    0 -0.11611063739E+01 -0.99147503182E+01  0.15843887171E+02  0.72461569412E+02  0.69999998851E+02 0.  0.
        -12    1    1    2    0    0  0.11611063739E+01  0.99147503182E+01 -0.15843887171E+02  0.18726430588E+02  0.00000000000E+00 0.  1.
         11    1    3    3    0    0  0.33812887368E+01 -0.18684805726E+01 -0.31230600199E+01  0.49676792691E+01  0.51100000000E-03 0. -1.
        -11    1    3    3    0    0  0.57688537913E+01  0.15197228991E+02 -0.16951380548E+02  0.23485841390E+02  0.51100000000E-03 0.  1.
         12    1    3    3    0    0 -0.10311248902E+02 -0.23243498736E+02  0.35918327739E+02  0.44008048752E+02  0.00000000000E+00 0. -1.
</event>
<event>
 7    1  0.1789107E-013  0.7246154E+02  0.7816164E-02  0.1226708E+00
        -11   -1    0    0    0    0  0.00000000000E+00  0.00000000000E+00  0.45593999997E+02  0.45594000000E+02  0.51100000000E-03 0.  1.
         11   -1    0    0    0    0 -0.00000000000E+00 -0.00000000000E+00 -0.45593999997E+02  0.45594000000E+02  0.51100000000E-03 0. -1.
    9900012    2    1    2    0    0 -0.38090884136E+01  0.17323989135E+02 -0.60042089899E+01  0.72461540652E+02  0.69999961386E+02 0.  0.
        -12    1    1    2    0    0  0.38090884136E+01 -0.17323989135E+02  0.60042089899E+01  0.18726459348E+02  0.00000000000E+00 0.  1.
         11    1    3    3    0    0  0.48743250049E+01  0.65424627679E+00  0.79645959119E+01  0.93606554656E+01  0.51100000000E-03 0. -1.
        -11    1    3    3    0    0  0.19326332576E+02 -0.77897204959E+01  0.48940030335E+01  0.21404161797E+02  0.51100000000E-03 0.  1.
         12    1    3    3    0    0 -0.28009745995E+02  0.24459463354E+02 -0.18862807935E+02  0.41696723390E+02  0.00000000000E+00 0. -1.
</event>
<event>
 7    1  0.1789107E-013  0.7246162E+02  0.7816164E-02  0.1226708E+00
        -11   -1    0    0    0    0  0.00000000000E+00  0.00000000000E+00  0.45593999997E+02  0.45594000000E+02  0.51100000000E-03 0. -1.
         11   -1    0    0    0    0 -0.00000000000E+00 -0.00000000000E+00 -0.45593999997E+02  0.45594000000E+02  0.51100000000E-03 0.  1.
    9900012    2    1    2    0    0  0.17878641483E+01  0.14526281825E+02  0.11681953012E+02  0.72461618928E+02  0.70000063354E+02 0.  0.
        -12    1    1    2    0    0 -0.17878641483E+01 -0.14526281825E+02 -0.11681953012E+02  0.18726381072E+02  0.00000000000E+00 0.  1.
         11    1    3    3    0    0  0.54147780700E+01 -0.76121500604E+01 -0.15541408649E+02  0.18132844045E+02  0.51100000000E-03 0. -1.
        -11    1    3    3    0    0 -0.10878227136E+02  0.91164523621E+01 -0.78503026291E+01  0.16219518517E+02  0.51100000000E-03 0.  1.
         12    1    3    3    0    0  0.72513132141E+01  0.13021979524E+02  0.35073664290E+02  0.38109256366E+02  0.00000000000E+00 0. -1.
</event>
<event>
 7    1  0.1789107E-013  0.7246153E+02  0.7816164E-02  0.1226708E+00
        -11   -1    0    0    0    0  0.00000000000E+00  0.00000000000E+00  0.45593999997E+02  0.45594000000E+02  0.51100000000E-03 0.  1.
         11   -1    0    0    0    0 -0.00000000000E+00 -0.00000000000E+00 -0.45593999997E+02  0.45594000000E+02  0.51100000000E-03 0. -1.
    9900012    2    1    2    0    0  0.10655650090E+02 -0.22667329760E+01 -0.15231534297E+02  0.72461532253E+02  0.69999950444E+02 0.  0.
        -12    1    1    2    0    0 -0.10655650090E+02  0.22667329760E+01  0.15231534297E+02  0.18726467747E+02  0.00000000000E+00 0.  1.
         11    1    3    3    0    0 -0.52990183011E+01  0.13646145811E+00 -0.14885645641E+02  0.15801286755E+02  0.51100000000E-03 0. -1.
        -11    1    3    3    0    0  0.16322020992E+02  0.21231160299E+02 -0.13088195320E+02  0.29807237274E+02  0.51100000000E-03 0.  1.
        -12    1    3    3    0    0 -0.36735260121E+00 -0.23634354733E+02  0.12742306664E+02  0.26853008224E+02  0.00000000000E+00 0.  1.
</event>
<event>
 7    1  0.1789107E-013  0.7246158E+02  0.7816164E-02  0.1226708E+00
        -11   -1    0    0    0    0  0.00000000000E+00  0.00000000000E+00  0.45593999997E+02  0.45594000000E+02  0.51100000000E-03 0. -1.
         11   -1    0    0    0    0 -0.00000000000E+00 -0.00000000000E+00 -0.45593999997E+02  0.45594000000E+02  0.51100000000E-03 0.  1.
    9900012    2    1    2    0    0  0.37410782102E+01 -0.12195597330E+02  0.13709505490E+02  0.72461580129E+02  0.70000012812E+02 0.  0.
        -12    1    1    2    0    0 -0.37410782102E+01  0.12195597330E+02 -0.13709505490E+02  0.18726419871E+02  0.00000000000E+00 0.  1.
         11    1    3    3    0    0  0.29183006396E+01  0.80487414039E+01  0.21415712602E+02  0.23063639421E+02  0.51100000000E-03 0. -1.
        -11    1    3    3    0    0  0.86734828368E+01 -0.10456438603E+01 -0.22357246569E+02  0.24003523700E+02  0.51100000000E-03 0.  1.
         12    1    3    3    0    0 -0.78507052661E+01 -0.19198694874E+02  0.14651039457E+02  0.25394417008E+02  0.00000000000E+00 0. -1.
</event>
<event>
 7    1  0.1789107E-013  0.7246205E+02  0.7816164E-02  0.1226707E+00
        -11   -1    0    0    0    0  0.00000000000E+00  0.00000000000E+00  0.45593999997E+02  0.45594000000E+02  0.51100000000E-03 0. -1.
         11   -1    0    0    0    0 -0.00000000000E+00 -0.00000000000E+00 -0.45593999997E+02  0.45594000000E+02  0.51100000000E-03 0.  1.
    9900012    2    1    2    0    0 -0.68044869004E+01  0.11408188889E+02  0.13198987388E+02  0.72462053194E+02  0.70000629064E+02 0.  0.
        -12    1    1    2    0    0  0.68044869004E+01 -0.11408188889E+02 -0.13198987388E+02  0.18725946806E+02  0.00000000000E+00 0.  1.
         11    1    3    3    0    0 -0.69183430502E+01 -0.64107436858E+00 -0.54016032430E+01  0.88006684270E+01  0.51100000000E-03 0. -1.
        -11    1    3    3    0    0 -0.29347377077E+02  0.43611748955E+01  0.41502635222E+01  0.29958522582E+02  0.51100000000E-03 0.  1.
         12    1    3    3    0    0  0.29461233227E+02  0.76880883620E+01  0.14450327109E+02  0.33702862185E+02  0.00000000000E+00 0. -1.
</event>
<event>
 7    1  0.1789107E-013  0.7246155E+02  0.7816164E-02  0.1226708E+00
        -11   -1    0    0    0    0  0.00000000000E+00  0.00000000000E+00  0.45593999997E+02  0.45594000000E+02  0.51100000000E-03 0. -1.
         11   -1    0    0    0    0 -0.00000000000E+00 -0.00000000000E+00 -0.45593999997E+02  0.45594000000E+02  0.51100000000E-03 0.  1.
    9900012    2    1    2    0    0 -0.15637981567E+02 -0.10004674612E+02 -0.24576655335E+01  0.72461545411E+02  0.69999967585E+02 0.  0.
        -12    1    1    2    0    0  0.15637981567E+02  0.10004674612E+02  0.24576655335E+01  0.18726454589E+02  0.00000000000E+00 0.  1.
         11    1    3    3    0    0 -0.14792708299E+02 -0.12608256468E+02  0.78489730697E+01  0.20961839816E+02  0.51100000000E-03 0. -1.
        -11    1    3    3    0    0 -0.24865348886E+02 -0.44588552751E+01 -0.72191467883E+01  0.26273238213E+02  0.51100000000E-03 0.  1.
         12    1    3    3    0    0  0.24020075617E+02  0.70624371306E+01 -0.30874918150E+01  0.25226467382E+02  0.00000000000E+00 0. -1.
</event>
<event>
 7    1  0.1789107E-013  0.7246160E+02  0.7816164E-02  0.1226708E+00
        -11   -1    0    0    0    0  0.00000000000E+00  0.00000000000E+00  0.45593999997E+02  0.45594000000E+02  0.51100000000E-03 0.  1.
         11   -1    0    0    0    0 -0.00000000000E+00 -0.00000000000E+00 -0.45593999997E+02  0.45594000000E+02  0.51100000000E-03 0. -1.
    9900012    2    1    2    0    0  0.76908207284E+01 -0.12145836092E+02 -0.12000332606E+02  0.72461600440E+02  0.70000039270E+02 0.  0.
        -12    1    1    2    0    0 -0.76908207284E+01  0.12145836092E+02  0.12000332606E+02  0.18726399560E+02  0.00000000000E+00 0.  1.
         11    1    3    3    0    0 -0.14725880302E+02 -0.16875143070E+00 -0.96076620288E+01  0.17583719676E+02  0.51100000000E-03 0. -1.
        -11    1    3    3    0    0 -0.82804113293E-01 -0.12761043708E+02 -0.21729969630E+02  0.25200053044E+02  0.51100000000E-03 0.  1.
        -12    1    3    3    0    0  0.22499505144E+02  0.78395904695E+00  0.19337299053E+02  0.29677827720E+02  0.00000000000E+00 0.  1.
</event>
<event>
 7    1  0.1789107E-013  0.7246162E+02  0.7816164E-02  0.1226708E+00
        -11   -1    0    0    0    0  0.00000000000E+00  0.00000000000E+00  0.45593999997E+02  0.45594000000E+02  0.51100000000E-03 0.  1.
         11   -1    0    0    0    0 -0.00000000000E+00 -0.00000000000E+00 -0.45593999997E+02  0.45594000000E+02  0.51100000000E-03 0. -1.
    9900012    2    1    2    0    0 -0.33362419178E+01 -0.14781897469E+00 -0.18426205744E+02  0.72461617041E+02  0.70000060897E+02 0.  0.
        -12    1    1    2    0    0  0.33362419178E+01  0.14781897469E+00  0.18426205744E+02  0.18726382959E+02  0.00000000000E+00 0.  1.
         11    1    3    3    0    0  0.24024119313E+01  0.21276930279E+02 -0.31300255772E+02  0.37923414361E+02  0.51100000000E-03 0. -1.
        -11    1    3    3    0    0  0.64701949632E+01  0.96518912982E+00  0.23817551597E+01  0.69618798337E+01  0.51100000000E-03 0.  1.
        -12    1    3    3    0    0 -0.12208848812E+02 -0.22389938383E+02  0.10492294868E+02  0.27576322846E+02  0.00000000000E+00 0.  1.
</event>
<event>
 7    1  0.1789107E-013  0.7246161E+02  0.7816164E-02  0.1226708E+00
        -11   -1    0    0    0    0  0.00000000000E+00  0.00000000000E+00  0.45593999997E+02  0.45594000000E+02  0.51100000000E-03 0.  1.
         11   -1    0    0    0    0 -0.00000000000E+00 -0.00000000000E+00 -0.45593999997E+02  0.45594000000E+02  0.51100000000E-03 0. -1.
    9900012    2    1    2    0    0 -0.94684582326E+01  0.88361251385E+01 -0.13525866323E+02  0.72461605030E+02  0.70000045250E+02 0.  0.
        -12    1    1    2    0    0  0.94684582326E+01 -0.88361251385E+01  0.13525866323E+02  0.18726394970E+02  0.00000000000E+00 0.  1.
         11    1    3    3    0    0 -0.50824000362E+01  0.16768836328E+02 -0.17614822091E+02  0.24845655948E+02  0.51100000000E-03 0. -1.
        -11    1    3    3    0    0 -0.21595210210E+02  0.88816082511E+01  0.28592464883E+01  0.23524696808E+02  0.51100000000E-03 0.  1.
        -12    1    3    3    0    0  0.17209152014E+02 -0.16814319440E+02  0.12297092794E+01  0.24091252275E+02  0.00000000000E+00 0.  1.
</event>
<event>
 7    1  0.1789107E-013  0.7246162E+02  0.7816164E-02  0.1226708E+00
        -11   -1    0    0    0    0  0.00000000000E+00  0.00000000000E+00  0.45593999997E+02  0.45594000000E+02  0.51100000000E-03 0. -1.
         11   -1    0    0    0    0 -0.00000000000E+00 -0.00000000000E+00 -0.45593999997E+02  0.45594000000E+02  0.51100000000E-03 0.  1.
    9900012    2    1    2    0    0  0.70692457013E+01  0.99523204595E+01  0.14200510697E+02  0.72461616971E+02  0.70000060804E+02 0.  0.
        -12    1    1    2    0    0 -0.70692457013E+01 -0.99523204595E+01 -0.14200510697E+02  0.18726383029E+02  0.00000000000E+00 0.  1.
         11    1    3    3    0    0  0.23017545944E+01  0.16960391230E+01  0.32683268331E+01  0.43424167774E+01  0.51100000000E-03 0. -1.
        -11    1    3    3    0    0 -0.23917863264E+02  0.17490441808E+02  0.21032506672E+02  0.36336566636E+02  0.51100000000E-03 0.  1.
         12    1    3    3    0    0  0.28685354371E+02 -0.92341604713E+01 -0.10100322808E+02  0.31782633557E+02  0.00000000000E+00 0. -1.
</event>
<event>
 7    1  0.1789107E-013  0.7246158E+02  0.7816164E-02  0.1226708E+00
        -11   -1    0    0    0    0  0.00000000000E+00  0.00000000000E+00  0.45593999997E+02  0.45594000000E+02  0.51100000000E-03 0.  1.
         11   -1    0    0    0    0 -0.00000000000E+00 -0.00000000000E+00 -0.45593999997E+02  0.45594000000E+02  0.51100000000E-03 0. -1.
    9900012    2    1    2    0    0  0.33294951497E+01  0.73424075646E+01 -0.16902139183E+02  0.72461580274E+02  0.70000013000E+02 0.  0.
        -12    1    1    2    0    0 -0.33294951497E+01 -0.73424075646E+01  0.16902139183E+02  0.18726419726E+02  0.00000000000E+00 0.  1.
         11    1    3    3    0    0  0.73907864771E+01 -0.61482719239E+01 -0.97450281186E+01  0.13689066648E+02  0.51100000000E-03 0. -1.
        -11    1    3    3    0    0  0.25812055155E+02  0.13400021553E+01 -0.54943166203E+00  0.25852653104E+02  0.51100000000E-03 0.  1.
         12    1    3    3    0    0 -0.29873346482E+02  0.12150677333E+02 -0.66076794025E+01  0.32919860522E+02  0.00000000000E+00 0. -1.
</event>
<event>
 7    1  0.1789107E-013  0.7246157E+02  0.7816164E-02  0.1226708E+00
        -11   -1    0    0    0    0  0.00000000000E+00  0.00000000000E+00  0.45593999997E+02  0.45594000000E+02  0.51100000000E-03 0. -1.
         11   -1    0    0    0    0 -0.00000000000E+00 -0.00000000000E+00 -0.45593999997E+02  0.45594000000E+02  0.51100000000E-03 0.  1.
    9900012    2    1    2    0    0 -0.14169140160E+02 -0.12234975356E+02  0.46910880961E+00  0.72461569002E+02  0.69999998317E+02 0.  0.
        -12    1    1    2    0    0  0.14169140160E+02  0.12234975356E+02 -0.46910880961E+00  0.18726430998E+02  0.00000000000E+00 0.  1.
         11    1    3    3    0    0 -0.23076974307E+02 -0.12158558524E+02 -0.85977904340E+01  0.27464509629E+02  0.51100000000E-03 0. -1.
        -11    1    3    3    0    0 -0.66456692382E+01 -0.47664027621E+00 -0.14957667736E+02  0.16374490220E+02  0.51100000000E-03 0.  1.
         12    1    3    3    0    0  0.15553503385E+02  0.40022344371E+00  0.24024566980E+02  0.28622569153E+02  0.00000000000E+00 0. -1.
</event>
<event>
 7    1  0.1789107E-013  0.7246164E+02  0.7816164E-02  0.1226708E+00
        -11   -1    0    0    0    0  0.00000000000E+00  0.00000000000E+00  0.45593999997E+02  0.45594000000E+02  0.51100000000E-03 0. -1.
         11   -1    0    0    0    0 -0.00000000000E+00 -0.00000000000E+00 -0.45593999997E+02  0.45594000000E+02  0.51100000000E-03 0.  1.
    9900012    2    1    2    0    0 -0.52312981049E+01  0.17107299870E+02  0.55362810743E+01  0.72461638986E+02  0.70000089484E+02 0.  0.
        -12    1    1    2    0    0  0.52312981049E+01 -0.17107299870E+02 -0.55362810743E+01  0.18726361014E+02  0.00000000000E+00 0.  1.
         11    1    3    3    0    0 -0.28240333549E+02 -0.12721159026E+02  0.34521968813E+00  0.30975207874E+02  0.51100000000E-03 0. -1.
        -11    1    3    3    0    0  0.58264686453E+01 -0.95631937898E+00  0.66945435527E+00  0.59422599257E+01  0.51100000000E-03 0.  1.
        -12    1    3    3    0    0  0.17182566799E+02  0.30784778274E+02  0.45216070309E+01  0.35544171187E+02  0.00000000000E+00 0.  1.
</event>
<event>
 7    1  0.1789107E-013  0.7246157E+02  0.7816164E-02  0.1226708E+00
        -11   -1    0    0    0    0  0.00000000000E+00  0.00000000000E+00  0.45593999997E+02  0.45594000000E+02  0.51100000000E-03 0.  1.
         11   -1    0    0    0    0 -0.00000000000E+00 -0.00000000000E+00 -0.45593999997E+02  0.45594000000E+02  0.51100000000E-03 0. -1.
    9900012    2    1    2    0    0 -0.28263132126E+01 -0.13952797080E+02 -0.12165964057E+02  0.72461567500E+02  0.69999996360E+02 0.  0.
        -12    1    1    2    0    0  0.28263132126E+01  0.13952797080E+02  0.12165964057E+02  0.18726432500E+02  0.00000000000E+00 0.  1.
         11    1    3    3    0    0  0.87976807564E+01 -0.12907004412E+02 -0.20769655449E+01  0.15757656416E+02  0.51100000000E-03 0. -1.
        -11    1    3    3    0    0  0.13427213819E+01 -0.26110939462E+02  0.15184244942E+01  0.26189495481E+02  0.51100000000E-03 0.  1.
         12    1    3    3    0    0 -0.12966715351E+02  0.25065146794E+02 -0.11607423007E+02  0.30514415604E+02  0.00000000000E+00 0. -1.
</event>
<event>
 7    1  0.1789107E-013  0.7246159E+02  0.7816164E-02  0.1226708E+00
        -11   -1    0    0    0    0  0.00000000000E+00  0.00000000000E+00  0.45593999997E+02  0.45594000000E+02  0.51100000000E-03 0. -1.
         11   -1    0    0    0    0 -0.00000000000E+00 -0.00000000000E+00 -0.45593999997E+02  0.45594000000E+02  0.51100000000E-03 0.  1.
    9900012    2    1    2    0    0 -0.12992307290E+02  0.12161259835E+02 -0.58294173576E+01  0.72461590942E+02  0.70000026898E+02 0.  0.
        -12    1    1    2    0    0  0.12992307290E+02 -0.12161259835E+02  0.58294173576E+01  0.18726409058E+02  0.00000000000E+00 0.  1.
         11    1    3    3    0    0 -0.10088002485E+02  0.11487061216E+02  0.12083302748E+02  0.19486574226E+02  0.51100000000E-03 0. -1.
        -11    1    3    3    0    0  0.87985822977E+01  0.21536342871E+02 -0.29375306083E+00  0.23266185889E+02  0.51100000000E-03 0.  1.
        -12    1    3    3    0    0 -0.11702887103E+02 -0.20862144252E+02 -0.17618967045E+02  0.29708830827E+02  0.00000000000E+00 0.  1.
</event>
<event>
 7    1  0.1789107E-013  0.7246156E+02  0.7816164E-02  0.1226708E+00
        -11   -1    0    0    0    0  0.00000000000E+00  0.00000000000E+00  0.45593999997E+02  0.45594000000E+02  0.51100000000E-03 0.  1.
         11   -1    0    0    0    0 -0.00000000000E+00 -0.00000000000E+00 -0.45593999997E+02  0.45594000000E+02  0.51100000000E-03 0. -1.
    9900012    2    1    2    0    0  0.12134127976E+02 -0.35141423025E+01 -0.13823651150E+02  0.72461559094E+02  0.69999985410E+02 0.  0.
        -12    1    1    2    0    0 -0.12134127976E+02  0.35141423025E+01  0.13823651150E+02  0.18726440906E+02  0.00000000000E+00 0.  1.
         11    1    3    3    0    0  0.28112761545E+02 -0.11841425994E+02 -0.59246646909E+01  0.31074883479E+02  0.51100000000E-03 0. -1.
        -11    1    3    3    0    0 -0.22086932488E+01 -0.14009637061E+02 -0.81020360459E+00  0.14205797640E+02  0.51100000000E-03 0.  1.
        -12    1    3    3    0    0 -0.13769940320E+02  0.22336920753E+02 -0.70887828549E+01  0.27180877975E+02  0.00000000000E+00 0.  1.
</event>
<event>
 7    1  0.1789107E-013  0.7246156E+02  0.7816164E-02  0.1226708E+00
        -11   -1    0    0    0    0  0.00000000000E+00  0.00000000000E+00  0.45593999997E+02  0.45594000000E+02  0.51100000000E-03 0.  1.
         11   -1    0    0    0    0 -0.00000000000E+00 -0.00000000000E+00 -0.45593999997E+02  0.45594000000E+02  0.51100000000E-03 0. -1.
    9900012    2    1    2    0    0  0.15414017095E+02  0.18764990614E+01 -0.10467393445E+02  0.72461561543E+02  0.69999988600E+02 0.  0.
        -12    1    1    2    0    0 -0.15414017095E+02 -0.18764990614E+01  0.10467393445E+02  0.18726438457E+02  0.00000000000E+00 0.  1.
         11    1    3    3    0    0  0.17175979976E+02  0.16998707911E+02 -0.15621301323E+02  0.28774909454E+02  0.51100000000E-03 0. -1.
        -11    1    3    3    0    0 -0.14315545436E+02 -0.16845612989E+02 -0.97180880478E+01  0.24148514523E+02  0.51100000000E-03 0.  1.
         12    1    3    3    0    0  0.12553582554E+02  0.17234041396E+01  0.14871995925E+02  0.19538137567E+02  0.00000000000E+00 0. -1.
</event>
<event>
 7    1  0.1789107E-013  0.7246151E+02  0.7816164E-02  0.1226708E+00
        -11   -1    0    0    0    0  0.00000000000E+00  0.00000000000E+00  0.45593999997E+02  0.45594000000E+02  0.51100000000E-03 0. -1.
         11   -1    0    0    0    0 -0.00000000000E+00 -0.00000000000E+00 -0.45593999997E+02  0.45594000000E+02  0.51100000000E-03 0.  1.
    9900012    2    1    2    0    0  0.14852878819E+02  0.97076425576E+01  0.59862496803E+01  0.72461507577E+02  0.69999918299E+02 0.  0.
        -12    1    1    2    0    0 -0.14852878819E+02 -0.97076425576E+01 -0.59862496803E+01  0.18726492423E+02  0.00000000000E+00 0.  1.
         11    1    3    3    0    0 -0.61973803943E+00  0.18514248581E+02  0.35402047227E+01  0.18859865469E+02  0.51100000000E-03 0. -1.
        -11    1    3    3    0    0  0.92589409454E+01 -0.89346326144E+00 -0.23767845070E+02  0.25523258482E+02  0.51100000000E-03 0.  1.
        -12    1    3    3    0    0  0.62136759125E+01 -0.79131427618E+01  0.26213890027E+02  0.28078383626E+02  0.00000000000E+00 0.  1.
</event>
<event>
 7    1  0.1789107E-013  0.7246155E+02  0.7816164E-02  0.1226708E+00
        -11   -1    0    0    0    0  0.00000000000E+00  0.00000000000E+00  0.45593999997E+02  0.45594000000E+02  0.51100000000E-03 0. -1.
         11   -1    0    0    0    0 -0.00000000000E+00 -0.00000000000E+00 -0.45593999997E+02  0.45594000000E+02  0.51100000000E-03 0.  1.
    9900012    2    1    2    0    0 -0.80830517661E+01  0.22970898716E+01  0.16735225045E+02  0.72461545316E+02  0.69999967461E+02 0.  0.
        -12    1    1    2    0    0  0.80830517661E+01 -0.22970898716E+01 -0.16735225045E+02  0.18726454684E+02  0.00000000000E+00 0.  1.
         11    1    3    3    0    0  0.22177287563E+02  0.41655661388E+01  0.78219798945E+01  0.23882365767E+02  0.51100000000E-03 0. -1.
        -11    1    3    3    0    0  0.26735576505E+01  0.10941752935E+02  0.68465279540E+01  0.13181229574E+02  0.51100000000E-03 0.  1.
        -12    1    3    3    0    0 -0.32933896979E+02 -0.12810229202E+02  0.20667171962E+01  0.35397949975E+02  0.00000000000E+00 0.  1.
</event>
<event>
 7    1  0.1789107E-013  0.7246155E+02  0.7816164E-02  0.1226708E+00
        -11   -1    0    0    0    0  0.00000000000E+00  0.00000000000E+00  0.45593999997E+02  0.45594000000E+02  0.51100000000E-03 0.  1.
         11   -1    0    0    0    0 -0.00000000000E+00 -0.00000000000E+00 -0.45593999997E+02  0.45594000000E+02  0.51100000000E-03 0. -1.
    9900012    2    1    2    0    0 -0.87910956273E+01  0.68292679249E+01  0.15058475886E+02  0.72461549222E+02  0.69999972550E+02 0.  0.
        -12    1    1    2    0    0  0.87910956273E+01 -0.68292679249E+01 -0.15058475886E+02  0.18726450778E+02  0.00000000000E+00 0.  1.
         11    1    3    3    0    0  0.39446045010E+01  0.59675666071E+01  0.13360003882E+02  0.15154585440E+02  0.51100000000E-03 0. -1.
        -11    1    3    3    0    0 -0.59437159861E+01  0.24167914994E+02  0.15560650761E+02  0.29352167335E+02  0.51100000000E-03 0.  1.
         12    1    3    3    0    0 -0.67919841423E+01 -0.23306213677E+02 -0.13862178757E+02  0.27954796447E+02  0.00000000000E+00 0. -1.
</event>
<event>
 7    1  0.1789107E-013  0.7246155E+02  0.7816164E-02  0.1226708E+00
        -11   -1    0    0    0    0  0.00000000000E+00  0.00000000000E+00  0.45593999997E+02  0.45594000000E+02  0.51100000000E-03 0.  1.
         11   -1    0    0    0    0 -0.00000000000E+00 -0.00000000000E+00 -0.45593999997E+02  0.45594000000E+02  0.51100000000E-03 0. -1.
    9900012    2    1    2    0    0 -0.84541310308E-01 -0.17528922140E+02 -0.65886094254E+01  0.72461547245E+02  0.69999969974E+02 0.  0.
        -12    1    1    2    0    0  0.84541310308E-01  0.17528922140E+02  0.65886094254E+01  0.18726452755E+02  0.00000000000E+00 0.  1.
         11    1    3    3    0    0  0.14082232015E+02 -0.16153567113E+00 -0.25398672039E+02  0.29041830072E+02  0.51100000000E-03 0. -1.
        -11    1    3    3    0    0 -0.21618376621E-01 -0.67212938061E+01 -0.85228063480E+01  0.10854238162E+02  0.51100000000E-03 0.  1.
        -12    1    3    3    0    0 -0.14145154949E+02 -0.10646092663E+02  0.27332868961E+02  0.32565479011E+02  0.00000000000E+00 0.  1.
</event>
<event>
 7    1  0.1789107E-013  0.7246161E+02  0.7816164E-02  0.1226708E+00
        -11   -1    0    0    0    0  0.00000000000E+00  0.00000000000E+00  0.45593999997E+02  0.45594000000E+02  0.51100000000E-03 0. -1.
         11   -1    0    0    0    0 -0.00000000000E+00 -0.00000000000E+00 -0.45593999997E+02  0.45594000000E+02  0.51100000000E-03 0.  1.
    9900012    2    1    2    0    0 -0.36872429231E+01 -0.17885492179E+02 -0.41462286098E+01  0.72461606793E+02  0.70000047546E+02 0.  0.
        -12    1    1    2    0    0  0.36872429231E+01  0.17885492179E+02  0.41462286098E+01  0.18726393207E+02  0.00000000000E+00 0.  1.
         11    1    3    3    0    0  0.11912364587E+02 -0.13134200822E+02 -0.32626945838E+00  0.17734658534E+02  0.51100000000E-03 0. -1.
        -11    1    3    3    0    0  0.16277983777E+02  0.10249712526E+02 -0.31316808462E+01  0.19489401938E+02  0.51100000000E-03 0.  1.
         12    1    3    3    0    0 -0.31877591287E+02 -0.15001003883E+02 -0.68827830521E+00  0.35237546322E+02  0.00000000000E+00 0. -1.
</event>
<event>
 7    1  0.1789107E-013  0.7246154E+02  0.7816164E-02  0.1226708E+00
        -11   -1    0    0    0    0  0.00000000000E+00  0.00000000000E+00  0.45593999997E+02  0.45594000000E+02  0.51100000000E-03 0. -1.
         11   -1    0    0    0    0 -0.00000000000E+00 -0.00000000000E+00 -0.45593999997E+02  0.45594000000E+02  0.51100000000E-03 0.  1.
    9900012    2    1    2    0    0  0.43724650935E+01  0.14743464383E+02  0.10686067387E+02  0.72461542000E+02  0.69999963142E+02 0.  0.
        -12    1    1    2    0    0 -0.43724650935E+01 -0.14743464383E+02 -0.10686067387E+02  0.18726458000E+02  0.00000000000E+00 0.  1.
         11    1    3    3    0    0 -0.12337145297E+02 -0.17500697041E+01 -0.79598244214E+01  0.14786030675E+02  0.51100000000E-03 0. -1.
        -11    1    3    3    0    0 -0.13991391255E+02  0.10909791109E+02 -0.51031042214E+01  0.18461425845E+02  0.51100000000E-03 0.  1.
         12    1    3    3    0    0  0.30701001645E+02  0.55837429787E+01  0.23748996030E+02  0.39214085480E+02  0.00000000000E+00 0. -1.
</event>
<event>
 7    1  0.1789107E-013  0.7246133E+02  0.7816164E-02  0.1226709E+00
        -11   -1    0    0    0    0  0.00000000000E+00  0.00000000000E+00  0.45593999997E+02  0.45594000000E+02  0.51100000000E-03 0.  1.
         11   -1    0    0    0    0 -0.00000000000E+00 -0.00000000000E+00 -0.45593999997E+02  0.45594000000E+02  0.51100000000E-03 0. -1.
    9900012    2    1    2    0    0  0.48415332986E+01  0.65188137808E+01 -0.16874625195E+02  0.72461325088E+02  0.69999680572E+02 0.  0.
        -12    1    1    2    0    0 -0.48415332986E+01 -0.65188137808E+01  0.16874625195E+02  0.18726674912E+02  0.00000000000E+00 0.  1.
         11    1    3    3    0    0 -0.59576938267E+01  0.12709155285E+02  0.94935652463E+00  0.14068334012E+02  0.51100000000E-03 0. -1.
        -11    1    3    3    0    0 -0.88556487863E+01 -0.71411847015E+01  0.15778930843E+02  0.19452344156E+02  0.51100000000E-03 0.  1.
         12    1    3    3    0    0  0.19654875912E+02  0.95084319719E+00 -0.33602912562E+02  0.38940646920E+02  0.00000000000E+00 0. -1.
</event>
<event>
 7    1  0.1789107E-013  0.7246159E+02  0.7816164E-02  0.1226708E+00
        -11   -1    0    0    0    0  0.00000000000E+00  0.00000000000E+00  0.45593999997E+02  0.45594000000E+02  0.51100000000E-03 0. -1.
         11   -1    0    0    0    0 -0.00000000000E+00 -0.00000000000E+00 -0.45593999997E+02  0.45594000000E+02  0.51100000000E-03 0.  1.
    9900012    2    1    2    0    0  0.10347690119E+02  0.34254377765E+01  0.15227279877E+02  0.72461591716E+02  0.70000027906E+02 0.  0.
        -12    1    1    2    0    0 -0.10347690119E+02 -0.34254377765E+01 -0.15227279877E+02  0.18726408284E+02  0.00000000000E+00 0.  1.
         11    1    3    3    0    0  0.13706040913E+02 -0.21920978520E+02  0.73534952969E+01  0.26878592786E+02  0.51100000000E-03 0. -1.
        -11    1    3    3    0    0 -0.10628990072E+02 -0.46088146466E+01  0.91027952491E+01  0.14733549606E+02  0.51100000000E-03 0.  1.
        -12    1    3    3    0    0  0.72706392782E+01  0.29955230943E+02 -0.12290106691E+01  0.30849449324E+02  0.00000000000E+00 0.  1.
</event>
<event>
 7    1  0.1789107E-013  0.7246157E+02  0.7816164E-02  0.1226708E+00
        -11   -1    0    0    0    0  0.00000000000E+00  0.00000000000E+00  0.45593999997E+02  0.45594000000E+02  0.51100000000E-03 0.  1.
         11   -1    0    0    0    0 -0.00000000000E+00 -0.00000000000E+00 -0.45593999997E+02  0.45594000000E+02  0.51100000000E-03 0. -1.
    9900012    2    1    2    0    0 -0.36878821708E+01 -0.74751050985E+01  0.16769063398E+02  0.72461570592E+02  0.70000000387E+02 0.  0.
        -12    1    1    2    0    0  0.36878821708E+01  0.74751050985E+01 -0.16769063398E+02  0.18726429408E+02  0.00000000000E+00 0.  1.
         11    1    3    3    0    0  0.16755807054E+02 -0.18904327623E+02  0.48974696840E+01  0.25731612512E+02  0.51100000000E-03 0. -1.
        -11    1    3    3    0    0  0.11149166505E+02  0.38239896857E+01 -0.88608543393E+00  0.11819981326E+02  0.51100000000E-03 0.  1.
         12    1    3    3    0    0 -0.31592855730E+02  0.76052328384E+01  0.12757679148E+02  0.34909976754E+02  0.00000000000E+00 0. -1.
</event>
<event>
 7    1  0.1789107E-013  0.7246155E+02  0.7816164E-02  0.1226708E+00
        -11   -1    0    0    0    0  0.00000000000E+00  0.00000000000E+00  0.45593999997E+02  0.45594000000E+02  0.51100000000E-03 0. -1.
         11   -1    0    0    0    0 -0.00000000000E+00 -0.00000000000E+00 -0.45593999997E+02  0.45594000000E+02  0.51100000000E-03 0.  1.
    9900012    2    1    2    0    0  0.12349152696E+02  0.24431939957E+01  0.13863949037E+02  0.72461552070E+02  0.69999976259E+02 0.  0.
        -12    1    1    2    0    0 -0.12349152696E+02 -0.24431939957E+01 -0.13863949037E+02  0.18726447930E+02  0.00000000000E+00 0.  1.
         11    1    3    3    0    0 -0.21642130995E+02 -0.35786721536E+01  0.73881159822E+01  0.23146770540E+02  0.51100000000E-03 0. -1.
        -11    1    3    3    0    0 -0.54897403110E+00  0.70515925439E+01 -0.90044468481E+01  0.11450170007E+02  0.51100000000E-03 0.  1.
         12    1    3    3    0    0  0.34540257722E+02 -0.10297263946E+01  0.15480279903E+02  0.37864611523E+02  0.00000000000E+00 0. -1.
</event>
<event>
 7    1  0.1789107E-013  0.7246152E+02  0.7816164E-02  0.1226708E+00
        -11   -1    0    0    0    0  0.00000000000E+00  0.00000000000E+00  0.45593999997E+02  0.45594000000E+02  0.51100000000E-03 0. -1.
         11   -1    0    0    0    0 -0.00000000000E+00 -0.00000000000E+00 -0.45593999997E+02  0.45594000000E+02  0.51100000000E-03 0.  1.
    9900012    2    1    2    0    0 -0.16376640450E+02 -0.35544076025E+01  0.83577953938E+01  0.72461523832E+02  0.69999939474E+02 0.  0.
        -12    1    1    2    0    0  0.16376640450E+02  0.35544076025E+01 -0.83577953938E+01  0.18726476168E+02  0.00000000000E+00 0.  1.
         11    1    3    3    0    0 -0.11687620631E+02  0.40351223253E+01 -0.75272621955E+01  0.14475578214E+02  0.51100000000E-03 0. -1.
        -11    1    3    3    0    0 -0.25109514832E+02 -0.19406461328E+02  0.12687711189E+02  0.34177134050E+02  0.51100000000E-03 0.  1.
         12    1    3    3    0    0  0.20420495014E+02  0.11816931400E+02  0.31973464003E+01  0.23808811569E+02  0.00000000000E+00 0. -1.
</event>
<event>
 7    1  0.1789107E-013  0.7246184E+02  0.7816164E-02  0.1226707E+00
        -11   -1    0    0    0    0  0.00000000000E+00  0.00000000000E+00  0.45593999997E+02  0.45594000000E+02  0.51100000000E-03 0.  1.
         11   -1    0    0    0    0 -0.00000000000E+00 -0.00000000000E+00 -0.45593999997E+02  0.45594000000E+02  0.51100000000E-03 0. -1.
    9900012    2    1    2    0    0 -0.13211253896E+02  0.67635149308E+01 -0.11418706212E+02  0.72461836076E+02  0.70000346230E+02 0.  0.
        -12    1    1    2    0    0  0.13211253896E+02 -0.67635149308E+01  0.11418706212E+02  0.18726163924E+02  0.00000000000E+00 0.  1.
         11    1    3    3    0    0 -0.14755672743E+02  0.66940615302E+01  0.16979085854E+02  0.23469761281E+02  0.51100000000E-03 0. -1.
        -11    1    3    3    0    0  0.10840548630E+02 -0.13968057210E+02 -0.21540699718E+01  0.17811909907E+02  0.51100000000E-03 0.  1.
         12    1    3    3    0    0 -0.92961297831E+01  0.14037510611E+02 -0.26243722094E+02  0.31180164889E+02  0.00000000000E+00 0. -1.
</event>
<event>
 7    1  0.1789107E-013  0.7246159E+02  0.7816164E-02  0.1226708E+00
        -11   -1    0    0    0    0  0.00000000000E+00  0.00000000000E+00  0.45593999997E+02  0.45594000000E+02  0.51100000000E-03 0. -1.
         11   -1    0    0    0    0 -0.00000000000E+00 -0.00000000000E+00 -0.45593999997E+02  0.45594000000E+02  0.51100000000E-03 0.  1.
    9900012    2    1    2    0    0  0.70828456092E+01 -0.44940771273E+01  0.16742611899E+02  0.72461588588E+02  0.70000023832E+02 0.  0.
        -12    1    1    2    0    0 -0.70828456092E+01  0.44940771273E+01 -0.16742611899E+02  0.18726411412E+02  0.00000000000E+00 0.  1.
         11    1    3    3    0    0 -0.12653254002E+02  0.11593376324E+02  0.15923904860E+02  0.23411150286E+02  0.51100000000E-03 0. -1.
        -11    1    3    3    0    0  0.13987449736E+02  0.13150140409E+02  0.13792488256E+01  0.19247786118E+02  0.51100000000E-03 0.  1.
        -12    1    3    3    0    0  0.57486498753E+01 -0.29237593860E+02 -0.56054178695E+00  0.29802652184E+02  0.00000000000E+00 0.  1.
</event>
<event>
 7    1  0.1789107E-013  0.7246157E+02  0.7816164E-02  0.1226708E+00
        -11   -1    0    0    0    0  0.00000000000E+00  0.00000000000E+00  0.45593999997E+02  0.45594000000E+02  0.51100000000E-03 0.  1.
         11   -1    0    0    0    0 -0.00000000000E+00 -0.00000000000E+00 -0.45593999997E+02  0.45594000000E+02  0.51100000000E-03 0. -1.
    9900012    2    1    2    0    0  0.12922360607E+02  0.53018064854E+00 -0.13542913232E+02  0.72461574981E+02  0.70000006106E+02 0.  0.
        -12    1    1    2    0    0 -0.12922360607E+02 -0.53018064854E+00  0.13542913232E+02  0.18726425019E+02  0.00000000000E+00 0.  1.
         11    1    3    3    0    0  0.13937146446E+02 -0.37627411752E+01 -0.31897346688E+01  0.14784339002E+02  0.51100000000E-03 0. -1.
        -11    1    3    3    0    0  0.24796091789E+02 -0.10184189214E+02 -0.17722248295E+01  0.26864561397E+02  0.51100000000E-03 0.  1.
         12    1    3    3    0    0 -0.25810877628E+02  0.14477111038E+02 -0.85809537336E+01  0.30812674582E+02  0.00000000000E+00 0. -1.
</event>
<event>
 7    1  0.1789107E-013  0.7246160E+02  0.7816164E-02  0.1226708E+00
        -11   -1    0    0    0    0  0.00000000000E+00  0.00000000000E+00  0.45593999997E+02  0.45594000000E+02  0.51100000000E-03 0.  1.
         11   -1    0    0    0    0 -0.00000000000E+00 -0.00000000000E+00 -0.45593999997E+02  0.45594000000E+02  0.51100000000E-03 0. -1.
    9900012    2    1    2    0    0 -0.10938991007E+02 -0.16661623846E+01 -0.15107624292E+02  0.72461603307E+02  0.70000043005E+02 0.  0.
        -12    1    1    2    0    0  0.10938991007E+02  0.16661623846E+01  0.15107624292E+02  0.18726396693E+02  0.00000000000E+00 0.  1.
         11    1    3    3    0    0 -0.25157997681E+01 -0.16930004948E+02 -0.13427715136E+02  0.21754490342E+02  0.51100000000E-03 0. -1.
        -11    1    3    3    0    0 -0.23572775684E+02 -0.36642033444E+01 -0.88188167822E+01  0.25433711277E+02  0.51100000000E-03 0.  1.
        -12    1    3    3    0    0  0.15149584445E+02  0.18928045908E+02  0.71389076260E+01  0.25273401687E+02  0.00000000000E+00 0.  1.
</event>
<event>
 7    1  0.1789107E-013  0.7246155E+02  0.7816164E-02  0.1226708E+00
        -11   -1    0    0    0    0  0.00000000000E+00  0.00000000000E+00  0.45593999997E+02  0.45594000000E+02  0.51100000000E-03 0. -1.
         11   -1    0    0    0    0 -0.00000000000E+00 -0.00000000000E+00 -0.45593999997E+02  0.45594000000E+02  0.51100000000E-03 0.  1.
    9900012    2    1    2    0    0 -0.13079601454E+01 -0.18231897064E+02 -0.40702631456E+01  0.72461551528E+02  0.69999975553E+02 0.  0.
        -12    1    1    2    0    0  0.13079601454E+01  0.18231897064E+02  0.40702631456E+01  0.18726448472E+02  0.00000000000E+00 0.  1.
         11    1    3    3    0    0  0.36944325932E+01  0.44892724016E+01  0.59056577098E+01  0.82872910006E+01  0.51100000000E-03 0. -1.
        -11    1    3    3    0    0 -0.25608815328E+02 -0.17761768059E+02  0.12227849408E+02  0.33478532353E+02  0.51100000000E-03 0.  1.
        -12    1    3    3    0    0  0.20606422590E+02 -0.49594014073E+01 -0.22203770263E+02  0.30695728175E+02  0.00000000000E+00 0.  1.
</event>
<event>
 7    1  0.1789107E-013  0.7246156E+02  0.7816164E-02  0.1226708E+00
        -11   -1    0    0    0    0  0.00000000000E+00  0.00000000000E+00  0.45593999997E+02  0.45594000000E+02  0.51100000000E-03 0.  1.
         11   -1    0    0    0    0 -0.00000000000E+00 -0.00000000000E+00 -0.45593999997E+02  0.45594000000E+02  0.51100000000E-03 0. -1.
    9900012    2    1    2    0    0  0.17643600671E+01 -0.25388310582E+01 -0.18469460667E+02  0.72461558616E+02  0.69999984787E+02 0.  0.
        -12    1    1    2    0    0 -0.17643600671E+01  0.25388310582E+01  0.18469460667E+02  0.18726441384E+02  0.00000000000E+00 0.  1.
         11    1    3    3    0    0 -0.16750986618E+02 -0.48053337731E+01  0.39489227699E+01  0.17868429608E+02  0.51100000000E-03 0. -1.
        -11    1    3    3    0    0 -0.12937640143E+02  0.70352049788E+01  0.14846041196E+01  0.14801374639E+02  0.51100000000E-03 0.  1.
         12    1    3    3    0    0  0.31452986828E+02 -0.47687022640E+01 -0.23902987556E+02  0.39791754369E+02  0.00000000000E+00 0. -1.
</event>
<event>
 7    1  0.1789107E-013  0.7246159E+02  0.7816164E-02  0.1226708E+00
        -11   -1    0    0    0    0  0.00000000000E+00  0.00000000000E+00  0.45593999997E+02  0.45594000000E+02  0.51100000000E-03 0.  1.
         11   -1    0    0    0    0 -0.00000000000E+00 -0.00000000000E+00 -0.45593999997E+02  0.45594000000E+02  0.51100000000E-03 0. -1.
    9900012    2    1    2    0    0 -0.45232281441E+01  0.17301084452E+02 -0.55580074424E+01  0.72461586494E+02  0.70000021104E+02 0.  0.
        -12    1    1    2    0    0  0.45232281441E+01 -0.17301084452E+02  0.55580074424E+01  0.18726413506E+02  0.00000000000E+00 0.  1.
         11    1    3    3    0    0  0.18812663049E+01  0.84538140237E+01 -0.60299380693E+01  0.10553022687E+02  0.51100000000E-03 0. -1.
        -11    1    3    3    0    0 -0.32685942134E+02 -0.23608700080E+01  0.44112875282E+01  0.33066659618E+02  0.51100000000E-03 0.  1.
         12    1    3    3    0    0  0.26281447685E+02  0.11208140436E+02 -0.39393569013E+01  0.28841904189E+02  0.00000000000E+00 0. -1.
</event>
<event>
 7    1  0.1789107E-013  0.7246154E+02  0.7816164E-02  0.1226708E+00
        -11   -1    0    0    0    0  0.00000000000E+00  0.00000000000E+00  0.45593999997E+02  0.45594000000E+02  0.51100000000E-03 0.  1.
         11   -1    0    0    0    0 -0.00000000000E+00 -0.00000000000E+00 -0.45593999997E+02  0.45594000000E+02  0.51100000000E-03 0. -1.
    9900012    2    1    2    0    0 -0.17865613621E+02 -0.17790947093E+01 -0.53230447968E+01  0.72461544544E+02  0.69999966455E+02 0.  0.
        -12    1    1    2    0    0  0.17865613621E+02  0.17790947093E+01  0.53230447968E+01  0.18726455456E+02  0.00000000000E+00 0.  1.
         11    1    3    3    0    0 -0.59130024385E+01 -0.10835417151E+02 -0.88760014749E+01  0.15203725370E+02  0.51100000000E-03 0. -1.
        -11    1    3    3    0    0  0.20375836880E+02 -0.51430438414E+01 -0.33494292683E+01  0.21280138750E+02  0.51100000000E-03 0.  1.
        -12    1    3    3    0    0 -0.32328448063E+02  0.14199366283E+02  0.69023859464E+01  0.35977680425E+02  0.00000000000E+00 0.  1.
</event>
<event>
 7    1  0.1789107E-013  0.7246154E+02  0.7816164E-02  0.1226708E+00
        -11   -1    0    0    0    0  0.00000000000E+00  0.00000000000E+00  0.45593999997E+02  0.45594000000E+02  0.51100000000E-03 0. -1.
         11   -1    0    0    0    0 -0.00000000000E+00 -0.00000000000E+00 -0.45593999997E+02  0.45594000000E+02  0.51100000000E-03 0.  1.
    9900012    2    1    2    0    0 -0.76339091647E+00  0.10812517381E+02  0.15270465368E+02  0.72461537163E+02  0.69999956841E+02 0.  0.
        -12    1    1    2    0    0  0.76339091647E+00 -0.10812517381E+02 -0.15270465368E+02  0.18726462837E+02  0.00000000000E+00 0.  1.
         11    1    3    3    0    0  0.16714521908E+02 -0.11577739554E+02  0.25468162638E+02  0.32589056510E+02  0.51100000000E-03 0. -1.
        -11    1    3    3    0    0 -0.61186673391E-01  0.90407050986E+01  0.74479063546E+01  0.11713641697E+02  0.51100000000E-03 0.  1.
        -12    1    3    3    0    0 -0.17416726151E+02  0.13349551837E+02 -0.17645603624E+02  0.28158838956E+02  0.00000000000E+00 0.  1.
</event>
<event>
 7    1  0.2192139E-013  0.7246189E+02  0.7816164E-02  0.1226707E+00
        -11   -1    0    0    0    0  0.00000000000E+00  0.00000000000E+00  0.45593999997E+02  0.45594000000E+02  0.51100000000E-03 0. -1.
         11   -1    0    0    0    0 -0.00000000000E+00 -0.00000000000E+00 -0.45593999997E+02  0.45594000000E+02  0.51100000000E-03 0.  1.
    9900012    2    1    2    0    0 -0.65244592300E+01  0.62997009593E+01  0.16383296001E+02  0.72461890199E+02  0.70000416734E+02 0.  0.
        -12    1    1    2    0    0  0.65244592300E+01 -0.62997009593E+01 -0.16383296001E+02  0.18726109801E+02  0.00000000000E+00 0.  1.
         11    1    3    3    0    0 -0.21202297213E+02  0.96079854002E+01  0.23927445768E+02  0.33382232577E+02  0.51100000000E-03 0. -1.
        -11    1    3    3    0    0 -0.24516750470E+01  0.90878906592E+01 -0.14090307834E+02  0.16945124440E+02  0.51100000000E-03 0.  1.
        -12    1    3    3    0    0  0.17129513030E+02 -0.12396175100E+02  0.65461580666E+01  0.22134533182E+02  0.00000000000E+00 0.  1.
</event>
<event>
 7    1  0.1789107E-013  0.7246163E+02  0.7816164E-02  0.1226708E+00
        -11   -1    0    0    0    0  0.00000000000E+00  0.00000000000E+00  0.45593999997E+02  0.45594000000E+02  0.51100000000E-03 0.  1.
         11   -1    0    0    0    0 -0.00000000000E+00 -0.00000000000E+00 -0.45593999997E+02  0.45594000000E+02  0.51100000000E-03 0. -1.
    9900012    2    1    2    0    0 -0.15521949479E+01 -0.17362488895E+02  0.68418928977E+01  0.72461632808E+02  0.70000081436E+02 0.  0.
        -12    1    1    2    0    0  0.15521949479E+01  0.17362488895E+02 -0.68418928977E+01  0.18726367192E+02  0.00000000000E+00 0.  1.
         11    1    3    3    0    0 -0.21259617046E+02 -0.20875184561E+02 -0.18500548638E+02  0.35071568935E+02  0.51100000000E-03 0. -1.
        -11    1    3    3    0    0 -0.30803810689E+01  0.78513117562E+00 -0.28289179236E-01  0.31789902534E+01  0.51100000000E-03 0.  1.
        -12    1    3    3    0    0  0.22787803167E+02  0.27275644904E+01  0.25370730715E+02  0.34211073620E+02  0.00000000000E+00 0.  1.
</event>
<event>
 7    1  0.2289982E-013  0.7246185E+02  0.7816164E-02  0.1226707E+00
        -11   -1    0    0    0    0  0.00000000000E+00  0.00000000000E+00  0.45593999997E+02  0.45594000000E+02  0.51100000000E-03 0.  1.
         11   -1    0    0    0    0 -0.00000000000E+00 -0.00000000000E+00 -0.45593999997E+02  0.45594000000E+02  0.51100000000E-03 0. -1.
    9900012    2    1    2    0    0 -0.95288944359E+01 -0.94488839474E+01  0.13060919397E+02  0.72461845763E+02  0.70000358848E+02 0.  0.
        -12    1    1    2    0    0  0.95288944359E+01  0.94488839474E+01 -0.13060919397E+02  0.18726154237E+02  0.00000000000E+00 0.  1.
         11    1    3    3    0    0 -0.13397703024E+02 -0.32058243944E+02 -0.46633746001E+00  0.34748336967E+02  0.51100000000E-03 0. -1.
        -11    1    3    3    0    0 -0.27052212314E+01 -0.30384968910E+01 -0.42020982460E+01  0.58487874981E+01  0.51100000000E-03 0.  1.
        -12    1    3    3    0    0  0.65740298197E+01  0.25647856888E+02  0.17729355103E+02  0.31864721297E+02  0.00000000000E+00 0.  1.
</event>
<event>
 7    1  0.1789107E-013  0.7246157E+02  0.7816164E-02  0.1226708E+00
        -11   -1    0    0    0    0  0.00000000000E+00  0.00000000000E+00  0.45593999997E+02  0.45594000000E+02  0.51100000000E-03 0.  1.
         11   -1    0    0    0    0 -0.00000000000E+00 -0.00000000000E+00 -0.45593999997E+02  0.45594000000E+02  0.51100000000E-03 0. -1.
    9900012    2    1    2    0    0  0.11827349311E+02  0.98233513282E+01 -0.10690866141E+02  0.72461573702E+02  0.70000004439E+02 0.  0.
        -12    1    1    2    0    0 -0.11827349311E+02 -0.98233513282E+01  0.10690866141E+02  0.18726426298E+02  0.00000000000E+00 0.  1.
         11    1    3    3    0    0 -0.12127360159E+02  0.45741186789E+01 -0.14768922945E+02  0.19649847617E+02  0.51100000000E-03 0. -1.
        -11    1    3    3    0    0 -0.69931983909E+01  0.15103485871E+02 -0.76001957793E+01  0.18297078601E+02  0.51100000000E-03 0.  1.
        -12    1    3    3    0    0  0.30947907862E+02 -0.98542532217E+01  0.11678252583E+02  0.34514647484E+02  0.00000000000E+00 0.  1.
</event>
<event>
 7    1  0.1789107E-013  0.7246160E+02  0.7816164E-02  0.1226708E+00
        -11   -1    0    0    0    0  0.00000000000E+00  0.00000000000E+00  0.45593999997E+02  0.45594000000E+02  0.51100000000E-03 0. -1.
         11   -1    0    0    0    0 -0.00000000000E+00 -0.00000000000E+00 -0.45593999997E+02  0.45594000000E+02  0.51100000000E-03 0.  1.
    9900012    2    1    2    0    0  0.23342010994E+01 -0.18467570924E+02 -0.20441166299E+01  0.72461599294E+02  0.70000037777E+02 0.  0.
        -12    1    1    2    0    0 -0.23342010994E+01  0.18467570924E+02  0.20441166299E+01  0.18726400706E+02  0.00000000000E+00 0.  1.
         11    1    3    3    0    0  0.27094987265E+02 -0.29707847785E+02 -0.52068533241E+01  0.40543875946E+02  0.51100000000E-03 0.  1.
        -11    1    3    3    0    0 -0.13158642090E+02 -0.22345720730E+01  0.45020546819E+01  0.14085867762E+02  0.51100000000E-03 0. -1.
        -12    1    3    3    0    0 -0.11602144076E+02  0.13474848934E+02 -0.13393179877E+01  0.17831855586E+02  0.00000000000E+00 0.  1.
</event>
<event>
 7    1  0.1789107E-013  0.7246159E+02  0.7816164E-02  0.1226708E+00
        -11   -1    0    0    0    0  0.00000000000E+00  0.00000000000E+00  0.45593999997E+02  0.45594000000E+02  0.51100000000E-03 0. -1.
         11   -1    0    0    0    0 -0.00000000000E+00 -0.00000000000E+00 -0.45593999997E+02  0.45594000000E+02  0.51100000000E-03 0.  1.
    9900012    2    1    2    0    0 -0.89154799713E+01  0.16195473029E+02  0.29831990459E+01  0.72461585333E+02  0.70000019590E+02 0.  0.
        -12    1    1    2    0    0  0.89154799713E+01 -0.16195473029E+02 -0.29831990459E+01  0.18726414667E+02  0.00000000000E+00 0.  1.
         11    1    3    3    0    0 -0.17874311686E+02  0.12932740101E+02 -0.12765834266E+02  0.25489474485E+02  0.51100000000E-03 0. -1.
        -11    1    3    3    0    0 -0.87998675327E+01 -0.11018823264E+01 -0.11273218344E+02  0.14343544379E+02  0.51100000000E-03 0.  1.
         12    1    3    3    0    0  0.17758699247E+02  0.43646152544E+01  0.27022251656E+02  0.32628566469E+02  0.00000000000E+00 0. -1.
</event>
<event>
 7    1  0.1789107E-013  0.7246155E+02  0.7816164E-02  0.1226708E+00
        -11   -1    0    0    0    0  0.00000000000E+00  0.00000000000E+00  0.45593999997E+02  0.45594000000E+02  0.51100000000E-03 0. -1.
         11   -1    0    0    0    0 -0.00000000000E+00 -0.00000000000E+00 -0.45593999997E+02  0.45594000000E+02  0.51100000000E-03 0.  1.
    9900012    2    1    2    0    0  0.12863363757E+02  0.14916814087E+01 -0.13527334864E+02  0.72461547344E+02  0.69999970103E+02 0.  0.
        -12    1    1    2    0    0 -0.12863363757E+02 -0.14916814087E+01  0.13527334864E+02  0.18726452656E+02  0.00000000000E+00 0.  1.
         11    1    3    3    0    0  0.72933663575E+01  0.47399561735E+01 -0.15106557757E+02  0.17431823338E+02  0.51100000000E-03 0. -1.
        -11    1    3    3    0    0  0.19883307702E+00  0.18161382995E+02 -0.17965858494E+02  0.25546965349E+02  0.51100000000E-03 0.  1.
         12    1    3    3    0    0  0.53711643226E+01 -0.21409657759E+02  0.19545081388E+02  0.29482758657E+02  0.00000000000E+00 0. -1.
</event>
<event>
 7    1  0.1789107E-013  0.7246158E+02  0.7816164E-02  0.1226708E+00
        -11   -1    0    0    0    0  0.00000000000E+00  0.00000000000E+00  0.45593999997E+02  0.45594000000E+02  0.51100000000E-03 0.  1.
         11   -1    0    0    0    0 -0.00000000000E+00 -0.00000000000E+00 -0.45593999997E+02  0.45594000000E+02  0.51100000000E-03 0. -1.
    9900012    2    1    2    0    0 -0.94959137772E+01  0.89911506111E+01 -0.13403944496E+02  0.72461577602E+02  0.70000009519E+02 0.  0.
        -12    1    1    2    0    0  0.94959137772E+01 -0.89911506111E+01  0.13403944496E+02  0.18726422398E+02  0.00000000000E+00 0.  1.
         11    1    3    3    0    0 -0.17186442466E+02 -0.11272649854E+02  0.14382528521E+02  0.25085923669E+02  0.51100000000E-03 0. -1.
        -11    1    3    3    0    0  0.40878708198E+01 -0.81617795856E+01 -0.33699012342E+01  0.97304454385E+01  0.51100000000E-03 0.  1.
         12    1    3    3    0    0  0.36026578694E+01  0.28425580051E+02 -0.24416571784E+02  0.37645208495E+02  0.00000000000E+00 0. -1.
</event>
<event>
 7    1  0.1789107E-013  0.7246161E+02  0.7816164E-02  0.1226708E+00
        -11   -1    0    0    0    0  0.00000000000E+00  0.00000000000E+00  0.45593999997E+02  0.45594000000E+02  0.51100000000E-03 0.  1.
         11   -1    0    0    0    0 -0.00000000000E+00 -0.00000000000E+00 -0.45593999997E+02  0.45594000000E+02  0.51100000000E-03 0. -1.
    9900012    2    1    2    0    0 -0.11763866280E+02  0.14274665487E+02 -0.29194047693E+01  0.72461613567E+02  0.70000056371E+02 0.  0.
        -12    1    1    2    0    0  0.11763866280E+02 -0.14274665487E+02  0.29194047693E+01  0.18726386433E+02  0.00000000000E+00 0.  1.
         11    1    3    3    0    0  0.15714224525E+02 -0.36931919839E+01  0.26754999902E+01  0.16362604313E+02  0.51100000000E-03 0. -1.
        -11    1    3    3    0    0  0.56118065699E+01 -0.29911188434E+01  0.11672748704E+02  0.13292562864E+02  0.51100000000E-03 0.  1.
         12    1    3    3    0    0 -0.33089897375E+02  0.20958976315E+02 -0.17267653464E+02  0.42806446390E+02  0.00000000000E+00 0. -1.
</event>
<event>
 7    1  0.1789107E-013  0.7246157E+02  0.7816164E-02  0.1226708E+00
        -11   -1    0    0    0    0  0.00000000000E+00  0.00000000000E+00  0.45593999997E+02  0.45594000000E+02  0.51100000000E-03 0. -1.
         11   -1    0    0    0    0 -0.00000000000E+00 -0.00000000000E+00 -0.45593999997E+02  0.45594000000E+02  0.51100000000E-03 0.  1.
    9900012    2    1    2    0    0 -0.61628593357E+01  0.21192532992E+01  0.17555825930E+02  0.72461572315E+02  0.70000002633E+02 0.  0.
        -12    1    1    2    0    0  0.61628593357E+01 -0.21192532992E+01 -0.17555825930E+02  0.18726427685E+02  0.00000000000E+00 0.  1.
         11    1    3    3    0    0  0.15256008999E+01  0.10100610374E+02  0.15233435280E+02  0.18341410489E+02  0.51100000000E-03 0. -1.
        -11    1    3    3    0    0 -0.14800707397E+02 -0.36159540380E+01  0.25378234978E+02  0.29600521514E+02  0.51100000000E-03 0.  1.
        -12    1    3    3    0    0  0.71122471618E+01 -0.43654030372E+01 -0.23055844328E+02  0.24519640312E+02  0.00000000000E+00 0.  1.
</event>
<event>
 7    1  0.1789107E-013  0.7246157E+02  0.7816164E-02  0.1226708E+00
        -11   -1    0    0    0    0  0.00000000000E+00  0.00000000000E+00  0.45593999997E+02  0.45594000000E+02  0.51100000000E-03 0. -1.
         11   -1    0    0    0    0 -0.00000000000E+00 -0.00000000000E+00 -0.45593999997E+02  0.45594000000E+02  0.51100000000E-03 0.  1.
    9900012    2    1    2    0    0  0.13028024839E+02 -0.93174635189E+01  0.97022913368E+01  0.72461574425E+02  0.70000005381E+02 0.  0.
        -12    1    1    2    0    0 -0.13028024839E+02  0.93174635189E+01 -0.97022913368E+01  0.18726425575E+02  0.00000000000E+00 0.  1.
         11    1    3    3    0    0  0.74506436900E+00  0.63760821545E+01  0.53834243229E+01  0.83779951215E+01  0.51100000000E-03 0. -1.
        -11    1    3    3    0    0 -0.23711606185E+02  0.20521085189E+01  0.11698805417E+01  0.23828974758E+02  0.51100000000E-03 0.  1.
        -12    1    3    3    0    0  0.35994566655E+02 -0.17745654192E+02  0.31489864722E+01  0.40254604546E+02  0.00000000000E+00 0.  1.
</event>
<event>
 7    1  0.1789107E-013  0.7246150E+02  0.7816164E-02  0.1226708E+00
        -11   -1    0    0    0    0  0.00000000000E+00  0.00000000000E+00  0.45593999997E+02  0.45594000000E+02  0.51100000000E-03 0. -1.
         11   -1    0    0    0    0 -0.00000000000E+00 -0.00000000000E+00 -0.45593999997E+02  0.45594000000E+02  0.51100000000E-03 0.  1.
    9900012    2    1    2    0    0  0.18549822623E+01  0.18632396190E+02 -0.27327771093E+00  0.72461499321E+02  0.69999907544E+02 0.  0.
        -12    1    1    2    0    0 -0.18549822623E+01 -0.18632396190E+02  0.27327771093E+00  0.18726500679E+02  0.00000000000E+00 0.  1.
         11    1    3    3    0    0  0.10852597937E+02  0.76749802693E+01 -0.13419640283E+02  0.18888381342E+02  0.51100000000E-03 0. -1.
        -11    1    3    3    0    0 -0.10583985950E+02 -0.11618534059E+02 -0.11976452550E+02  0.19759719336E+02  0.51100000000E-03 0.  1.
         12    1    3    3    0    0  0.15863702753E+01  0.22575949980E+02  0.25122815122E+02  0.33813398643E+02  0.00000000000E+00 0. -1.
</event>
<event>
 7    1  0.1789107E-013  0.7246156E+02  0.7816164E-02  0.1226708E+00
        -11   -1    0    0    0    0  0.00000000000E+00  0.00000000000E+00  0.45593999997E+02  0.45594000000E+02  0.51100000000E-03 0. -1.
         11   -1    0    0    0    0 -0.00000000000E+00 -0.00000000000E+00 -0.45593999997E+02  0.45594000000E+02  0.51100000000E-03 0.  1.
    9900012    2    1    2    0    0 -0.88981221513E+01 -0.69517779417E+01  0.14939069177E+02  0.72461559274E+02  0.69999985644E+02 0.  0.
        -12    1    1    2    0    0  0.88981221513E+01  0.69517779417E+01 -0.14939069177E+02  0.18726440726E+02  0.00000000000E+00 0.  1.
         11    1    3    3    0    0 -0.20646246220E+02 -0.21387239688E+02 -0.18056388087E+01  0.29781568734E+02  0.51100000000E-03 0. -1.
        -11    1    3    3    0    0  0.14361444841E+02 -0.77390851173E+01  0.33884399426E+01  0.16662114568E+02  0.51100000000E-03 0.  1.
        -12    1    3    3    0    0 -0.26133207722E+01  0.22174546864E+02  0.13356268043E+02  0.26017875973E+02  0.00000000000E+00 0.  1.
</event>
<event>
 7    1  0.1789107E-013  0.7246151E+02  0.7816164E-02  0.1226708E+00
        -11   -1    0    0    0    0  0.00000000000E+00  0.00000000000E+00  0.45593999997E+02  0.45594000000E+02  0.51100000000E-03 0.  1.
         11   -1    0    0    0    0 -0.00000000000E+00 -0.00000000000E+00 -0.45593999997E+02  0.45594000000E+02  0.51100000000E-03 0. -1.
    9900012    2    1    2    0    0 -0.13551079781E+02 -0.50167273191E+01 -0.11911431963E+02  0.72461507332E+02  0.69999917980E+02 0.  0.
        -12    1    1    2    0    0  0.13551079781E+02  0.50167273191E+01  0.11911431963E+02  0.18726492668E+02  0.00000000000E+00 0.  1.
         11    1    3    3    0    0 -0.22695171219E+02 -0.22137986784E+02  0.12437249759E+01  0.31728663816E+02  0.51100000000E-03 0. -1.
        -11    1    3    3    0    0 -0.67043394026E+00 -0.96240651274E+01 -0.80200624527E+00  0.96806676176E+01  0.51100000000E-03 0.  1.
        -12    1    3    3    0    0  0.98145253774E+01  0.26745324592E+02 -0.12353150694E+02  0.31052175898E+02  0.00000000000E+00 0.  1.
</event>
<event>
 7    1  0.1789107E-013  0.7246185E+02  0.7816164E-02  0.1226707E+00
        -11   -1    0    0    0    0  0.00000000000E+00  0.00000000000E+00  0.45593999997E+02  0.45594000000E+02  0.51100000000E-03 0.  1.
         11   -1    0    0    0    0 -0.00000000000E+00 -0.00000000000E+00 -0.45593999997E+02  0.45594000000E+02  0.51100000000E-03 0. -1.
    9900012    2    1    2    0    0 -0.15434290748E+02 -0.39442894916E+01 -0.98434764332E+01  0.72461847732E+02  0.70000361413E+02 0.  0.
        -12    1    1    2    0    0  0.15434290748E+02  0.39442894916E+01  0.98434764332E+01  0.18726152268E+02  0.00000000000E+00 0.  1.
         11    1    3    3    0    0 -0.31323052855E+02 -0.89489923017E+01 -0.54061391844E+01  0.33021878270E+02  0.51100000000E-03 0. -1.
        -11    1    3    3    0    0 -0.50615851977E+01  0.32312224486E+01  0.11556012256E+02  0.13023127994E+02  0.51100000000E-03 0.  1.
        -12    1    3    3    0    0  0.20950347305E+02  0.17734803616E+01 -0.15993349504E+02  0.26416841468E+02  0.00000000000E+00 0.  1.
</event>
<event>
 7    1  0.1789107E-013  0.7246158E+02  0.7816164E-02  0.1226708E+00
        -11   -1    0    0    0    0  0.00000000000E+00  0.00000000000E+00  0.45593999997E+02  0.45594000000E+02  0.51100000000E-03 0. -1.
         11   -1    0    0    0    0 -0.00000000000E+00 -0.00000000000E+00 -0.45593999997E+02  0.45594000000E+02  0.51100000000E-03 0.  1.
    9900012    2    1    2    0    0  0.64610881330E+01  0.78055134822E+01 -0.15748236672E+02  0.72461583929E+02  0.70000017762E+02 0.  0.
        -12    1    1    2    0    0 -0.64610881330E+01 -0.78055134822E+01  0.15748236672E+02  0.18726416071E+02  0.00000000000E+00 0.  1.
         11    1    3    3    0    0 -0.17501063350E+02  0.17067402783E+02 -0.15093274700E+02  0.28729608378E+02  0.51100000000E-03 0. -1.
        -11    1    3    3    0    0  0.13999272400E+02  0.12712262554E+02 -0.41306267633E+01  0.19355705223E+02  0.51100000000E-03 0.  1.
        -12    1    3    3    0    0  0.99628790833E+01 -0.21974151855E+02  0.34756647920E+01  0.24376270328E+02  0.00000000000E+00 0.  1.
</event>
<event>
 7    1  0.1789107E-013  0.7246157E+02  0.7816164E-02  0.1226708E+00
        -11   -1    0    0    0    0  0.00000000000E+00  0.00000000000E+00  0.45593999997E+02  0.45594000000E+02  0.51100000000E-03 0. -1.
         11   -1    0    0    0    0 -0.00000000000E+00 -0.00000000000E+00 -0.45593999997E+02  0.45594000000E+02  0.51100000000E-03 0.  1.
    9900012    2    1    2    0    0 -0.37071274387E+00  0.99875593882E+00  0.18696106986E+02  0.72461565267E+02  0.69999993452E+02 0.  0.
        -12    1    1    2    0    0  0.37071274387E+00 -0.99875593882E+00 -0.18696106986E+02  0.18726434733E+02  0.00000000000E+00 0.  1.
         11    1    3    3    0    0 -0.19225399040E+02  0.13364843369E+01  0.16171440342E+01  0.19339527236E+02  0.51100000000E-03 0. -1.
        -11    1    3    3    0    0 -0.14167849085E+02 -0.80925107743E+01  0.68160709735E+01  0.17682632782E+02  0.51100000000E-03 0.  1.
        -12    1    3    3    0    0  0.33022535381E+02  0.77547823763E+01  0.10262891978E+02  0.35439405249E+02  0.00000000000E+00 0.  1.
</event>
<event>
 7    1  0.1789107E-013  0.7246156E+02  0.7816164E-02  0.1226708E+00
        -11   -1    0    0    0    0  0.00000000000E+00  0.00000000000E+00  0.45593999997E+02  0.45594000000E+02  0.51100000000E-03 0.  1.
         11   -1    0    0    0    0 -0.00000000000E+00 -0.00000000000E+00 -0.45593999997E+02  0.45594000000E+02  0.51100000000E-03 0. -1.
    9900012    2    1    2    0    0 -0.38724924496E+01 -0.14482686529E+02 -0.11222091014E+02  0.72461555233E+02  0.69999980380E+02 0.  0.
        -12    1    1    2    0    0  0.38724924496E+01  0.14482686529E+02  0.11222091014E+02  0.18726444767E+02  0.00000000000E+00 0.  1.
         11    1    3    3    0    0  0.49357710933E+01  0.20681118090E+01 -0.37854588786E+01  0.65550455317E+01  0.51100000000E-03 0. -1.
        -11    1    3    3    0    0  0.24298843134E+01 -0.10638871402E+02  0.27043567350E+02  0.29162380866E+02  0.51100000000E-03 0.  1.
         12    1    3    3    0    0 -0.11238147856E+02 -0.59119269364E+01 -0.34480199485E+02  0.36744128836E+02  0.00000000000E+00 0. -1.
</event>
<event>
 7    1  0.1789107E-013  0.7246164E+02  0.7816164E-02  0.1226708E+00
        -11   -1    0    0    0    0  0.00000000000E+00  0.00000000000E+00  0.45593999997E+02  0.45594000000E+02  0.51100000000E-03 0.  1.
         11   -1    0    0    0    0 -0.00000000000E+00 -0.00000000000E+00 -0.45593999997E+02  0.45594000000E+02  0.51100000000E-03 0. -1.
    9900012    2    1    2    0    0 -0.14792568369E+02 -0.10369188997E+02 -0.49332088924E+01  0.72461635981E+02  0.70000085569E+02 0.  0.
        -12    1    1    2    0    0  0.14792568369E+02  0.10369188997E+02  0.49332088924E+01  0.18726364019E+02  0.00000000000E+00 0.  1.
         11    1    3    3    0    0  0.18569540799E+02 -0.25742611824E+01  0.17035729059E+02  0.25331220479E+02  0.51100000000E-03 0. -1.
        -11    1    3    3    0    0 -0.85644532211E+00  0.19735343643E+01  0.39002477897E+01  0.44542417491E+01  0.51100000000E-03 0.  1.
        -12    1    3    3    0    0 -0.32505663845E+02 -0.97684621786E+01 -0.25869185741E+02  0.42676173754E+02  0.00000000000E+00 0.  1.
</event>
<event>
 7    1  0.1789107E-013  0.7246132E+02  0.7816164E-02  0.1226709E+00
        -11   -1    0    0    0    0  0.00000000000E+00  0.00000000000E+00  0.45593999997E+02  0.45594000000E+02  0.51100000000E-03 0. -1.
         11   -1    0    0    0    0 -0.00000000000E+00 -0.00000000000E+00 -0.45593999997E+02  0.45594000000E+02  0.51100000000E-03 0.  1.
    9900012    2    1    2    0    0 -0.66070040095E+01  0.16953013219E+02  0.44307301174E+01  0.72461320407E+02  0.69999674475E+02 0.  0.
        -12    1    1    2    0    0  0.66070040095E+01 -0.16953013219E+02 -0.44307301174E+01  0.18726679593E+02  0.00000000000E+00 0.  1.
         11    1    3    3    0    0 -0.21269169826E+02  0.52103465305E+01  0.47739019982E+01  0.22412394710E+02  0.51100000000E-03 0. -1.
        -11    1    3    3    0    0  0.31512334803E+01 -0.69855998113E+00 -0.22175699899E+02  0.22409371360E+02  0.51100000000E-03 0.  1.
         12    1    3    3    0    0  0.11510932336E+02  0.12441226670E+02  0.21832528018E+02  0.27639554337E+02  0.00000000000E+00 0. -1.
</event>
<event>
 7    1  0.1789107E-013  0.7246148E+02  0.7816164E-02  0.1226708E+00
        -11   -1    0    0    0    0  0.00000000000E+00  0.00000000000E+00  0.45593999997E+02  0.45594000000E+02  0.51100000000E-03 0. -1.
         11   -1    0    0    0    0 -0.00000000000E+00 -0.00000000000E+00 -0.45593999997E+02  0.45594000000E+02  0.51100000000E-03 0.  1.
    9900012    2    1    2    0    0  0.12444490956E+02 -0.17898934797E+01  0.13878521894E+02  0.72461482871E+02  0.69999886115E+02 0.  0.
        -12    1    1    2    0    0 -0.12444490956E+02  0.17898934797E+01 -0.13878521894E+02  0.18726517129E+02  0.00000000000E+00 0.  1.
         11    1    3    3    0    0  0.18891775976E+01 -0.28472124309E+01 -0.92318266710E+00  0.35394741304E+01  0.51100000000E-03 0. -1.
        -11    1    3    3    0    0  0.14389496930E+02  0.11653832614E+02 -0.22970620137E+02  0.29504556025E+02  0.51100000000E-03 0.  1.
         12    1    3    3    0    0 -0.38341835720E+01 -0.10596513663E+02  0.37772324698E+02  0.39417452716E+02  0.00000000000E+00 0. -1.
</event>
<event>
 7    1  0.1789107E-013  0.7246156E+02  0.7816164E-02  0.1226708E+00
        -11   -1    0    0    0    0  0.00000000000E+00  0.00000000000E+00  0.45593999997E+02  0.45594000000E+02  0.51100000000E-03 0.  1.
         11   -1    0    0    0    0 -0.00000000000E+00 -0.00000000000E+00 -0.45593999997E+02  0.45594000000E+02  0.51100000000E-03 0. -1.
    9900012    2    1    2    0    0  0.16342653655E+02 -0.76614305676E+01  0.49899464976E+01  0.72461563797E+02  0.69999991536E+02 0.  0.
        -12    1    1    2    0    0 -0.16342653655E+02  0.76614305676E+01 -0.49899464976E+01  0.18726436203E+02  0.00000000000E+00 0.  1.
         11    1    3    3    0    0  0.17163891834E+02 -0.25343854421E+00  0.73640762859E+01  0.18678678588E+02  0.51100000000E-03 0. -1.
        -11    1    3    3    0    0  0.25995406719E+02 -0.69420782730E+01 -0.14906282036E+01  0.26947645425E+02  0.51100000000E-03 0.  1.
         12    1    3    3    0    0 -0.26816644898E+02 -0.46591375037E+00 -0.88350158469E+00  0.26835239784E+02  0.00000000000E+00 0. -1.
</event>
<event>
 7    1  0.1789107E-013  0.7246160E+02  0.7816164E-02  0.1226708E+00
        -11   -1    0    0    0    0  0.00000000000E+00  0.00000000000E+00  0.45593999997E+02  0.45594000000E+02  0.51100000000E-03 0.  1.
         11   -1    0    0    0    0 -0.00000000000E+00 -0.00000000000E+00 -0.45593999997E+02  0.45594000000E+02  0.51100000000E-03 0. -1.
    9900012    2    1    2    0    0  0.15507439486E+02 -0.87008782081E+01 -0.58730123409E+01  0.72461595247E+02  0.70000032505E+02 0.  0.
        -12    1    1    2    0    0 -0.15507439486E+02  0.87008782081E+01  0.58730123409E+01  0.18726404753E+02  0.00000000000E+00 0.  1.
         11    1    3    3    0    0  0.80440560216E+01  0.66780180537E+01  0.14235208244E+02  0.17661934107E+02  0.51100000000E-03 0.  1.
        -11    1    3    3    0    0 -0.70670986434E+01  0.15372385687E+02 -0.77897955635E+01  0.18626192315E+02  0.51100000000E-03 0. -1.
         12    1    3    3    0    0  0.14530482108E+02 -0.30751281949E+02 -0.12318425021E+02  0.36173468825E+02  0.00000000000E+00 0. -1.
</event>
<event>
 7    1  0.1789107E-013  0.7246160E+02  0.7816164E-02  0.1226708E+00
        -11   -1    0    0    0    0  0.00000000000E+00  0.00000000000E+00  0.45593999997E+02  0.45594000000E+02  0.51100000000E-03 0.  1.
         11   -1    0    0    0    0 -0.00000000000E+00 -0.00000000000E+00 -0.45593999997E+02  0.45594000000E+02  0.51100000000E-03 0. -1.
    9900012    2    1    2    0    0  0.13439493760E+01 -0.16645282625E+02 -0.84738693116E+01  0.72461598992E+02  0.70000037384E+02 0.  0.
        -12    1    1    2    0    0 -0.13439493760E+01  0.16645282625E+02  0.84738693116E+01  0.18726401008E+02  0.00000000000E+00 0.  1.
         11    1    3    3    0    0  0.10830171795E+02  0.90121374965E+01 -0.27954702319E+02  0.31304578345E+02  0.51100000000E-03 0. -1.
        -11    1    3    3    0    0 -0.10735135299E+02 -0.20923737587E+00  0.49163248054E+01  0.11809198111E+02  0.51100000000E-03 0.  1.
        -12    1    3    3    0    0  0.12489128803E+01 -0.25448182746E+02  0.14564508202E+02  0.29347822536E+02  0.00000000000E+00 0.  1.
</event>
<event>
 7    1  0.1789107E-013  0.7246158E+02  0.7816164E-02  0.1226708E+00
        -11   -1    0    0    0    0  0.00000000000E+00  0.00000000000E+00  0.45593999997E+02  0.45594000000E+02  0.51100000000E-03 0.  1.
         11   -1    0    0    0    0 -0.00000000000E+00 -0.00000000000E+00 -0.45593999997E+02  0.45594000000E+02  0.51100000000E-03 0. -1.
    9900012    2    1    2    0    0  0.83053088735E+01  0.43400378382E+01 -0.16213099474E+02  0.72461583406E+02  0.70000017080E+02 0.  0.
        -12    1    1    2    0    0 -0.83053088735E+01 -0.43400378382E+01  0.16213099474E+02  0.18726416594E+02  0.00000000000E+00 0.  1.
         11    1    3    3    0    0  0.44098593072E+01  0.92501513877E+01  0.22081482308E+02  0.24343459511E+02  0.51100000000E-03 0. -1.
        -11    1    3    3    0    0  0.68987017789E+01  0.91416803426E+01 -0.63608809792E+01  0.13100504296E+02  0.51100000000E-03 0.  1.
         12    1    3    3    0    0 -0.30032522127E+01 -0.14051793892E+02 -0.31933700802E+02  0.35017619599E+02  0.00000000000E+00 0. -1.
</event>
<event>
 7    1  0.1789107E-013  0.7246153E+02  0.7816164E-02  0.1226708E+00
        -11   -1    0    0    0    0  0.00000000000E+00  0.00000000000E+00  0.45593999997E+02  0.45594000000E+02  0.51100000000E-03 0.  1.
         11   -1    0    0    0    0 -0.00000000000E+00 -0.00000000000E+00 -0.45593999997E+02  0.45594000000E+02  0.51100000000E-03 0. -1.
    9900012    2    1    2    0    0  0.81718745042E+01 -0.16429239651E+02 -0.37391678808E+01  0.72461526096E+02  0.69999942424E+02 0.  0.
        -12    1    1    2    0    0 -0.81718745042E+01  0.16429239651E+02  0.37391678808E+01  0.18726473904E+02  0.00000000000E+00 0.  1.
         11    1    3    3    0    0 -0.78888125216E+00  0.67675730951E+01 -0.25448912149E+02  0.26345198976E+02  0.51100000000E-03 0. -1.
        -11    1    3    3    0    0  0.12934501894E+02  0.14259398650E+01 -0.56297323535E-01  0.13012986337E+02  0.51100000000E-03 0.  1.
        -12    1    3    3    0    0 -0.39737461377E+01 -0.24622752611E+02  0.21766041592E+02  0.33103340784E+02  0.00000000000E+00 0.  1.
</event>
<event>
 7    1  0.1789107E-013  0.7246202E+02  0.7816164E-02  0.1226707E+00
        -11   -1    0    0    0    0  0.00000000000E+00  0.00000000000E+00  0.45593999997E+02  0.45594000000E+02  0.51100000000E-03 0.  1.
         11   -1    0    0    0    0 -0.00000000000E+00 -0.00000000000E+00 -0.45593999997E+02  0.45594000000E+02  0.51100000000E-03 0. -1.
    9900012    2    1    2    0    0 -0.13624254755E+02 -0.12506731684E+02 -0.29366115003E+01  0.72462019595E+02  0.70000585295E+02 0.  0.
        -12    1    1    2    0    0  0.13624254755E+02  0.12506731684E+02  0.29366115003E+01  0.18725980405E+02  0.00000000000E+00 0.  1.
         11    1    3    3    0    0 -0.16509145762E+02  0.38680787943E+01 -0.20233294348E+01  0.17076527446E+02  0.51100000000E-03 0.  1.
        -11    1    3    3    0    0 -0.19089708421E+02 -0.22039471325E+02 -0.10165762132E+02  0.30878762667E+02  0.51100000000E-03 0. -1.
        -12    1    3    3    0    0  0.21974599428E+02  0.56646608467E+01  0.92524800664E+01  0.24506729482E+02  0.00000000000E+00 0.  1.
</event>
<event>
 7    1  0.1789107E-013  0.7246155E+02  0.7816164E-02  0.1226708E+00
        -11   -1    0    0    0    0  0.00000000000E+00  0.00000000000E+00  0.45593999997E+02  0.45594000000E+02  0.51100000000E-03 0. -1.
         11   -1    0    0    0    0 -0.00000000000E+00 -0.00000000000E+00 -0.45593999997E+02  0.45594000000E+02  0.51100000000E-03 0.  1.
    9900012    2    1    2    0    0  0.12413027955E+02  0.13750102398E+02 -0.27443351864E+01  0.72461549333E+02  0.69999972694E+02 0.  0.
        -12    1    1    2    0    0 -0.12413027955E+02 -0.13750102398E+02  0.27443351864E+01  0.18726450667E+02  0.00000000000E+00 0.  1.
         11    1    3    3    0    0  0.14237614554E+02 -0.16946089318E+02 -0.36057655101E+01  0.22425011851E+02  0.51100000000E-03 0. -1.
        -11    1    3    3    0    0  0.10411953227E+02 -0.34112814975E+01  0.73916758344E+01  0.13216750106E+02  0.51100000000E-03 0.  1.
        -12    1    3    3    0    0 -0.12236539826E+02  0.34107473214E+02 -0.65302455107E+01  0.36819787376E+02  0.00000000000E+00 0.  1.
</event>
<event>
 7    1  0.1789107E-013  0.7246159E+02  0.7816164E-02  0.1226708E+00
        -11   -1    0    0    0    0  0.00000000000E+00  0.00000000000E+00  0.45593999997E+02  0.45594000000E+02  0.51100000000E-03 0. -1.
         11   -1    0    0    0    0 -0.00000000000E+00 -0.00000000000E+00 -0.45593999997E+02  0.45594000000E+02  0.51100000000E-03 0.  1.
    9900012    2    1    2    0    0 -0.42137354679E+01  0.17351874473E+02 -0.56422760556E+01  0.72461591016E+02  0.70000026994E+02 0.  0.
        -12    1    1    2    0    0  0.42137354679E+01 -0.17351874473E+02  0.56422760556E+01  0.18726408984E+02  0.00000000000E+00 0.  1.
         11    1    3    3    0    0 -0.80129947183E+01 -0.58263245418E+01  0.36233066076E+01  0.10549051761E+02  0.51100000000E-03 0. -1.
        -11    1    3    3    0    0  0.13919141087E+02 -0.12631731599E+02 -0.15271970933E+02  0.24218510033E+02  0.51100000000E-03 0.  1.
         12    1    3    3    0    0 -0.10119881836E+02  0.35809930614E+02  0.60063882701E+01  0.37694029222E+02  0.00000000000E+00 0. -1.
</event>
<event>
 7    1  0.1789107E-013  0.7246153E+02  0.7816164E-02  0.1226708E+00
        -11   -1    0    0    0    0  0.00000000000E+00  0.00000000000E+00  0.45593999997E+02  0.45594000000E+02  0.51100000000E-03 0.  1.
         11   -1    0    0    0    0 -0.00000000000E+00 -0.00000000000E+00 -0.45593999997E+02  0.45594000000E+02  0.51100000000E-03 0. -1.
    9900012    2    1    2    0    0 -0.12762864605E+02  0.66493775003E+01  0.11982313924E+02  0.72461527266E+02  0.69999943948E+02 0.  0.
        -12    1    1    2    0    0  0.12762864605E+02 -0.66493775003E+01 -0.11982313924E+02  0.18726472734E+02  0.00000000000E+00 0.  1.
         11    1    3    3    0    0 -0.17548894466E+01 -0.49632547006E+01  0.19834749232E+00  0.52680998645E+01  0.51100000000E-03 0. -1.
        -11    1    3    3    0    0 -0.72814233704E+01  0.15581621295E+02  0.37315253696E+02  0.41088127326E+02  0.51100000000E-03 0.  1.
         12    1    3    3    0    0 -0.37265517881E+01 -0.39689890941E+01 -0.25531287264E+02  0.26105300076E+02  0.00000000000E+00 0. -1.
</event>
<event>
 7    1  0.1789107E-013  0.7246155E+02  0.7816164E-02  0.1226708E+00
        -11   -1    0    0    0    0  0.00000000000E+00  0.00000000000E+00  0.45593999997E+02  0.45594000000E+02  0.51100000000E-03 0.  1.
         11   -1    0    0    0    0 -0.00000000000E+00 -0.00000000000E+00 -0.45593999997E+02  0.45594000000E+02  0.51100000000E-03 0. -1.
    9900012    2    1    2    0    0  0.64732810042E+01  0.18036992248E+01 -0.17479219052E+02  0.72461553553E+02  0.69999978192E+02 0.  0.
        -12    1    1    2    0    0 -0.64732810042E+01 -0.18036992248E+01  0.17479219052E+02  0.18726446447E+02  0.00000000000E+00 0.  1.
         11    1    3    3    0    0 -0.18241561282E+02 -0.11887009844E+02 -0.14951877938E+02  0.26412387533E+02  0.51100000000E-03 0. -1.
        -11    1    3    3    0    0 -0.57150570663E+01 -0.67687277261E+01  0.20596416714E+01  0.90950358095E+01  0.51100000000E-03 0.  1.
        -12    1    3    3    0    0  0.30429899353E+02  0.20459436795E+02 -0.45869827848E+01  0.36954130211E+02  0.00000000000E+00 0.  1.
</event>
<event>
 7    1  0.1789107E-013  0.7246153E+02  0.7816164E-02  0.1226708E+00
        -11   -1    0    0    0    0  0.00000000000E+00  0.00000000000E+00  0.45593999997E+02  0.45594000000E+02  0.51100000000E-03 0.  1.
         11   -1    0    0    0    0 -0.00000000000E+00 -0.00000000000E+00 -0.45593999997E+02  0.45594000000E+02  0.51100000000E-03 0. -1.
    9900012    2    1    2    0    0 -0.11040184687E+01  0.17334636058E+01 -0.18613352127E+02  0.72461531293E+02  0.69999949193E+02 0.  0.
        -12    1    1    2    0    0  0.11040184687E+01 -0.17334636058E+01  0.18613352127E+02  0.18726468707E+02  0.00000000000E+00 0.  1.
         11    1    3    3    0    0  0.61150565944E+01  0.32133910472E+01  0.12027343373E+02  0.13869995965E+02  0.51100000000E-03 0. -1.
        -11    1    3    3    0    0 -0.18383091262E+01  0.22325158459E+02 -0.45364074989E+01  0.22855438607E+02  0.51100000000E-03 0.  1.
         12    1    3    3    0    0 -0.53807659369E+01 -0.23805085901E+02 -0.26104288001E+02  0.35736096721E+02  0.00000000000E+00 0. -1.
</event>
<event>
 7    1  0.1789107E-013  0.7246151E+02  0.7816164E-02  0.1226708E+00
        -11   -1    0    0    0    0  0.00000000000E+00  0.00000000000E+00  0.45593999997E+02  0.45594000000E+02  0.51100000000E-03 0.  1.
         11   -1    0    0    0    0 -0.00000000000E+00 -0.00000000000E+00 -0.45593999997E+02  0.45594000000E+02  0.51100000000E-03 0. -1.
    9900012    2    1    2    0    0  0.16436062565E+02  0.83274508620E+01 -0.33452634020E+01  0.72461511335E+02  0.69999923194E+02 0.  0.
        -12    1    1    2    0    0 -0.16436062565E+02 -0.83274508620E+01  0.33452634020E+01  0.18726488665E+02  0.00000000000E+00 0.  1.
         11    1    3    3    0    0  0.14984866439E+01  0.63566205630E+01 -0.12467257940E+02  0.14074253373E+02  0.51100000000E-03 0. -1.
        -11    1    3    3    0    0  0.18815831752E+02  0.25644134558E+02 -0.21559767609E+01  0.31879545132E+02  0.51100000000E-03 0.  1.
         12    1    3    3    0    0 -0.38782558305E+01 -0.23673304259E+02  0.11277971299E+02  0.26507712830E+02  0.00000000000E+00 0. -1.
</event>
<event>
 7    1  0.1789107E-013  0.7246157E+02  0.7816164E-02  0.1226708E+00
        -11   -1    0    0    0    0  0.00000000000E+00  0.00000000000E+00  0.45593999997E+02  0.45594000000E+02  0.51100000000E-03 0. -1.
         11   -1    0    0    0    0 -0.00000000000E+00 -0.00000000000E+00 -0.45593999997E+02  0.45594000000E+02  0.51100000000E-03 0.  1.
    9900012    2    1    2    0    0  0.29132271887E+01 -0.91891189165E+01  0.16054670171E+02  0.72461568589E+02  0.69999997778E+02 0.  0.
        -12    1    1    2    0    0 -0.29132271887E+01  0.91891189165E+01 -0.16054670171E+02  0.18726431411E+02  0.00000000000E+00 0.  1.
         11    1    3    3    0    0 -0.12995977709E+01  0.10394621303E+02 -0.73479215395E+01  0.12795665579E+02  0.51100000000E-03 0. -1.
        -11    1    3    3    0    0 -0.16710635334E+02  0.24384278399E+01 -0.54751682186E+01  0.17752992167E+02  0.51100000000E-03 0.  1.
         12    1    3    3    0    0  0.20923460294E+02 -0.22022168060E+02  0.28877759929E+02  0.41912910842E+02  0.00000000000E+00 0. -1.
</event>
<event>
 7    1  0.1789107E-013  0.7246145E+02  0.7816164E-02  0.1226708E+00
        -11   -1    0    0    0    0  0.00000000000E+00  0.00000000000E+00  0.45593999997E+02  0.45594000000E+02  0.51100000000E-03 0. -1.
         11   -1    0    0    0    0 -0.00000000000E+00 -0.00000000000E+00 -0.45593999997E+02  0.45594000000E+02  0.51100000000E-03 0.  1.
    9900012    2    1    2    0    0  0.67527906573E+01  0.70006528551E+01  0.16002321505E+02  0.72461451583E+02  0.69999845356E+02 0.  0.
        -12    1    1    2    0    0 -0.67527906573E+01 -0.70006528551E+01 -0.16002321505E+02  0.18726548417E+02  0.00000000000E+00 0.  1.
         11    1    3    3    0    0  0.10322773530E+02 -0.37202769273E+01  0.30201034321E+02  0.32132578298E+02  0.51100000000E-03 0. -1.
        -11    1    3    3    0    0  0.10273244119E+02  0.87793894365E+00  0.75164136243E+01  0.12759576621E+02  0.51100000000E-03 0.  1.
        -12    1    3    3    0    0 -0.13843226992E+02  0.98429908388E+01 -0.21715126440E+02  0.27569296663E+02  0.00000000000E+00 0.  1.
</event>
<event>
 7    1  0.1789107E-013  0.7246159E+02  0.7816164E-02  0.1226708E+00
        -11   -1    0    0    0    0  0.00000000000E+00  0.00000000000E+00  0.45593999997E+02  0.45594000000E+02  0.51100000000E-03 0.  1.
         11   -1    0    0    0    0 -0.00000000000E+00 -0.00000000000E+00 -0.45593999997E+02  0.45594000000E+02  0.51100000000E-03 0. -1.
    9900012    2    1    2    0    0  0.11553504940E+02 -0.13024406033E+02 -0.68963515260E+01  0.72461593690E+02  0.70000030478E+02 0.  0.
        -12    1    1    2    0    0 -0.11553504940E+02  0.13024406033E+02  0.68963515260E+01  0.18726406310E+02  0.00000000000E+00 0.  1.
         11    1    3    3    0    0  0.22104208435E+02  0.51564779921E+01 -0.10644756385E+02  0.25069825180E+02  0.51100000000E-03 0. -1.
        -11    1    3    3    0    0  0.11730394111E+02 -0.14426545735E+02 -0.98282209801E+01  0.21031435894E+02  0.51100000000E-03 0.  1.
        -12    1    3    3    0    0 -0.22281097606E+02 -0.37543382895E+01  0.13576625839E+02  0.26360332617E+02  0.00000000000E+00 0.  1.
</event>
<event>
 7    1  0.1789107E-013  0.7246153E+02  0.7816164E-02  0.1226708E+00
        -11   -1    0    0    0    0  0.00000000000E+00  0.00000000000E+00  0.45593999997E+02  0.45594000000E+02  0.51100000000E-03 0. -1.
         11   -1    0    0    0    0 -0.00000000000E+00 -0.00000000000E+00 -0.45593999997E+02  0.45594000000E+02  0.51100000000E-03 0.  1.
    9900012    2    1    2    0    0  0.88946056401E+01 -0.56853476361E+00  0.16469466310E+02  0.72461533120E+02  0.69999951574E+02 0.  0.
        -12    1    1    2    0    0 -0.88946056401E+01  0.56853476361E+00 -0.16469466310E+02  0.18726466880E+02  0.00000000000E+00 0.  1.
         11    1    3    3    0    0  0.61820895192E+01 -0.69400044181E+01  0.15307164953E+02  0.17907852783E+02  0.51100000000E-03 0. -1.
        -11    1    3    3    0    0  0.22950268872E+02  0.19660191357E+02  0.23722160739E+01  0.30312792265E+02  0.51100000000E-03 0.  1.
         12    1    3    3    0    0 -0.20237752751E+02 -0.13288721703E+02 -0.12099147173E+01  0.24240888072E+02  0.00000000000E+00 0. -1.
</event>
<event>
 7    1  0.1789107E-013  0.7246157E+02  0.7816164E-02  0.1226708E+00
        -11   -1    0    0    0    0  0.00000000000E+00  0.00000000000E+00  0.45593999997E+02  0.45594000000E+02  0.51100000000E-03 0. -1.
         11   -1    0    0    0    0 -0.00000000000E+00 -0.00000000000E+00 -0.45593999997E+02  0.45594000000E+02  0.51100000000E-03 0.  1.
    9900012    2    1    2    0    0 -0.18456588336E+02 -0.31591717024E+01  0.23061421317E+00  0.72461569434E+02  0.69999998879E+02 0.  0.
        -12    1    1    2    0    0  0.18456588336E+02  0.31591717024E+01 -0.23061421317E+00  0.18726430566E+02  0.00000000000E+00 0.  1.
         11    1    3    3    0    0  0.74249452515E-02 -0.63507545488E+01 -0.16198983718E+01  0.65540986768E+01  0.51100000000E-03 0. -1.
        -11    1    3    3    0    0 -0.27881508769E+02 -0.23270770604E+02 -0.58451380803E+01  0.36784139723E+02  0.51100000000E-03 0.  1.
         12    1    3    3    0    0  0.94174954879E+01  0.26462353450E+02  0.76956506653E+01  0.29123331034E+02  0.00000000000E+00 0. -1.
</event>
<event>
 7    1  0.1789107E-013  0.7246174E+02  0.7816164E-02  0.1226708E+00
        -11   -1    0    0    0    0  0.00000000000E+00  0.00000000000E+00  0.45593999997E+02  0.45594000000E+02  0.51100000000E-03 0.  1.
         11   -1    0    0    0    0 -0.00000000000E+00 -0.00000000000E+00 -0.45593999997E+02  0.45594000000E+02  0.51100000000E-03 0. -1.
    9900012    2    1    2    0    0 -0.16816629365E+02 -0.72631432762E+01 -0.38885013775E+01  0.72461742594E+02  0.70000224452E+02 0.  0.
        -12    1    1    2    0    0  0.16816629365E+02  0.72631432762E+01  0.38885013775E+01  0.18726257406E+02  0.00000000000E+00 0.  1.
         11    1    3    3    0    0  0.37856793453E+01 -0.11546362794E+02 -0.29444793962E+02  0.31853504574E+02  0.51100000000E-03 0. -1.
        -11    1    3    3    0    0 -0.14029710604E+02 -0.51357146396E+01  0.29171438115E+01  0.15222288684E+02  0.51100000000E-03 0.  1.
        -12    1    3    3    0    0 -0.65725981064E+01  0.94189341577E+01  0.22639148773E+02  0.25385949337E+02  0.00000000000E+00 0.  1.
</event>
<event>
 7    1  0.1789107E-013  0.7246165E+02  0.7816164E-02  0.1226708E+00
        -11   -1    0    0    0    0  0.00000000000E+00  0.00000000000E+00  0.45593999997E+02  0.45594000000E+02  0.51100000000E-03 0.  1.
         11   -1    0    0    0    0 -0.00000000000E+00 -0.00000000000E+00 -0.45593999997E+02  0.45594000000E+02  0.51100000000E-03 0. -1.
    9900012    2    1    2    0    0 -0.17003616137E+02  0.11455648442E+01 -0.77615018440E+01  0.72461649810E+02  0.70000103584E+02 0.  0.
        -12    1    1    2    0    0  0.17003616137E+02 -0.11455648442E+01  0.77615018440E+01  0.18726350190E+02  0.00000000000E+00 0.  1.
         11    1    3    3    0    0  0.30736066441E+01  0.15923270385E+02 -0.20560424201E+02  0.26186420931E+02  0.51100000000E-03 0. -1.
        -11    1    3    3    0    0 -0.97881721069E+01 -0.81712552218E+01 -0.12699907547E+02  0.17996260085E+02  0.51100000000E-03 0.  1.
        -12    1    3    3    0    0 -0.10289050674E+02 -0.66064503195E+01  0.25498829904E+02  0.28278968794E+02  0.00000000000E+00 0.  1.
</event>
<event>
 7    1  0.1789107E-013  0.7246168E+02  0.7816164E-02  0.1226708E+00
        -11   -1    0    0    0    0  0.00000000000E+00  0.00000000000E+00  0.45593999997E+02  0.45594000000E+02  0.51100000000E-03 0. -1.
         11   -1    0    0    0    0 -0.00000000000E+00 -0.00000000000E+00 -0.45593999997E+02  0.45594000000E+02  0.51100000000E-03 0.  1.
    9900012    2    1    2    0    0  0.17564656104E+02  0.37834083599E+01 -0.52767006285E+01  0.72461684495E+02  0.70000148768E+02 0.  0.
        -12    1    1    2    0    0 -0.17564656104E+02 -0.37834083599E+01  0.52767006285E+01  0.18726315505E+02  0.00000000000E+00 0.  1.
         11    1    3    3    0    0  0.67568055051E+01 -0.42397460397E+01 -0.12982827396E+01  0.80817946923E+01  0.51100000000E-03 0. -1.
        -11    1    3    3    0    0 -0.93745821951E+01 -0.23825823316E+02 -0.70299695788E+01  0.26551329921E+02  0.51100000000E-03 0.  1.
         12    1    3    3    0    0  0.20182432794E+02  0.31848977716E+02  0.30515516899E+01  0.37828559882E+02  0.00000000000E+00 0. -1.
</event>
<event>
 7    1  0.1789107E-013  0.7246199E+02  0.7816164E-02  0.1226707E+00
        -11   -1    0    0    0    0  0.00000000000E+00  0.00000000000E+00  0.45593999997E+02  0.45594000000E+02  0.51100000000E-03 0.  1.
         11   -1    0    0    0    0 -0.00000000000E+00 -0.00000000000E+00 -0.45593999997E+02  0.45594000000E+02  0.51100000000E-03 0. -1.
    9900012    2    1    2    0    0  0.96759564290E+01  0.15940711974E+02 -0.17125543181E+01  0.72461994731E+02  0.70000552905E+02 0.  0.
        -12    1    1    2    0    0 -0.96759564290E+01 -0.15940711974E+02  0.17125543181E+01  0.18726005269E+02  0.00000000000E+00 0.  1.
         11    1    3    3    0    0 -0.57834549233E+01  0.16410296797E+01 -0.14043912160E+01  0.61736248840E+01  0.51100000000E-03 0. -1.
        -11    1    3    3    0    0 -0.64453617609E+01  0.32008346241E+02  0.12989319431E+02  0.35139711679E+02  0.51100000000E-03 0.  1.
         12    1    3    3    0    0  0.21904773113E+02 -0.17708663947E+02 -0.13297482533E+02  0.31148658168E+02  0.00000000000E+00 0. -1.
</event>
<event>
 7    1  0.2560867E-013  0.7246159E+02  0.7816164E-02  0.1226708E+00
        -11   -1    0    0    0    0  0.00000000000E+00  0.00000000000E+00  0.45593999997E+02  0.45594000000E+02  0.51100000000E-03 0. -1.
         11   -1    0    0    0    0 -0.00000000000E+00 -0.00000000000E+00 -0.45593999997E+02  0.45594000000E+02  0.51100000000E-03 0.  1.
    9900012    2    1    2    0    0  0.21308254346E+00 -0.12994302643E+02  0.13482621428E+02  0.72461591217E+02  0.70000027256E+02 0.  0.
        -12    1    1    2    0    0 -0.21308254346E+00  0.12994302643E+02 -0.13482621428E+02  0.18726408783E+02  0.00000000000E+00 0.  1.
         11    1    3    3    0    0  0.20458075166E+02 -0.18271760157E+02  0.93422181368E+01  0.28977009830E+02  0.51100000000E-03 0. -1.
        -11    1    3    3    0    0  0.13510498410E+01  0.12328545209E+02 -0.10673979581E+02  0.16363135488E+02  0.51100000000E-03 0.  1.
        -12    1    3    3    0    0 -0.21596042464E+02 -0.70510876953E+01  0.14814382872E+02  0.27121445899E+02  0.00000000000E+00 0.  1.
</event>
<event>
 7    1  0.1789107E-013  0.7246172E+02  0.7816164E-02  0.1226708E+00
        -11   -1    0    0    0    0  0.00000000000E+00  0.00000000000E+00  0.45593999997E+02  0.45594000000E+02  0.51100000000E-03 0.  1.
         11   -1    0    0    0    0 -0.00000000000E+00 -0.00000000000E+00 -0.45593999997E+02  0.45594000000E+02  0.51100000000E-03 0. -1.
    9900012    2    1    2    0    0  0.32598708638E+00 -0.87964424575E+01 -0.16528458123E+02  0.72461719125E+02  0.70000193879E+02 0.  0.
        -12    1    1    2    0    0 -0.32598708638E+00  0.87964424575E+01  0.16528458123E+02  0.18726280875E+02  0.00000000000E+00 0.  1.
         11    1    3    3    0    0  0.98103246956E+01  0.72170141478E+01 -0.11786727344E+02  0.16948590076E+02  0.51100000000E-03 0. -1.
        -11    1    3    3    0    0 -0.23235157640E+02 -0.84623593055E+01 -0.21348183428E+02  0.32668471215E+02  0.51100000000E-03 0.  1.
        -12    1    3    3    0    0  0.13750820031E+02 -0.75510972998E+01  0.16606452649E+02  0.22844657834E+02  0.00000000000E+00 0.  1.
</event>
<event>
 7    1  0.1789107E-013  0.7246156E+02  0.7816164E-02  0.1226708E+00
        -11   -1    0    0    0    0  0.00000000000E+00  0.00000000000E+00  0.45593999997E+02  0.45594000000E+02  0.51100000000E-03 0. -1.
         11   -1    0    0    0    0 -0.00000000000E+00 -0.00000000000E+00 -0.45593999997E+02  0.45594000000E+02  0.51100000000E-03 0.  1.
    9900012    2    1    2    0    0 -0.11782136725E+01 -0.17356588863E+02  0.69311099744E+01  0.72461557468E+02  0.69999983292E+02 0.  0.
        -12    1    1    2    0    0  0.11782136725E+01  0.17356588863E+02 -0.69311099744E+01  0.18726442532E+02  0.00000000000E+00 0.  1.
         11    1    3    3    0    0  0.58489721699E+01  0.32675631699E+01 -0.67640657581E+01  0.95205057825E+01  0.51100000000E-03 0. -1.
        -11    1    3    3    0    0  0.46031123238E+01 -0.21316945117E+02 -0.18565797635E+02  0.28640698914E+02  0.51100000000E-03 0.  1.
         12    1    3    3    0    0 -0.11630298166E+02  0.69279308447E+00  0.32260973367E+02  0.34300352772E+02  0.00000000000E+00 0. -1.
</event>
<event>
 7    1  0.1789107E-013  0.7246155E+02  0.7816164E-02  0.1226708E+00
        -11   -1    0    0    0    0  0.00000000000E+00  0.00000000000E+00  0.45593999997E+02  0.45594000000E+02  0.51100000000E-03 0. -1.
         11   -1    0    0    0    0 -0.00000000000E+00 -0.00000000000E+00 -0.45593999997E+02  0.45594000000E+02  0.51100000000E-03 0.  1.
    9900012    2    1    2    0    0 -0.18707713708E+02 -0.54906637038E+00  0.63250844958E+00  0.72461545637E+02  0.69999967879E+02 0.  0.
        -12    1    1    2    0    0  0.18707713708E+02  0.54906637038E+00 -0.63250844958E+00  0.18726454363E+02  0.00000000000E+00 0.  1.
         11    1    3    3    0    0  0.59188874757E+01  0.17087016057E+02  0.10579133476E+02  0.20950355893E+02  0.51100000000E-03 0. -1.
        -11    1    3    3    0    0  0.86104061477E+00  0.76039504948E+01  0.82808639440E+01  0.11275378574E+02  0.51100000000E-03 0.  1.
        -12    1    3    3    0    0 -0.25487641799E+02 -0.25240032922E+02 -0.18227488970E+02  0.40235811170E+02  0.00000000000E+00 0.  1.
</event>
<event>
 7    1  0.1789107E-013  0.7246158E+02  0.7816164E-02  0.1226708E+00
        -11   -1    0    0    0    0  0.00000000000E+00  0.00000000000E+00  0.45593999997E+02  0.45594000000E+02  0.51100000000E-03 0. -1.
         11   -1    0    0    0    0 -0.00000000000E+00 -0.00000000000E+00 -0.45593999997E+02  0.45594000000E+02  0.51100000000E-03 0.  1.
    9900012    2    1    2    0    0 -0.81554276348E+01  0.17039457974E+01  0.16770935092E+02  0.72461582963E+02  0.70000016504E+02 0.  0.
        -12    1    1    2    0    0  0.81554276348E+01 -0.17039457974E+01 -0.16770935092E+02  0.18726417037E+02  0.00000000000E+00 0.  1.
         11    1    3    3    0    0 -0.10473635618E+02  0.21554833248E+02  0.14512266459E+02  0.28016312345E+02  0.51100000000E-03 0. -1.
        -11    1    3    3    0    0  0.14523512286E+02 -0.99291816672E+01 -0.13503053000E+02  0.22177770363E+02  0.51100000000E-03 0.  1.
         12    1    3    3    0    0 -0.12205304303E+02 -0.99217057830E+01  0.15761721633E+02  0.22267500255E+02  0.00000000000E+00 0. -1.
</event>
<event>
 7    1  0.1789107E-013  0.7246159E+02  0.7816164E-02  0.1226708E+00
        -11   -1    0    0    0    0  0.00000000000E+00  0.00000000000E+00  0.45593999997E+02  0.45594000000E+02  0.51100000000E-03 0.  1.
         11   -1    0    0    0    0 -0.00000000000E+00 -0.00000000000E+00 -0.45593999997E+02  0.45594000000E+02  0.51100000000E-03 0. -1.
    9900012    2    1    2    0    0  0.16788833295E+02  0.47519656049E+01 -0.67994359378E+01  0.72461590051E+02  0.70000025736E+02 0.  0.
        -12    1    1    2    0    0 -0.16788833295E+02 -0.47519656049E+01  0.67994359378E+01  0.18726409949E+02  0.00000000000E+00 0.  1.
         11    1    3    3    0    0 -0.35271243538E+01 -0.99605611517E+01  0.10925901554E+02  0.15199628604E+02  0.51100000000E-03 0. -1.
        -11    1    3    3    0    0  0.10899386076E+02  0.30089403250E+02 -0.36010954629E-01  0.32002657730E+02  0.51100000000E-03 0.  1.
         12    1    3    3    0    0  0.94165715726E+01 -0.15376876493E+02 -0.17689326538E+02  0.25259303716E+02  0.00000000000E+00 0. -1.
</event>
<event>
 7    1  0.1789107E-013  0.7246164E+02  0.7816164E-02  0.1226708E+00
        -11   -1    0    0    0    0  0.00000000000E+00  0.00000000000E+00  0.45593999997E+02  0.45594000000E+02  0.51100000000E-03 0.  1.
         11   -1    0    0    0    0 -0.00000000000E+00 -0.00000000000E+00 -0.45593999997E+02  0.45594000000E+02  0.51100000000E-03 0. -1.
    9900012    2    1    2    0    0 -0.17700911037E+02  0.51234504900E+01 -0.33323761570E+01  0.72461635502E+02  0.70000084945E+02 0.  0.
        -12    1    1    2    0    0  0.17700911037E+02 -0.51234504900E+01  0.33323761570E+01  0.18726364498E+02  0.00000000000E+00 0.  1.
         11    1    3    3    0    0 -0.24678807765E+02  0.63995762841E+01 -0.97605378064E+01  0.27299564609E+02  0.51100000000E-03 0. -1.
        -11    1    3    3    0    0  0.23316291087E+02  0.90095302232E+01  0.63219131107E+00  0.25004414231E+02  0.51100000000E-03 0.  1.
         12    1    3    3    0    0 -0.16338394359E+02 -0.10285656017E+02  0.57959703383E+01  0.20157656662E+02  0.00000000000E+00 0. -1.
</event>
<event>
 7    1  0.1789107E-013  0.7246170E+02  0.7816164E-02  0.1226708E+00
        -11   -1    0    0    0    0  0.00000000000E+00  0.00000000000E+00  0.45593999997E+02  0.45594000000E+02  0.51100000000E-03 0.  1.
         11   -1    0    0    0    0 -0.00000000000E+00 -0.00000000000E+00 -0.45593999997E+02  0.45594000000E+02  0.51100000000E-03 0. -1.
    9900012    2    1    2    0    0 -0.54614194054E+01  0.14599448824E+02 -0.10378014433E+02  0.72461703210E+02  0.70000173147E+02 0.  0.
        -12    1    1    2    0    0  0.54614194054E+01 -0.14599448824E+02  0.10378014433E+02  0.18726296790E+02  0.00000000000E+00 0.  1.
         11    1    3    3    0    0 -0.48701104611E+01  0.13538640658E+02 -0.64957635356E+01  0.15786314039E+02  0.51100000000E-03 0. -1.
        -11    1    3    3    0    0 -0.14854894993E+02  0.19192989003E+02  0.13516416776E+02  0.27780069382E+02  0.51100000000E-03 0.  1.
         12    1    3    3    0    0  0.14263586049E+02 -0.18132180837E+02 -0.17398667674E+02  0.28895319789E+02  0.00000000000E+00 0. -1.
</event>
<event>
 7    1  0.1789107E-013  0.7246153E+02  0.7816164E-02  0.1226708E+00
        -11   -1    0    0    0    0  0.00000000000E+00  0.00000000000E+00  0.45593999997E+02  0.45594000000E+02  0.51100000000E-03 0. -1.
         11   -1    0    0    0    0 -0.00000000000E+00 -0.00000000000E+00 -0.45593999997E+02  0.45594000000E+02  0.51100000000E-03 0.  1.
    9900012    2    1    2    0    0  0.24901607085E+01 -0.15868207057E+02 -0.96270375878E+01  0.72461528141E+02  0.69999945087E+02 0.  0.
        -12    1    1    2    0    0 -0.24901607085E+01  0.15868207057E+02  0.96270375878E+01  0.18726471859E+02  0.00000000000E+00 0.  1.
         11    1    3    3    0    0 -0.88904354429E+00  0.22118639981E+01 -0.48026460223E+01  0.53617301169E+01  0.51100000000E-03 0. -1.
        -11    1    3    3    0    0 -0.10583310608E+02  0.22038138349E+02 -0.17334302699E+01  0.24508993984E+02  0.51100000000E-03 0.  1.
         12    1    3    3    0    0  0.13962514861E+02 -0.40118209405E+02 -0.30909612955E+01  0.42590804040E+02  0.00000000000E+00 0. -1.
</event>
<event>
 7    1  0.1789107E-013  0.7246160E+02  0.7816164E-02  0.1226708E+00
        -11   -1    0    0    0    0  0.00000000000E+00  0.00000000000E+00  0.45593999997E+02  0.45594000000E+02  0.51100000000E-03 0.  1.
         11   -1    0    0    0    0 -0.00000000000E+00 -0.00000000000E+00 -0.45593999997E+02  0.45594000000E+02  0.51100000000E-03 0. -1.
    9900012    2    1    2    0    0  0.10130501658E+02 -0.78016554650E+01 -0.13681559078E+02  0.72461602839E+02  0.70000042395E+02 0.  0.
        -12    1    1    2    0    0 -0.10130501658E+02  0.78016554650E+01  0.13681559078E+02  0.18726397161E+02  0.00000000000E+00 0.  1.
         11    1    3    3    0    0  0.11305720733E+02  0.45075370862E+01 -0.34569350376E+02  0.36649381953E+02  0.51100000000E-03 0. -1.
        -11    1    3    3    0    0 -0.30726375776E+01 -0.94695119076E+00 -0.58628819938E+01  0.66866436854E+01  0.51100000000E-03 0.  1.
        -12    1    3    3    0    0  0.18974185026E+01 -0.11362241360E+02  0.26750673291E+02  0.29125577200E+02  0.00000000000E+00 0.  1.
</event>
<event>
 7    1  0.1789107E-013  0.7246157E+02  0.7816164E-02  0.1226708E+00
        -11   -1    0    0    0    0  0.00000000000E+00  0.00000000000E+00  0.45593999997E+02  0.45594000000E+02  0.51100000000E-03 0. -1.
         11   -1    0    0    0    0 -0.00000000000E+00 -0.00000000000E+00 -0.45593999997E+02  0.45594000000E+02  0.51100000000E-03 0.  1.
    9900012    2    1    2    0    0  0.56764704641E+01 -0.11035673248E+01  0.17811201415E+02  0.72461572855E+02  0.70000003336E+02 0.  0.
        -12    1    1    2    0    0 -0.56764704641E+01  0.11035673248E+01 -0.17811201415E+02  0.18726427145E+02  0.00000000000E+00 0.  1.
         11    1    3    3    0    0  0.16570252599E+02  0.83803786759E+01  0.12069449481E+02  0.22146684379E+02  0.51100000000E-03 0. -1.
        -11    1    3    3    0    0  0.16068066041E+02  0.51119101561E+00 -0.85453532419E+01  0.18206238624E+02  0.51100000000E-03 0.  1.
        -12    1    3    3    0    0 -0.26961848176E+02 -0.99951370163E+01  0.14287105176E+02  0.32108649852E+02  0.00000000000E+00 0.  1.
</event>
<event>
 7    1  0.1789107E-013  0.7246156E+02  0.7816164E-02  0.1226708E+00
        -11   -1    0    0    0    0  0.00000000000E+00  0.00000000000E+00  0.45593999997E+02  0.45594000000E+02  0.51100000000E-03 0. -1.
         11   -1    0    0    0    0 -0.00000000000E+00 -0.00000000000E+00 -0.45593999997E+02  0.45594000000E+02  0.51100000000E-03 0.  1.
    9900012    2    1    2    0    0  0.37117822524E+00  0.15428266355E+02  0.10607095473E+02  0.72461557456E+02  0.69999983275E+02 0.  0.
        -12    1    1    2    0    0 -0.37117822524E+00 -0.15428266355E+02 -0.10607095473E+02  0.18726442544E+02  0.00000000000E+00 0.  1.
         11    1    3    3    0    0  0.17349369704E+02  0.21383023427E+02  0.31093682842E+01  0.27711053596E+02  0.51100000000E-03 0. -1.
        -11    1    3    3    0    0 -0.16763059711E+01  0.12716169289E+02 -0.88611959122E+01  0.15589475821E+02  0.51100000000E-03 0.  1.
         12    1    3    3    0    0 -0.15301885508E+02 -0.18670926361E+02  0.16358923101E+02  0.29161028039E+02  0.00000000000E+00 0. -1.
</event>
<event>
 7    1  0.1789107E-013  0.7246157E+02  0.7816164E-02  0.1226708E+00
        -11   -1    0    0    0    0  0.00000000000E+00  0.00000000000E+00  0.45593999997E+02  0.45594000000E+02  0.51100000000E-03 0. -1.
         11   -1    0    0    0    0 -0.00000000000E+00 -0.00000000000E+00 -0.45593999997E+02  0.45594000000E+02  0.51100000000E-03 0.  1.
    9900012    2    1    2    0    0  0.14171149506E+02 -0.91565884496E+01  0.81249430870E+01  0.72461567064E+02  0.69999995792E+02 0.  0.
        -12    1    1    2    0    0 -0.14171149506E+02  0.91565884496E+01 -0.81249430870E+01  0.18726432936E+02  0.00000000000E+00 0.  1.
         11    1    3    3    0    0 -0.74106288237E+01  0.13275574519E+02  0.17092666994E+02  0.22876135242E+02  0.51100000000E-03 0. -1.
        -11    1    3    3    0    0  0.41147475240E+01 -0.25202927873E+02  0.62091818331E+01  0.26280651816E+02  0.51100000000E-03 0.  1.
        -12    1    3    3    0    0  0.17467030805E+02  0.27707649047E+01 -0.15176905740E+02  0.23304780007E+02  0.00000000000E+00 0.  1.
</event>
<event>
 7    1  0.1789107E-013  0.7246158E+02  0.7816164E-02  0.1226708E+00
        -11   -1    0    0    0    0  0.00000000000E+00  0.00000000000E+00  0.45593999997E+02  0.45594000000E+02  0.51100000000E-03 0.  1.
         11   -1    0    0    0    0 -0.00000000000E+00 -0.00000000000E+00 -0.45593999997E+02  0.45594000000E+02  0.51100000000E-03 0. -1.
    9900012    2    1    2    0    0  0.14085448603E+02  0.48391173121E+01  0.11351731946E+02  0.72461581846E+02  0.70000015048E+02 0.  0.
        -12    1    1    2    0    0 -0.14085448603E+02 -0.48391173121E+01 -0.11351731946E+02  0.18726418154E+02  0.00000000000E+00 0.  1.
         11    1    3    3    0    0  0.11825393726E+02 -0.35088421315E+01 -0.91181145287E+01  0.15339228230E+02  0.51100000000E-03 0. -1.
        -11    1    3    3    0    0  0.23149822560E+02 -0.75163481437E+01  0.18951608253E+02  0.30847580612E+02  0.51100000000E-03 0.  1.
        -12    1    3    3    0    0 -0.20889767684E+02  0.15864307587E+02  0.15182382216E+01  0.26274773004E+02  0.00000000000E+00 0.  1.
</event>
<event>
 7    1  0.1789107E-013  0.7246155E+02  0.7816164E-02  0.1226708E+00
        -11   -1    0    0    0    0  0.00000000000E+00  0.00000000000E+00  0.45593999997E+02  0.45594000000E+02  0.51100000000E-03 0.  1.
         11   -1    0    0    0    0 -0.00000000000E+00 -0.00000000000E+00 -0.45593999997E+02  0.45594000000E+02  0.51100000000E-03 0. -1.
    9900012    2    1    2    0    0 -0.50087714859E+01 -0.11128966992E+02 -0.14203457719E+02  0.72461550543E+02  0.69999974270E+02 0.  0.
        -12    1    1    2    0    0  0.50087714859E+01  0.11128966992E+02  0.14203457719E+02  0.18726449457E+02  0.00000000000E+00 0.  1.
         11    1    3    3    0    0 -0.63619377278E+01 -0.15147992461E+02  0.16749793126E+02  0.23462555216E+02  0.51100000000E-03 0. -1.
        -11    1    3    3    0    0  0.18370382621E+02 -0.45282050811E+01 -0.14615818303E+02  0.23908110419E+02  0.51100000000E-03 0.  1.
        -12    1    3    3    0    0 -0.17017216379E+02  0.85472305499E+01 -0.16337432542E+02  0.25090884907E+02  0.00000000000E+00 0.  1.
</event>
<event>
 7    1  0.1789107E-013  0.7246231E+02  0.7816164E-02  0.1226706E+00
        -11   -1    0    0    0    0  0.00000000000E+00  0.00000000000E+00  0.45593999997E+02  0.45594000000E+02  0.51100000000E-03 0. -1.
         11   -1    0    0    0    0 -0.00000000000E+00 -0.00000000000E+00 -0.45593999997E+02  0.45594000000E+02  0.51100000000E-03 0.  1.
    9900012    2    1    2    0    0  0.28629593724E+01  0.37800673062E+00  0.18501674245E+02  0.72462312421E+02  0.70000966751E+02 0.  0.
        -12    1    1    2    0    0 -0.28629593724E+01 -0.37800673062E+00 -0.18501674245E+02  0.18725687579E+02  0.00000000000E+00 0.  1.
         11    1    3    3    0    0  0.11510481713E+01 -0.14591598341E+02  0.27052339459E+02  0.30758230191E+02  0.51100000000E-03 0. -1.
        -11    1    3    3    0    0 -0.12239141284E+02 -0.68825157097E+01 -0.71080714356E+01  0.15738179109E+02  0.51100000000E-03 0.  1.
        -12    1    3    3    0    0  0.13951052485E+02  0.21852120781E+02 -0.14425937783E+01  0.25965903121E+02  0.00000000000E+00 0.  1.
</event>
<event>
 7    1  0.1789107E-013  0.7246156E+02  0.7816164E-02  0.1226708E+00
        -11   -1    0    0    0    0  0.00000000000E+00  0.00000000000E+00  0.45593999997E+02  0.45594000000E+02  0.51100000000E-03 0. -1.
         11   -1    0    0    0    0 -0.00000000000E+00 -0.00000000000E+00 -0.45593999997E+02  0.45594000000E+02  0.51100000000E-03 0.  1.
    9900012    2    1    2    0    0 -0.12573627737E+02 -0.53854294910E+01  0.12789860500E+02  0.72461561553E+02  0.69999988613E+02 0.  0.
        -12    1    1    2    0    0  0.12573627737E+02  0.53854294910E+01 -0.12789860500E+02  0.18726438447E+02  0.00000000000E+00 0.  1.
         11    1    3    3    0    0 -0.15982628992E+02 -0.15157222742E+02  0.87744872990E+01  0.23710281702E+02  0.51100000000E-03 0. -1.
        -11    1    3    3    0    0 -0.17130355777E+02  0.18509792514E+02  0.71433429880E+01  0.26212379847E+02  0.51100000000E-03 0.  1.
        -12    1    3    3    0    0  0.20539357032E+02 -0.87379992627E+01 -0.31279697866E+01  0.22538900004E+02  0.00000000000E+00 0.  1.
</event>
<event>
 7    1  0.1789107E-013  0.7246158E+02  0.7816164E-02  0.1226708E+00
        -11   -1    0    0    0    0  0.00000000000E+00  0.00000000000E+00  0.45593999997E+02  0.45594000000E+02  0.51100000000E-03 0.  1.
         11   -1    0    0    0    0 -0.00000000000E+00 -0.00000000000E+00 -0.45593999997E+02  0.45594000000E+02  0.51100000000E-03 0. -1.
    9900012    2    1    2    0    0  0.45532971031E+01  0.17945540553E+02 -0.28113880417E+01  0.72461579014E+02  0.70000011358E+02 0.  0.
        -12    1    1    2    0    0 -0.45532971031E+01 -0.17945540553E+02  0.28113880417E+01  0.18726420986E+02  0.00000000000E+00 0.  1.
         11    1    3    3    0    0 -0.71578603659E+01  0.16538589756E+02 -0.28245437134E+02  0.33504695720E+02  0.51100000000E-03 0. -1.
        -11    1    3    3    0    0  0.90384787837E+01  0.22721063616E+00 -0.36325942900E+01  0.97437910966E+01  0.51100000000E-03 0.  1.
         12    1    3    3    0    0  0.26726786852E+01  0.11797401602E+01  0.29066643382E+02  0.29213092197E+02  0.00000000000E+00 0. -1.
</event>
<event>
 7    1  0.1789107E-013  0.7246156E+02  0.7816164E-02  0.1226708E+00
        -11   -1    0    0    0    0  0.00000000000E+00  0.00000000000E+00  0.45593999997E+02  0.45594000000E+02  0.51100000000E-03 0.  1.
         11   -1    0    0    0    0 -0.00000000000E+00 -0.00000000000E+00 -0.45593999997E+02  0.45594000000E+02  0.51100000000E-03 0. -1.
    9900012    2    1    2    0    0  0.11480785489E+02 -0.33873991304E+01 -0.14401268851E+02  0.72461562730E+02  0.69999990146E+02 0.  0.
        -12    1    1    2    0    0 -0.11480785489E+02  0.33873991304E+01  0.14401268851E+02  0.18726437270E+02  0.00000000000E+00 0.  1.
         11    1    3    3    0    0 -0.58546635977E+01  0.10787338930E+02  0.12348573931E+01  0.12335665368E+02  0.51100000000E-03 0. -1.
        -11    1    3    3    0    0 -0.51792688512E+01 -0.62691666940E+01  0.17496999247E+02  0.19294358237E+02  0.51100000000E-03 0.  1.
         12    1    3    3    0    0  0.22514717938E+02 -0.79055713665E+01 -0.33133125491E+02  0.40831539124E+02  0.00000000000E+00 0. -1.
</event>
<event>
 7    1  0.1789107E-013  0.7246157E+02  0.7816164E-02  0.1226708E+00
        -11   -1    0    0    0    0  0.00000000000E+00  0.00000000000E+00  0.45593999997E+02  0.45594000000E+02  0.51100000000E-03 0. -1.
         11   -1    0    0    0    0 -0.00000000000E+00 -0.00000000000E+00 -0.45593999997E+02  0.45594000000E+02  0.51100000000E-03 0.  1.
    9900012    2    1    2    0    0 -0.13628642790E+02 -0.84142762345E+01  0.97025382271E+01  0.72461569564E+02  0.69999999048E+02 0.  0.
        -12    1    1    2    0    0  0.13628642790E+02  0.84142762345E+01 -0.97025382271E+01  0.18726430436E+02  0.00000000000E+00 0.  1.
         11    1    3    3    0    0 -0.26700631300E+02 -0.20380573652E+02  0.14685364372E+02  0.36659943006E+02  0.51100000000E-03 0. -1.
        -11    1    3    3    0    0  0.20012830339E+02  0.60269082812E+01 -0.12163234111E+02  0.24182251051E+02  0.51100000000E-03 0.  1.
         12    1    3    3    0    0 -0.69408418285E+01  0.59393891366E+01  0.71804079657E+01  0.11619375506E+02  0.00000000000E+00 0. -1.
</event>
<event>
 7    1  0.1789107E-013  0.7246159E+02  0.7816164E-02  0.1226708E+00
        -11   -1    0    0    0    0  0.00000000000E+00  0.00000000000E+00  0.45593999997E+02  0.45594000000E+02  0.51100000000E-03 0.  1.
         11   -1    0    0    0    0 -0.00000000000E+00 -0.00000000000E+00 -0.45593999997E+02  0.45594000000E+02  0.51100000000E-03 0. -1.
    9900012    2    1    2    0    0  0.11580224189E+02 -0.14285454005E+02 -0.35359087727E+01  0.72461589793E+02  0.70000025401E+02 0.  0.
        -12    1    1    2    0    0 -0.11580224189E+02  0.14285454005E+02  0.35359087727E+01  0.18726410207E+02  0.00000000000E+00 0.  1.
         11    1    3    3    0    0 -0.75630329251E+00  0.96138473108E+01 -0.16523986738E+02  0.19132176896E+02  0.51100000000E-03 0. -1.
        -11    1    3    3    0    0  0.11853882359E+02 -0.43859080175E+01 -0.14741895561E+02  0.19418398520E+02  0.51100000000E-03 0.  1.
        -12    1    3    3    0    0  0.48264512258E+00 -0.19513393298E+02  0.27729973526E+02  0.33911014377E+02  0.00000000000E+00 0.  1.
</event>
<event>
 7    1  0.1789107E-013  0.7246156E+02  0.7816164E-02  0.1226708E+00
        -11   -1    0    0    0    0  0.00000000000E+00  0.00000000000E+00  0.45593999997E+02  0.45594000000E+02  0.51100000000E-03 0. -1.
         11   -1    0    0    0    0 -0.00000000000E+00 -0.00000000000E+00 -0.45593999997E+02  0.45594000000E+02  0.51100000000E-03 0.  1.
    9900012    2    1    2    0    0 -0.37011751880E+01 -0.17922103436E+02  0.39723008078E+01  0.72461557117E+02  0.69999982834E+02 0.  0.
        -12    1    1    2    0    0  0.37011751880E+01  0.17922103436E+02 -0.39723008078E+01  0.18726442883E+02  0.00000000000E+00 0.  1.
         11    1    3    3    0    0 -0.40031376754E+00  0.18855658192E+01  0.37833913479E+01  0.42461347039E+01  0.51100000000E-03 0. -1.
        -11    1    3    3    0    0  0.24603961067E+02  0.44420711176E+01 -0.13955243606E+02  0.28632773536E+02  0.51100000000E-03 0.  1.
         12    1    3    3    0    0 -0.27904822487E+02 -0.24249740373E+02  0.14144153066E+02  0.39582648877E+02  0.00000000000E+00 0. -1.
</event>
<event>
 7    1  0.1789107E-013  0.7246149E+02  0.7816164E-02  0.1226708E+00
        -11   -1    0    0    0    0  0.00000000000E+00  0.00000000000E+00  0.45593999997E+02  0.45594000000E+02  0.51100000000E-03 0.  1.
         11   -1    0    0    0    0 -0.00000000000E+00 -0.00000000000E+00 -0.45593999997E+02  0.45594000000E+02  0.51100000000E-03 0. -1.
    9900012    2    1    2    0    0  0.77859125287E+01 -0.11099855819E+02 -0.12917240080E+02  0.72461486059E+02  0.69999890268E+02 0.  0.
        -12    1    1    2    0    0 -0.77859125287E+01  0.11099855819E+02  0.12917240080E+02  0.18726513941E+02  0.00000000000E+00 0.  1.
         11    1    3    3    0    0 -0.12840533242E+02  0.21232689113E+01  0.18728367971E+02  0.22806563352E+02  0.51100000000E-03 0. -1.
        -11    1    3    3    0    0 -0.34117177272E+01  0.61851079041E+01 -0.35969469193E+01  0.79267524900E+01  0.51100000000E-03 0.  1.
        -12    1    3    3    0    0  0.24038163498E+02 -0.19408232634E+02 -0.28048661132E+02  0.41728170217E+02  0.00000000000E+00 0.  1.
</event>
<event>
 7    1  0.1789107E-013  0.7246145E+02  0.7816164E-02  0.1226708E+00
        -11   -1    0    0    0    0  0.00000000000E+00  0.00000000000E+00  0.45593999997E+02  0.45594000000E+02  0.51100000000E-03 0.  1.
         11   -1    0    0    0    0 -0.00000000000E+00 -0.00000000000E+00 -0.45593999997E+02  0.45594000000E+02  0.51100000000E-03 0. -1.
    9900012    2    1    2    0    0  0.17847681590E+02  0.38891786176E+01 -0.41252982367E+01  0.72461453762E+02  0.69999848195E+02 0.  0.
        -12    1    1    2    0    0 -0.17847681590E+02 -0.38891786176E+01  0.41252982367E+01  0.18726546238E+02  0.00000000000E+00 0.  1.
         11    1    3    3    0    0  0.99380500593E+01  0.10204513740E+02 -0.10414427955E+02  0.17645318063E+02  0.51100000000E-03 0. -1.
        -11    1    3    3    0    0 -0.16003357024E+02 -0.39193241914E+01 -0.15319080719E+02  0.22497617040E+02  0.51100000000E-03 0.  1.
         12    1    3    3    0    0  0.23912988554E+02 -0.23960109311E+01  0.21608210438E+02  0.32318518659E+02  0.00000000000E+00 0. -1.
</event>
<event>
 7    1  0.1789107E-013  0.7246157E+02  0.7816164E-02  0.1226708E+00
        -11   -1    0    0    0    0  0.00000000000E+00  0.00000000000E+00  0.45593999997E+02  0.45594000000E+02  0.51100000000E-03 0. -1.
         11   -1    0    0    0    0 -0.00000000000E+00 -0.00000000000E+00 -0.45593999997E+02  0.45594000000E+02  0.51100000000E-03 0.  1.
    9900012    2    1    2    0    0 -0.69669867374E+00 -0.10665789398E+02 -0.15376433384E+02  0.72461570652E+02  0.70000000466E+02 0.  0.
        -12    1    1    2    0    0  0.69669867374E+00  0.10665789398E+02  0.15376433384E+02  0.18726429348E+02  0.00000000000E+00 0.  1.
         11    1    3    3    0    0  0.97228942039E+00 -0.36981574586E+02 -0.68682697149E+01  0.37626524350E+02  0.51100000000E-03 0. -1.
        -11    1    3    3    0    0 -0.77357187592E+00 -0.25530746556E+01  0.27540455926E+01  0.38342366948E+01  0.51100000000E-03 0.  1.
        -12    1    3    3    0    0 -0.89541621821E+00  0.28868859843E+02 -0.11262209261E+02  0.31000809607E+02  0.00000000000E+00 0.  1.
</event>
<event>
 7    1  0.1789107E-013  0.7246149E+02  0.7816164E-02  0.1226708E+00
        -11   -1    0    0    0    0  0.00000000000E+00  0.00000000000E+00  0.45593999997E+02  0.45594000000E+02  0.51100000000E-03 0. -1.
         11   -1    0    0    0    0 -0.00000000000E+00 -0.00000000000E+00 -0.45593999997E+02  0.45594000000E+02  0.51100000000E-03 0.  1.
    9900012    2    1    2    0    0  0.10439784144E+02  0.53209112300E+01 -0.14607564877E+02  0.72461490957E+02  0.69999896648E+02 0.  0.
        -12    1    1    2    0    0 -0.10439784144E+02 -0.53209112300E+01  0.14607564877E+02  0.18726509043E+02  0.00000000000E+00 0.  1.
         11    1    3    3    0    0  0.27636042493E+01  0.12729027519E+02  0.40412250615E+01  0.13638077221E+02  0.51100000000E-03 0. -1.
        -11    1    3    3    0    0 -0.19242279890E+02 -0.26108731874E+01  0.76640664223E+01  0.20876300164E+02  0.51100000000E-03 0.  1.
        -12    1    3    3    0    0  0.26918459785E+02 -0.47972431015E+01 -0.26312856361E+02  0.37947113572E+02  0.00000000000E+00 0.  1.
</event>
<event>
 7    1  0.1789107E-013  0.7246155E+02  0.7816164E-02  0.1226708E+00
        -11   -1    0    0    0    0  0.00000000000E+00  0.00000000000E+00  0.45593999997E+02  0.45594000000E+02  0.51100000000E-03 0.  1.
         11   -1    0    0    0    0 -0.00000000000E+00 -0.00000000000E+00 -0.45593999997E+02  0.45594000000E+02  0.51100000000E-03 0. -1.
    9900012    2    1    2    0    0 -0.83149549612E+01  0.16649907407E+02 -0.20789613461E+01  0.72461548843E+02  0.69999972056E+02 0.  0.
        -12    1    1    2    0    0  0.83149549612E+01 -0.16649907407E+02  0.20789613461E+01  0.18726451157E+02  0.00000000000E+00 0.  1.
         11    1    3    3    0    0 -0.29144641047E+01  0.11696666895E+02 -0.11273270714E+02  0.16504325201E+02  0.51100000000E-03 0. -1.
        -11    1    3    3    0    0  0.11056265423E+02  0.14841174242E+02 -0.15873716565E+02  0.24381885404E+02  0.51100000000E-03 0.  1.
        -12    1    3    3    0    0 -0.16456756280E+02 -0.98879337304E+01  0.25068025933E+02  0.31575338239E+02  0.00000000000E+00 0.  1.
</event>
<event>
 7    1  0.1789107E-013  0.7246157E+02  0.7816164E-02  0.1226708E+00
        -11   -1    0    0    0    0  0.00000000000E+00  0.00000000000E+00  0.45593999997E+02  0.45594000000E+02  0.51100000000E-03 0.  1.
         11   -1    0    0    0    0 -0.00000000000E+00 -0.00000000000E+00 -0.45593999997E+02  0.45594000000E+02  0.51100000000E-03 0. -1.
    9900012    2    1    2    0    0 -0.15294336149E+02 -0.84267444111E+00 -0.10772766003E+02  0.72461566656E+02  0.69999995260E+02 0.  0.
        -12    1    1    2    0    0  0.15294336149E+02  0.84267444111E+00  0.10772766003E+02  0.18726433344E+02  0.00000000000E+00 0.  1.
         11    1    3    3    0    0 -0.23350510036E+02  0.84298662243E+01 -0.18784328765E+02  0.31131334230E+02  0.51100000000E-03 0. -1.
        -11    1    3    3    0    0  0.51406708937E+01  0.17686990830E+01 -0.14828924251E+02  0.15794042814E+02  0.51100000000E-03 0.  1.
        -12    1    3    3    0    0  0.29155029935E+01 -0.11041239748E+02  0.22840487014E+02  0.25536189613E+02  0.00000000000E+00 0.  1.
</event>
<event>
 7    1  0.1789107E-013  0.7246153E+02  0.7816164E-02  0.1226708E+00
        -11   -1    0    0    0    0  0.00000000000E+00  0.00000000000E+00  0.45593999997E+02  0.45594000000E+02  0.51100000000E-03 0. -1.
         11   -1    0    0    0    0 -0.00000000000E+00 -0.00000000000E+00 -0.45593999997E+02  0.45594000000E+02  0.51100000000E-03 0.  1.
    9900012    2    1    2    0    0 -0.14269439981E+02 -0.84764604031E+01  0.86725727337E+01  0.72461526329E+02  0.69999942727E+02 0.  0.
        -12    1    1    2    0    0  0.14269439981E+02  0.84764604031E+01 -0.86725727337E+01  0.18726473671E+02  0.00000000000E+00 0.  1.
         11    1    3    3    0    0 -0.21432591367E+02 -0.82555750784E+01 -0.15609254141E+02  0.27769755269E+02  0.51100000000E-03 0. -1.
        -11    1    3    3    0    0 -0.16041019087E+01 -0.52842425164E+01 -0.86368210923E+01  0.10251392137E+02  0.51100000000E-03 0.  1.
        -12    1    3    3    0    0  0.87672532944E+01  0.50633571918E+01  0.32918647967E+02  0.34440378923E+02  0.00000000000E+00 0.  1.
</event>
<event>
 7    1  0.1789107E-013  0.7246155E+02  0.7816164E-02  0.1226708E+00
        -11   -1    0    0    0    0  0.00000000000E+00  0.00000000000E+00  0.45593999997E+02  0.45594000000E+02  0.51100000000E-03 0.  1.
         11   -1    0    0    0    0 -0.00000000000E+00 -0.00000000000E+00 -0.45593999997E+02  0.45594000000E+02  0.51100000000E-03 0. -1.
    9900012    2    1    2    0    0  0.88023516168E+01 -0.68789717609E+01 -0.15029250194E+02  0.72461547911E+02  0.69999970841E+02 0.  0.
        -12    1    1    2    0    0 -0.88023516168E+01  0.68789717609E+01  0.15029250194E+02  0.18726452089E+02  0.00000000000E+00 0.  1.
         11    1    3    3    0    0  0.60530136627E+01 -0.61514776506E+01  0.96292110177E-02  0.86301648113E+01  0.51100000000E-03 0. -1.
        -11    1    3    3    0    0  0.28628981342E+02  0.11498713891E+00 -0.23019642193E+02  0.36736027571E+02  0.51100000000E-03 0.  1.
         12    1    3    3    0    0 -0.25879643388E+02 -0.84248124923E+00  0.79807627885E+01  0.27095355529E+02  0.00000000000E+00 0. -1.
</event>
<event>
 7    1  0.1789107E-013  0.7246173E+02  0.7816164E-02  0.1226708E+00
        -11   -1    0    0    0    0  0.00000000000E+00  0.00000000000E+00  0.45593999997E+02  0.45594000000E+02  0.51100000000E-03 0. -1.
         11   -1    0    0    0    0 -0.00000000000E+00 -0.00000000000E+00 -0.45593999997E+02  0.45594000000E+02  0.51100000000E-03 0.  1.
    9900012    2    1    2    0    0  0.15564253887E+02  0.19753295369E+01 -0.10223768414E+02  0.72461725240E+02  0.70000201845E+02 0.  0.
        -12    1    1    2    0    0 -0.15564253887E+02 -0.19753295369E+01  0.10223768414E+02  0.18726274760E+02  0.00000000000E+00 0.  1.
         11    1    3    3    0    0  0.70054513864E+01 -0.63829640956E+00 -0.18857494566E+01  0.72828444105E+01  0.51100000000E-03 0. -1.
        -11    1    3    3    0    0  0.31765847426E+02  0.44627605612E+01 -0.21326482363E+02  0.38520178410E+02  0.51100000000E-03 0.  1.
         12    1    3    3    0    0 -0.23207044926E+02 -0.18491346147E+01  0.12988463406E+02  0.26658702419E+02  0.00000000000E+00 0. -1.
</event>
<event>
 7    1  0.1789107E-013  0.7246167E+02  0.7816164E-02  0.1226708E+00
        -11   -1    0    0    0    0  0.00000000000E+00  0.00000000000E+00  0.45593999997E+02  0.45594000000E+02  0.51100000000E-03 0.  1.
         11   -1    0    0    0    0 -0.00000000000E+00 -0.00000000000E+00 -0.45593999997E+02  0.45594000000E+02  0.51100000000E-03 0. -1.
    9900012    2    1    2    0    0  0.10222014220E+02  0.93938550841E+01 -0.12567472756E+02  0.72461669352E+02  0.70000129041E+02 0.  0.
        -12    1    1    2    0    0 -0.10222014220E+02 -0.93938550841E+01  0.12567472756E+02  0.18726330648E+02  0.00000000000E+00 0.  1.
         11    1    3    3    0    0 -0.69945152291E+01  0.11604174417E+02  0.27184023930E+01  0.13819183009E+02  0.51100000000E-03 0. -1.
        -11    1    3    3    0    0  0.28736551238E+02  0.15533796470E+02 -0.18026327794E+02  0.37310008092E+02  0.51100000000E-03 0.  1.
         12    1    3    3    0    0 -0.11520021789E+02 -0.17744115803E+02  0.27404526445E+01  0.21332478251E+02  0.00000000000E+00 0. -1.
</event>
<event>
 7    1  0.1789107E-013  0.7246190E+02  0.7816164E-02  0.1226707E+00
        -11   -1    0    0    0    0  0.00000000000E+00  0.00000000000E+00  0.45593999997E+02  0.45594000000E+02  0.51100000000E-03 0.  1.
         11   -1    0    0    0    0 -0.00000000000E+00 -0.00000000000E+00 -0.45593999997E+02  0.45594000000E+02  0.51100000000E-03 0. -1.
    9900012    2    1    2    0    0  0.94266929553E+01  0.15299228768E+02 -0.52666882823E+01  0.72461896657E+02  0.70000425146E+02 0.  0.
        -12    1    1    2    0    0 -0.94266929553E+01 -0.15299228768E+02  0.52666882823E+01  0.18726103343E+02  0.00000000000E+00 0.  1.
         11    1    3    3    0    0  0.70552671616E+01  0.11632053503E+02 -0.11254026042E+02  0.17656006509E+02  0.51100000000E-03 0. -1.
        -11    1    3    3    0    0  0.17293716018E+02  0.22616807309E+02 -0.39028187329E+01  0.28737163758E+02  0.51100000000E-03 0.  1.
        -12    1    3    3    0    0 -0.14922290224E+02 -0.18949632044E+02  0.98901564926E+01  0.26068726390E+02  0.00000000000E+00 0.  1.
</event>
<event>
 7    1  0.1789107E-013  0.7246153E+02  0.7816164E-02  0.1226708E+00
        -11   -1    0    0    0    0  0.00000000000E+00  0.00000000000E+00  0.45593999997E+02  0.45594000000E+02  0.51100000000E-03 0. -1.
         11   -1    0    0    0    0 -0.00000000000E+00 -0.00000000000E+00 -0.45593999997E+02  0.45594000000E+02  0.51100000000E-03 0.  1.
    9900012    2    1    2    0    0  0.35186946054E+01  0.20785846888E+01  0.18275089734E+02  0.72461531277E+02  0.69999949173E+02 0.  0.
        -12    1    1    2    0    0 -0.35186946054E+01 -0.20785846888E+01 -0.18275089734E+02  0.18726468723E+02  0.00000000000E+00 0.  1.
         11    1    3    3    0    0  0.12646761463E+02  0.12419221342E+02 -0.12709040672E+01  0.17770560815E+02  0.51100000000E-03 0. -1.
        -11    1    3    3    0    0 -0.12587431935E+01  0.15989875308E+02 -0.60437636166E+01  0.17140234121E+02  0.51100000000E-03 0.  1.
         12    1    3    3    0    0 -0.78693236643E+01 -0.26330511962E+02  0.25589757418E+02  0.37550736342E+02  0.00000000000E+00 0. -1.
</event>
<event>
 7    1  0.1789107E-013  0.7246164E+02  0.7816164E-02  0.1226708E+00
        -11   -1    0    0    0    0  0.00000000000E+00  0.00000000000E+00  0.45593999997E+02  0.45594000000E+02  0.51100000000E-03 0.  1.
         11   -1    0    0    0    0 -0.00000000000E+00 -0.00000000000E+00 -0.45593999997E+02  0.45594000000E+02  0.51100000000E-03 0. -1.
    9900012    2    1    2    0    0 -0.15946386648E+02  0.31677975547E+01 -0.92926995611E+01  0.72461642810E+02  0.70000094465E+02 0.  0.
        -12    1    1    2    0    0  0.15946386648E+02 -0.31677975547E+01  0.92926995611E+01  0.18726357190E+02  0.00000000000E+00 0.  1.
         11    1    3    3    0    0  0.11860985588E+01  0.80242309971E+01 -0.32484345150E+02  0.33481753134E+02  0.51100000000E-03 0. -1.
        -11    1    3    3    0    0 -0.10695269239E+01 -0.52672504907E+01 -0.44695799400E+01  0.69903476791E+01  0.51100000000E-03 0.  1.
        -12    1    3    3    0    0 -0.16062958283E+02  0.41081704825E+00  0.27661225529E+02  0.31989541997E+02  0.00000000000E+00 0.  1.
</event>
<event>
 7    1  0.1789107E-013  0.7246150E+02  0.7816164E-02  0.1226708E+00
        -11   -1    0    0    0    0  0.00000000000E+00  0.00000000000E+00  0.45593999997E+02  0.45594000000E+02  0.51100000000E-03 0.  1.
         11   -1    0    0    0    0 -0.00000000000E+00 -0.00000000000E+00 -0.45593999997E+02  0.45594000000E+02  0.51100000000E-03 0. -1.
    9900012    2    1    2    0    0  0.71861298918E+01 -0.11313003201E+01 -0.17255765927E+02  0.72461501102E+02  0.69999909864E+02 0.  0.
        -12    1    1    2    0    0 -0.71861298918E+01  0.11313003201E+01  0.17255765927E+02  0.18726498898E+02  0.00000000000E+00 0.  1.
         11    1    3    3    0    0  0.10952886858E+02  0.10846199073E+01  0.90306913172E+01  0.14237117573E+02  0.51100000000E-03 0. -1.
        -11    1    3    3    0    0  0.82555050286E+01  0.15549334118E+02  0.67333333937E+01  0.18848685196E+02  0.51100000000E-03 0.  1.
         12    1    3    3    0    0 -0.12022261994E+02 -0.17765254345E+02 -0.33019790638E+02  0.39375698333E+02  0.00000000000E+00 0. -1.
</event>
<event>
 7    1  0.1789107E-013  0.7246152E+02  0.7816164E-02  0.1226708E+00
        -11   -1    0    0    0    0  0.00000000000E+00  0.00000000000E+00  0.45593999997E+02  0.45594000000E+02  0.51100000000E-03 0. -1.
         11   -1    0    0    0    0 -0.00000000000E+00 -0.00000000000E+00 -0.45593999997E+02  0.45594000000E+02  0.51100000000E-03 0.  1.
    9900012    2    1    2    0    0  0.55364862414E+01 -0.15823280597E+02  0.83457913558E+01  0.72461518160E+02  0.69999932085E+02 0.  0.
        -12    1    1    2    0    0 -0.55364862414E+01  0.15823280597E+02 -0.83457913558E+01  0.18726481840E+02  0.00000000000E+00 0.  1.
         11    1    3    3    0    0 -0.21106588794E+01 -0.50370586461E+01  0.65134177250E+01  0.85000853779E+01  0.51100000000E-03 0. -1.
        -11    1    3    3    0    0  0.12538062868E+02  0.13192464646E+02  0.24556362654E+02  0.30565652144E+02  0.51100000000E-03 0.  1.
         12    1    3    3    0    0 -0.48909177473E+01 -0.23978686597E+02 -0.22723989023E+02  0.33395780638E+02  0.00000000000E+00 0. -1.
</event>
<event>
 7    1  0.1789107E-013  0.7246150E+02  0.7816164E-02  0.1226708E+00
        -11   -1    0    0    0    0  0.00000000000E+00  0.00000000000E+00  0.45593999997E+02  0.45594000000E+02  0.51100000000E-03 0.  1.
         11   -1    0    0    0    0 -0.00000000000E+00 -0.00000000000E+00 -0.45593999997E+02  0.45594000000E+02  0.51100000000E-03 0. -1.
    9900012    2    1    2    0    0  0.10876193917E+02  0.93729388599E+01 -0.12022412270E+02  0.72461495420E+02  0.69999902462E+02 0.  0.
        -12    1    1    2    0    0 -0.10876193917E+02 -0.93729388599E+01  0.12022412270E+02  0.18726504580E+02  0.00000000000E+00 0.  1.
         11    1    3    3    0    0  0.74322125990E+00  0.11019663478E+02  0.26666334358E+00  0.11047917026E+02  0.51100000000E-03 0. -1.
        -11    1    3    3    0    0  0.32887890612E+02  0.29888945460E+01 -0.17844113595E+02  0.37536105681E+02  0.51100000000E-03 0.  1.
         12    1    3    3    0    0 -0.22754917955E+02 -0.46356191644E+01  0.55550379807E+01  0.23877472712E+02  0.00000000000E+00 0. -1.
</event>
<event>
 7    1  0.1789107E-013  0.7246157E+02  0.7816164E-02  0.1226708E+00
        -11   -1    0    0    0    0  0.00000000000E+00  0.00000000000E+00  0.45593999997E+02  0.45594000000E+02  0.51100000000E-03 0.  1.
         11   -1    0    0    0    0 -0.00000000000E+00 -0.00000000000E+00 -0.45593999997E+02  0.45594000000E+02  0.51100000000E-03 0. -1.
    9900012    2    1    2    0    0 -0.65189528051E+01 -0.15848716724E+02 -0.75498762308E+01  0.72461569519E+02  0.69999998990E+02 0.  0.
        -12    1    1    2    0    0  0.65189528051E+01  0.15848716724E+02  0.75498762308E+01  0.18726430481E+02  0.00000000000E+00 0.  1.
         11    1    3    3    0    0  0.11700868662E+01  0.45983614289E+01  0.38246130461E+01  0.60943987660E+01  0.51100000000E-03 0. -1.
        -11    1    3    3    0    0  0.20769554769E+02 -0.17961758166E+02  0.11500632622E+02  0.29770181603E+02  0.51100000000E-03 0.  1.
         12    1    3    3    0    0 -0.28458594440E+02 -0.24853199863E+01 -0.22875121899E+02  0.36596989150E+02  0.00000000000E+00 0. -1.
</event>
<event>
 7    1  0.1789107E-013  0.7246159E+02  0.7816164E-02  0.1226708E+00
        -11   -1    0    0    0    0  0.00000000000E+00  0.00000000000E+00  0.45593999997E+02  0.45594000000E+02  0.51100000000E-03 0.  1.
         11   -1    0    0    0    0 -0.00000000000E+00 -0.00000000000E+00 -0.45593999997E+02  0.45594000000E+02  0.51100000000E-03 0. -1.
    9900012    2    1    2    0    0  0.43422701432E+01 -0.80621415894E+00 -0.18198167785E+02  0.72461585447E+02  0.70000019739E+02 0.  0.
        -12    1    1    2    0    0 -0.43422701432E+01  0.80621415894E+00  0.18198167785E+02  0.18726414553E+02  0.00000000000E+00 0.  1.
         11    1    3    3    0    0  0.26946567477E+02 -0.20904774524E+01 -0.73713375724E+01  0.28014714217E+02  0.51100000000E-03 0. -1.
        -11    1    3    3    0    0  0.73198864901E+01  0.74331658224E+01 -0.91086466852E+01  0.13849192650E+02  0.51100000000E-03 0.  1.
        -12    1    3    3    0    0 -0.29924183824E+02 -0.61489025290E+01 -0.17181835277E+01  0.30597678580E+02  0.00000000000E+00 0.  1.
</event>
<event>
 7    1  0.1789107E-013  0.7246155E+02  0.7816164E-02  0.1226708E+00
        -11   -1    0    0    0    0  0.00000000000E+00  0.00000000000E+00  0.45593999997E+02  0.45594000000E+02  0.51100000000E-03 0. -1.
         11   -1    0    0    0    0 -0.00000000000E+00 -0.00000000000E+00 -0.45593999997E+02  0.45594000000E+02  0.51100000000E-03 0.  1.
    9900012    2    1    2    0    0  0.11633590375E+01 -0.14331370475E+02  0.11997437928E+02  0.72461545429E+02  0.69999967608E+02 0.  0.
        -12    1    1    2    0    0 -0.11633590375E+01  0.14331370475E+02 -0.11997437928E+02  0.18726454571E+02  0.00000000000E+00 0.  1.
         11    1    3    3    0    0 -0.18560405783E+02 -0.83029307794E+01  0.14476583247E+02  0.24959943612E+02  0.51100000000E-03 0. -1.
        -11    1    3    3    0    0 -0.94696759797E+01  0.58215521665E+01 -0.10173695340E+02  0.15068819128E+02  0.51100000000E-03 0.  1.
         12    1    3    3    0    0  0.29193440800E+02 -0.11849991862E+02  0.76945500213E+01  0.32432782689E+02  0.00000000000E+00 0. -1.
</event>
<event>
 7    1  0.1789107E-013  0.7246142E+02  0.7816164E-02  0.1226708E+00
        -11   -1    0    0    0    0  0.00000000000E+00  0.00000000000E+00  0.45593999997E+02  0.45594000000E+02  0.51100000000E-03 0.  1.
         11   -1    0    0    0    0 -0.00000000000E+00 -0.00000000000E+00 -0.45593999997E+02  0.45594000000E+02  0.51100000000E-03 0. -1.
    9900012    2    1    2    0    0  0.12525060390E+02 -0.21959043186E+00 -0.13919750452E+02  0.72461419682E+02  0.69999803800E+02 0.  0.
        -12    1    1    2    0    0 -0.12525060390E+02  0.21959043186E+00  0.13919750452E+02  0.18726580318E+02  0.00000000000E+00 0.  1.
         11    1    3    3    0    0  0.14799440677E+01 -0.16333298775E+01 -0.15639028921E+02  0.15793581823E+02  0.51100000000E-03 0. -1.
        -11    1    3    3    0    0 -0.30977178023E+01  0.24957152913E+02  0.11312529407E+02  0.27575870956E+02  0.51100000000E-03 0.  1.
         12    1    3    3    0    0  0.14142834125E+02 -0.23543413467E+02 -0.95932509384E+01  0.29091966904E+02  0.00000000000E+00 0. -1.
</event>
<event>
 7    1  0.1789107E-013  0.7246147E+02  0.7816164E-02  0.1226708E+00
        -11   -1    0    0    0    0  0.00000000000E+00  0.00000000000E+00  0.45593999997E+02  0.45594000000E+02  0.51100000000E-03 0. -1.
         11   -1    0    0    0    0 -0.00000000000E+00 -0.00000000000E+00 -0.45593999997E+02  0.45594000000E+02  0.51100000000E-03 0.  1.
    9900012    2    1    2    0    0  0.79660759525E+01  0.16874359512E+02 -0.15749259943E+01  0.72461474244E+02  0.69999874876E+02 0.  0.
        -12    1    1    2    0    0 -0.79660759525E+01 -0.16874359512E+02  0.15749259943E+01  0.18726525756E+02  0.00000000000E+00 0.  1.
         11    1    3    3    0    0 -0.87739311720E+01  0.43230506316E+01  0.53518146301E+01  0.11149554030E+02  0.51100000000E-03 0. -1.
        -11    1    3    3    0    0  0.51405605230E+01  0.26691061755E+02  0.16342124755E+02  0.31715976761E+02  0.51100000000E-03 0.  1.
        -12    1    3    3    0    0  0.11599446601E+02 -0.14139752875E+02 -0.23268865379E+02  0.29595943453E+02  0.00000000000E+00 0.  1.
</event>
<event>
 7    1  0.1789107E-013  0.7246157E+02  0.7816164E-02  0.1226708E+00
        -11   -1    0    0    0    0  0.00000000000E+00  0.00000000000E+00  0.45593999997E+02  0.45594000000E+02  0.51100000000E-03 0. -1.
         11   -1    0    0    0    0 -0.00000000000E+00 -0.00000000000E+00 -0.45593999997E+02  0.45594000000E+02  0.51100000000E-03 0.  1.
    9900012    2    1    2    0    0  0.11083398023E+02  0.13330362810E+02  0.70808723222E+01  0.72461573827E+02  0.70000004602E+02 0.  0.
        -12    1    1    2    0    0 -0.11083398023E+02 -0.13330362810E+02 -0.70808723222E+01  0.18726426173E+02  0.00000000000E+00 0.  1.
         11    1    3    3    0    0 -0.19942799116E+02  0.12779679555E+02 -0.32632930170E+01  0.23909925297E+02  0.51100000000E-03 0.  1.
        -11    1    3    3    0    0  0.12392617730E+02 -0.16992119839E+02  0.22733778969E+00  0.21032374891E+02  0.51100000000E-03 0. -1.
         12    1    3    3    0    0  0.18633579409E+02  0.17542803094E+02  0.10116827550E+02  0.27519273639E+02  0.00000000000E+00 0. -1.
</event>
<event>
 7    1  0.1789107E-013  0.7246157E+02  0.7816164E-02  0.1226708E+00
        -11   -1    0    0    0    0  0.00000000000E+00  0.00000000000E+00  0.45593999997E+02  0.45594000000E+02  0.51100000000E-03 0. -1.
         11   -1    0    0    0    0 -0.00000000000E+00 -0.00000000000E+00 -0.45593999997E+02  0.45594000000E+02  0.51100000000E-03 0.  1.
    9900012    2    1    2    0    0  0.14486273602E+02 -0.27322154555E+01  0.11548249997E+02  0.72461569422E+02  0.69999998864E+02 0.  0.
        -12    1    1    2    0    0 -0.14486273602E+02  0.27322154555E+01 -0.11548249997E+02  0.18726430578E+02  0.00000000000E+00 0.  1.
         11    1    3    3    0    0 -0.18716550227E+02  0.25021975820E+00  0.34042256358E+01  0.19025262542E+02  0.51100000000E-03 0. -1.
        -11    1    3    3    0    0  0.12531275933E+02 -0.20379572407E+01 -0.16779965192E+02  0.21041705690E+02  0.51100000000E-03 0.  1.
        -12    1    3    3    0    0  0.20671547896E+02 -0.94447797299E+00  0.24923989553E+02  0.32394601191E+02  0.00000000000E+00 0.  1.
</event>
<event>
 7    1  0.1789107E-013  0.7246155E+02  0.7816164E-02  0.1226708E+00
        -11   -1    0    0    0    0  0.00000000000E+00  0.00000000000E+00  0.45593999997E+02  0.45594000000E+02  0.51100000000E-03 0.  1.
         11   -1    0    0    0    0 -0.00000000000E+00 -0.00000000000E+00 -0.45593999997E+02  0.45594000000E+02  0.51100000000E-03 0. -1.
    9900012    2    1    2    0    0  0.11772445072E+02  0.87381554080E+01 -0.11650500908E+02  0.72461548272E+02  0.69999971312E+02 0.  0.
        -12    1    1    2    0    0 -0.11772445072E+02 -0.87381554080E+01  0.11650500908E+02  0.18726451728E+02  0.00000000000E+00 0.  1.
         11    1    3    3    0    0  0.41234030166E+01 -0.25042958972E+01  0.84183596726E+01  0.97027176717E+01  0.51100000000E-03 0. -1.
        -11    1    3    3    0    0  0.17567878565E+01  0.24982637344E+02  0.11704116492E+02  0.27644254653E+02  0.51100000000E-03 0.  1.
         12    1    3    3    0    0  0.58922541989E+01 -0.13740186038E+02 -0.31772977072E+02  0.35114575947E+02  0.00000000000E+00 0. -1.
</event>
<event>
 7    1  0.1789107E-013  0.7246158E+02  0.7816164E-02  0.1226708E+00
        -11   -1    0    0    0    0  0.00000000000E+00  0.00000000000E+00  0.45593999997E+02  0.45594000000E+02  0.51100000000E-03 0.  1.
         11   -1    0    0    0    0 -0.00000000000E+00 -0.00000000000E+00 -0.45593999997E+02  0.45594000000E+02  0.51100000000E-03 0. -1.
    9900012    2    1    2    0    0 -0.94641934626E+00  0.12314322176E+02 -0.14076244825E+02  0.72461577261E+02  0.70000009075E+02 0.  0.
        -12    1    1    2    0    0  0.94641934626E+00 -0.12314322176E+02  0.14076244825E+02  0.18726422739E+02  0.00000000000E+00 0.  1.
         11    1    3    3    0    0 -0.84094516279E+01  0.76790215913E+01 -0.94068523717E+01  0.14770752218E+02  0.51100000000E-03 0. -1.
        -11    1    3    3    0    0 -0.59673283357E+01 -0.11083168782E+02 -0.25440420999E+02  0.28384162108E+02  0.51100000000E-03 0.  1.
        -12    1    3    3    0    0  0.13430360617E+02  0.15718469367E+02  0.20771028545E+02  0.29306662935E+02  0.00000000000E+00 0.  1.
</event>
<event>
 7    1  0.1789107E-013  0.7246161E+02  0.7816164E-02  0.1226708E+00
        -11   -1    0    0    0    0  0.00000000000E+00  0.00000000000E+00  0.45593999997E+02  0.45594000000E+02  0.51100000000E-03 0.  1.
         11   -1    0    0    0    0 -0.00000000000E+00 -0.00000000000E+00 -0.45593999997E+02  0.45594000000E+02  0.51100000000E-03 0. -1.
    9900012    2    1    2    0    0  0.13846084674E+02 -0.83990930479E+01 -0.94031280727E+01  0.72461611069E+02  0.70000053117E+02 0.  0.
        -12    1    1    2    0    0 -0.13846084674E+02  0.83990930479E+01  0.94031280727E+01  0.18726388931E+02  0.00000000000E+00 0.  1.
         11    1    3    3    0    0  0.93809474697E+01 -0.17133211127E+02 -0.10329377832E-01  0.19533284565E+02  0.51100000000E-03 0.  1.
        -11    1    3    3    0    0  0.12508811563E+02 -0.17314030523E+02 -0.13631468887E+02  0.25338961383E+02  0.51100000000E-03 0. -1.
        -12    1    3    3    0    0 -0.80436743587E+01  0.26048148602E+02  0.42386701925E+01  0.27589365121E+02  0.00000000000E+00 0.  1.
</event>
<event>
 7    1  0.1789107E-013  0.7246160E+02  0.7816164E-02  0.1226708E+00
        -11   -1    0    0    0    0  0.00000000000E+00  0.00000000000E+00  0.45593999997E+02  0.45594000000E+02  0.51100000000E-03 0. -1.
         11   -1    0    0    0    0 -0.00000000000E+00 -0.00000000000E+00 -0.45593999997E+02  0.45594000000E+02  0.51100000000E-03 0.  1.
    9900012    2    1    2    0    0  0.10950861563E+02 -0.23633404463E+01  0.15005704730E+02  0.72461603617E+02  0.70000043409E+02 0.  0.
        -12    1    1    2    0    0 -0.10950861563E+02  0.23633404463E+01 -0.15005704730E+02  0.18726396383E+02  0.00000000000E+00 0.  1.
         11    1    3    3    0    0  0.37268485617E+01  0.47390010677E+01 -0.20382886887E+02  0.21255813544E+02  0.51100000000E-03 0. -1.
        -11    1    3    3    0    0 -0.36998484024E+01  0.10686818415E+02  0.15065152482E+01  0.11409055810E+02  0.51100000000E-03 0.  1.
        -12    1    3    3    0    0  0.10923861403E+02 -0.17789159929E+02  0.33882076369E+02  0.39796734263E+02  0.00000000000E+00 0.  1.
</event>
<event>
 7    1  0.1789107E-013  0.7246137E+02  0.7816164E-02  0.1226709E+00
        -11   -1    0    0    0    0  0.00000000000E+00  0.00000000000E+00  0.45593999997E+02  0.45594000000E+02  0.51100000000E-03 0. -1.
         11   -1    0    0    0    0 -0.00000000000E+00 -0.00000000000E+00 -0.45593999997E+02  0.45594000000E+02  0.51100000000E-03 0.  1.
    9900012    2    1    2    0    0 -0.79182049291E+01  0.77480340688E+01  0.15098239954E+02  0.72461365200E+02  0.69999732826E+02 0.  0.
        -12    1    1    2    0    0  0.79182049291E+01 -0.77480340688E+01 -0.15098239954E+02  0.18726634800E+02  0.00000000000E+00 0.  1.
         11    1    3    3    0    0  0.29789857095E+01  0.10233572322E+02 -0.81187023473E+01  0.13398271769E+02  0.51100000000E-03 0. -1.
        -11    1    3    3    0    0 -0.92796744665E+01  0.16362176437E+02 -0.96497192003E+01  0.21141198095E+02  0.51100000000E-03 0.  1.
         12    1    3    3    0    0 -0.16175161721E+01 -0.18847714690E+02  0.32866661502E+02  0.37921895336E+02  0.00000000000E+00 0. -1.
</event>
<event>
 7    1  0.1789107E-013  0.7246157E+02  0.7816164E-02  0.1226708E+00
        -11   -1    0    0    0    0  0.00000000000E+00  0.00000000000E+00  0.45593999997E+02  0.45594000000E+02  0.51100000000E-03 0.  1.
         11   -1    0    0    0    0 -0.00000000000E+00 -0.00000000000E+00 -0.45593999997E+02  0.45594000000E+02  0.51100000000E-03 0. -1.
    9900012    2    1    2    0    0  0.70676751041E+01 -0.55720606650E+01 -0.16421910658E+02  0.72461573724E+02  0.70000004468E+02 0.  0.
        -12    1    1    2    0    0 -0.70676751041E+01  0.55720606650E+01  0.16421910658E+02  0.18726426276E+02  0.00000000000E+00 0.  1.
         11    1    3    3    0    0  0.82379931589E+01  0.11050559454E+02  0.21518414866E+02  0.25554286806E+02  0.51100000000E-03 0.  1.
        -11    1    3    3    0    0  0.16677552480E+01  0.24487622354E+01 -0.21100371731E+02  0.21307358624E+02  0.51100000000E-03 0. -1.
        -12    1    3    3    0    0 -0.28380733028E+01 -0.19071382354E+02 -0.16839953792E+02  0.25599928295E+02  0.00000000000E+00 0.  1.
</event>
<event>
 7    1  0.1789107E-013  0.7246159E+02  0.7816164E-02  0.1226708E+00
        -11   -1    0    0    0    0  0.00000000000E+00  0.00000000000E+00  0.45593999997E+02  0.45594000000E+02  0.51100000000E-03 0. -1.
         11   -1    0    0    0    0 -0.00000000000E+00 -0.00000000000E+00 -0.45593999997E+02  0.45594000000E+02  0.51100000000E-03 0.  1.
    9900012    2    1    2    0    0  0.14639509376E+02 -0.78577874031E+01  0.86381920209E+01  0.72461590332E+02  0.70000026103E+02 0.  0.
        -12    1    1    2    0    0 -0.14639509376E+02  0.78577874031E+01 -0.86381920209E+01  0.18726409668E+02  0.00000000000E+00 0.  1.
         11    1    3    3    0    0  0.22899219339E+02  0.69500587784E+01  0.19217099438E+02  0.30691602670E+02  0.51100000000E-03 0. -1.
        -11    1    3    3    0    0  0.12404009252E+02  0.15044421025E+01  0.18951884350E+01  0.12637821451E+02  0.51100000000E-03 0.  1.
        -12    1    3    3    0    0 -0.20663719215E+02 -0.16312288284E+02 -0.12474095852E+02  0.29132166212E+02  0.00000000000E+00 0.  1.
</event>
<event>
 7    1  0.1789107E-013  0.7246163E+02  0.7816164E-02  0.1226708E+00
        -11   -1    0    0    0    0  0.00000000000E+00  0.00000000000E+00  0.45593999997E+02  0.45594000000E+02  0.51100000000E-03 0. -1.
         11   -1    0    0    0    0 -0.00000000000E+00 -0.00000000000E+00 -0.45593999997E+02  0.45594000000E+02  0.51100000000E-03 0.  1.
    9900012    2    1    2    0    0  0.12658018134E+02 -0.72112786390E+01  0.11766429995E+02  0.72461632560E+02  0.70000081112E+02 0.  0.
        -12    1    1    2    0    0 -0.12658018134E+02  0.72112786390E+01 -0.11766429995E+02  0.18726367440E+02  0.00000000000E+00 0.  1.
         11    1    3    3    0    0  0.11115501105E+02 -0.20276017924E+02  0.18839828337E+02  0.29826337350E+02  0.51100000000E-03 0. -1.
        -11    1    3    3    0    0 -0.88998080254E+01  0.25600530726E+01  0.14055348902E+02  0.16831912774E+02  0.51100000000E-03 0.  1.
        -12    1    3    3    0    0  0.10442325054E+02  0.10504686213E+02 -0.21128747244E+02  0.25803382435E+02  0.00000000000E+00 0.  1.
</event>
<event>
 7    1  0.1789107E-013  0.7246160E+02  0.7816164E-02  0.1226708E+00
        -11   -1    0    0    0    0  0.00000000000E+00  0.00000000000E+00  0.45593999997E+02  0.45594000000E+02  0.51100000000E-03 0.  1.
         11   -1    0    0    0    0 -0.00000000000E+00 -0.00000000000E+00 -0.45593999997E+02  0.45594000000E+02  0.51100000000E-03 0. -1.
    9900012    2    1    2    0    0 -0.14048454716E+02  0.11250008770E+02  0.51726317900E+01  0.72461604275E+02  0.70000044266E+02 0.  0.
        -12    1    1    2    0    0  0.14048454716E+02 -0.11250008770E+02 -0.51726317900E+01  0.18726395725E+02  0.00000000000E+00 0.  1.
         11    1    3    3    0    0 -0.15913673808E+02 -0.42519755104E+01  0.53767538822E+01  0.17327255766E+02  0.51100000000E-03 0. -1.
        -11    1    3    3    0    0 -0.18351658853E+02  0.14350647610E+02  0.16775552518E+02  0.28707901910E+02  0.51100000000E-03 0.  1.
         12    1    3    3    0    0  0.20216877945E+02  0.11513366700E+01 -0.16979674611E+02  0.26426446599E+02  0.00000000000E+00 0. -1.
</event>
<event>
 7    1  0.1789107E-013  0.7246137E+02  0.7816164E-02  0.1226709E+00
        -11   -1    0    0    0    0  0.00000000000E+00  0.00000000000E+00  0.45593999997E+02  0.45594000000E+02  0.51100000000E-03 0.  1.
         11   -1    0    0    0    0 -0.00000000000E+00 -0.00000000000E+00 -0.45593999997E+02  0.45594000000E+02  0.51100000000E-03 0. -1.
    9900012    2    1    2    0    0 -0.18129822544E+02 -0.73200499208E-01 -0.46894251888E+01  0.72461373705E+02  0.69999743906E+02 0.  0.
        -12    1    1    2    0    0  0.18129822544E+02  0.73200499208E-01  0.46894251888E+01  0.18726626295E+02  0.00000000000E+00 0.  1.
         11    1    3    3    0    0  0.15831723754E+02 -0.19933789136E+02 -0.87992957094E+01  0.26933752645E+02  0.51100000000E-03 0. -1.
        -11    1    3    3    0    0 -0.21469683039E+02  0.74575435170E+00 -0.28143144184E+01  0.21666190373E+02  0.51100000000E-03 0.  1.
        -12    1    3    3    0    0 -0.12491863258E+02  0.19114834285E+02  0.69241849390E+01  0.23861430688E+02  0.00000000000E+00 0.  1.
</event>
<event>
 7    1  0.1789107E-013  0.7246137E+02  0.7816164E-02  0.1226709E+00
        -11   -1    0    0    0    0  0.00000000000E+00  0.00000000000E+00  0.45593999997E+02  0.45594000000E+02  0.51100000000E-03 0.  1.
         11   -1    0    0    0    0 -0.00000000000E+00 -0.00000000000E+00 -0.45593999997E+02  0.45594000000E+02  0.51100000000E-03 0. -1.
    9900012    2    1    2    0    0 -0.90010729281E+01  0.11940846552E+02 -0.11273132945E+02  0.72461370388E+02  0.69999739584E+02 0.  0.
        -12    1    1    2    0    0  0.90010729281E+01 -0.11940846552E+02  0.11273132945E+02  0.18726629612E+02  0.00000000000E+00 0.  1.
         11    1    3    3    0    0 -0.67449349833E+01 -0.11194953771E+02  0.53182315539E+01  0.14110447370E+02  0.51100000000E-03 0. -1.
        -11    1    3    3    0    0  0.18991165673E+02  0.26419149279E+02 -0.17279485451E+02  0.36840418564E+02  0.51100000000E-03 0.  1.
         12    1    3    3    0    0 -0.21247303618E+02 -0.32833489563E+01  0.68812095188E+00  0.21510504454E+02  0.00000000000E+00 0. -1.
</event>
<event>
 7    1  0.1789107E-013  0.7246157E+02  0.7816164E-02  0.1226708E+00
        -11   -1    0    0    0    0  0.00000000000E+00  0.00000000000E+00  0.45593999997E+02  0.45594000000E+02  0.51100000000E-03 0.  1.
         11   -1    0    0    0    0 -0.00000000000E+00 -0.00000000000E+00 -0.45593999997E+02  0.45594000000E+02  0.51100000000E-03 0. -1.
    9900012    2    1    2    0    0  0.59250998793E+01 -0.14310282642E+02 -0.10525589469E+02  0.72461573978E+02  0.70000004799E+02 0.  0.
        -12    1    1    2    0    0 -0.59250998793E+01  0.14310282642E+02  0.10525589469E+02  0.18726426022E+02  0.00000000000E+00 0.  1.
         11    1    3    3    0    0  0.11783224217E+02 -0.17858458725E+02 -0.11456856295E+02  0.24269908887E+02  0.51100000000E-03 0. -1.
        -11    1    3    3    0    0  0.14219327829E+02 -0.15057463908E+02  0.19342416494E+01  0.20800427743E+02  0.51100000000E-03 0.  1.
        -12    1    3    3    0    0 -0.20077452167E+02  0.18605639991E+02 -0.10029748235E+01  0.27391237348E+02  0.00000000000E+00 0.  1.
</event>
<event>
 7    1  0.1789107E-013  0.7246152E+02  0.7816164E-02  0.1226708E+00
        -11   -1    0    0    0    0  0.00000000000E+00  0.00000000000E+00  0.45593999997E+02  0.45594000000E+02  0.51100000000E-03 0.  1.
         11   -1    0    0    0    0 -0.00000000000E+00 -0.00000000000E+00 -0.45593999997E+02  0.45594000000E+02  0.51100000000E-03 0. -1.
    9900012    2    1    2    0    0 -0.11273984127E+02  0.64103425811E+00 -0.14938793077E+02  0.72461516571E+02  0.69999930015E+02 0.  0.
        -12    1    1    2    0    0  0.11273984127E+02 -0.64103425811E+00  0.14938793077E+02  0.18726483429E+02  0.00000000000E+00 0.  1.
         11    1    3    3    0    0  0.17396954121E+01  0.86180122436E+01 -0.69422372055E+00  0.88192188992E+01  0.51100000000E-03 0.  1.
        -11    1    3    3    0    0 -0.33504461682E+02  0.97914698476E+01 -0.80469204515E+01  0.35821428829E+02  0.51100000000E-03 0. -1.
         12    1    3    3    0    0  0.20490782142E+02 -0.17768447833E+02 -0.61976489050E+01  0.27820868842E+02  0.00000000000E+00 0. -1.
</event>
<event>
 7    1  0.1789107E-013  0.7246163E+02  0.7816164E-02  0.1226708E+00
        -11   -1    0    0    0    0  0.00000000000E+00  0.00000000000E+00  0.45593999997E+02  0.45594000000E+02  0.51100000000E-03 0. -1.
         11   -1    0    0    0    0 -0.00000000000E+00 -0.00000000000E+00 -0.45593999997E+02  0.45594000000E+02  0.51100000000E-03 0.  1.
    9900012    2    1    2    0    0  0.20064884762E+01  0.10983360407E+02  0.15033855467E+02  0.72461627900E+02  0.70000075041E+02 0.  0.
        -12    1    1    2    0    0 -0.20064884762E+01 -0.10983360407E+02 -0.15033855467E+02  0.18726372100E+02  0.00000000000E+00 0.  1.
         11    1    3    3    0    0  0.37464269282E+01  0.59006866336E+00  0.41652933403E+01  0.56332552426E+01  0.51100000000E-03 0. -1.
        -11    1    3    3    0    0  0.23981356441E+02  0.26358592839E+02  0.48729820399E+01  0.35967024167E+02  0.51100000000E-03 0.  1.
         12    1    3    3    0    0 -0.25721294893E+02 -0.15965301096E+02  0.59955800870E+01  0.30861348490E+02  0.00000000000E+00 0. -1.
</event>
<event>
 7    1  0.1789107E-013  0.7246175E+02  0.7816164E-02  0.1226708E+00
        -11   -1    0    0    0    0  0.00000000000E+00  0.00000000000E+00  0.45593999997E+02  0.45594000000E+02  0.51100000000E-03 0. -1.
         11   -1    0    0    0    0 -0.00000000000E+00 -0.00000000000E+00 -0.45593999997E+02  0.45594000000E+02  0.51100000000E-03 0.  1.
    9900012    2    1    2    0    0  0.12287150091E+02 -0.14095976215E+02  0.10009064839E+01  0.72461750600E+02  0.70000234881E+02 0.  0.
        -12    1    1    2    0    0 -0.12287150091E+02  0.14095976215E+02 -0.10009064839E+01  0.18726249400E+02  0.00000000000E+00 0.  1.
         11    1    3    3    0    0  0.97718582034E+01  0.41775693806E+00  0.11840996282E+02  0.15358155059E+02  0.51100000000E-03 0. -1.
        -11    1    3    3    0    0  0.21678634402E+02 -0.25382904552E+02 -0.10761503563E+02  0.35072282393E+02  0.51100000000E-03 0.  1.
         12    1    3    3    0    0 -0.19163342515E+02  0.10869171399E+02 -0.78586235051E-01  0.22031313148E+02  0.00000000000E+00 0. -1.
</event>
<event>
 7    1  0.1789107E-013  0.7246149E+02  0.7816164E-02  0.1226708E+00
        -11   -1    0    0    0    0  0.00000000000E+00  0.00000000000E+00  0.45593999997E+02  0.45594000000E+02  0.51100000000E-03 0.  1.
         11   -1    0    0    0    0 -0.00000000000E+00 -0.00000000000E+00 -0.45593999997E+02  0.45594000000E+02  0.51100000000E-03 0. -1.
    9900012    2    1    2    0    0 -0.18590957583E+02 -0.19480017889E+01  0.11241695581E+01  0.72461490127E+02  0.69999895567E+02 0.  0.
        -12    1    1    2    0    0  0.18590957583E+02  0.19480017889E+01 -0.11241695581E+01  0.18726509873E+02  0.00000000000E+00 0.  1.
         11    1    3    3    0    0  0.37146039503E+01  0.84732966875E+01 -0.82521510577E+00  0.92884885474E+01  0.51100000000E-03 0. -1.
        -11    1    3    3    0    0 -0.20924374555E+02  0.20392159856E+02 -0.87920239795E+01  0.30511789852E+02  0.51100000000E-03 0.  1.
         12    1    3    3    0    0 -0.13811869787E+01 -0.30813458332E+02  0.10741408643E+02  0.32661211727E+02  0.00000000000E+00 0. -1.
</event>
<event>
 7    1  0.2680686E-013  0.7246154E+02  0.7816164E-02  0.1226708E+00
        -11   -1    0    0    0    0  0.00000000000E+00  0.00000000000E+00  0.45593999997E+02  0.45594000000E+02  0.51100000000E-03 0. -1.
         11   -1    0    0    0    0 -0.00000000000E+00 -0.00000000000E+00 -0.45593999997E+02  0.45594000000E+02  0.51100000000E-03 0.  1.
    9900012    2    1    2    0    0 -0.15639514069E+02  0.66481217850E+01  0.78669054151E+01  0.72461544799E+02  0.69999966788E+02 0.  0.
        -12    1    1    2    0    0  0.15639514069E+02 -0.66481217850E+01 -0.78669054151E+01  0.18726455201E+02  0.00000000000E+00 0.  1.
         11    1    3    3    0    0 -0.31930540845E+02 -0.12553976603E+01  0.14543721741E+02  0.35109191165E+02  0.51100000000E-03 0. -1.
        -11    1    3    3    0    0  0.40667509197E+01 -0.11495290284E+02 -0.76639367889E+01  0.14401947407E+02  0.51100000000E-03 0.  1.
        -12    1    3    3    0    0  0.12224275857E+02  0.19398809729E+02  0.98712046323E+00  0.22950406226E+02  0.00000000000E+00 0.  1.
</event>
<event>
 7    1  0.1789107E-013  0.7246158E+02  0.7816164E-02  0.1226708E+00
        -11   -1    0    0    0    0  0.00000000000E+00  0.00000000000E+00  0.45593999997E+02  0.45594000000E+02  0.51100000000E-03 0. -1.
         11   -1    0    0    0    0 -0.00000000000E+00 -0.00000000000E+00 -0.45593999997E+02  0.45594000000E+02  0.51100000000E-03 0.  1.
    9900012    2    1    2    0    0  0.47810080469E+01  0.17450282410E+01  0.18021530071E+02  0.72461582628E+02  0.70000016066E+02 0.  0.
        -12    1    1    2    0    0 -0.47810080469E+01 -0.17450282410E+01 -0.18021530071E+02  0.18726417372E+02  0.00000000000E+00 0.  1.
         11    1    3    3    0    0 -0.15413672106E+02 -0.56635076024E+01  0.14135112375E+02  0.21666979676E+02  0.51100000000E-03 0. -1.
        -11    1    3    3    0    0 -0.55986940707E+01 -0.12390952543E+02  0.11023358000E+02  0.17504156708E+02  0.51100000000E-03 0.  1.
        -12    1    3    3    0    0  0.25793374224E+02  0.19799488386E+02 -0.71369403038E+01  0.33290446244E+02  0.00000000000E+00 0.  1.
</event>
<event>
 7    1  0.1789107E-013  0.7246148E+02  0.7816164E-02  0.1226708E+00
        -11   -1    0    0    0    0  0.00000000000E+00  0.00000000000E+00  0.45593999997E+02  0.45594000000E+02  0.51100000000E-03 0.  1.
         11   -1    0    0    0    0 -0.00000000000E+00 -0.00000000000E+00 -0.45593999997E+02  0.45594000000E+02  0.51100000000E-03 0. -1.
    9900012    2    1    2    0    0  0.72784044874E+01  0.19914609768E+00 -0.17253045214E+02  0.72461484034E+02  0.69999887630E+02 0.  0.
        -12    1    1    2    0    0 -0.72784044874E+01 -0.19914609768E+00  0.17253045214E+02  0.18726515966E+02  0.00000000000E+00 0.  1.
         11    1    3    3    0    0  0.30866777492E+02 -0.13425486386E+02 -0.24102262347E+02  0.41399525214E+02  0.51100000000E-03 0. -1.
        -11    1    3    3    0    0 -0.23368700073E+01  0.67388708832E+01 -0.13620364720E+01  0.72614382752E+01  0.51100000000E-03 0.  1.
        -12    1    3    3    0    0 -0.21251502997E+02  0.68857616006E+01  0.82112536048E+01  0.23800520545E+02  0.00000000000E+00 0.  1.
</event>
<event>
 7    1  0.1789107E-013  0.7246155E+02  0.7816164E-02  0.1226708E+00
        -11   -1    0    0    0    0  0.00000000000E+00  0.00000000000E+00  0.45593999997E+02  0.45594000000E+02  0.51100000000E-03 0.  1.
         11   -1    0    0    0    0 -0.00000000000E+00 -0.00000000000E+00 -0.45593999997E+02  0.45594000000E+02  0.51100000000E-03 0. -1.
    9900012    2    1    2    0    0 -0.41953716211E+01  0.13206119243E+02 -0.12596717858E+02  0.72461547338E+02  0.69999970096E+02 0.  0.
        -12    1    1    2    0    0  0.41953716211E+01 -0.13206119243E+02  0.12596717858E+02  0.18726452662E+02  0.00000000000E+00 0.  1.
         11    1    3    3    0    0 -0.19641389192E+02 -0.20845494401E+01 -0.32598493605E+01  0.20018894422E+02  0.51100000000E-03 0. -1.
        -11    1    3    3    0    0  0.26948911323E+01 -0.11203944302E+02  0.11596872601E+02  0.16348647055E+02  0.51100000000E-03 0.  1.
         12    1    3    3    0    0  0.12751126439E+02  0.26494612986E+02 -0.20933741098E+02  0.36094005861E+02  0.00000000000E+00 0. -1.
</event>
<event>
 7    1  0.1789107E-013  0.7246154E+02  0.7816164E-02  0.1226708E+00
        -11   -1    0    0    0    0  0.00000000000E+00  0.00000000000E+00  0.45593999997E+02  0.45594000000E+02  0.51100000000E-03 0. -1.
         11   -1    0    0    0    0 -0.00000000000E+00 -0.00000000000E+00 -0.45593999997E+02  0.45594000000E+02  0.51100000000E-03 0.  1.
    9900012    2    1    2    0    0 -0.61358155405E+01  0.13853364485E+02  0.11005293038E+02  0.72461537047E+02  0.69999956689E+02 0.  0.
        -12    1    1    2    0    0  0.61358155405E+01 -0.13853364485E+02 -0.11005293038E+02  0.18726462953E+02  0.00000000000E+00 0.  1.
         11    1    3    3    0    0 -0.34571380245E+02 -0.63668901850E+01  0.88198599446E+01  0.36242344742E+02  0.51100000000E-03 0. -1.
        -11    1    3    3    0    0  0.65352309395E+01  0.75584765624E+01 -0.29243878764E+01  0.10411140960E+02  0.51100000000E-03 0.  1.
        -12    1    3    3    0    0  0.21900333765E+02  0.12661778107E+02  0.51098209693E+01  0.25808051345E+02  0.00000000000E+00 0.  1.
</event>
<event>
 7    1  0.1789107E-013  0.7246184E+02  0.7816164E-02  0.1226707E+00
        -11   -1    0    0    0    0  0.00000000000E+00  0.00000000000E+00  0.45593999997E+02  0.45594000000E+02  0.51100000000E-03 0.  1.
         11   -1    0    0    0    0 -0.00000000000E+00 -0.00000000000E+00 -0.45593999997E+02  0.45594000000E+02  0.51100000000E-03 0. -1.
    9900012    2    1    2    0    0 -0.87791216091E+01 -0.16532819839E+02  0.51174403212E+00  0.72461842092E+02  0.70000354066E+02 0.  0.
        -12    1    1    2    0    0  0.87791216091E+01  0.16532819839E+02 -0.51174403212E+00  0.18726157908E+02  0.00000000000E+00 0.  1.
         11    1    3    3    0    0 -0.34148680613E+01  0.21525289434E+02 -0.83736342865E+01  0.23347744228E+02  0.51100000000E-03 0. -1.
        -11    1    3    3    0    0  0.13978578375E+01 -0.18261282940E-01 -0.71478247397E+01  0.72832505640E+01  0.51100000000E-03 0.  1.
        -12    1    3    3    0    0 -0.67621113853E+01 -0.38039847990E+02  0.16033203058E+02  0.41830847300E+02  0.00000000000E+00 0.  1.
</event>
<event>
 7    1  0.1789107E-013  0.7246152E+02  0.7816164E-02  0.1226708E+00
        -11   -1    0    0    0    0  0.00000000000E+00  0.00000000000E+00  0.45593999997E+02  0.45594000000E+02  0.51100000000E-03 0.  1.
         11   -1    0    0    0    0 -0.00000000000E+00 -0.00000000000E+00 -0.45593999997E+02  0.45594000000E+02  0.51100000000E-03 0. -1.
    9900012    2    1    2    0    0  0.15516412238E+02  0.96685501027E+01  0.40547828239E+01  0.72461516786E+02  0.69999930296E+02 0.  0.
        -12    1    1    2    0    0 -0.15516412238E+02 -0.96685501027E+01 -0.40547828239E+01  0.18726483214E+02  0.00000000000E+00 0.  1.
         11    1    3    3    0    0  0.12306712361E+02 -0.37231715013E+01 -0.12036462409E+02  0.17612313952E+02  0.51100000000E-03 0. -1.
        -11    1    3    3    0    0  0.51266703841E+01 -0.18222406815E+02  0.13132460469E+02  0.23039105398E+02  0.51100000000E-03 0.  1.
         12    1    3    3    0    0 -0.19169705075E+01  0.31614128419E+02  0.29587847641E+01  0.31810097436E+02  0.00000000000E+00 0. -1.
</event>
<event>
 7    1  0.1789107E-013  0.7246146E+02  0.7816164E-02  0.1226708E+00
        -11   -1    0    0    0    0  0.00000000000E+00  0.00000000000E+00  0.45593999997E+02  0.45594000000E+02  0.51100000000E-03 0. -1.
         11   -1    0    0    0    0 -0.00000000000E+00 -0.00000000000E+00 -0.45593999997E+02  0.45594000000E+02  0.51100000000E-03 0.  1.
    9900012    2    1    2    0    0  0.15980765198E+02  0.20614795455E+01 -0.95419467767E+01  0.72461459942E+02  0.69999856246E+02 0.  0.
        -12    1    1    2    0    0 -0.15980765198E+02 -0.20614795455E+01  0.95419467767E+01  0.18726540058E+02  0.00000000000E+00 0.  1.
         11    1    3    3    0    0 -0.19395458289E+02  0.13349490229E+02 -0.12580344336E+02  0.26695650497E+02  0.51100000000E-03 0. -1.
        -11    1    3    3    0    0  0.97607767650E+01  0.81723989150E+01  0.46582922609E+01  0.13555831001E+02  0.51100000000E-03 0.  1.
        -12    1    3    3    0    0  0.25615446722E+02 -0.19460409598E+02 -0.16198947013E+01  0.32209978444E+02  0.00000000000E+00 0.  1.
</event>
<event>
 7    1  0.1789107E-013  0.7246156E+02  0.7816164E-02  0.1226708E+00
        -11   -1    0    0    0    0  0.00000000000E+00  0.00000000000E+00  0.45593999997E+02  0.45594000000E+02  0.51100000000E-03 0.  1.
         11   -1    0    0    0    0 -0.00000000000E+00 -0.00000000000E+00 -0.45593999997E+02  0.45594000000E+02  0.51100000000E-03 0. -1.
    9900012    2    1    2    0    0 -0.21341332373E+01  0.70318197366E+01 -0.17224359231E+02  0.72461559751E+02  0.69999986265E+02 0.  0.
        -12    1    1    2    0    0  0.21341332373E+01 -0.70318197366E+01  0.17224359231E+02  0.18726440249E+02  0.00000000000E+00 0.  1.
         11    1    3    3    0    0 -0.40221747449E+01 -0.13276475217E+01 -0.17455563089E+02  0.17962105128E+02  0.51100000000E-03 0. -1.
        -11    1    3    3    0    0  0.92989378068E+01  0.27207201091E+02 -0.11645746859E+02  0.31021370951E+02  0.51100000000E-03 0.  1.
         12    1    3    3    0    0 -0.74108962992E+01 -0.18847733832E+02  0.11876950717E+02  0.23478083672E+02  0.00000000000E+00 0. -1.
</event>
<event>
 7    1  0.1789107E-013  0.7246122E+02  0.7816164E-02  0.1226709E+00
        -11   -1    0    0    0    0  0.00000000000E+00  0.00000000000E+00  0.45593999997E+02  0.45594000000E+02  0.51100000000E-03 0.  1.
         11   -1    0    0    0    0 -0.00000000000E+00 -0.00000000000E+00 -0.45593999997E+02  0.45594000000E+02  0.51100000000E-03 0. -1.
    9900012    2    1    2    0    0 -0.18940612559E+01 -0.18194116447E+02  0.40098713148E+01  0.72461216793E+02  0.69999539497E+02 0.  0.
        -12    1    1    2    0    0  0.18940612559E+01  0.18194116447E+02 -0.40098713148E+01  0.18726783207E+02  0.00000000000E+00 0.  1.
         11    1    3    3    0    0 -0.24126241062E+01  0.66444025869E+01  0.12941622309E+02  0.14746336123E+02  0.51100000000E-03 0. -1.
        -11    1    3    3    0    0 -0.25096062253E+02 -0.10328255074E+02 -0.70273656375E+00  0.27147357743E+02  0.51100000000E-03 0.  1.
         12    1    3    3    0    0  0.25614625103E+02 -0.14510263960E+02 -0.82290144301E+01  0.30567522926E+02  0.00000000000E+00 0. -1.
</event>
<event>
 7    1  0.1789107E-013  0.7246164E+02  0.7816164E-02  0.1226708E+00
        -11   -1    0    0    0    0  0.00000000000E+00  0.00000000000E+00  0.45593999997E+02  0.45594000000E+02  0.51100000000E-03 0. -1.
         11   -1    0    0    0    0 -0.00000000000E+00 -0.00000000000E+00 -0.45593999997E+02  0.45594000000E+02  0.51100000000E-03 0.  1.
    9900012    2    1    2    0    0 -0.11511865193E+02  0.14468007777E+02 -0.29715662406E+01  0.72461641699E+02  0.70000093018E+02 0.  0.
        -12    1    1    2    0    0  0.11511865193E+02 -0.14468007777E+02  0.29715662406E+01  0.18726358301E+02  0.00000000000E+00 0.  1.
         11    1    3    3    0    0  0.33037133810E+01 -0.49749183343E+01 -0.12633131392E+02  0.13973558730E+02  0.51100000000E-03 0. -1.
        -11    1    3    3    0    0 -0.19595091680E+02  0.35283121541E+02  0.24332475971E+01  0.40432499029E+02  0.51100000000E-03 0.  1.
         12    1    3    3    0    0  0.47795131051E+01 -0.15840195429E+02  0.72283175547E+01  0.18055583941E+02  0.00000000000E+00 0. -1.
</event>
<event>
 7    1  0.1789107E-013  0.7246109E+02  0.7816164E-02  0.1226709E+00
        -11   -1    0    0    0    0  0.00000000000E+00  0.00000000000E+00  0.45593999997E+02  0.45594000000E+02  0.51100000000E-03 0.  1.
         11   -1    0    0    0    0 -0.00000000000E+00 -0.00000000000E+00 -0.45593999997E+02  0.45594000000E+02  0.51100000000E-03 0. -1.
    9900012    2    1    2    0    0 -0.91222550152E+01 -0.81318747083E+00 -0.16334632582E+02  0.72461093368E+02  0.69999378712E+02 0.  0.
        -12    1    1    2    0    0  0.91222550152E+01  0.81318747083E+00  0.16334632582E+02  0.18726906632E+02  0.00000000000E+00 0.  1.
         11    1    3    3    0    0  0.11381262603E+02  0.96888384823E+01 -0.24379253775E+02  0.28596411392E+02  0.51100000000E-03 0. -1.
        -11    1    3    3    0    0 -0.85149185616E+01 -0.21083749258E+02 -0.49369787099E+01  0.23268048477E+02  0.51100000000E-03 0.  1.
        -12    1    3    3    0    0 -0.11988599057E+02  0.10581723305E+02  0.12981599903E+02  0.20596633499E+02  0.00000000000E+00 0.  1.
</event>
<event>
 7    1  0.1789107E-013  0.7246154E+02  0.7816164E-02  0.1226708E+00
        -11   -1    0    0    0    0  0.00000000000E+00  0.00000000000E+00  0.45593999997E+02  0.45594000000E+02  0.51100000000E-03 0.  1.
         11   -1    0    0    0    0 -0.00000000000E+00 -0.00000000000E+00 -0.45593999997E+02  0.45594000000E+02  0.51100000000E-03 0. -1.
    9900012    2    1    2    0    0 -0.16255553670E+02  0.81231197601E+01  0.45224183306E+01  0.72461538313E+02  0.69999958339E+02 0.  0.
        -12    1    1    2    0    0  0.16255553670E+02 -0.81231197601E+01 -0.45224183306E+01  0.18726461687E+02  0.00000000000E+00 0.  1.
         11    1    3    3    0    0 -0.48826320815E+01 -0.48263168716E+01  0.69307686039E+01  0.97554592044E+01  0.51100000000E-03 0. -1.
        -11    1    3    3    0    0  0.18595545428E+02 -0.16076703583E+01  0.16050837409E+02  0.24617235741E+02  0.51100000000E-03 0.  1.
         12    1    3    3    0    0 -0.29968467016E+02  0.14557106990E+02 -0.18459187682E+02  0.38088843368E+02  0.00000000000E+00 0. -1.
</event>
<event>
 7    1  0.1789107E-013  0.7246153E+02  0.7816164E-02  0.1226708E+00
        -11   -1    0    0    0    0  0.00000000000E+00  0.00000000000E+00  0.45593999997E+02  0.45594000000E+02  0.51100000000E-03 0.  1.
         11   -1    0    0    0    0 -0.00000000000E+00 -0.00000000000E+00 -0.45593999997E+02  0.45594000000E+02  0.51100000000E-03 0. -1.
    9900012    2    1    2    0    0  0.59325432596E+01  0.17642689710E+02 -0.20545324530E+01  0.72461530142E+02  0.69999947694E+02 0.  0.
        -12    1    1    2    0    0 -0.59325432596E+01 -0.17642689710E+02  0.20545324530E+01  0.18726469858E+02  0.00000000000E+00 0.  1.
         11    1    3    3    0    0  0.18816543718E+01  0.23081554938E+02 -0.22395532880E+02  0.32215814358E+02  0.51100000000E-03 0. -1.
        -11    1    3    3    0    0 -0.17486479149E+01  0.12941943226E+02  0.12532951075E+01  0.13119543166E+02  0.51100000000E-03 0.  1.
        -12    1    3    3    0    0  0.57995368027E+01 -0.18380808454E+02  0.19087705320E+02  0.27126172618E+02  0.00000000000E+00 0.  1.
</event>
<event>
 7    1  0.1789107E-013  0.7246160E+02  0.7816164E-02  0.1226708E+00
        -11   -1    0    0    0    0  0.00000000000E+00  0.00000000000E+00  0.45593999997E+02  0.45594000000E+02  0.51100000000E-03 0.  1.
         11   -1    0    0    0    0 -0.00000000000E+00 -0.00000000000E+00 -0.45593999997E+02  0.45594000000E+02  0.51100000000E-03 0. -1.
    9900012    2    1    2    0    0 -0.10050506724E+00  0.12048036427E+02 -0.14335714438E+02  0.72461601748E+02  0.70000040975E+02 0.  0.
        -12    1    1    2    0    0  0.10050506724E+00 -0.12048036427E+02  0.14335714438E+02  0.18726398252E+02  0.00000000000E+00 0.  1.
         11    1    3    3    0    0 -0.38157273475E+01 -0.19846699246E+02  0.23600941226E+01  0.20347513133E+02  0.51100000000E-03 0. -1.
        -11    1    3    3    0    0 -0.16894065838E+02  0.12860689585E+02 -0.57196037039E+01  0.21989103300E+02  0.51100000000E-03 0.  1.
         12    1    3    3    0    0  0.20609288118E+02  0.19034046088E+02 -0.10976204857E+02  0.30124985316E+02  0.00000000000E+00 0. -1.
</event>
<event>
 7    1  0.1789107E-013  0.7246152E+02  0.7816164E-02  0.1226708E+00
        -11   -1    0    0    0    0  0.00000000000E+00  0.00000000000E+00  0.45593999997E+02  0.45594000000E+02  0.51100000000E-03 0.  1.
         11   -1    0    0    0    0 -0.00000000000E+00 -0.00000000000E+00 -0.45593999997E+02  0.45594000000E+02  0.51100000000E-03 0. -1.
    9900012    2    1    2    0    0 -0.15048334043E+02  0.11145553498E+02  0.72121975433E-01  0.72461523507E+02  0.69999939051E+02 0.  0.
        -12    1    1    2    0    0  0.15048334043E+02 -0.11145553498E+02 -0.72121975433E-01  0.18726476493E+02  0.00000000000E+00 0.  1.
         11    1    3    3    0    0 -0.28981172639E+00  0.11544559912E+02 -0.17658634370E+02  0.21099483939E+02  0.51100000000E-03 0. -1.
        -11    1    3    3    0    0  0.10603730949E+02  0.14581670121E+02  0.11087893592E+02  0.21166142732E+02  0.51100000000E-03 0.  1.
        -12    1    3    3    0    0 -0.25362253266E+02 -0.14980676535E+02  0.66428627534E+01  0.30195896836E+02  0.00000000000E+00 0.  1.
</event>
<event>
 7    1  0.1789107E-013  0.7246157E+02  0.7816164E-02  0.1226708E+00
        -11   -1    0    0    0    0  0.00000000000E+00  0.00000000000E+00  0.45593999997E+02  0.45594000000E+02  0.51100000000E-03 0. -1.
         11   -1    0    0    0    0 -0.00000000000E+00 -0.00000000000E+00 -0.45593999997E+02  0.45594000000E+02  0.51100000000E-03 0.  1.
    9900012    2    1    2    0    0  0.16562951097E+02 -0.87109802645E+01 -0.68307471924E+00  0.72461571689E+02  0.70000001817E+02 0.  0.
        -12    1    1    2    0    0 -0.16562951097E+02  0.87109802645E+01  0.68307471924E+00  0.18726428311E+02  0.00000000000E+00 0.  1.
         11    1    3    3    0    0 -0.19887493610E+02 -0.17870040986E+01  0.60534902136E+01  0.20865055231E+02  0.51100000000E-03 0. -1.
        -11    1    3    3    0    0  0.26661373218E+01 -0.10363793694E+02 -0.13236368126E+02  0.17021103060E+02  0.51100000000E-03 0.  1.
         12    1    3    3    0    0  0.33784307385E+02  0.34398175279E+01  0.64998031933E+01  0.34575413399E+02  0.00000000000E+00 0. -1.
</event>
<event>
 7    1  0.1789107E-013  0.7246161E+02  0.7816164E-02  0.1226708E+00
        -11   -1    0    0    0    0  0.00000000000E+00  0.00000000000E+00  0.45593999997E+02  0.45594000000E+02  0.51100000000E-03 0.  1.
         11   -1    0    0    0    0 -0.00000000000E+00 -0.00000000000E+00 -0.45593999997E+02  0.45594000000E+02  0.51100000000E-03 0. -1.
    9900012    2    1    2    0    0 -0.16295740950E+02  0.88385562256E+01 -0.26469793376E+01  0.72461608226E+02  0.70000049412E+02 0.  0.
        -12    1    1    2    0    0  0.16295740950E+02 -0.88385562256E+01  0.26469793376E+01  0.18726391774E+02  0.00000000000E+00 0.  1.
         11    1    3    3    0    0  0.68921898637E+01 -0.21361145828E+01  0.19735943336E+01  0.74806645082E+01  0.51100000000E-03 0. -1.
        -11    1    3    3    0    0 -0.17578610991E+01  0.22888114523E+02 -0.24383421402E+02  0.33488910128E+02  0.51100000000E-03 0.  1.
         12    1    3    3    0    0 -0.21430069715E+02 -0.11913443714E+02  0.19762847731E+02  0.31492033589E+02  0.00000000000E+00 0. -1.
</event>
<event>
 7    1  0.1789107E-013  0.7246160E+02  0.7816164E-02  0.1226708E+00
        -11   -1    0    0    0    0  0.00000000000E+00  0.00000000000E+00  0.45593999997E+02  0.45594000000E+02  0.51100000000E-03 0.  1.
         11   -1    0    0    0    0 -0.00000000000E+00 -0.00000000000E+00 -0.45593999997E+02  0.45594000000E+02  0.51100000000E-03 0. -1.
    9900012    2    1    2    0    0  0.49580189145E+01  0.34584701372E+00 -0.18054818935E+02  0.72461600226E+02  0.70000038992E+02 0.  0.
        -12    1    1    2    0    0 -0.49580189145E+01 -0.34584701372E+00  0.18054818935E+02  0.18726399774E+02  0.00000000000E+00 0.  1.
         11    1    3    3    0    0 -0.78801322357E+01  0.10199115024E+02  0.17379235626E+01  0.13005337746E+02  0.51100000000E-03 0. -1.
        -11    1    3    3    0    0  0.21905462533E+02  0.16970958380E+02 -0.10904939100E+02  0.29778858510E+02  0.51100000000E-03 0.  1.
         12    1    3    3    0    0 -0.90673113832E+01 -0.26824226390E+02 -0.88878033979E+01  0.29677403970E+02  0.00000000000E+00 0. -1.
</event>
<event>
 7    1  0.1789107E-013  0.7246154E+02  0.7816164E-02  0.1226708E+00
        -11   -1    0    0    0    0  0.00000000000E+00  0.00000000000E+00  0.45593999997E+02  0.45594000000E+02  0.51100000000E-03 0. -1.
         11   -1    0    0    0    0 -0.00000000000E+00 -0.00000000000E+00 -0.45593999997E+02  0.45594000000E+02  0.51100000000E-03 0.  1.
    9900012    2    1    2    0    0  0.48339983934E+01 -0.14476452402E+02  0.10851037641E+02  0.72461541912E+02  0.69999963027E+02 0.  0.
        -12    1    1    2    0    0 -0.48339983934E+01  0.14476452402E+02 -0.10851037641E+02  0.18726458088E+02  0.00000000000E+00 0.  1.
         11    1    3    3    0    0 -0.13627153594E+01 -0.71115583906E+01  0.35563284227E+02  0.36292953051E+02  0.51100000000E-03 0. -1.
        -11    1    3    3    0    0  0.11637265158E+02  0.20029681266E+01 -0.34440892020E+01  0.12300389114E+02  0.51100000000E-03 0.  1.
        -12    1    3    3    0    0 -0.54405514047E+01 -0.93678621385E+01 -0.21268157384E+02  0.23868199747E+02  0.00000000000E+00 0.  1.
</event>
<event>
 7    1  0.1789107E-013  0.7246168E+02  0.7816164E-02  0.1226708E+00
        -11   -1    0    0    0    0  0.00000000000E+00  0.00000000000E+00  0.45593999997E+02  0.45594000000E+02  0.51100000000E-03 0. -1.
         11   -1    0    0    0    0 -0.00000000000E+00 -0.00000000000E+00 -0.45593999997E+02  0.45594000000E+02  0.51100000000E-03 0.  1.
    9900012    2    1    2    0    0 -0.18549512413E+02  0.11095100268E+01 -0.23150918286E+01  0.72461679661E+02  0.70000142470E+02 0.  0.
        -12    1    1    2    0    0  0.18549512413E+02 -0.11095100268E+01  0.23150918286E+01  0.18726320339E+02  0.00000000000E+00 0.  1.
         11    1    3    3    0    0  0.84711292907E+01  0.68365677827E+01 -0.17279673028E+02  0.20422678344E+02  0.51100000000E-03 0. -1.
        -11    1    3    3    0    0 -0.10049140498E+02  0.14953844523E+02 -0.49536547429E+01  0.18685325428E+02  0.51100000000E-03 0.  1.
         12    1    3    3    0    0 -0.16971501205E+02 -0.20680902279E+02  0.19918235943E+02  0.33353675889E+02  0.00000000000E+00 0. -1.
</event>
<event>
 7    1  0.1789107E-013  0.7246154E+02  0.7816164E-02  0.1226708E+00
        -11   -1    0    0    0    0  0.00000000000E+00  0.00000000000E+00  0.45593999997E+02  0.45594000000E+02  0.51100000000E-03 0. -1.
         11   -1    0    0    0    0 -0.00000000000E+00 -0.00000000000E+00 -0.45593999997E+02  0.45594000000E+02  0.51100000000E-03 0.  1.
    9900012    2    1    2    0    0 -0.25703936399E+01 -0.12593940891E+02  0.13618589194E+02  0.72461541652E+02  0.69999962688E+02 0.  0.
        -12    1    1    2    0    0  0.25703936399E+01  0.12593940891E+02 -0.13618589194E+02  0.18726458348E+02  0.00000000000E+00 0.  1.
         11    1    3    3    0    0 -0.17477621149E+02  0.75012935032E+01  0.97929687581E+01  0.21392495942E+02  0.51100000000E-03 0. -1.
        -11    1    3    3    0    0 -0.32584960432E+00  0.11995502373E+02 -0.70514422873E+01  0.13918372525E+02  0.51100000000E-03 0.  1.
        -12    1    3    3    0    0  0.15233077114E+02 -0.32090736767E+02  0.10877062723E+02  0.37150673185E+02  0.00000000000E+00 0.  1.
</event>
<event>
 7    1  0.1789107E-013  0.7246156E+02  0.7816164E-02  0.1226708E+00
        -11   -1    0    0    0    0  0.00000000000E+00  0.00000000000E+00  0.45593999997E+02  0.45594000000E+02  0.51100000000E-03 0.  1.
         11   -1    0    0    0    0 -0.00000000000E+00 -0.00000000000E+00 -0.45593999997E+02  0.45594000000E+02  0.51100000000E-03 0. -1.
    9900012    2    1    2    0    0 -0.11203536944E+02 -0.76414790798E+01 -0.12913874569E+02  0.72461558828E+02  0.69999985062E+02 0.  0.
        -12    1    1    2    0    0  0.11203536944E+02  0.76414790798E+01  0.12913874569E+02  0.18726441172E+02  0.00000000000E+00 0.  1.
         11    1    3    3    0    0 -0.27889076604E+02 -0.12243071469E+02 -0.16549321234E+02  0.34663719166E+02  0.51100000000E-03 0. -1.
        -11    1    3    3    0    0 -0.76447180974E+01 -0.27378742911E+01  0.86829204241E+01  0.11888262185E+02  0.51100000000E-03 0.  1.
         12    1    3    3    0    0  0.24330257757E+02  0.73394666805E+01 -0.50474737595E+01  0.25909577477E+02  0.00000000000E+00 0. -1.
</event>
<event>
 7    1  0.1789107E-013  0.7246157E+02  0.7816164E-02  0.1226708E+00
        -11   -1    0    0    0    0  0.00000000000E+00  0.00000000000E+00  0.45593999997E+02  0.45594000000E+02  0.51100000000E-03 0.  1.
         11   -1    0    0    0    0 -0.00000000000E+00 -0.00000000000E+00 -0.45593999997E+02  0.45594000000E+02  0.51100000000E-03 0. -1.
    9900012    2    1    2    0    0  0.48701268063E+01 -0.69637410374E+01 -0.16687337052E+02  0.72461573693E+02  0.70000004428E+02 0.  0.
        -12    1    1    2    0    0 -0.48701268063E+01  0.69637410374E+01  0.16687337052E+02  0.18726426307E+02  0.00000000000E+00 0.  1.
         11    1    3    3    0    0 -0.23469551284E+01 -0.61603168550E+01 -0.25215938722E+02  0.26063408603E+02  0.51100000000E-03 0. -1.
        -11    1    3    3    0    0 -0.16060480461E+02 -0.62104142172E+01 -0.62289392321E+01  0.18311416155E+02  0.51100000000E-03 0.  1.
        -12    1    3    3    0    0  0.23277562395E+02  0.54069900348E+01  0.14757540902E+02  0.28086748936E+02  0.00000000000E+00 0.  1.
</event>
<event>
 7    1  0.1789107E-013  0.7246154E+02  0.7816164E-02  0.1226708E+00
        -11   -1    0    0    0    0  0.00000000000E+00  0.00000000000E+00  0.45593999997E+02  0.45594000000E+02  0.51100000000E-03 0. -1.
         11   -1    0    0    0    0 -0.00000000000E+00 -0.00000000000E+00 -0.45593999997E+02  0.45594000000E+02  0.51100000000E-03 0.  1.
    9900012    2    1    2    0    0 -0.59100832358E+01  0.13672758549E+02 -0.11349315737E+02  0.72461538031E+02  0.69999957971E+02 0.  0.
        -12    1    1    2    0    0  0.59100832358E+01 -0.13672758549E+02  0.11349315737E+02  0.18726461969E+02  0.00000000000E+00 0.  1.
         11    1    3    3    0    0 -0.21344552027E+02  0.18792780360E+02 -0.11917981068E+02  0.30834992588E+02  0.51100000000E-03 0. -1.
        -11    1    3    3    0    0 -0.71584508697E+01  0.11491748590E+02  0.10513480405E+01  0.13579728917E+02  0.51100000000E-03 0.  1.
        -12    1    3    3    0    0  0.22592919661E+02 -0.16611770401E+02 -0.48268270951E+00  0.28046816526E+02  0.00000000000E+00 0.  1.
</event>
<event>
 7    1  0.1789107E-013  0.7246162E+02  0.7816164E-02  0.1226708E+00
        -11   -1    0    0    0    0  0.00000000000E+00  0.00000000000E+00  0.45593999997E+02  0.45594000000E+02  0.51100000000E-03 0.  1.
         11   -1    0    0    0    0 -0.00000000000E+00 -0.00000000000E+00 -0.45593999997E+02  0.45594000000E+02  0.51100000000E-03 0. -1.
    9900012    2    1    2    0    0  0.11127484332E+01 -0.57204079602E+01 -0.17796520287E+02  0.72461617257E+02  0.70000061178E+02 0.  0.
        -12    1    1    2    0    0 -0.11127484332E+01  0.57204079602E+01  0.17796520287E+02  0.18726382743E+02  0.00000000000E+00 0.  1.
         11    1    3    3    0    0  0.11956140748E+00  0.26367001307E+02 -0.12294288932E+02  0.29092655319E+02  0.51100000000E-03 0. -1.
        -11    1    3    3    0    0  0.64293017371E+01 -0.10040550516E+02 -0.14650029640E+02  0.18888407667E+02  0.51100000000E-03 0.  1.
        -12    1    3    3    0    0 -0.54361147114E+01 -0.22046858752E+02  0.91477982850E+01  0.24480554271E+02  0.00000000000E+00 0.  1.
</event>
<event>
 7    1  0.1789107E-013  0.7246159E+02  0.7816164E-02  0.1226708E+00
        -11   -1    0    0    0    0  0.00000000000E+00  0.00000000000E+00  0.45593999997E+02  0.45594000000E+02  0.51100000000E-03 0.  1.
         11   -1    0    0    0    0 -0.00000000000E+00 -0.00000000000E+00 -0.45593999997E+02  0.45594000000E+02  0.51100000000E-03 0. -1.
    9900012    2    1    2    0    0  0.39465495391E+01 -0.17853864643E+01 -0.18218552883E+02  0.72461587444E+02  0.70000022340E+02 0.  0.
        -12    1    1    2    0    0 -0.39465495391E+01  0.17853864643E+01  0.18218552883E+02  0.18726412556E+02  0.00000000000E+00 0.  1.
         11    1    3    3    0    0  0.21794534472E+02 -0.26556207912E+01 -0.70874687393E+01  0.23071330001E+02  0.51100000000E-03 0. -1.
        -11    1    3    3    0    0  0.88077913821E+00  0.15907389752E+02 -0.18358991411E+02  0.24307887331E+02  0.51100000000E-03 0.  1.
         12    1    3    3    0    0 -0.18728764071E+02 -0.15037155425E+02  0.72279072681E+01  0.25082370111E+02  0.00000000000E+00 0. -1.
</event>
<event>
 7    1  0.1789107E-013  0.7246161E+02  0.7816164E-02  0.1226708E+00
        -11   -1    0    0    0    0  0.00000000000E+00  0.00000000000E+00  0.45593999997E+02  0.45594000000E+02  0.51100000000E-03 0.  1.
         11   -1    0    0    0    0 -0.00000000000E+00 -0.00000000000E+00 -0.45593999997E+02  0.45594000000E+02  0.51100000000E-03 0. -1.
    9900012    2    1    2    0    0 -0.14270198116E+02  0.12083030606E+02 -0.10194715186E+01  0.72461614736E+02  0.70000057893E+02 0.  0.
        -12    1    1    2    0    0  0.14270198116E+02 -0.12083030606E+02  0.10194715186E+01  0.18726385264E+02  0.00000000000E+00 0.  1.
         11    1    3    3    0    0  0.10758427647E+02 -0.68224309752E+01 -0.66700881285E+00  0.12756732766E+02  0.51100000000E-03 0. -1.
        -11    1    3    3    0    0 -0.84270281649E+01  0.81325296299E+01  0.24961865881E+02  0.27572587663E+02  0.51100000000E-03 0.  1.
         12    1    3    3    0    0 -0.16601597598E+02  0.10772931951E+02 -0.25314328587E+02  0.32132294307E+02  0.00000000000E+00 0. -1.
</event>
<event>
 7    1  0.1789107E-013  0.7246166E+02  0.7816164E-02  0.1226708E+00
        -11   -1    0    0    0    0  0.00000000000E+00  0.00000000000E+00  0.45593999997E+02  0.45594000000E+02  0.51100000000E-03 0.  1.
         11   -1    0    0    0    0 -0.00000000000E+00 -0.00000000000E+00 -0.45593999997E+02  0.45594000000E+02  0.51100000000E-03 0. -1.
    9900012    2    1    2    0    0  0.18100945864E+02 -0.94266577630E+00 -0.47056395086E+01  0.72461657508E+02  0.70000113612E+02 0.  0.
        -12    1    1    2    0    0 -0.18100945864E+02  0.94266577630E+00  0.47056395086E+01  0.18726342492E+02  0.00000000000E+00 0.  1.
         11    1    3    3    0    0  0.55920734199E+00 -0.41349244363E+01 -0.89727657893E+01  0.98954959004E+01  0.51100000000E-03 0. -1.
        -11    1    3    3    0    0 -0.75424318349E+01 -0.13585700547E+02  0.22472755804E+02  0.27321864707E+02  0.51100000000E-03 0.  1.
         12    1    3    3    0    0  0.25084170357E+02  0.16777959207E+02 -0.18205629524E+02  0.35244296901E+02  0.00000000000E+00 0. -1.
</event>
<event>
 7    1  0.1789107E-013  0.7246163E+02  0.7816164E-02  0.1226708E+00
        -11   -1    0    0    0    0  0.00000000000E+00  0.00000000000E+00  0.45593999997E+02  0.45594000000E+02  0.51100000000E-03 0.  1.
         11   -1    0    0    0    0 -0.00000000000E+00 -0.00000000000E+00 -0.45593999997E+02  0.45594000000E+02  0.51100000000E-03 0. -1.
    9900012    2    1    2    0    0  0.17618710801E+02  0.49443397753E+01  0.39763848127E+01  0.72461625490E+02  0.70000071903E+02 0.  0.
        -12    1    1    2    0    0 -0.17618710801E+02 -0.49443397753E+01 -0.39763848127E+01  0.18726374510E+02  0.00000000000E+00 0.  1.
         11    1    3    3    0    0 -0.77781169351E+01  0.87890537002E+01  0.15924064336E+02  0.19781870317E+02  0.51100000000E-03 0. -1.
        -11    1    3    3    0    0  0.86150642185E+00  0.17275808089E+02  0.20327444829E+01  0.17416308128E+02  0.51100000000E-03 0.  1.
        -12    1    3    3    0    0  0.24535321314E+02 -0.21120522013E+02 -0.13980424006E+02  0.35263447045E+02  0.00000000000E+00 0.  1.
</event>
<event>
 7    1  0.1789107E-013  0.7246155E+02  0.7816164E-02  0.1226708E+00
        -11   -1    0    0    0    0  0.00000000000E+00  0.00000000000E+00  0.45593999997E+02  0.45594000000E+02  0.51100000000E-03 0.  1.
         11   -1    0    0    0    0 -0.00000000000E+00 -0.00000000000E+00 -0.45593999997E+02  0.45594000000E+02  0.51100000000E-03 0. -1.
    9900012    2    1    2    0    0 -0.17327748982E+02 -0.41863215115E+01 -0.57361865988E+01  0.72461547872E+02  0.69999970791E+02 0.  0.
        -12    1    1    2    0    0  0.17327748982E+02  0.41863215115E+01  0.57361865988E+01  0.18726452128E+02  0.00000000000E+00 0.  1.
         11    1    3    3    0    0 -0.27794954463E+01 -0.37274753942E+01  0.29595542771E+01  0.55116811891E+01  0.51100000000E-03 0. -1.
        -11    1    3    3    0    0  0.24327528518E+02 -0.61893407225E+00  0.65335813147E+01  0.25197210327E+02  0.51100000000E-03 0.  1.
         12    1    3    3    0    0 -0.38875782054E+02  0.16008795491E+00 -0.15229322191E+02  0.41752656357E+02  0.00000000000E+00 0. -1.
</event>
<event>
 7    1  0.1789107E-013  0.7246157E+02  0.7816164E-02  0.1226708E+00
        -11   -1    0    0    0    0  0.00000000000E+00  0.00000000000E+00  0.45593999997E+02  0.45594000000E+02  0.51100000000E-03 0.  1.
         11   -1    0    0    0    0 -0.00000000000E+00 -0.00000000000E+00 -0.45593999997E+02  0.45594000000E+02  0.51100000000E-03 0. -1.
    9900012    2    1    2    0    0 -0.10089563601E+02  0.16025978576E+01 -0.15694317486E+02  0.72461569082E+02  0.69999998421E+02 0.  0.
        -12    1    1    2    0    0  0.10089563601E+02 -0.16025978576E+01  0.15694317486E+02  0.18726430918E+02  0.00000000000E+00 0.  1.
         11    1    3    3    0    0  0.15789636654E+01  0.20935016388E+02 -0.13099627755E+02  0.24746076154E+02  0.51100000000E-03 0. -1.
        -11    1    3    3    0    0 -0.17051953057E+02 -0.62744072859E+00 -0.16545521590E+02  0.23767984136E+02  0.51100000000E-03 0.  1.
        -12    1    3    3    0    0  0.53834257903E+01 -0.18704977802E+02  0.13950831859E+02  0.23947508793E+02  0.00000000000E+00 0.  1.
</event>
<event>
 7    1  0.1789107E-013  0.7246151E+02  0.7816164E-02  0.1226708E+00
        -11   -1    0    0    0    0  0.00000000000E+00  0.00000000000E+00  0.45593999997E+02  0.45594000000E+02  0.51100000000E-03 0. -1.
         11   -1    0    0    0    0 -0.00000000000E+00 -0.00000000000E+00 -0.45593999997E+02  0.45594000000E+02  0.51100000000E-03 0.  1.
    9900012    2    1    2    0    0  0.10775321756E+02  0.45423220958E+01 -0.14626728542E+02  0.72461509757E+02  0.69999921139E+02 0.  0.
        -12    1    1    2    0    0 -0.10775321756E+02 -0.45423220958E+01  0.14626728542E+02  0.18726490243E+02  0.00000000000E+00 0.  1.
         11    1    3    3    0    0 -0.12690195098E+02 -0.10340132732E+02  0.28427596513E+01  0.16614471982E+02  0.51100000000E-03 0. -1.
        -11    1    3    3    0    0  0.12401988756E+02 -0.11512122835E+02 -0.21045880467E+02  0.27004951068E+02  0.51100000000E-03 0.  1.
         12    1    3    3    0    0  0.11063528098E+02  0.26394577663E+02  0.35763922739E+01  0.28842086708E+02  0.00000000000E+00 0. -1.
</event>
<event>
 7    1  0.1789107E-013  0.7246103E+02  0.7816164E-02  0.1226709E+00
        -11   -1    0    0    0    0  0.00000000000E+00  0.00000000000E+00  0.45593999997E+02  0.45594000000E+02  0.51100000000E-03 0.  1.
         11   -1    0    0    0    0 -0.00000000000E+00 -0.00000000000E+00 -0.45593999997E+02  0.45594000000E+02  0.51100000000E-03 0. -1.
    9900012    2    1    2    0    0 -0.38090062651E+00  0.11846166694E+02 -0.14499061531E+02  0.72461026514E+02  0.69999291622E+02 0.  0.
        -12    1    1    2    0    0  0.38090062651E+00 -0.11846166694E+02  0.14499061531E+02  0.18726973486E+02  0.00000000000E+00 0.  1.
         11    1    3    3    0    0 -0.13326794794E+02  0.30045429741E+01 -0.16722191798E+02  0.21593110863E+02  0.51100000000E-03 0. -1.
        -11    1    3    3    0    0  0.11585349854E+02 -0.14373286147E+02  0.15486603612E+02  0.24096609255E+02  0.51100000000E-03 0.  1.
         12    1    3    3    0    0  0.13605443139E+01  0.23214909867E+02 -0.13263473345E+02  0.26771306396E+02  0.00000000000E+00 0. -1.
</event>
<event>
 7    1  0.1789107E-013  0.7246158E+02  0.7816164E-02  0.1226708E+00
        -11   -1    0    0    0    0  0.00000000000E+00  0.00000000000E+00  0.45593999997E+02  0.45594000000E+02  0.51100000000E-03 0.  1.
         11   -1    0    0    0    0 -0.00000000000E+00 -0.00000000000E+00 -0.45593999997E+02  0.45594000000E+02  0.51100000000E-03 0. -1.
    9900012    2    1    2    0    0 -0.49725528407E+00  0.18569259872E+02 -0.23694520588E+01  0.72461575406E+02  0.70000006659E+02 0.  0.
        -12    1    1    2    0    0  0.49725528407E+00 -0.18569259872E+02  0.23694520588E+01  0.18726424594E+02  0.00000000000E+00 0.  1.
         11    1    3    3    0    0  0.16668334602E+02 -0.20336712721E+02 -0.11307004944E+00  0.26295019449E+02  0.51100000000E-03 0. -1.
        -11    1    3    3    0    0 -0.12524065553E+01 -0.13992182052E+01 -0.21218497523E+01  0.28334749687E+01  0.51100000000E-03 0.  1.
        -12    1    3    3    0    0 -0.15913183331E+02  0.40305190799E+02 -0.13453225702E+00  0.43333080989E+02  0.00000000000E+00 0.  1.
</event>
<event>
 7    1  0.1789107E-013  0.7246175E+02  0.7816164E-02  0.1226708E+00
        -11   -1    0    0    0    0  0.00000000000E+00  0.00000000000E+00  0.45593999997E+02  0.45594000000E+02  0.51100000000E-03 0.  1.
         11   -1    0    0    0    0 -0.00000000000E+00 -0.00000000000E+00 -0.45593999997E+02  0.45594000000E+02  0.51100000000E-03 0. -1.
    9900012    2    1    2    0    0 -0.14293159627E+02 -0.23912962426E+01 -0.11860006854E+02  0.72461749109E+02  0.70000232939E+02 0.  0.
        -12    1    1    2    0    0  0.14293159627E+02  0.23912962426E+01  0.11860006854E+02  0.18726250891E+02  0.00000000000E+00 0.  1.
         11    1    3    3    0    0 -0.19363848490E+02 -0.45959219210E+01  0.98154926269E+01  0.22190651689E+02  0.51100000000E-03 0. -1.
        -11    1    3    3    0    0  0.16527919927E+02  0.23837365600E+01  0.79588232128E+01  0.18498573034E+02  0.51100000000E-03 0.  1.
         12    1    3    3    0    0 -0.11457231065E+02 -0.17911088163E+00 -0.29634322693E+02  0.31772524386E+02  0.00000000000E+00 0. -1.
</event>
<event>
 7    1  0.1789107E-013  0.7246157E+02  0.7816164E-02  0.1226708E+00
        -11   -1    0    0    0    0  0.00000000000E+00  0.00000000000E+00  0.45593999997E+02  0.45594000000E+02  0.51100000000E-03 0.  1.
         11   -1    0    0    0    0 -0.00000000000E+00 -0.00000000000E+00 -0.45593999997E+02  0.45594000000E+02  0.51100000000E-03 0. -1.
    9900012    2    1    2    0    0 -0.29644652298E+01 -0.90748434917E+01 -0.16110190648E+02  0.72461572652E+02  0.70000003072E+02 0.  0.
        -12    1    1    2    0    0  0.29644652298E+01  0.90748434917E+01  0.16110190648E+02  0.18726427348E+02  0.00000000000E+00 0.  1.
         11    1    3    3    0    0 -0.58864884015E+01  0.45253895934E+01 -0.28127198315E+01  0.79398545191E+01  0.51100000000E-03 0. -1.
        -11    1    3    3    0    0  0.93856370142E+01  0.21315646567E+02 -0.16978744953E+02  0.28822296078E+02  0.51100000000E-03 0.  1.
        -12    1    3    3    0    0 -0.64636138425E+01 -0.34915879653E+02  0.36812741370E+01  0.35699422055E+02  0.00000000000E+00 0.  1.
</event>
<event>
 7    1  0.1789107E-013  0.7246159E+02  0.7816164E-02  0.1226708E+00
        -11   -1    0    0    0    0  0.00000000000E+00  0.00000000000E+00  0.45593999997E+02  0.45594000000E+02  0.51100000000E-03 0.  1.
         11   -1    0    0    0    0 -0.00000000000E+00 -0.00000000000E+00 -0.45593999997E+02  0.45594000000E+02  0.51100000000E-03 0. -1.
    9900012    2    1    2    0    0 -0.96451378980E+01  0.16025722437E+02 -0.90885726563E+00  0.72461588539E+02  0.70000023767E+02 0.  0.
        -12    1    1    2    0    0  0.96451378980E+01 -0.16025722437E+02  0.90885726563E+00  0.18726411461E+02  0.00000000000E+00 0.  1.
         11    1    3    3    0    0  0.72937319700E+01  0.93434674695E+01 -0.49476211557E+01  0.12844370976E+02  0.51100000000E-03 0.  1.
        -11    1    3    3    0    0 -0.26429597077E+02  0.18703810034E+02  0.19546446648E+02  0.37820889576E+02  0.51100000000E-03 0. -1.
         12    1    3    3    0    0  0.94907272091E+01 -0.12021555067E+02 -0.15507682758E+02  0.21796327987E+02  0.00000000000E+00 0. -1.
</event>
<event>
 7    1  0.1789107E-013  0.7246155E+02  0.7816164E-02  0.1226708E+00
        -11   -1    0    0    0    0  0.00000000000E+00  0.00000000000E+00  0.45593999997E+02  0.45594000000E+02  0.51100000000E-03 0.  1.
         11   -1    0    0    0    0 -0.00000000000E+00 -0.00000000000E+00 -0.45593999997E+02  0.45594000000E+02  0.51100000000E-03 0. -1.
    9900012    2    1    2    0    0 -0.79715836195E+01 -0.99257019970E+01 -0.13733687016E+02  0.72461551736E+02  0.69999975824E+02 0.  0.
        -12    1    1    2    0    0  0.79715836195E+01  0.99257019970E+01  0.13733687016E+02  0.18726448264E+02  0.00000000000E+00 0.  1.
         11    1    3    3    0    0 -0.15361175233E+02 -0.22396500864E+02  0.19492570014E+01  0.27228084005E+02  0.51100000000E-03 0. -1.
        -11    1    3    3    0    0 -0.70704930739E+01  0.13016423981E+01  0.10851337700E+02  0.13016822784E+02  0.51100000000E-03 0.  1.
         12    1    3    3    0    0  0.14460084687E+02  0.11169156469E+02 -0.26534281718E+02  0.32216644947E+02  0.00000000000E+00 0. -1.
</event>
<event>
 7    1  0.1789107E-013  0.7246149E+02  0.7816164E-02  0.1226708E+00
        -11   -1    0    0    0    0  0.00000000000E+00  0.00000000000E+00  0.45593999997E+02  0.45594000000E+02  0.51100000000E-03 0.  1.
         11   -1    0    0    0    0 -0.00000000000E+00 -0.00000000000E+00 -0.45593999997E+02  0.45594000000E+02  0.51100000000E-03 0. -1.
    9900012    2    1    2    0    0  0.65048579024E+01  0.40817962173E+01 -0.17079454738E+02  0.72461494430E+02  0.69999901173E+02 0.  0.
        -12    1    1    2    0    0 -0.65048579024E+01 -0.40817962173E+01  0.17079454738E+02  0.18726505570E+02  0.00000000000E+00 0.  1.
         11    1    3    3    0    0  0.17457878921E+02  0.60450143645E+01 -0.11728540826E+02  0.21883290549E+02  0.51100000000E-03 0. -1.
        -11    1    3    3    0    0  0.36665266139E+01 -0.22317610886E+02 -0.10594006252E+02  0.24975030367E+02  0.51100000000E-03 0.  1.
        -12    1    3    3    0    0 -0.14619547632E+02  0.20354392739E+02  0.52430923396E+01  0.25603173515E+02  0.00000000000E+00 0.  1.
</event>
<event>
 7    1  0.1789107E-013  0.7246157E+02  0.7816164E-02  0.1226708E+00
        -11   -1    0    0    0    0  0.00000000000E+00  0.00000000000E+00  0.45593999997E+02  0.45594000000E+02  0.51100000000E-03 0. -1.
         11   -1    0    0    0    0 -0.00000000000E+00 -0.00000000000E+00 -0.45593999997E+02  0.45594000000E+02  0.51100000000E-03 0.  1.
    9900012    2    1    2    0    0 -0.16091211443E+00  0.18607142809E+02  0.21041241515E+01  0.72461574963E+02  0.70000006082E+02 0.  0.
        -12    1    1    2    0    0  0.16091211443E+00 -0.18607142809E+02 -0.21041241515E+01  0.18726425037E+02  0.00000000000E+00 0.  1.
         11    1    3    3    0    0 -0.78945462725E+01 -0.13772624783E+02  0.61305249146E+01  0.17017414323E+02  0.51100000000E-03 0. -1.
        -11    1    3    3    0    0 -0.67452135565E+01  0.18504021859E+01  0.15083120614E+02  0.16625956270E+02  0.51100000000E-03 0.  1.
        -12    1    3    3    0    0  0.14478847715E+02  0.30529365406E+02 -0.19109521377E+02  0.38818204370E+02  0.00000000000E+00 0.  1.
</event>
<event>
 7    1  0.1789107E-013  0.7246156E+02  0.7816164E-02  0.1226708E+00
        -11   -1    0    0    0    0  0.00000000000E+00  0.00000000000E+00  0.45593999997E+02  0.45594000000E+02  0.51100000000E-03 0.  1.
         11   -1    0    0    0    0 -0.00000000000E+00 -0.00000000000E+00 -0.45593999997E+02  0.45594000000E+02  0.51100000000E-03 0. -1.
    9900012    2    1    2    0    0 -0.17008479433E+02  0.15731188823E+01 -0.76757053317E+01  0.72461560723E+02  0.69999987532E+02 0.  0.
        -12    1    1    2    0    0  0.17008479433E+02 -0.15731188823E+01  0.76757053317E+01  0.18726439277E+02  0.00000000000E+00 0.  1.
         11    1    3    3    0    0 -0.14934450929E+01 -0.68522226120E+01 -0.26861982958E+02  0.27762374928E+02  0.51100000000E-03 0. -1.
        -11    1    3    3    0    0 -0.39410815274E+01  0.19134146211E+02 -0.41820210749E+00  0.19540280656E+02  0.51100000000E-03 0.  1.
        -12    1    3    3    0    0 -0.11573952813E+02 -0.10708804717E+02  0.19604479733E+02  0.25158905139E+02  0.00000000000E+00 0.  1.
</event>
<event>
 7    1  0.1789107E-013  0.7246157E+02  0.7816164E-02  0.1226708E+00
        -11   -1    0    0    0    0  0.00000000000E+00  0.00000000000E+00  0.45593999997E+02  0.45594000000E+02  0.51100000000E-03 0.  1.
         11   -1    0    0    0    0 -0.00000000000E+00 -0.00000000000E+00 -0.45593999997E+02  0.45594000000E+02  0.51100000000E-03 0. -1.
    9900012    2    1    2    0    0  0.13027656150E+02  0.34400967911E+01 -0.13004805433E+02  0.72461573351E+02  0.70000003982E+02 0.  0.
        -12    1    1    2    0    0 -0.13027656150E+02 -0.34400967911E+01  0.13004805433E+02  0.18726426649E+02  0.00000000000E+00 0.  1.
         11    1    3    3    0    0  0.25146002841E+02  0.94085945629E+01 -0.52356795108E+01  0.27354258366E+02  0.51100000000E-03 0. -1.
        -11    1    3    3    0    0 -0.15992580397E+01  0.70916809253E+01 -0.21964456291E+02  0.23136268175E+02  0.51100000000E-03 0.  1.
        -12    1    3    3    0    0 -0.10519088651E+02 -0.13060178697E+02  0.14195330369E+02  0.21971046810E+02  0.00000000000E+00 0.  1.
</event>
<event>
 7    1  0.2083070E-013  0.7246151E+02  0.7816164E-02  0.1226708E+00
        -11   -1    0    0    0    0  0.00000000000E+00  0.00000000000E+00  0.45593999997E+02  0.45594000000E+02  0.51100000000E-03 0.  1.
         11   -1    0    0    0    0 -0.00000000000E+00 -0.00000000000E+00 -0.45593999997E+02  0.45594000000E+02  0.51100000000E-03 0. -1.
    9900012    2    1    2    0    0 -0.18514048261E+01  0.13706712602E+02  0.12624573450E+02  0.72461507403E+02  0.69999918073E+02 0.  0.
        -12    1    1    2    0    0  0.18514048261E+01 -0.13706712602E+02 -0.12624573450E+02  0.18726492597E+02  0.00000000000E+00 0.  1.
         11    1    3    3    0    0  0.17780222896E+02  0.63056628859E+01  0.19358004133E+02  0.27030168977E+02  0.51100000000E-03 0. -1.
        -11    1    3    3    0    0  0.12167576133E+02  0.86564185602E+00  0.35145039550E+00  0.12203391431E+02  0.51100000000E-03 0.  1.
        -12    1    3    3    0    0 -0.31799203854E+02  0.65354078602E+01 -0.70848810788E+01  0.33227946996E+02  0.00000000000E+00 0.  1.
</event>
<event>
 7    1  0.1789107E-013  0.7246155E+02  0.7816164E-02  0.1226708E+00
        -11   -1    0    0    0    0  0.00000000000E+00  0.00000000000E+00  0.45593999997E+02  0.45594000000E+02  0.51100000000E-03 0. -1.
         11   -1    0    0    0    0 -0.00000000000E+00 -0.00000000000E+00 -0.45593999997E+02  0.45594000000E+02  0.51100000000E-03 0.  1.
    9900012    2    1    2    0    0 -0.29791946353E+01  0.18400062542E+02  0.18005665499E+01  0.72461549665E+02  0.69999973127E+02 0.  0.
        -12    1    1    2    0    0  0.29791946353E+01 -0.18400062542E+02 -0.18005665499E+01  0.18726450335E+02  0.00000000000E+00 0.  1.
         11    1    3    3    0    0  0.12455150996E+02  0.96082309366E+01 -0.29771280222E+01  0.16009752639E+02  0.51100000000E-03 0. -1.
        -11    1    3    3    0    0  0.45760563118E+01 -0.19602409459E+02 -0.42233041153E+01  0.20567718538E+02  0.51100000000E-03 0.  1.
        -12    1    3    3    0    0 -0.20010401943E+02  0.28394241064E+02  0.90009986874E+01  0.35884078488E+02  0.00000000000E+00 0.  1.
</event>
<event>
 7    1  0.1789107E-013  0.7246162E+02  0.7816164E-02  0.1226708E+00
        -11   -1    0    0    0    0  0.00000000000E+00  0.00000000000E+00  0.45593999997E+02  0.45594000000E+02  0.51100000000E-03 0.  1.
         11   -1    0    0    0    0 -0.00000000000E+00 -0.00000000000E+00 -0.45593999997E+02  0.45594000000E+02  0.51100000000E-03 0. -1.
    9900012    2    1    2    0    0 -0.47351959451E+00  0.91554005434E+01 -0.16328859798E+02  0.72461621754E+02  0.70000067036E+02 0.  0.
        -12    1    1    2    0    0  0.47351959451E+00 -0.91554005434E+01  0.16328859798E+02  0.18726378246E+02  0.00000000000E+00 0.  1.
         11    1    3    3    0    0  0.22861614881E+02  0.20284901802E+02 -0.10926636333E+02  0.32458004527E+02  0.51100000000E-03 0. -1.
        -11    1    3    3    0    0  0.11756389060E+01  0.52482229762E+01  0.63030348043E+01  0.82857841663E+01  0.51100000000E-03 0.  1.
        -12    1    3    3    0    0 -0.24510773382E+02 -0.16377724234E+02 -0.11705258270E+02  0.31717833060E+02  0.00000000000E+00 0.  1.
</event>
<event>
 7    1  0.1789107E-013  0.7246157E+02  0.7816164E-02  0.1226708E+00
        -11   -1    0    0    0    0  0.00000000000E+00  0.00000000000E+00  0.45593999997E+02  0.45594000000E+02  0.51100000000E-03 0. -1.
         11   -1    0    0    0    0 -0.00000000000E+00 -0.00000000000E+00 -0.45593999997E+02  0.45594000000E+02  0.51100000000E-03 0.  1.
    9900012    2    1    2    0    0 -0.17462371344E+02  0.62327010428E+01  0.26264434779E+01  0.72461569998E+02  0.69999999615E+02 0.  0.
        -12    1    1    2    0    0  0.17462371344E+02 -0.62327010428E+01 -0.26264434779E+01  0.18726430002E+02  0.00000000000E+00 0.  1.
         11    1    3    3    0    0  0.11125199118E+02  0.21124626081E+02  0.14206642594E+02  0.27782162920E+02  0.51100000000E-03 0. -1.
        -11    1    3    3    0    0 -0.27741596824E+01  0.16480668113E+01  0.77784292413E+01  0.84211666580E+01  0.51100000000E-03 0.  1.
        -12    1    3    3    0    0 -0.25813410780E+02 -0.16539991849E+02 -0.19358628358E+02  0.36258240420E+02  0.00000000000E+00 0.  1.
</event>
<event>
 7    1  0.1789107E-013  0.7246219E+02  0.7816164E-02  0.1226706E+00
        -11   -1    0    0    0    0  0.00000000000E+00  0.00000000000E+00  0.45593999997E+02  0.45594000000E+02  0.51100000000E-03 0. -1.
         11   -1    0    0    0    0 -0.00000000000E+00 -0.00000000000E+00 -0.45593999997E+02  0.45594000000E+02  0.51100000000E-03 0.  1.
    9900012    2    1    2    0    0 -0.99279683786E+00 -0.57629842071E+01  0.17789270602E+02  0.72462194781E+02  0.70000813505E+02 0.  0.
        -12    1    1    2    0    0  0.99279683786E+00  0.57629842071E+01 -0.17789270602E+02  0.18725805219E+02  0.00000000000E+00 0.  1.
         11    1    3    3    0    0  0.40748441400E+00 -0.11354934539E+02  0.15185328839E+02  0.18965621375E+02  0.51100000000E-03 0. -1.
        -11    1    3    3    0    0  0.20234791177E+02  0.10100937839E+02  0.15954509635E+02  0.27677104205E+02  0.51100000000E-03 0.  1.
         12    1    3    3    0    0 -0.21635072429E+02 -0.45089875068E+01 -0.13350567871E+02  0.25819469201E+02  0.00000000000E+00 0. -1.
</event>
<event>
 7    1  0.1789107E-013  0.7246137E+02  0.7816164E-02  0.1226709E+00
        -11   -1    0    0    0    0  0.00000000000E+00  0.00000000000E+00  0.45593999997E+02  0.45594000000E+02  0.51100000000E-03 0.  1.
         11   -1    0    0    0    0 -0.00000000000E+00 -0.00000000000E+00 -0.45593999997E+02  0.45594000000E+02  0.51100000000E-03 0. -1.
    9900012    2    1    2    0    0 -0.86580980104E+01 -0.15516050857E+02 -0.59140618528E+01  0.72461371287E+02  0.69999740756E+02 0.  0.
        -12    1    1    2    0    0  0.86580980104E+01  0.15516050857E+02  0.59140618528E+01  0.18726628713E+02  0.00000000000E+00 0.  1.
         11    1    3    3    0    0 -0.31937663346E+01 -0.10687777023E+02  0.61098613204E+01  0.12718456144E+02  0.51100000000E-03 0. -1.
        -11    1    3    3    0    0 -0.52337868107E+01 -0.21797666905E+02  0.15607956196E+02  0.27315546924E+02  0.51100000000E-03 0.  1.
         12    1    3    3    0    0 -0.23054486502E+00  0.16969393070E+02 -0.27631879369E+02  0.32427368219E+02  0.00000000000E+00 0. -1.
</event>
<event>
 7    1  0.1789107E-013  0.7246152E+02  0.7816164E-02  0.1226708E+00
        -11   -1    0    0    0    0  0.00000000000E+00  0.00000000000E+00  0.45593999997E+02  0.45594000000E+02  0.51100000000E-03 0. -1.
         11   -1    0    0    0    0 -0.00000000000E+00 -0.00000000000E+00 -0.45593999997E+02  0.45594000000E+02  0.51100000000E-03 0.  1.
    9900012    2    1    2    0    0 -0.16770383373E+02 -0.54241535124E+01 -0.63256642475E+01  0.72461515333E+02  0.69999928403E+02 0.  0.
        -12    1    1    2    0    0  0.16770383373E+02  0.54241535124E+01  0.63256642475E+01  0.18726484667E+02  0.00000000000E+00 0.  1.
         11    1    3    3    0    0  0.10977435938E+02  0.16416593398E+02  0.51737400692E+01  0.20415097970E+02  0.51100000000E-03 0. -1.
        -11    1    3    3    0    0  0.41418878447E+01 -0.99781388974E+01 -0.14282307884E+02  0.17908177169E+02  0.51100000000E-03 0.  1.
         12    1    3    3    0    0 -0.31889707155E+02 -0.11862608013E+02  0.27829035674E+01  0.34138240194E+02  0.00000000000E+00 0. -1.
</event>
<event>
 7    1  0.1789107E-013  0.7246149E+02  0.7816164E-02  0.1226708E+00
        -11   -1    0    0    0    0  0.00000000000E+00  0.00000000000E+00  0.45593999997E+02  0.45594000000E+02  0.51100000000E-03 0.  1.
         11   -1    0    0    0    0 -0.00000000000E+00 -0.00000000000E+00 -0.45593999997E+02  0.45594000000E+02  0.51100000000E-03 0. -1.
    9900012    2    1    2    0    0  0.29075694323E+01  0.18493694033E+02  0.45983565512E+00  0.72461491307E+02  0.69999897105E+02 0.  0.
        -12    1    1    2    0    0 -0.29075694323E+01 -0.18493694033E+02 -0.45983565512E+00  0.18726508693E+02  0.00000000000E+00 0.  1.
         11    1    3    3    0    0  0.10546370054E+02 -0.81857827587E+01 -0.20220835323E+01  0.13502658359E+02  0.51100000000E-03 0. -1.
        -11    1    3    3    0    0 -0.30024042337E+02  0.13471401621E+02  0.18508201930E+01  0.32959783306E+02  0.51100000000E-03 0.  1.
         12    1    3    3    0    0  0.22385241716E+02  0.13208075170E+02  0.63109899443E+00  0.25999049643E+02  0.00000000000E+00 0. -1.
</event>
<event>
 7    1  0.1789107E-013  0.7246155E+02  0.7816164E-02  0.1226708E+00
        -11   -1    0    0    0    0  0.00000000000E+00  0.00000000000E+00  0.45593999997E+02  0.45594000000E+02  0.51100000000E-03 0.  1.
         11   -1    0    0    0    0 -0.00000000000E+00 -0.00000000000E+00 -0.45593999997E+02  0.45594000000E+02  0.51100000000E-03 0. -1.
    9900012    2    1    2    0    0  0.14711241126E+02  0.74932164464E+01 -0.88380534645E+01  0.72461545525E+02  0.69999967733E+02 0.  0.
        -12    1    1    2    0    0 -0.14711241126E+02 -0.74932164464E+01  0.88380534645E+01  0.18726454475E+02  0.00000000000E+00 0.  1.
         11    1    3    3    0    0 -0.11523019555E+01  0.60467810269E+01 -0.21343939964E+02  0.22213850050E+02  0.51100000000E-03 0. -1.
        -11    1    3    3    0    0 -0.73309736807E+01  0.31119909529E+01  0.23290380648E+02  0.24614416381E+02  0.51100000000E-03 0.  1.
         12    1    3    3    0    0  0.23194516762E+02 -0.16655555334E+01 -0.10784494148E+02  0.25633279093E+02  0.00000000000E+00 0. -1.
</event>
<event>
 7    1  0.1789107E-013  0.7246159E+02  0.7816164E-02  0.1226708E+00
        -11   -1    0    0    0    0  0.00000000000E+00  0.00000000000E+00  0.45593999997E+02  0.45594000000E+02  0.51100000000E-03 0. -1.
         11   -1    0    0    0    0 -0.00000000000E+00 -0.00000000000E+00 -0.45593999997E+02  0.45594000000E+02  0.51100000000E-03 0.  1.
    9900012    2    1    2    0    0  0.11769295144E+01 -0.18483551751E+02  0.27661392453E+01  0.72461591515E+02  0.70000027644E+02 0.  0.
        -12    1    1    2    0    0 -0.11769295144E+01  0.18483551751E+02 -0.27661392453E+01  0.18726408485E+02  0.00000000000E+00 0.  1.
         11    1    3    3    0    0  0.34414610077E+01 -0.12196286621E+02 -0.92643363394E+01  0.15697802053E+02  0.51100000000E-03 0. -1.
        -11    1    3    3    0    0 -0.16571676535E+02 -0.20016578248E+02 -0.93374196239E+01  0.27612882382E+02  0.51100000000E-03 0.  1.
        -12    1    3    3    0    0  0.14307145042E+02  0.13729313118E+02  0.21367895209E+02  0.29150907080E+02  0.00000000000E+00 0.  1.
</event>
<event>
 7    1  0.1789531E-013  0.7246157E+02  0.7816164E-02  0.1226708E+00
        -11   -1    0    0    0    0  0.00000000000E+00  0.00000000000E+00  0.45593999997E+02  0.45594000000E+02  0.51100000000E-03 0. -1.
         11   -1    0    0    0    0 -0.00000000000E+00 -0.00000000000E+00 -0.45593999997E+02  0.45594000000E+02  0.51100000000E-03 0.  1.
    9900012    2    1    2    0    0  0.65970823010E+01  0.78967804881E+01  0.15646041744E+02  0.72461567899E+02  0.69999996880E+02 0.  0.
        -12    1    1    2    0    0 -0.65970823010E+01 -0.78967804881E+01 -0.15646041744E+02  0.18726432101E+02  0.00000000000E+00 0.  1.
         11    1    3    3    0    0 -0.54086642176E+00  0.17898524251E+02  0.25863257449E+02  0.31457237529E+02  0.51100000000E-03 0. -1.
        -11    1    3    3    0    0 -0.11017468030E+02 -0.75340603382E+01  0.76737089297E+01  0.15395859053E+02  0.51100000000E-03 0.  1.
        -12    1    3    3    0    0  0.18155416753E+02 -0.24676834245E+01 -0.17890924634E+02  0.25608471318E+02  0.00000000000E+00 0.  1.
</event>
<event>
 7    1  0.1789107E-013  0.7246155E+02  0.7816164E-02  0.1226708E+00
        -11   -1    0    0    0    0  0.00000000000E+00  0.00000000000E+00  0.45593999997E+02  0.45594000000E+02  0.51100000000E-03 0.  1.
         11   -1    0    0    0    0 -0.00000000000E+00 -0.00000000000E+00 -0.45593999997E+02  0.45594000000E+02  0.51100000000E-03 0. -1.
    9900012    2    1    2    0    0 -0.38554708383E+01 -0.16963463141E+02  0.69322682584E+01  0.72461545976E+02  0.69999968321E+02 0.  0.
        -12    1    1    2    0    0  0.38554708383E+01  0.16963463141E+02 -0.69322682584E+01  0.18726454024E+02  0.00000000000E+00 0.  1.
         11    1    3    3    0    0 -0.25999234491E+01  0.94334937003E+01 -0.82560055322E+01  0.12802813478E+02  0.51100000000E-03 0. -1.
        -11    1    3    3    0    0  0.24120985154E+01 -0.10517578937E+02 -0.18962936678E+02  0.21818126722E+02  0.51100000000E-03 0.  1.
        -12    1    3    3    0    0 -0.36676459046E+01 -0.15879377904E+02  0.34151210468E+02  0.37840605776E+02  0.00000000000E+00 0.  1.
</event>
<event>
 7    1  0.1789107E-013  0.7246151E+02  0.7816164E-02  0.1226708E+00
        -11   -1    0    0    0    0  0.00000000000E+00  0.00000000000E+00  0.45593999997E+02  0.45594000000E+02  0.51100000000E-03 0.  1.
         11   -1    0    0    0    0 -0.00000000000E+00 -0.00000000000E+00 -0.45593999997E+02  0.45594000000E+02  0.51100000000E-03 0. -1.
    9900012    2    1    2    0    0 -0.10555352833E+01 -0.52493852470E+00 -0.18689350426E+02  0.72461507148E+02  0.69999917740E+02 0.  0.
        -12    1    1    2    0    0  0.10555352833E+01  0.52493852470E+00  0.18689350426E+02  0.18726492852E+02  0.00000000000E+00 0.  1.
         11    1    3    3    0    0 -0.15070240248E+02  0.35828235314E+01  0.38043585787E+01  0.15950608454E+02  0.51100000000E-03 0. -1.
        -11    1    3    3    0    0 -0.18377915501E-01  0.21452964518E+02 -0.35671586176E+01  0.21747520439E+02  0.51100000000E-03 0.  1.
         12    1    3    3    0    0  0.14033082880E+02 -0.25560726574E+02 -0.18926550387E+02  0.34763378255E+02  0.00000000000E+00 0. -1.
</event>
<event>
 7    1  0.1789107E-013  0.7246156E+02  0.7816164E-02  0.1226708E+00
        -11   -1    0    0    0    0  0.00000000000E+00  0.00000000000E+00  0.45593999997E+02  0.45594000000E+02  0.51100000000E-03 0.  1.
         11   -1    0    0    0    0 -0.00000000000E+00 -0.00000000000E+00 -0.45593999997E+02  0.45594000000E+02  0.51100000000E-03 0. -1.
    9900012    2    1    2    0    0  0.10893186675E+01 -0.18656236836E+02  0.11991314369E+01  0.72461556017E+02  0.69999981401E+02 0.  0.
        -12    1    1    2    0    0 -0.10893186675E+01  0.18656236836E+02 -0.11991314369E+01  0.18726443983E+02  0.00000000000E+00 0.  1.
         11    1    3    3    0    0 -0.12809859837E+02 -0.14138125331E+02  0.12609163281E+01  0.19119858974E+02  0.51100000000E-03 0. -1.
        -11    1    3    3    0    0 -0.10443605930E+02 -0.16693634447E+02  0.12542975382E+02  0.23346789234E+02  0.51100000000E-03 0.  1.
        -12    1    3    3    0    0  0.24342784435E+02  0.12175522942E+02 -0.12604760273E+02  0.29994907809E+02  0.00000000000E+00 0.  1.
</event>
<event>
 7    1  0.1789107E-013  0.7246167E+02  0.7816164E-02  0.1226708E+00
        -11   -1    0    0    0    0  0.00000000000E+00  0.00000000000E+00  0.45593999997E+02  0.45594000000E+02  0.51100000000E-03 0.  1.
         11   -1    0    0    0    0 -0.00000000000E+00 -0.00000000000E+00 -0.45593999997E+02  0.45594000000E+02  0.51100000000E-03 0. -1.
    9900012    2    1    2    0    0  0.51631517461E+01  0.15048118286E+02  0.98778248167E+01  0.72461670327E+02  0.70000130311E+02 0.  0.
        -12    1    1    2    0    0 -0.51631517461E+01 -0.15048118286E+02 -0.98778248167E+01  0.18726329673E+02  0.00000000000E+00 0.  1.
         11    1    3    3    0    0  0.32369490571E+01 -0.69900220770E+00  0.19080867644E+00  0.33170546418E+01  0.51100000000E-03 0. -1.
        -11    1    3    3    0    0  0.62405714578E+01 -0.21512494804E+02  0.20229958666E+02  0.30182501432E+02  0.51100000000E-03 0.  1.
         12    1    3    3    0    0 -0.43143687688E+01  0.37259615297E+02 -0.10542942526E+02  0.38962114253E+02  0.00000000000E+00 0. -1.
</event>
<event>
 7    1  0.1789107E-013  0.7246159E+02  0.7816164E-02  0.1226708E+00
        -11   -1    0    0    0    0  0.00000000000E+00  0.00000000000E+00  0.45593999997E+02  0.45594000000E+02  0.51100000000E-03 0. -1.
         11   -1    0    0    0    0 -0.00000000000E+00 -0.00000000000E+00 -0.45593999997E+02  0.45594000000E+02  0.51100000000E-03 0.  1.
    9900012    2    1    2    0    0 -0.17507292568E+02  0.30809316854E+01 -0.58890726910E+01  0.72461585226E+02  0.70000019452E+02 0.  0.
        -12    1    1    2    0    0  0.17507292568E+02 -0.30809316854E+01  0.58890726910E+01  0.18726414774E+02  0.00000000000E+00 0.  1.
         11    1    3    3    0    0 -0.19360915671E+02  0.17356765456E+02  0.84387200319E+01  0.27337051025E+02  0.51100000000E-03 0. -1.
        -11    1    3    3    0    0 -0.11981158457E+02  0.94323217928E+01 -0.37127639373E+01  0.15693994669E+02  0.51100000000E-03 0.  1.
        -12    1    3    3    0    0  0.13834781560E+02 -0.23708155563E+02 -0.10615028786E+02  0.29430539532E+02  0.00000000000E+00 0.  1.
</event>
<event>
 7    1  0.1789107E-013  0.7246160E+02  0.7816164E-02  0.1226708E+00
        -11   -1    0    0    0    0  0.00000000000E+00  0.00000000000E+00  0.45593999997E+02  0.45594000000E+02  0.51100000000E-03 0.  1.
         11   -1    0    0    0    0 -0.00000000000E+00 -0.00000000000E+00 -0.45593999997E+02  0.45594000000E+02  0.51100000000E-03 0. -1.
    9900012    2    1    2    0    0 -0.55579325790E+01  0.48566606572E+01 -0.17210472770E+02  0.72461597776E+02  0.70000035800E+02 0.  0.
        -12    1    1    2    0    0  0.55579325790E+01 -0.48566606572E+01  0.17210472770E+02  0.18726402224E+02  0.00000000000E+00 0.  1.
         11    1    3    3    0    0  0.10850800107E+02 -0.62327318154E+01 -0.21928201750E+02  0.25247432367E+02  0.51100000000E-03 0. -1.
        -11    1    3    3    0    0  0.11573878381E+02 -0.46580500509E+01 -0.53337084884E+01  0.13568365324E+02  0.51100000000E-03 0.  1.
         12    1    3    3    0    0 -0.27982611068E+02  0.15747442524E+02  0.10051437469E+02  0.33645800085E+02  0.00000000000E+00 0. -1.
</event>
<event>
 7    1  0.1789107E-013  0.7246152E+02  0.7816164E-02  0.1226708E+00
        -11   -1    0    0    0    0  0.00000000000E+00  0.00000000000E+00  0.45593999997E+02  0.45594000000E+02  0.51100000000E-03 0.  1.
         11   -1    0    0    0    0 -0.00000000000E+00 -0.00000000000E+00 -0.45593999997E+02  0.45594000000E+02  0.51100000000E-03 0. -1.
    9900012    2    1    2    0    0  0.18673218719E+02 -0.14020474257E+01  0.16163833789E+00  0.72461522455E+02  0.69999937680E+02 0.  0.
        -12    1    1    2    0    0 -0.18673218719E+02  0.14020474257E+01 -0.16163833789E+00  0.18726477545E+02  0.00000000000E+00 0.  1.
         11    1    3    3    0    0  0.84675434560E+01  0.37351557412E+01 -0.13457628662E+02  0.16332741658E+02  0.51100000000E-03 0. -1.
        -11    1    3    3    0    0  0.13837357101E+02  0.16649463067E+02 -0.99514787149E+01  0.23826644766E+02  0.51100000000E-03 0.  1.
         12    1    3    3    0    0 -0.36316818382E+01 -0.21786666234E+02  0.23570745715E+02  0.32302136030E+02  0.00000000000E+00 0. -1.
</event>
<event>
 7    1  0.1789107E-013  0.7246153E+02  0.7816164E-02  0.1226708E+00
        -11   -1    0    0    0    0  0.00000000000E+00  0.00000000000E+00  0.45593999997E+02  0.45594000000E+02  0.51100000000E-03 0. -1.
         11   -1    0    0    0    0 -0.00000000000E+00 -0.00000000000E+00 -0.45593999997E+02  0.45594000000E+02  0.51100000000E-03 0.  1.
    9900012    2    1    2    0    0  0.74639396532E+01 -0.12774506965E+02  0.11479643906E+02  0.72461530831E+02  0.69999948592E+02 0.  0.
        -12    1    1    2    0    0 -0.74639396532E+01  0.12774506965E+02 -0.11479643906E+02  0.18726469169E+02  0.00000000000E+00 0.  1.
         11    1    3    3    0    0 -0.25992239981E+00  0.14447294704E+01 -0.32341230386E+01  0.35516693239E+01  0.51100000000E-03 0. -1.
        -11    1    3    3    0    0 -0.54731629255E+01 -0.20211165330E+02 -0.21434203803E+02  0.29964509162E+02  0.51100000000E-03 0.  1.
         12    1    3    3    0    0  0.13197024979E+02  0.59919288948E+01  0.36147970747E+02  0.38945352345E+02  0.00000000000E+00 0. -1.
</event>
<event>
 7    1  0.1789107E-013  0.7246149E+02  0.7816164E-02  0.1226708E+00
        -11   -1    0    0    0    0  0.00000000000E+00  0.00000000000E+00  0.45593999997E+02  0.45594000000E+02  0.51100000000E-03 0. -1.
         11   -1    0    0    0    0 -0.00000000000E+00 -0.00000000000E+00 -0.45593999997E+02  0.45594000000E+02  0.51100000000E-03 0.  1.
    9900012    2    1    2    0    0  0.16767436303E+02  0.23851027859E+01  0.79904000076E+01  0.72461491309E+02  0.69999897107E+02 0.  0.
        -12    1    1    2    0    0 -0.16767436303E+02 -0.23851027859E+01 -0.79904000076E+01  0.18726508691E+02  0.00000000000E+00 0.  1.
         11    1    3    3    0    0 -0.11798933474E+02  0.88884152986E+01  0.10706396950E+02  0.18244059131E+02  0.51100000000E-03 0. -1.
        -11    1    3    3    0    0 -0.98222350090E+01 -0.41104255727E+01  0.90721814666E+01  0.13988437217E+02  0.51100000000E-03 0.  1.
         12    1    3    3    0    0  0.38388604786E+02 -0.23928869399E+01 -0.11788178409E+02  0.40228994961E+02  0.00000000000E+00 0. -1.
</event>
<event>
 7    1  0.1789107E-013  0.7246162E+02  0.7816164E-02  0.1226708E+00
        -11   -1    0    0    0    0  0.00000000000E+00  0.00000000000E+00  0.45593999997E+02  0.45594000000E+02  0.51100000000E-03 0. -1.
         11   -1    0    0    0    0 -0.00000000000E+00 -0.00000000000E+00 -0.45593999997E+02  0.45594000000E+02  0.51100000000E-03 0.  1.
    9900012    2    1    2    0    0 -0.15681676033E+02  0.52767504702E+01 -0.87703054350E+01  0.72461619780E+02  0.70000064464E+02 0.  0.
        -12    1    1    2    0    0  0.15681676033E+02 -0.52767504702E+01  0.87703054350E+01  0.18726380220E+02  0.00000000000E+00 0.  1.
         11    1    3    3    0    0 -0.10050007455E+02  0.19836209622E+01 -0.26313400392E+01  0.10576452743E+02  0.51100000000E-03 0. -1.
        -11    1    3    3    0    0 -0.18345413252E+02  0.28139842024E+02 -0.48990109286E+01  0.33947094204E+02  0.51100000000E-03 0.  1.
         12    1    3    3    0    0  0.12713744674E+02 -0.24846712516E+02 -0.12399544672E+01  0.27938072833E+02  0.00000000000E+00 0. -1.
</event>
<event>
 7    1  0.1789107E-013  0.7246149E+02  0.7816164E-02  0.1226708E+00
        -11   -1    0    0    0    0  0.00000000000E+00  0.00000000000E+00  0.45593999997E+02  0.45594000000E+02  0.51100000000E-03 0. -1.
         11   -1    0    0    0    0 -0.00000000000E+00 -0.00000000000E+00 -0.45593999997E+02  0.45594000000E+02  0.51100000000E-03 0.  1.
    9900012    2    1    2    0    0 -0.10199183239E+02  0.14483825410E+02  0.60727086984E+01  0.72461485957E+02  0.69999890136E+02 0.  0.
        -12    1    1    2    0    0  0.10199183239E+02 -0.14483825410E+02 -0.60727086984E+01  0.18726514043E+02  0.00000000000E+00 0.  1.
         11    1    3    3    0    0  0.59135055281E+01  0.13384996112E+01  0.11515221970E+01  0.61714773330E+01  0.51100000000E-03 0. -1.
        -11    1    3    3    0    0 -0.24457867678E+00  0.25838420071E+01  0.32588705449E+02  0.32691891676E+02  0.51100000000E-03 0.  1.
        -12    1    3    3    0    0 -0.15868110091E+02  0.10561483791E+02 -0.27667518948E+02  0.33598116948E+02  0.00000000000E+00 0.  1.
</event>
<event>
 7    1  0.1796913E-013  0.7246158E+02  0.7816164E-02  0.1226708E+00
        -11   -1    0    0    0    0  0.00000000000E+00  0.00000000000E+00  0.45593999997E+02  0.45594000000E+02  0.51100000000E-03 0.  1.
         11   -1    0    0    0    0 -0.00000000000E+00 -0.00000000000E+00 -0.45593999997E+02  0.45594000000E+02  0.51100000000E-03 0. -1.
    9900012    2    1    2    0    0  0.18657565205E+02 -0.12714747553E+01 -0.97853069103E+00  0.72461577230E+02  0.70000009035E+02 0.  0.
        -12    1    1    2    0    0 -0.18657565205E+02  0.12714747553E+01  0.97853069103E+00  0.18726422770E+02  0.00000000000E+00 0.  1.
         11    1    3    3    0    0  0.35853954906E+02 -0.37079382087E+01  0.26871213394E+01  0.36145200367E+02  0.51100000000E-03 0. -1.
        -11    1    3    3    0    0 -0.37558506762E+00 -0.47395110132E+01 -0.14363311275E+02  0.15129730329E+02  0.51100000000E-03 0.  1.
        -12    1    3    3    0    0 -0.16820804634E+02  0.71759744666E+01  0.10697659245E+02  0.21186646535E+02  0.00000000000E+00 0.  1.
</event>
<event>
 7    1  0.1789107E-013  0.7246158E+02  0.7816164E-02  0.1226708E+00
        -11   -1    0    0    0    0  0.00000000000E+00  0.00000000000E+00  0.45593999997E+02  0.45594000000E+02  0.51100000000E-03 0.  1.
         11   -1    0    0    0    0 -0.00000000000E+00 -0.00000000000E+00 -0.45593999997E+02  0.45594000000E+02  0.51100000000E-03 0. -1.
    9900012    2    1    2    0    0  0.18641263776E+02 -0.17812208868E+01  0.96407117068E-01  0.72461581299E+02  0.70000014336E+02 0.  0.
        -12    1    1    2    0    0 -0.18641263776E+02  0.17812208868E+01 -0.96407117068E-01  0.18726418701E+02  0.00000000000E+00 0.  1.
         11    1    3    3    0    0  0.35451120907E+01  0.84071424661E+01  0.76147295823E+01  0.11884105816E+02  0.51100000000E-03 0. -1.
        -11    1    3    3    0    0  0.11220734574E+02  0.23576941765E+02 -0.26851733851E+01  0.26248566127E+02  0.51100000000E-03 0.  1.
         12    1    3    3    0    0  0.38754171121E+01 -0.33765305118E+02 -0.48331490801E+01  0.34328909356E+02  0.00000000000E+00 0. -1.
</event>
<event>
 7    1  0.1839243E-013  0.7246180E+02  0.7816164E-02  0.1226707E+00
        -11   -1    0    0    0    0  0.00000000000E+00  0.00000000000E+00  0.45593999997E+02  0.45594000000E+02  0.51100000000E-03 0. -1.
         11   -1    0    0    0    0 -0.00000000000E+00 -0.00000000000E+00 -0.45593999997E+02  0.45594000000E+02  0.51100000000E-03 0.  1.
    9900012    2    1    2    0    0 -0.42733319219E+01  0.55981238214E+01  0.17351377070E+02  0.72461797976E+02  0.70000296597E+02 0.  0.
        -12    1    1    2    0    0  0.42733319219E+01 -0.55981238214E+01 -0.17351377070E+02  0.18726202024E+02  0.00000000000E+00 0.  1.
         11    1    3    3    0    0 -0.14527148560E+02 -0.91214794555E+01  0.25135462203E+02  0.30430755711E+02  0.51100000000E-03 0. -1.
        -11    1    3    3    0    0  0.35442997128E+01  0.14580677147E+02  0.13209302967E+02  0.19991095309E+02  0.51100000000E-03 0.  1.
        -12    1    3    3    0    0  0.67095169256E+01  0.13892613019E+00 -0.20993388101E+02  0.22039946955E+02  0.00000000000E+00 0.  1.
</event>
<event>
 7    1  0.1789107E-013  0.7246156E+02  0.7816164E-02  0.1226708E+00
        -11   -1    0    0    0    0  0.00000000000E+00  0.00000000000E+00  0.45593999997E+02  0.45594000000E+02  0.51100000000E-03 0.  1.
         11   -1    0    0    0    0 -0.00000000000E+00 -0.00000000000E+00 -0.45593999997E+02  0.45594000000E+02  0.51100000000E-03 0. -1.
    9900012    2    1    2    0    0  0.12371109167E+02 -0.12942491006E+02  0.54888318824E+01  0.72461556374E+02  0.69999981866E+02 0.  0.
        -12    1    1    2    0    0 -0.12371109167E+02  0.12942491006E+02 -0.54888318824E+01  0.18726443626E+02  0.00000000000E+00 0.  1.
         11    1    3    3    0    0 -0.18564619698E+02 -0.17622080380E+02  0.87254625275E+01  0.27042864457E+02  0.51100000000E-03 0. -1.
        -11    1    3    3    0    0 -0.62101443908E+01 -0.34701148035E+01  0.87578265152E+00  0.71676066869E+01  0.51100000000E-03 0.  1.
        -12    1    3    3    0    0  0.37145873256E+02  0.81497041780E+01 -0.41124132966E+01  0.38251085230E+02  0.00000000000E+00 0.  1.
</event>
<event>
 7    1  0.1789107E-013  0.7246157E+02  0.7816164E-02  0.1226708E+00
        -11   -1    0    0    0    0  0.00000000000E+00  0.00000000000E+00  0.45593999997E+02  0.45594000000E+02  0.51100000000E-03 0.  1.
         11   -1    0    0    0    0 -0.00000000000E+00 -0.00000000000E+00 -0.45593999997E+02  0.45594000000E+02  0.51100000000E-03 0. -1.
    9900012    2    1    2    0    0 -0.63859137047E+01 -0.17042707113E+02 -0.44096914832E+01  0.72461571121E+02  0.70000001077E+02 0.  0.
        -12    1    1    2    0    0  0.63859137047E+01  0.17042707113E+02  0.44096914832E+01  0.18726428879E+02  0.00000000000E+00 0.  1.
         11    1    3    3    0    0 -0.12114632755E+02 -0.12536057762E+02  0.91094496558E+01  0.19669752014E+02  0.51100000000E-03 0.  1.
        -11    1    3    3    0    0 -0.12253040943E+02  0.59994200595E+01 -0.25387753774E+02  0.28821313213E+02  0.51100000000E-03 0. -1.
         12    1    3    3    0    0  0.17981759993E+02 -0.10506069411E+02  0.11868612635E+02  0.23970505894E+02  0.00000000000E+00 0. -1.
</event>
<event>
 7    1  0.1789107E-013  0.7246156E+02  0.7816164E-02  0.1226708E+00
        -11   -1    0    0    0    0  0.00000000000E+00  0.00000000000E+00  0.45593999997E+02  0.45594000000E+02  0.51100000000E-03 0.  1.
         11   -1    0    0    0    0 -0.00000000000E+00 -0.00000000000E+00 -0.45593999997E+02  0.45594000000E+02  0.51100000000E-03 0. -1.
    9900012    2    1    2    0    0  0.14540534871E+02  0.11388736239E+02  0.30901571649E+01  0.72461560436E+02  0.69999987157E+02 0.  0.
        -12    1    1    2    0    0 -0.14540534871E+02 -0.11388736239E+02 -0.30901571649E+01  0.18726439564E+02  0.00000000000E+00 0.  1.
         11    1    3    3    0    0  0.19937819397E+02 -0.15958116084E+02  0.41068325617E+01  0.25865888448E+02  0.51100000000E-03 0. -1.
        -11    1    3    3    0    0  0.65800622715E+01 -0.29624321883E+01 -0.10421286783E+02  0.12675821174E+02  0.51100000000E-03 0.  1.
        -12    1    3    3    0    0 -0.11977346798E+02  0.30309284511E+02  0.94046113861E+01  0.33919850814E+02  0.00000000000E+00 0.  1.
</event>
<event>
 7    1  0.1789107E-013  0.7246156E+02  0.7816164E-02  0.1226708E+00
        -11   -1    0    0    0    0  0.00000000000E+00  0.00000000000E+00  0.45593999997E+02  0.45594000000E+02  0.51100000000E-03 0.  1.
         11   -1    0    0    0    0 -0.00000000000E+00 -0.00000000000E+00 -0.45593999997E+02  0.45594000000E+02  0.51100000000E-03 0. -1.
    9900012    2    1    2    0    0  0.33855427736E+01  0.89439047656E+01 -0.16100438734E+02  0.72461562545E+02  0.69999989905E+02 0.  0.
        -12    1    1    2    0    0 -0.33855427736E+01 -0.89439047656E+01  0.16100438734E+02  0.18726437455E+02  0.00000000000E+00 0.  1.
         11    1    3    3    0    0 -0.56247447825E+01 -0.19826179644E+01 -0.44415799255E+00  0.59804518596E+01  0.51100000000E-03 0. -1.
        -11    1    3    3    0    0 -0.10773571546E+02  0.11464640217E+02  0.20153012028E+02  0.25566613253E+02  0.51100000000E-03 0.  1.
         12    1    3    3    0    0  0.19783859102E+02 -0.53811748695E+00 -0.35809292770E+02  0.40914497432E+02  0.00000000000E+00 0. -1.
</event>
<event>
 7    1  0.1789107E-013  0.7246159E+02  0.7816164E-02  0.1226708E+00
        -11   -1    0    0    0    0  0.00000000000E+00  0.00000000000E+00  0.45593999997E+02  0.45594000000E+02  0.51100000000E-03 0.  1.
         11   -1    0    0    0    0 -0.00000000000E+00 -0.00000000000E+00 -0.45593999997E+02  0.45594000000E+02  0.51100000000E-03 0. -1.
    9900012    2    1    2    0    0 -0.18231724125E+02 -0.29060195773E-01  0.42757332738E+01  0.72461588062E+02  0.70000023145E+02 0.  0.
        -12    1    1    2    0    0  0.18231724125E+02  0.29060195773E-01 -0.42757332738E+01  0.18726411938E+02  0.00000000000E+00 0.  1.
         11    1    3    3    0    0  0.11836405670E+02  0.69717686994E+01  0.24575596714E+01  0.13955130160E+02  0.51100000000E-03 0. -1.
        -11    1    3    3    0    0 -0.60274730488E+01  0.12071450297E+02  0.19025408856E+02  0.23324161850E+02  0.51100000000E-03 0.  1.
         12    1    3    3    0    0 -0.24040656746E+02 -0.19072279192E+02 -0.17207235254E+02  0.35182296051E+02  0.00000000000E+00 0. -1.
</event>
<event>
 7    1  0.1789107E-013  0.7246157E+02  0.7816164E-02  0.1226708E+00
        -11   -1    0    0    0    0  0.00000000000E+00  0.00000000000E+00  0.45593999997E+02  0.45594000000E+02  0.51100000000E-03 0. -1.
         11   -1    0    0    0    0 -0.00000000000E+00 -0.00000000000E+00 -0.45593999997E+02  0.45594000000E+02  0.51100000000E-03 0.  1.
    9900012    2    1    2    0    0  0.14266194077E+02 -0.11549289473E+02  0.37106332463E+01  0.72461570018E+02  0.69999999641E+02 0.  0.
        -12    1    1    2    0    0 -0.14266194077E+02  0.11549289473E+02 -0.37106332463E+01  0.18726429982E+02  0.00000000000E+00 0.  1.
         11    1    3    3    0    0  0.29631121973E+02  0.12241183502E+02  0.33297576549E+01  0.32232549530E+02  0.51100000000E-03 0. -1.
        -11    1    3    3    0    0  0.37437482429E+00 -0.21945016074E+02 -0.65903959512E+01  0.22916308736E+02  0.51100000000E-03 0.  1.
        -12    1    3    3    0    0 -0.15739302721E+02 -0.18454569005E+01  0.69712715426E+01  0.17312711753E+02  0.00000000000E+00 0.  1.
</event>
<event>
 7    1  0.1789107E-013  0.7246155E+02  0.7816164E-02  0.1226708E+00
        -11   -1    0    0    0    0  0.00000000000E+00  0.00000000000E+00  0.45593999997E+02  0.45594000000E+02  0.51100000000E-03 0.  1.
         11   -1    0    0    0    0 -0.00000000000E+00 -0.00000000000E+00 -0.45593999997E+02  0.45594000000E+02  0.51100000000E-03 0. -1.
    9900012    2    1    2    0    0 -0.15751047447E+02  0.48973419778E+01 -0.88656925825E+01  0.72461549212E+02  0.69999972537E+02 0.  0.
        -12    1    1    2    0    0  0.15751047447E+02 -0.48973419778E+01  0.88656925825E+01  0.18726450788E+02  0.00000000000E+00 0.  1.
         11    1    3    3    0    0 -0.19777148465E+02  0.11816987842E+02 -0.32868958956E+02  0.40139074057E+02  0.51100000000E-03 0. -1.
        -11    1    3    3    0    0 -0.24094674626E+00 -0.12265015768E+02  0.73048372752E+01  0.14277580853E+02  0.51100000000E-03 0.  1.
        -12    1    3    3    0    0  0.42670477641E+01  0.53453699043E+01  0.16698429098E+02  0.18044894302E+02  0.00000000000E+00 0.  1.
</event>
<event>
 7    1  0.1789107E-013  0.7246159E+02  0.7816164E-02  0.1226708E+00
        -11   -1    0    0    0    0  0.00000000000E+00  0.00000000000E+00  0.45593999997E+02  0.45594000000E+02  0.51100000000E-03 0. -1.
         11   -1    0    0    0    0 -0.00000000000E+00 -0.00000000000E+00 -0.45593999997E+02  0.45594000000E+02  0.51100000000E-03 0.  1.
    9900012    2    1    2    0    0 -0.15539531825E+02 -0.30369596750E+01 -0.99989145928E+01  0.72461589067E+02  0.70000024454E+02 0.  0.
        -12    1    1    2    0    0  0.15539531825E+02  0.30369596750E+01  0.99989145928E+01  0.18726410933E+02  0.00000000000E+00 0.  1.
         11    1    3    3    0    0  0.75977613101E+00  0.11395007356E+02  0.50304985967E+01  0.12479157376E+02  0.51100000000E-03 0. -1.
        -11    1    3    3    0    0  0.16642870958E+02 -0.18310606060E+02 -0.42583943676E+01  0.25107715365E+02  0.51100000000E-03 0.  1.
         12    1    3    3    0    0 -0.32942178914E+02  0.38786390290E+01 -0.10771018822E+02  0.34874716326E+02  0.00000000000E+00 0. -1.
</event>
<event>
 7    1  0.1789107E-013  0.7246164E+02  0.7816164E-02  0.1226708E+00
        -11   -1    0    0    0    0  0.00000000000E+00  0.00000000000E+00  0.45593999997E+02  0.45594000000E+02  0.51100000000E-03 0.  1.
         11   -1    0    0    0    0 -0.00000000000E+00 -0.00000000000E+00 -0.45593999997E+02  0.45594000000E+02  0.51100000000E-03 0. -1.
    9900012    2    1    2    0    0  0.18063837282E+01  0.15638930472E+02  0.10140883675E+02  0.72461636493E+02  0.70000086235E+02 0.  0.
        -12    1    1    2    0    0 -0.18063837282E+01 -0.15638930472E+02 -0.10140883675E+02  0.18726363507E+02  0.00000000000E+00 0.  1.
         11    1    3    3    0    0  0.50356995861E+00 -0.18664562556E+02  0.20039810121E+02  0.27390024973E+02  0.51100000000E-03 0. -1.
        -11    1    3    3    0    0  0.17500148090E+01 -0.39343154853E+01 -0.48720932557E+01  0.65022060197E+01  0.51100000000E-03 0.  1.
         12    1    3    3    0    0 -0.44720103938E+00  0.38237808513E+02 -0.50268331901E+01  0.38569405499E+02  0.00000000000E+00 0. -1.
</event>
<event>
 7    1  0.1789107E-013  0.7246157E+02  0.7816164E-02  0.1226708E+00
        -11   -1    0    0    0    0  0.00000000000E+00  0.00000000000E+00  0.45593999997E+02  0.45594000000E+02  0.51100000000E-03 0. -1.
         11   -1    0    0    0    0 -0.00000000000E+00 -0.00000000000E+00 -0.45593999997E+02  0.45594000000E+02  0.51100000000E-03 0.  1.
    9900012    2    1    2    0    0 -0.10314022804E+02 -0.71347348792E+01 -0.13906674447E+02  0.72461572087E+02  0.70000002335E+02 0.  0.
        -12    1    1    2    0    0  0.10314022804E+02  0.71347348792E+01  0.13906674447E+02  0.18726427913E+02  0.00000000000E+00 0.  1.
         11    1    3    3    0    0  0.15774413631E+02 -0.10022961877E+02 -0.24416941653E+02  0.30748641110E+02  0.51100000000E-03 0.  1.
        -11    1    3    3    0    0  0.12955499342E+00  0.35932267512E+01 -0.85604994301E+01  0.92849455430E+01  0.51100000000E-03 0. -1.
         12    1    3    3    0    0 -0.26217991429E+02 -0.70499975313E+00  0.19070766635E+02  0.32427985434E+02  0.00000000000E+00 0. -1.
</event>
<event>
 7    1  0.1789107E-013  0.7246161E+02  0.7816164E-02  0.1226708E+00
        -11   -1    0    0    0    0  0.00000000000E+00  0.00000000000E+00  0.45593999997E+02  0.45594000000E+02  0.51100000000E-03 0.  1.
         11   -1    0    0    0    0 -0.00000000000E+00 -0.00000000000E+00 -0.45593999997E+02  0.45594000000E+02  0.51100000000E-03 0. -1.
    9900012    2    1    2    0    0  0.23309649768E+01  0.52266596850E+01 -0.17830490759E+02  0.72461607665E+02  0.70000048682E+02 0.  0.
        -12    1    1    2    0    0 -0.23309649768E+01 -0.52266596850E+01  0.17830490759E+02  0.18726392335E+02  0.00000000000E+00 0.  1.
         11    1    3    3    0    0 -0.11577176098E+01  0.19974329398E+02  0.17791046414E+01  0.20086795627E+02  0.51100000000E-03 0. -1.
        -11    1    3    3    0    0 -0.85987339075E+00 -0.23033958836E+02  0.70633012564E+01  0.24107941986E+02  0.51100000000E-03 0.  1.
         12    1    3    3    0    0  0.43485559773E+01  0.82862891230E+01 -0.26672896657E+02  0.28266870053E+02  0.00000000000E+00 0. -1.
</event>
<event>
 7    1  0.1789107E-013  0.7246158E+02  0.7816164E-02  0.1226708E+00
        -11   -1    0    0    0    0  0.00000000000E+00  0.00000000000E+00  0.45593999997E+02  0.45594000000E+02  0.51100000000E-03 0. -1.
         11   -1    0    0    0    0 -0.00000000000E+00 -0.00000000000E+00 -0.45593999997E+02  0.45594000000E+02  0.51100000000E-03 0.  1.
    9900012    2    1    2    0    0 -0.11903415774E+01 -0.87563457929E+01  0.16510249594E+02  0.72461578923E+02  0.70000011240E+02 0.  0.
        -12    1    1    2    0    0  0.11903415774E+01  0.87563457929E+01 -0.16510249594E+02  0.18726421077E+02  0.00000000000E+00 0.  1.
         11    1    3    3    0    0  0.74836165348E+01  0.13434420184E+01 -0.14167885898E+01  0.77341219971E+01  0.51100000000E-03 0. -1.
        -11    1    3    3    0    0  0.85842382375E+01  0.85047011291E+01 -0.17428304714E+02  0.21207661184E+02  0.51100000000E-03 0.  1.
         12    1    3    3    0    0 -0.17258196350E+02 -0.18604488940E+02  0.35355342898E+02  0.43519795742E+02  0.00000000000E+00 0. -1.
</event>
<event>
 7    1  0.1789107E-013  0.7246157E+02  0.7816164E-02  0.1226708E+00
        -11   -1    0    0    0    0  0.00000000000E+00  0.00000000000E+00  0.45593999997E+02  0.45594000000E+02  0.51100000000E-03 0.  1.
         11   -1    0    0    0    0 -0.00000000000E+00 -0.00000000000E+00 -0.45593999997E+02  0.45594000000E+02  0.51100000000E-03 0. -1.
    9900012    2    1    2    0    0  0.28129646646E+01  0.19674900089E+01 -0.18409109476E+02  0.72461572181E+02  0.70000002458E+02 0.  0.
        -12    1    1    2    0    0 -0.28129646646E+01 -0.19674900089E+01  0.18409109476E+02  0.18726427819E+02  0.00000000000E+00 0.  1.
         11    1    3    3    0    0 -0.23826854510E+02  0.63095923578E+00 -0.26671307534E+02  0.35769760290E+02  0.51100000000E-03 0. -1.
        -11    1    3    3    0    0  0.83570416974E+00 -0.66004781136E+01  0.70114392164E+01  0.96656605017E+01  0.51100000000E-03 0.  1.
        -12    1    3    3    0    0  0.25804115004E+02  0.79370088867E+01  0.12507588417E+01  0.27026151389E+02  0.00000000000E+00 0.  1.
</event>
<event>
 7    1  0.1789107E-013  0.7246156E+02  0.7816164E-02  0.1226708E+00
        -11   -1    0    0    0    0  0.00000000000E+00  0.00000000000E+00  0.45593999997E+02  0.45594000000E+02  0.51100000000E-03 0.  1.
         11   -1    0    0    0    0 -0.00000000000E+00 -0.00000000000E+00 -0.45593999997E+02  0.45594000000E+02  0.51100000000E-03 0. -1.
    9900012    2    1    2    0    0 -0.16813345630E+02 -0.16946135038E+01 -0.80696591224E+01  0.72461556009E+02  0.69999981391E+02 0.  0.
        -12    1    1    2    0    0  0.16813345630E+02  0.16946135038E+01  0.80696591224E+01  0.18726443991E+02  0.00000000000E+00 0.  1.
         11    1    3    3    0    0 -0.36693374313E+01 -0.28406843113E+02 -0.11197674883E+02  0.30753872860E+02  0.51100000000E-03 0. -1.
        -11    1    3    3    0    0  0.85808402014E+01  0.11617576754E+02 -0.25101446750E+01  0.14659458883E+02  0.51100000000E-03 0.  1.
        -12    1    3    3    0    0 -0.21724848400E+02  0.15094652855E+02  0.56381604354E+01  0.27048224266E+02  0.00000000000E+00 0.  1.
</event>
<event>
 7    1  0.1789107E-013  0.7246154E+02  0.7816164E-02  0.1226708E+00
        -11   -1    0    0    0    0  0.00000000000E+00  0.00000000000E+00  0.45593999997E+02  0.45594000000E+02  0.51100000000E-03 0.  1.
         11   -1    0    0    0    0 -0.00000000000E+00 -0.00000000000E+00 -0.45593999997E+02  0.45594000000E+02  0.51100000000E-03 0. -1.
    9900012    2    1    2    0    0  0.31162001946E+01 -0.11505423193E+02 -0.14442809839E+02  0.72461542178E+02  0.69999963374E+02 0.  0.
        -12    1    1    2    0    0 -0.31162001946E+01  0.11505423193E+02  0.14442809839E+02  0.18726457822E+02  0.00000000000E+00 0.  1.
         11    1    3    3    0    0 -0.11058170521E+02 -0.34183971953E+02 -0.45999606844E+01  0.36221357130E+02  0.51100000000E-03 0. -1.
        -11    1    3    3    0    0 -0.22659796400E+01 -0.22854456701E+01 -0.50189611410E+01  0.59622057022E+01  0.51100000000E-03 0.  1.
        -12    1    3    3    0    0  0.16440350356E+02  0.24963994430E+02 -0.48238880136E+01  0.30277979347E+02  0.00000000000E+00 0.  1.
</event>
<event>
 7    1  0.1789107E-013  0.7246155E+02  0.7816164E-02  0.1226708E+00
        -11   -1    0    0    0    0  0.00000000000E+00  0.00000000000E+00  0.45593999997E+02  0.45594000000E+02  0.51100000000E-03 0. -1.
         11   -1    0    0    0    0 -0.00000000000E+00 -0.00000000000E+00 -0.45593999997E+02  0.45594000000E+02  0.51100000000E-03 0.  1.
    9900012    2    1    2    0    0 -0.18377036785E+02 -0.41466679363E+00  0.35766397459E+01  0.72461553957E+02  0.69999978717E+02 0.  0.
        -12    1    1    2    0    0  0.18377036785E+02  0.41466679363E+00 -0.35766397459E+01  0.18726446043E+02  0.00000000000E+00 0.  1.
         11    1    3    3    0    0  0.94070080130E+01  0.25832037411E+02 -0.10707578598E+02  0.29503189595E+02  0.51100000000E-03 0. -1.
        -11    1    3    3    0    0 -0.20013809911E+01  0.69914974931E+00 -0.13573133162E+01  0.25172675549E+01  0.51100000000E-03 0.  1.
         12    1    3    3    0    0 -0.25782663807E+02 -0.26945853954E+02  0.15641531660E+02  0.40441096807E+02  0.00000000000E+00 0. -1.
</event>
<event>
 7    1  0.1789107E-013  0.7246156E+02  0.7816164E-02  0.1226708E+00
        -11   -1    0    0    0    0  0.00000000000E+00  0.00000000000E+00  0.45593999997E+02  0.45594000000E+02  0.51100000000E-03 0.  1.
         11   -1    0    0    0    0 -0.00000000000E+00 -0.00000000000E+00 -0.45593999997E+02  0.45594000000E+02  0.51100000000E-03 0. -1.
    9900012    2    1    2    0    0 -0.11659662546E+02  0.22285169017E+01 -0.14483288591E+02  0.72461557020E+02  0.69999982708E+02 0.  0.
        -12    1    1    2    0    0  0.11659662546E+02 -0.22285169017E+01  0.14483288591E+02  0.18726442980E+02  0.00000000000E+00 0.  1.
         11    1    3    3    0    0 -0.11651338808E+02  0.97933061862E+01 -0.18271774627E+02  0.23780670519E+02  0.51100000000E-03 0.  1.
        -11    1    3    3    0    0 -0.17370039283E+01 -0.13503467882E+02 -0.19948288581E+02  0.24151501921E+02  0.51100000000E-03 0. -1.
        -12    1    3    3    0    0  0.17286801903E+01  0.59386785974E+01  0.23736774616E+02  0.24529384580E+02  0.00000000000E+00 0.  1.
</event>
<event>
 7    1  0.1789107E-013  0.7246156E+02  0.7816164E-02  0.1226708E+00
        -11   -1    0    0    0    0  0.00000000000E+00  0.00000000000E+00  0.45593999997E+02  0.45594000000E+02  0.51100000000E-03 0. -1.
         11   -1    0    0    0    0 -0.00000000000E+00 -0.00000000000E+00 -0.45593999997E+02  0.45594000000E+02  0.51100000000E-03 0.  1.
    9900012    2    1    2    0    0 -0.13895730676E+02  0.12068338097E+02  0.34559234931E+01  0.72461560866E+02  0.69999987717E+02 0.  0.
        -12    1    1    2    0    0  0.13895730676E+02 -0.12068338097E+02 -0.34559234931E+01  0.18726439134E+02  0.00000000000E+00 0.  1.
         11    1    3    3    0    0  0.94458127364E+01 -0.78740541368E+01  0.88314149408E+01  0.15139947058E+02  0.51100000000E-03 0. -1.
        -11    1    3    3    0    0 -0.22265076309E+02 -0.11039174063E+02 -0.82580138736E+01  0.26187626476E+02  0.51100000000E-03 0.  1.
         12    1    3    3    0    0 -0.10764671040E+01  0.30981566297E+02  0.28825224259E+01  0.31133987332E+02  0.00000000000E+00 0. -1.
</event>
<event>
 7    1  0.1789107E-013  0.7246145E+02  0.7816164E-02  0.1226708E+00
        -11   -1    0    0    0    0  0.00000000000E+00  0.00000000000E+00  0.45593999997E+02  0.45594000000E+02  0.51100000000E-03 0. -1.
         11   -1    0    0    0    0 -0.00000000000E+00 -0.00000000000E+00 -0.45593999997E+02  0.45594000000E+02  0.51100000000E-03 0.  1.
    9900012    2    1    2    0    0  0.71747463770E+01 -0.32427269780E+00  0.17294551227E+02  0.72461450918E+02  0.69999844490E+02 0.  0.
        -12    1    1    2    0    0 -0.71747463770E+01  0.32427269780E+00 -0.17294551227E+02  0.18726549082E+02  0.00000000000E+00 0.  1.
         11    1    3    3    0    0 -0.77475682259E+00 -0.10891212239E+01 -0.88705600851E+01  0.89706894751E+01  0.51100000000E-03 0. -1.
        -11    1    3    3    0    0  0.21706590798E+02 -0.45164618996E+01 -0.10086921952E+02  0.24358171255E+02  0.51100000000E-03 0.  1.
         12    1    3    3    0    0 -0.13757087599E+02  0.52813104257E+01  0.36252033264E+02  0.39132590188E+02  0.00000000000E+00 0. -1.
</event>
<event>
 7    1  0.1789107E-013  0.7246155E+02  0.7816164E-02  0.1226708E+00
        -11   -1    0    0    0    0  0.00000000000E+00  0.00000000000E+00  0.45593999997E+02  0.45594000000E+02  0.51100000000E-03 0. -1.
         11   -1    0    0    0    0 -0.00000000000E+00 -0.00000000000E+00 -0.45593999997E+02  0.45594000000E+02  0.51100000000E-03 0.  1.
    9900012    2    1    2    0    0  0.10934125351E+02  0.10973083780E+02  0.10522177547E+02  0.72461551186E+02  0.69999975108E+02 0.  0.
        -12    1    1    2    0    0 -0.10934125351E+02 -0.10973083780E+02 -0.10522177547E+02  0.18726448814E+02  0.00000000000E+00 0.  1.
         11    1    3    3    0    0 -0.53546435974E+01  0.11881178611E+02  0.13643098542E+02  0.18867134158E+02  0.51100000000E-03 0. -1.
        -11    1    3    3    0    0 -0.13659995987E+02 -0.12010569935E+02  0.78658232929E+01  0.19817175805E+02  0.51100000000E-03 0.  1.
        -12    1    3    3    0    0  0.29948764936E+02  0.11102475104E+02 -0.10986744288E+02  0.33777241224E+02  0.00000000000E+00 0.  1.
</event>
<event>
 7    1  0.1789107E-013  0.7246151E+02  0.7816164E-02  0.1226708E+00
        -11   -1    0    0    0    0  0.00000000000E+00  0.00000000000E+00  0.45593999997E+02  0.45594000000E+02  0.51100000000E-03 0. -1.
         11   -1    0    0    0    0 -0.00000000000E+00 -0.00000000000E+00 -0.45593999997E+02  0.45594000000E+02  0.51100000000E-03 0.  1.
    9900012    2    1    2    0    0 -0.31137841596E+01 -0.12572533273E+02  0.13524688301E+02  0.72461509716E+02  0.69999921086E+02 0.  0.
        -12    1    1    2    0    0  0.31137841596E+01  0.12572533273E+02 -0.13524688301E+02  0.18726490284E+02  0.00000000000E+00 0.  1.
         11    1    3    3    0    0  0.11407097916E+02  0.17434335094E+01  0.11744803146E+02  0.16465170648E+02  0.51100000000E-03 0. -1.
        -11    1    3    3    0    0  0.18749224854E+02  0.19275297080E+01 -0.95165287040E+00  0.18872054654E+02  0.51100000000E-03 0.  1.
        -12    1    3    3    0    0 -0.33270106929E+02 -0.16243496491E+02  0.27315380252E+01  0.37124284415E+02  0.00000000000E+00 0.  1.
</event>
<event>
 7    1  0.1789107E-013  0.7246158E+02  0.7816164E-02  0.1226708E+00
        -11   -1    0    0    0    0  0.00000000000E+00  0.00000000000E+00  0.45593999997E+02  0.45594000000E+02  0.51100000000E-03 0.  1.
         11   -1    0    0    0    0 -0.00000000000E+00 -0.00000000000E+00 -0.45593999997E+02  0.45594000000E+02  0.51100000000E-03 0. -1.
    9900012    2    1    2    0    0 -0.10325167438E+02 -0.23564619787E+01 -0.15443988831E+02  0.72461580516E+02  0.70000013316E+02 0.  0.
        -12    1    1    2    0    0  0.10325167438E+02  0.23564619787E+01  0.15443988831E+02  0.18726419484E+02  0.00000000000E+00 0.  1.
         11    1    3    3    0    0  0.32439461520E+01  0.90135760520E+01 -0.24187624492E+01  0.98801898731E+01  0.51100000000E-03 0. -1.
        -11    1    3    3    0    0 -0.23648229474E+02  0.69126053887E+01  0.14073024407E+02  0.28373806349E+02  0.51100000000E-03 0.  1.
         12    1    3    3    0    0  0.10079115884E+02 -0.18282643419E+02 -0.27098250789E+02  0.34207584294E+02  0.00000000000E+00 0. -1.
</event>
<event>
 7    1  0.1789107E-013  0.7246152E+02  0.7816164E-02  0.1226708E+00
        -11   -1    0    0    0    0  0.00000000000E+00  0.00000000000E+00  0.45593999997E+02  0.45594000000E+02  0.51100000000E-03 0.  1.
         11   -1    0    0    0    0 -0.00000000000E+00 -0.00000000000E+00 -0.45593999997E+02  0.45594000000E+02  0.51100000000E-03 0. -1.
    9900012    2    1    2    0    0 -0.65817081778E+01  0.15916558660E+02 -0.73501844682E+01  0.72461523187E+02  0.69999938634E+02 0.  0.
        -12    1    1    2    0    0  0.65817081778E+01 -0.15916558660E+02  0.73501844682E+01  0.18726476813E+02  0.00000000000E+00 0.  1.
         11    1    3    3    0    0 -0.29558426747E+02  0.23588864032E+01 -0.82419196433E+01  0.30776519890E+02  0.51100000000E-03 0. -1.
        -11    1    3    3    0    0 -0.95946285177E-01  0.39507948700E+01 -0.12654468074E+02  0.13257207409E+02  0.51100000000E-03 0.  1.
        -12    1    3    3    0    0  0.23072664855E+02  0.96068773865E+01  0.13546203249E+02  0.28427795889E+02  0.00000000000E+00 0.  1.
</event>
<event>
 7    1  0.1789107E-013  0.7246133E+02  0.7816164E-02  0.1226709E+00
        -11   -1    0    0    0    0  0.00000000000E+00  0.00000000000E+00  0.45593999997E+02  0.45594000000E+02  0.51100000000E-03 0. -1.
         11   -1    0    0    0    0 -0.00000000000E+00 -0.00000000000E+00 -0.45593999997E+02  0.45594000000E+02  0.51100000000E-03 0.  1.
    9900012    2    1    2    0    0  0.10130769078E+02  0.11386078312E+02 -0.10881769125E+02  0.72461330229E+02  0.69999687269E+02 0.  0.
        -12    1    1    2    0    0 -0.10130769078E+02 -0.11386078312E+02  0.10881769125E+02  0.18726669771E+02  0.00000000000E+00 0.  1.
         11    1    3    3    0    0  0.11323170278E+02  0.28206938112E+00 -0.14994243284E+02  0.18791516176E+02  0.51100000000E-03 0. -1.
        -11    1    3    3    0    0  0.64201488073E+01 -0.18996911273E+02 -0.61413942464E+01  0.20971830444E+02  0.51100000000E-03 0.  1.
         12    1    3    3    0    0 -0.76125500077E+01  0.30100920204E+02  0.10253868406E+02  0.32697983608E+02  0.00000000000E+00 0. -1.
</event>
<event>
 7    1  0.1789107E-013  0.7246159E+02  0.7816164E-02  0.1226708E+00
        -11   -1    0    0    0    0  0.00000000000E+00  0.00000000000E+00  0.45593999997E+02  0.45594000000E+02  0.51100000000E-03 0.  1.
         11   -1    0    0    0    0 -0.00000000000E+00 -0.00000000000E+00 -0.45593999997E+02  0.45594000000E+02  0.51100000000E-03 0. -1.
    9900012    2    1    2    0    0 -0.16744139566E+02 -0.18395236743E+01 -0.81809707626E+01  0.72461592449E+02  0.70000028861E+02 0.  0.
        -12    1    1    2    0    0  0.16744139566E+02  0.18395236743E+01  0.81809707626E+01  0.18726407551E+02  0.00000000000E+00 0.  1.
         11    1    3    3    0    0 -0.80009173544E+01 -0.16529758466E+02 -0.19003192928E+02  0.26426670906E+02  0.51100000000E-03 0. -1.
        -11    1    3    3    0    0  0.14172192059E+00  0.20037778799E+02 -0.10280721748E+02  0.22521676319E+02  0.51100000000E-03 0.  1.
        -12    1    3    3    0    0 -0.88849441317E+01 -0.53475440070E+01  0.21102943914E+02  0.23513245224E+02  0.00000000000E+00 0.  1.
</event>
<event>
 7    1  0.1789107E-013  0.7246159E+02  0.7816164E-02  0.1226708E+00
        -11   -1    0    0    0    0  0.00000000000E+00  0.00000000000E+00  0.45593999997E+02  0.45594000000E+02  0.51100000000E-03 0. -1.
         11   -1    0    0    0    0 -0.00000000000E+00 -0.00000000000E+00 -0.45593999997E+02  0.45594000000E+02  0.51100000000E-03 0.  1.
    9900012    2    1    2    0    0 -0.16169211139E+01  0.18196970590E+02  0.41151311327E+01  0.72461588791E+02  0.70000024096E+02 0.  0.
        -12    1    1    2    0    0  0.16169211139E+01 -0.18196970590E+02 -0.41151311327E+01  0.18726411209E+02  0.00000000000E+00 0.  1.
         11    1    3    3    0    0 -0.29853522752E+02  0.32955521386E+01  0.25434434211E+00  0.30035948061E+02  0.51100000000E-03 0. -1.
        -11    1    3    3    0    0  0.82626754871E+01 -0.56955388537E+01 -0.64594852686E+01  0.11934652037E+02  0.51100000000E-03 0.  1.
        -12    1    3    3    0    0  0.19973926151E+02  0.20596957305E+02  0.10320272059E+02  0.30490988693E+02  0.00000000000E+00 0.  1.
</event>
<event>
 7    1  0.1789107E-013  0.7246154E+02  0.7816164E-02  0.1226708E+00
        -11   -1    0    0    0    0  0.00000000000E+00  0.00000000000E+00  0.45593999997E+02  0.45594000000E+02  0.51100000000E-03 0.  1.
         11   -1    0    0    0    0 -0.00000000000E+00 -0.00000000000E+00 -0.45593999997E+02  0.45594000000E+02  0.51100000000E-03 0. -1.
    9900012    2    1    2    0    0 -0.12727072468E+02  0.11898299999E+02 -0.68652953885E+01  0.72461542853E+02  0.69999964253E+02 0.  0.
        -12    1    1    2    0    0  0.12727072468E+02 -0.11898299999E+02  0.68652953885E+01  0.18726457147E+02  0.00000000000E+00 0.  1.
         11    1    3    3    0    0 -0.12864259365E+02  0.64900022247E+01 -0.23842578527E+02  0.27858173827E+02  0.51100000000E-03 0. -1.
        -11    1    3    3    0    0 -0.20039000446E+02 -0.10346022939E+01  0.81640967994E+01  0.21662973424E+02  0.51100000000E-03 0.  1.
        -12    1    3    3    0    0  0.20176187342E+02  0.64429000685E+01  0.88131863394E+01  0.22940395602E+02  0.00000000000E+00 0.  1.
</event>
<event>
 7    1  0.2347681E-013  0.7246160E+02  0.7816164E-02  0.1226708E+00
        -11   -1    0    0    0    0  0.00000000000E+00  0.00000000000E+00  0.45593999997E+02  0.45594000000E+02  0.51100000000E-03 0. -1.
         11   -1    0    0    0    0 -0.00000000000E+00 -0.00000000000E+00 -0.45593999997E+02  0.45594000000E+02  0.51100000000E-03 0.  1.
    9900012    2    1    2    0    0 -0.44990563613E+01 -0.15965998877E+02  0.86904287999E+01  0.72461596688E+02  0.70000034382E+02 0.  0.
        -12    1    1    2    0    0  0.44990563613E+01  0.15965998877E+02 -0.86904287999E+01  0.18726403312E+02  0.00000000000E+00 0.  1.
         11    1    3    3    0    0  0.70444431661E+01 -0.24827037274E+02  0.22793548053E+02  0.34431842711E+02  0.51100000000E-03 0. -1.
        -11    1    3    3    0    0 -0.49293452738E+01 -0.79712792469E+01 -0.17289150418E+02  0.19666073836E+02  0.51100000000E-03 0.  1.
        -12    1    3    3    0    0 -0.66141542536E+01  0.16832317644E+02  0.31860311648E+01  0.18363680141E+02  0.00000000000E+00 0.  1.
</event>
<event>
 7    1  0.1789107E-013  0.7246144E+02  0.7816164E-02  0.1226708E+00
        -11   -1    0    0    0    0  0.00000000000E+00  0.00000000000E+00  0.45593999997E+02  0.45594000000E+02  0.51100000000E-03 0. -1.
         11   -1    0    0    0    0 -0.00000000000E+00 -0.00000000000E+00 -0.45593999997E+02  0.45594000000E+02  0.51100000000E-03 0.  1.
    9900012    2    1    2    0    0  0.15429197701E+02  0.94450651245E+01  0.48388516930E+01  0.72461444454E+02  0.69999836070E+02 0.  0.
        -12    1    1    2    0    0 -0.15429197701E+02 -0.94450651245E+01 -0.48388516930E+01  0.18726555546E+02  0.00000000000E+00 0.  1.
         11    1    3    3    0    0 -0.12422821832E+01  0.36017149733E+02 -0.43450222735E+00  0.36041186612E+02  0.51100000000E-03 0. -1.
        -11    1    3    3    0    0  0.11303567095E+02 -0.33970939450E+01  0.44608451393E+01  0.12617845139E+02  0.51100000000E-03 0.  1.
        -12    1    3    3    0    0  0.53679127889E+01 -0.23174990664E+02  0.81250878106E+00  0.23802412703E+02  0.00000000000E+00 0.  1.
</event>
<event>
 7    1  0.2305919E-013  0.7246155E+02  0.7816164E-02  0.1226708E+00
        -11   -1    0    0    0    0  0.00000000000E+00  0.00000000000E+00  0.45593999997E+02  0.45594000000E+02  0.51100000000E-03 0. -1.
         11   -1    0    0    0    0 -0.00000000000E+00 -0.00000000000E+00 -0.45593999997E+02  0.45594000000E+02  0.51100000000E-03 0.  1.
    9900012    2    1    2    0    0 -0.42523208081E+01 -0.65681195062E+01  0.17013450481E+02  0.72461550166E+02  0.69999973779E+02 0.  0.
        -12    1    1    2    0    0  0.42523208081E+01  0.65681195062E+01 -0.17013450481E+02  0.18726449834E+02  0.00000000000E+00 0.  1.
         11    1    3    3    0    0  0.71319785384E+00 -0.19054367039E+02  0.27735331873E+02  0.33657483400E+02  0.51100000000E-03 0. -1.
        -11    1    3    3    0    0 -0.55013020488E+01  0.82604917738E+01  0.12064955465E+02  0.15622522178E+02  0.51100000000E-03 0.  1.
        -12    1    3    3    0    0  0.53578338687E+00  0.42257557586E+01 -0.22786836857E+02  0.23181544588E+02  0.00000000000E+00 0.  1.
</event>
<event>
 7    1  0.1789107E-013  0.7246164E+02  0.7816164E-02  0.1226708E+00
        -11   -1    0    0    0    0  0.00000000000E+00  0.00000000000E+00  0.45593999997E+02  0.45594000000E+02  0.51100000000E-03 0.  1.
         11   -1    0    0    0    0 -0.00000000000E+00 -0.00000000000E+00 -0.45593999997E+02  0.45594000000E+02  0.51100000000E-03 0. -1.
    9900012    2    1    2    0    0  0.66360102816E+01 -0.17086704821E+02  0.38320066297E+01  0.72461644537E+02  0.70000096715E+02 0.  0.
        -12    1    1    2    0    0 -0.66360102816E+01  0.17086704821E+02 -0.38320066297E+01  0.18726355463E+02  0.00000000000E+00 0.  1.
         11    1    3    3    0    0  0.34029826407E+01  0.43279261928E+01 -0.54769806015E+01  0.77658581466E+01  0.51100000000E-03 0. -1.
        -11    1    3    3    0    0 -0.47373648767E+01  0.18795822435E+02 -0.69562067262E+01  0.20594037469E+02  0.51100000000E-03 0.  1.
         12    1    3    3    0    0  0.79703925176E+01 -0.40210453449E+02  0.16265193957E+02  0.44101748922E+02  0.00000000000E+00 0. -1.
</event>
<event>
 7    1  0.1789107E-013  0.7246157E+02  0.7816164E-02  0.1226708E+00
        -11   -1    0    0    0    0  0.00000000000E+00  0.00000000000E+00  0.45593999997E+02  0.45594000000E+02  0.51100000000E-03 0.  1.
         11   -1    0    0    0    0 -0.00000000000E+00 -0.00000000000E+00 -0.45593999997E+02  0.45594000000E+02  0.51100000000E-03 0. -1.
    9900012    2    1    2    0    0 -0.15985485187E+02 -0.97530761117E+01  0.14466782880E+00  0.72461570573E+02  0.70000000364E+02 0.  0.
        -12    1    1    2    0    0  0.15985485187E+02  0.97530761117E+01 -0.14466782880E+00  0.18726429427E+02  0.00000000000E+00 0.  1.
         11    1    3    3    0    0  0.16606218244E+02 -0.23551060631E+02  0.10016421072E+02  0.30508156820E+02  0.51100000000E-03 0. -1.
        -11    1    3    3    0    0  0.87854939648E+00  0.63681038569E+01 -0.24136190939E+01  0.68665969130E+01  0.51100000000E-03 0.  1.
        -12    1    3    3    0    0 -0.33470252827E+02  0.74298806625E+01 -0.74581341496E+01  0.35086816840E+02  0.00000000000E+00 0.  1.
</event>
<event>
 7    1  0.1789107E-013  0.7246169E+02  0.7816164E-02  0.1226708E+00
        -11   -1    0    0    0    0  0.00000000000E+00  0.00000000000E+00  0.45593999997E+02  0.45594000000E+02  0.51100000000E-03 0.  1.
         11   -1    0    0    0    0 -0.00000000000E+00 -0.00000000000E+00 -0.45593999997E+02  0.45594000000E+02  0.51100000000E-03 0. -1.
    9900012    2    1    2    0    0  0.52722561012E+00  0.15305734299E+02 -0.10776426104E+02  0.72461686192E+02  0.70000150977E+02 0.  0.
        -12    1    1    2    0    0 -0.52722561012E+00 -0.15305734299E+02  0.10776426104E+02  0.18726313808E+02  0.00000000000E+00 0.  1.
         11    1    3    3    0    0 -0.19572980354E+01 -0.20516100869E+02 -0.10758419560E+02  0.23248333320E+02  0.51100000000E-03 0. -1.
        -11    1    3    3    0    0  0.41631995558E+01 -0.46697893153E+01  0.54785880255E+01  0.83158938067E+01  0.51100000000E-03 0.  1.
         12    1    3    3    0    0 -0.16786759102E+01  0.40491624483E+02 -0.54965945701E+01  0.40897459065E+02  0.00000000000E+00 0. -1.
</event>
<event>
 7    1  0.1789107E-013  0.7246152E+02  0.7816164E-02  0.1226708E+00
        -11   -1    0    0    0    0  0.00000000000E+00  0.00000000000E+00  0.45593999997E+02  0.45594000000E+02  0.51100000000E-03 0.  1.
         11   -1    0    0    0    0 -0.00000000000E+00 -0.00000000000E+00 -0.45593999997E+02  0.45594000000E+02  0.51100000000E-03 0. -1.
    9900012    2    1    2    0    0 -0.83402703079E+01  0.26646399317E+01 -0.16553564623E+02  0.72461523649E+02  0.69999939236E+02 0.  0.
        -12    1    1    2    0    0  0.83402703079E+01 -0.26646399317E+01  0.16553564623E+02  0.18726476351E+02  0.00000000000E+00 0.  1.
         11    1    3    3    0    0  0.68599244149E+00  0.82781215295E+01  0.23829499853E+01  0.86415468858E+01  0.51100000000E-03 0. -1.
        -11    1    3    3    0    0  0.36311650931E+01  0.73364223583E+01  0.19600122842E+02  0.21240839641E+02  0.51100000000E-03 0.  1.
         12    1    3    3    0    0 -0.12657427843E+02 -0.12949903956E+02 -0.38536637451E+02  0.42579137122E+02  0.00000000000E+00 0. -1.
</event>
<event>
 7    1  0.1789107E-013  0.7246153E+02  0.7816164E-02  0.1226708E+00
        -11   -1    0    0    0    0  0.00000000000E+00  0.00000000000E+00  0.45593999997E+02  0.45594000000E+02  0.51100000000E-03 0. -1.
         11   -1    0    0    0    0 -0.00000000000E+00 -0.00000000000E+00 -0.45593999997E+02  0.45594000000E+02  0.51100000000E-03 0.  1.
    9900012    2    1    2    0    0  0.13849415880E+02 -0.10141616762E+02  0.74847802235E+01  0.72461530878E+02  0.69999948653E+02 0.  0.
        -12    1    1    2    0    0 -0.13849415880E+02  0.10141616762E+02 -0.74847802235E+01  0.18726469122E+02  0.00000000000E+00 0.  1.
         11    1    3    3    0    0 -0.11449569282E+02 -0.21708716826E+02 -0.11327599217E+02  0.27031010474E+02  0.51100000000E-03 0. -1.
        -11    1    3    3    0    0 -0.30071349072E+01  0.19732798873E+01 -0.57246870403E+01  0.67608236062E+01  0.51100000000E-03 0.  1.
        -12    1    3    3    0    0  0.28306120070E+02  0.95938201766E+01  0.24537066481E+02  0.38669696798E+02  0.00000000000E+00 0.  1.
</event>
<event>
 7    1  0.1789107E-013  0.7246134E+02  0.7816164E-02  0.1226709E+00
        -11   -1    0    0    0    0  0.00000000000E+00  0.00000000000E+00  0.45593999997E+02  0.45594000000E+02  0.51100000000E-03 0.  1.
         11   -1    0    0    0    0 -0.00000000000E+00 -0.00000000000E+00 -0.45593999997E+02  0.45594000000E+02  0.51100000000E-03 0. -1.
    9900012    2    1    2    0    0  0.10575302094E+02  0.12492234088E+02 -0.90991700387E+01  0.72461339265E+02  0.69999699041E+02 0.  0.
        -12    1    1    2    0    0 -0.10575302094E+02 -0.12492234088E+02  0.90991700387E+01  0.18726660735E+02  0.00000000000E+00 0.  1.
         11    1    3    3    0    0 -0.82355733354E+01  0.36327175167E+01  0.39542456303E+01  0.98314476800E+01  0.51100000000E-03 0. -1.
        -11    1    3    3    0    0  0.19075120530E+02 -0.66859450180E+01  0.18533680348E+02  0.27423701273E+02  0.51100000000E-03 0.  1.
         12    1    3    3    0    0 -0.26424510032E+00  0.15545461589E+02 -0.31587096017E+02  0.35206190312E+02  0.00000000000E+00 0. -1.
</event>
<event>
 7    1  0.1789107E-013  0.7246158E+02  0.7816164E-02  0.1226708E+00
        -11   -1    0    0    0    0  0.00000000000E+00  0.00000000000E+00  0.45593999997E+02  0.45594000000E+02  0.51100000000E-03 0.  1.
         11   -1    0    0    0    0 -0.00000000000E+00 -0.00000000000E+00 -0.45593999997E+02  0.45594000000E+02  0.51100000000E-03 0. -1.
    9900012    2    1    2    0    0 -0.14266639962E+02 -0.11456000904E+02 -0.39876953196E+01  0.72461583192E+02  0.70000016801E+02 0.  0.
        -12    1    1    2    0    0  0.14266639962E+02  0.11456000904E+02  0.39876953196E+01  0.18726416808E+02  0.00000000000E+00 0.  1.
         11    1    3    3    0    0  0.42662970780E+01 -0.26440158848E+01 -0.36447217441E+01  0.62029112206E+01  0.51100000000E-03 0. -1.
        -11    1    3    3    0    0  0.23226999402E+02 -0.27903005840E+01  0.43894479488E+01  0.23802237964E+02  0.51100000000E-03 0.  1.
        -12    1    3    3    0    0 -0.41759936442E+02 -0.60216844354E+01 -0.47324215242E+01  0.42456434007E+02  0.00000000000E+00 0.  1.
</event>
<event>
 7    1  0.1789107E-013  0.7246159E+02  0.7816164E-02  0.1226708E+00
        -11   -1    0    0    0    0  0.00000000000E+00  0.00000000000E+00  0.45593999997E+02  0.45594000000E+02  0.51100000000E-03 0. -1.
         11   -1    0    0    0    0 -0.00000000000E+00 -0.00000000000E+00 -0.45593999997E+02  0.45594000000E+02  0.51100000000E-03 0.  1.
    9900012    2    1    2    0    0  0.17988722443E+02  0.30616458211E+01 -0.42084205079E+01  0.72461585142E+02  0.70000019341E+02 0.  0.
        -12    1    1    2    0    0 -0.17988722443E+02 -0.30616458211E+01  0.42084205079E+01  0.18726414858E+02  0.00000000000E+00 0.  1.
         11    1    3    3    0    0  0.21203333281E+02  0.13063321407E+02  0.12547623936E+02  0.27886817229E+02  0.51100000000E-03 0. -1.
        -11    1    3    3    0    0  0.11394543269E+02  0.11566945175E+01 -0.22557082646E+02  0.25298133059E+02  0.51100000000E-03 0.  1.
         12    1    3    3    0    0 -0.14609154107E+02 -0.11158370103E+02  0.58010382015E+01  0.19276634854E+02  0.00000000000E+00 0. -1.
</event>
<event>
 7    1  0.1789107E-013  0.7246156E+02  0.7816164E-02  0.1226708E+00
        -11   -1    0    0    0    0  0.00000000000E+00  0.00000000000E+00  0.45593999997E+02  0.45594000000E+02  0.51100000000E-03 0.  1.
         11   -1    0    0    0    0 -0.00000000000E+00 -0.00000000000E+00 -0.45593999997E+02  0.45594000000E+02  0.51100000000E-03 0. -1.
    9900012    2    1    2    0    0  0.98036802775E+01  0.13508623654E+02  0.84902660288E+01  0.72461556738E+02  0.69999982340E+02 0.  0.
        -12    1    1    2    0    0 -0.98036802775E+01 -0.13508623654E+02 -0.84902660288E+01  0.18726443262E+02  0.00000000000E+00 0.  1.
         11    1    3    3    0    0  0.47974152654E+01 -0.20008036538E+01 -0.10935172370E+02  0.12107700174E+02  0.51100000000E-03 0. -1.
        -11    1    3    3    0    0  0.33105654299E+01  0.17894826572E+02 -0.16346696225E+02  0.24462198169E+02  0.51100000000E-03 0.  1.
         12    1    3    3    0    0  0.16956995821E+01 -0.23853992641E+01  0.35772134624E+02  0.35891658394E+02  0.00000000000E+00 0. -1.
</event>
<event>
 7    1  0.1789107E-013  0.7246156E+02  0.7816164E-02  0.1226708E+00
        -11   -1    0    0    0    0  0.00000000000E+00  0.00000000000E+00  0.45593999997E+02  0.45594000000E+02  0.51100000000E-03 0.  1.
         11   -1    0    0    0    0 -0.00000000000E+00 -0.00000000000E+00 -0.45593999997E+02  0.45594000000E+02  0.51100000000E-03 0. -1.
    9900012    2    1    2    0    0 -0.15310900834E+02 -0.36838647177E+01  0.10133364893E+02  0.72461558062E+02  0.69999984065E+02 0.  0.
        -12    1    1    2    0    0  0.15310900834E+02  0.36838647177E+01 -0.10133364893E+02  0.18726441938E+02  0.00000000000E+00 0.  1.
         11    1    3    3    0    0  0.34954521570E+01 -0.57204221654E+01  0.16210690054E+01  0.68970486814E+01  0.51100000000E-03 0. -1.
        -11    1    3    3    0    0  0.39034664205E+01  0.27434277361E+02  0.14014419217E+02  0.31052867350E+02  0.51100000000E-03 0.  1.
         12    1    3    3    0    0 -0.22709819411E+02 -0.25397719913E+02 -0.55021233294E+01  0.34511642030E+02  0.00000000000E+00 0. -1.
</event>
<event>
 7    1  0.1789107E-013  0.7246167E+02  0.7816164E-02  0.1226708E+00
        -11   -1    0    0    0    0  0.00000000000E+00  0.00000000000E+00  0.45593999997E+02  0.45594000000E+02  0.51100000000E-03 0. -1.
         11   -1    0    0    0    0 -0.00000000000E+00 -0.00000000000E+00 -0.45593999997E+02  0.45594000000E+02  0.51100000000E-03 0.  1.
    9900012    2    1    2    0    0  0.14485087393E+02  0.19286821643E+01  0.11710590726E+02  0.72461668089E+02  0.70000127396E+02 0.  0.
        -12    1    1    2    0    0 -0.14485087393E+02 -0.19286821643E+01 -0.11710590726E+02  0.18726331911E+02  0.00000000000E+00 0.  1.
         11    1    3    3    0    0 -0.83783141957E+01  0.15189717662E+02  0.80650522503E+01  0.19130309445E+02  0.51100000000E-03 0. -1.
        -11    1    3    3    0    0  0.26698388071E+02  0.94255907818E+01  0.89975510006E+01  0.29708611739E+02  0.51100000000E-03 0.  1.
         12    1    3    3    0    0 -0.38349864829E+01 -0.22686626279E+02 -0.53520125248E+01  0.23622746905E+02  0.00000000000E+00 0. -1.
</event>
<event>
 7    1  0.1789107E-013  0.7246152E+02  0.7816164E-02  0.1226708E+00
        -11   -1    0    0    0    0  0.00000000000E+00  0.00000000000E+00  0.45593999997E+02  0.45594000000E+02  0.51100000000E-03 0. -1.
         11   -1    0    0    0    0 -0.00000000000E+00 -0.00000000000E+00 -0.45593999997E+02  0.45594000000E+02  0.51100000000E-03 0.  1.
    9900012    2    1    2    0    0 -0.15964090441E+02 -0.83554215875E+01 -0.51005732773E+01  0.72461518716E+02  0.69999932810E+02 0.  0.
        -12    1    1    2    0    0  0.15964090441E+02  0.83554215875E+01  0.51005732773E+01  0.18726481284E+02  0.00000000000E+00 0.  1.
         11    1    3    3    0    0  0.40819469018E+01  0.17690055475E+02 -0.61255248935E+01  0.19160438636E+02  0.51100000000E-03 0. -1.
        -11    1    3    3    0    0 -0.14392993304E+02  0.40813355055E+01  0.13553491320E+02  0.20186943379E+02  0.51100000000E-03 0.  1.
        -12    1    3    3    0    0 -0.56530440388E+01 -0.30126812568E+02 -0.12528539704E+02  0.33114136702E+02  0.00000000000E+00 0.  1.
</event>
<event>
 7    1  0.1789107E-013  0.7246162E+02  0.7816164E-02  0.1226708E+00
        -11   -1    0    0    0    0  0.00000000000E+00  0.00000000000E+00  0.45593999997E+02  0.45594000000E+02  0.51100000000E-03 0. -1.
         11   -1    0    0    0    0 -0.00000000000E+00 -0.00000000000E+00 -0.45593999997E+02  0.45594000000E+02  0.51100000000E-03 0.  1.
    9900012    2    1    2    0    0 -0.13019014321E+02 -0.12291145332E+02  0.54872743461E+01  0.72461623756E+02  0.70000069644E+02 0.  0.
        -12    1    1    2    0    0  0.13019014321E+02  0.12291145332E+02 -0.54872743461E+01  0.18726376244E+02  0.00000000000E+00 0.  1.
         11    1    3    3    0    0  0.65759328143E+01  0.37222568920E+01 -0.68382190907E+01  0.10191139747E+02  0.51100000000E-03 0. -1.
        -11    1    3    3    0    0  0.27310802702E+00 -0.15815691775E+02 -0.19279922617E+02  0.24938446437E+02  0.51100000000E-03 0.  1.
         12    1    3    3    0    0 -0.19868055163E+02 -0.19771044909E+00  0.31605416054E+02  0.37332037573E+02  0.00000000000E+00 0. -1.
</event>
<event>
 7    1  0.1789107E-013  0.7246162E+02  0.7816164E-02  0.1226708E+00
        -11   -1    0    0    0    0  0.00000000000E+00  0.00000000000E+00  0.45593999997E+02  0.45594000000E+02  0.51100000000E-03 0.  1.
         11   -1    0    0    0    0 -0.00000000000E+00 -0.00000000000E+00 -0.45593999997E+02  0.45594000000E+02  0.51100000000E-03 0. -1.
    9900012    2    1    2    0    0  0.10490420003E+02  0.13444326724E+01 -0.15453835425E+02  0.72461616463E+02  0.70000060143E+02 0.  0.
        -12    1    1    2    0    0 -0.10490420003E+02 -0.13444326724E+01  0.15453835425E+02  0.18726383537E+02  0.00000000000E+00 0.  1.
         11    1    3    3    0    0 -0.10787881930E+02 -0.36496315340E+01  0.14773224233E+02  0.18653320385E+02  0.51100000000E-03 0. -1.
        -11    1    3    3    0    0  0.22035654274E+02 -0.11459582318E+02 -0.79005658503E+01  0.26063595823E+02  0.51100000000E-03 0.  1.
         12    1    3    3    0    0 -0.75735234113E+00  0.16453646524E+02 -0.22326493808E+02  0.27744700255E+02  0.00000000000E+00 0. -1.
</event>
<event>
 7    1  0.1789107E-013  0.7246106E+02  0.7816164E-02  0.1226709E+00
        -11   -1    0    0    0    0  0.00000000000E+00  0.00000000000E+00  0.45593999997E+02  0.45594000000E+02  0.51100000000E-03 0. -1.
         11   -1    0    0    0    0 -0.00000000000E+00 -0.00000000000E+00 -0.45593999997E+02  0.45594000000E+02  0.51100000000E-03 0.  1.
    9900012    2    1    2    0    0 -0.24721523166E+01  0.16835718028E+02  0.78195591313E+01  0.72461055679E+02  0.69999329615E+02 0.  0.
        -12    1    1    2    0    0  0.24721523166E+01 -0.16835718028E+02 -0.78195591313E+01  0.18726944321E+02  0.00000000000E+00 0.  1.
         11    1    3    3    0    0 -0.11138422825E+02  0.97399298902E+00  0.41161016152E+01  0.11914504528E+02  0.51100000000E-03 0. -1.
        -11    1    3    3    0    0 -0.61350995385E+01  0.10566881412E+02 -0.24996693439E+02  0.27823247694E+02  0.51100000000E-03 0.  1.
         12    1    3    3    0    0  0.14801370047E+02  0.52948436273E+01  0.28700150955E+02  0.32723303457E+02  0.00000000000E+00 0. -1.
</event>
<event>
 7    1  0.1789107E-013  0.7246157E+02  0.7816164E-02  0.1226708E+00
        -11   -1    0    0    0    0  0.00000000000E+00  0.00000000000E+00  0.45593999997E+02  0.45594000000E+02  0.51100000000E-03 0. -1.
         11   -1    0    0    0    0 -0.00000000000E+00 -0.00000000000E+00 -0.45593999997E+02  0.45594000000E+02  0.51100000000E-03 0.  1.
    9900012    2    1    2    0    0 -0.64506091927E+01 -0.17254474665E+02  0.33692433562E+01  0.72461573333E+02  0.70000003959E+02 0.  0.
        -12    1    1    2    0    0  0.64506091927E+01  0.17254474665E+02 -0.33692433562E+01  0.18726426667E+02  0.00000000000E+00 0.  1.
         11    1    3    3    0    0  0.18563219925E+01 -0.26288487839E+01  0.12483035265E+02  0.12891196490E+02  0.51100000000E-03 0. -1.
        -11    1    3    3    0    0 -0.15184167247E+02  0.15879196581E+00  0.20650395401E+02  0.25632459507E+02  0.51100000000E-03 0.  1.
        -12    1    3    3    0    0  0.68772360621E+01 -0.14784417847E+02 -0.29764187310E+02  0.33937917336E+02  0.00000000000E+00 0.  1.
</event>
<event>
 7    1  0.1789107E-013  0.7246160E+02  0.7816164E-02  0.1226708E+00
        -11   -1    0    0    0    0  0.00000000000E+00  0.00000000000E+00  0.45593999997E+02  0.45594000000E+02  0.51100000000E-03 0.  1.
         11   -1    0    0    0    0 -0.00000000000E+00 -0.00000000000E+00 -0.45593999997E+02  0.45594000000E+02  0.51100000000E-03 0. -1.
    9900012    2    1    2    0    0  0.15841819909E+01 -0.14718559556E+02 -0.11468753558E+02  0.72461603226E+02  0.70000042899E+02 0.  0.
        -12    1    1    2    0    0 -0.15841819909E+01  0.14718559556E+02  0.11468753558E+02  0.18726396774E+02  0.00000000000E+00 0.  1.
         11    1    3    3    0    0  0.13792397053E+01 -0.17498193475E+02 -0.20895707366E+02  0.27289552280E+02  0.51100000000E-03 0. -1.
        -11    1    3    3    0    0 -0.76390676409E+01 -0.18565820381E+02 -0.11137865423E+01  0.20106853597E+02  0.51100000000E-03 0.  1.
        -12    1    3    3    0    0  0.78440099264E+01  0.21345454301E+02  0.10540740350E+02  0.25065197349E+02  0.00000000000E+00 0.  1.
</event>
<event>
 7    1  0.1789107E-013  0.7246156E+02  0.7816164E-02  0.1226708E+00
        -11   -1    0    0    0    0  0.00000000000E+00  0.00000000000E+00  0.45593999997E+02  0.45594000000E+02  0.51100000000E-03 0.  1.
         11   -1    0    0    0    0 -0.00000000000E+00 -0.00000000000E+00 -0.45593999997E+02  0.45594000000E+02  0.51100000000E-03 0. -1.
    9900012    2    1    2    0    0 -0.17664952840E+02  0.52309901404E+01  0.33564742795E+01  0.72461555162E+02  0.69999980287E+02 0.  0.
        -12    1    1    2    0    0  0.17664952840E+02 -0.52309901404E+01 -0.33564742795E+01  0.18726444838E+02  0.00000000000E+00 0.  1.
         11    1    3    3    0    0 -0.33570244345E+01 -0.18021323017E+02 -0.13248787658E+00  0.18331809775E+02  0.51100000000E-03 0. -1.
        -11    1    3    3    0    0  0.48397163636E+01  0.43084816031E+01  0.21017263183E+02  0.21993435843E+02  0.51100000000E-03 0.  1.
         12    1    3    3    0    0 -0.19147644769E+02  0.18943831554E+02 -0.17528301027E+02  0.32136309543E+02  0.00000000000E+00 0. -1.
</event>
<event>
 7    1  0.1789107E-013  0.7246152E+02  0.7816164E-02  0.1226708E+00
        -11   -1    0    0    0    0  0.00000000000E+00  0.00000000000E+00  0.45593999997E+02  0.45594000000E+02  0.51100000000E-03 0. -1.
         11   -1    0    0    0    0 -0.00000000000E+00 -0.00000000000E+00 -0.45593999997E+02  0.45594000000E+02  0.51100000000E-03 0.  1.
    9900012    2    1    2    0    0  0.95985226526E+01  0.70762124247E+01 -0.14438714939E+02  0.72461523864E+02  0.69999939516E+02 0.  0.
        -12    1    1    2    0    0 -0.95985226526E+01 -0.70762124247E+01  0.14438714939E+02  0.18726476136E+02  0.00000000000E+00 0.  1.
         11    1    3    3    0    0  0.65374912318E+01 -0.79573678483E+01 -0.36010040455E+02  0.37453724895E+02  0.51100000000E-03 0.  1.
        -11    1    3    3    0    0  0.29400934039E+01  0.10475633784E+02 -0.19455633311E+01  0.11052975588E+02  0.51100000000E-03 0. -1.
         12    1    3    3    0    0  0.12093801687E+00  0.45579464886E+01  0.23516888847E+02  0.23954823382E+02  0.00000000000E+00 0. -1.
</event>
<event>
 7    1  0.1789107E-013  0.7246164E+02  0.7816164E-02  0.1226708E+00
        -11   -1    0    0    0    0  0.00000000000E+00  0.00000000000E+00  0.45593999997E+02  0.45594000000E+02  0.51100000000E-03 0. -1.
         11   -1    0    0    0    0 -0.00000000000E+00 -0.00000000000E+00 -0.45593999997E+02  0.45594000000E+02  0.51100000000E-03 0.  1.
    9900012    2    1    2    0    0  0.65107860612E+01  0.13901896124E+02 -0.10724898104E+02  0.72461641830E+02  0.70000093188E+02 0.  0.
        -12    1    1    2    0    0 -0.65107860612E+01 -0.13901896124E+02  0.10724898104E+02  0.18726358170E+02  0.00000000000E+00 0.  1.
         11    1    3    3    0    0 -0.71667617562E+01  0.31851359510E+02 -0.96594268797E+01  0.34046675382E+02  0.51100000000E-03 0. -1.
        -11    1    3    3    0    0  0.98181138187E+00  0.65335583534E+01  0.70546965111E+01  0.96654064307E+01  0.51100000000E-03 0.  1.
        -12    1    3    3    0    0  0.12695736435E+02 -0.24483021739E+02 -0.81201677354E+01  0.28749560017E+02  0.00000000000E+00 0.  1.
</event>
<event>
 7    1  0.1789107E-013  0.7246163E+02  0.7816164E-02  0.1226708E+00
        -11   -1    0    0    0    0  0.00000000000E+00  0.00000000000E+00  0.45593999997E+02  0.45594000000E+02  0.51100000000E-03 0. -1.
         11   -1    0    0    0    0 -0.00000000000E+00 -0.00000000000E+00 -0.45593999997E+02  0.45594000000E+02  0.51100000000E-03 0.  1.
    9900012    2    1    2    0    0  0.62775410237E+01  0.12061430984E+02  0.12876002068E+02  0.72461626407E+02  0.70000073097E+02 0.  0.
        -12    1    1    2    0    0 -0.62775410237E+01 -0.12061430984E+02 -0.12876002068E+02  0.18726373593E+02  0.00000000000E+00 0.  1.
         11    1    3    3    0    0 -0.91665387707E+01  0.49907389548E+01  0.50012737705E+01  0.11573489013E+02  0.51100000000E-03 0. -1.
        -11    1    3    3    0    0 -0.21215206451E+02  0.27131350454E+01 -0.46806641621E+01  0.21894170544E+02  0.51100000000E-03 0.  1.
         12    1    3    3    0    0  0.36659286245E+02  0.43575569840E+01  0.12555392460E+02  0.38993966850E+02  0.00000000000E+00 0. -1.
</event>
<event>
 7    1  0.1789107E-013  0.7246140E+02  0.7816164E-02  0.1226708E+00
        -11   -1    0    0    0    0  0.00000000000E+00  0.00000000000E+00  0.45593999997E+02  0.45594000000E+02  0.51100000000E-03 0.  1.
         11   -1    0    0    0    0 -0.00000000000E+00 -0.00000000000E+00 -0.45593999997E+02  0.45594000000E+02  0.51100000000E-03 0. -1.
    9900012    2    1    2    0    0  0.36907790245E+01 -0.18239301853E+02  0.20956255480E+01  0.72461397843E+02  0.69999775350E+02 0.  0.
        -12    1    1    2    0    0 -0.36907790245E+01  0.18239301853E+02 -0.20956255480E+01  0.18726602157E+02  0.00000000000E+00 0.  1.
         11    1    3    3    0    0  0.15579047282E+02  0.46124334816E+01  0.40312792055E+01  0.16740145433E+02  0.51100000000E-03 0. -1.
        -11    1    3    3    0    0  0.58456049961E+01  0.13315508630E+02  0.38088971493E+01  0.15032683247E+02  0.51100000000E-03 0.  1.
         12    1    3    3    0    0 -0.17733873254E+02 -0.36167243965E+02 -0.57445508068E+01  0.40688569163E+02  0.00000000000E+00 0. -1.
</event>
<event>
 7    1  0.1789107E-013  0.7246157E+02  0.7816164E-02  0.1226708E+00
        -11   -1    0    0    0    0  0.00000000000E+00  0.00000000000E+00  0.45593999997E+02  0.45594000000E+02  0.51100000000E-03 0.  1.
         11   -1    0    0    0    0 -0.00000000000E+00 -0.00000000000E+00 -0.45593999997E+02  0.45594000000E+02  0.51100000000E-03 0. -1.
    9900012    2    1    2    0    0 -0.13187803842E+01 -0.17516371895E+02 -0.64897254154E+01  0.72461574766E+02  0.70000005825E+02 0.  0.
        -12    1    1    2    0    0  0.13187803842E+01  0.17516371895E+02  0.64897254154E+01  0.18726425234E+02  0.00000000000E+00 0.  1.
         11    1    3    3    0    0 -0.16321893793E+02 -0.16032374051E+02  0.34756863371E+01  0.23141340291E+02  0.51100000000E-03 0. -1.
        -11    1    3    3    0    0  0.21117246338E+02 -0.19182833345E+02 -0.10976017541E+02  0.30567828666E+02  0.51100000000E-03 0.  1.
         12    1    3    3    0    0 -0.61141329285E+01  0.17698835501E+02  0.10106057888E+01  0.18752405809E+02  0.00000000000E+00 0. -1.
</event>
<event>
 7    1  0.1789107E-013  0.7246146E+02  0.7816164E-02  0.1226708E+00
        -11   -1    0    0    0    0  0.00000000000E+00  0.00000000000E+00  0.45593999997E+02  0.45594000000E+02  0.51100000000E-03 0.  1.
         11   -1    0    0    0    0 -0.00000000000E+00 -0.00000000000E+00 -0.45593999997E+02  0.45594000000E+02  0.51100000000E-03 0. -1.
    9900012    2    1    2    0    0  0.15788239080E+02 -0.13860521670E+00 -0.10069532689E+02  0.72461462861E+02  0.69999860048E+02 0.  0.
        -12    1    1    2    0    0 -0.15788239080E+02  0.13860521670E+00  0.10069532689E+02  0.18726537139E+02  0.00000000000E+00 0.  1.
         11    1    3    3    0    0 -0.31772710905E+01 -0.10804255746E+02 -0.14536208926E+02  0.18388267020E+02  0.51100000000E-03 0. -1.
        -11    1    3    3    0    0 -0.60251447435E+01 -0.15139018402E+01  0.20882978019E+02  0.21787451415E+02  0.51100000000E-03 0.  1.
         12    1    3    3    0    0  0.24990654914E+02  0.12179552369E+02 -0.16416301781E+02  0.32285744426E+02  0.00000000000E+00 0. -1.
</event>
<event>
 7    1  0.1789107E-013  0.7246136E+02  0.7816164E-02  0.1226709E+00
        -11   -1    0    0    0    0  0.00000000000E+00  0.00000000000E+00  0.45593999997E+02  0.45594000000E+02  0.51100000000E-03 0.  1.
         11   -1    0    0    0    0 -0.00000000000E+00 -0.00000000000E+00 -0.45593999997E+02  0.45594000000E+02  0.51100000000E-03 0. -1.
    9900012    2    1    2    0    0 -0.40426531231E+01 -0.18285055776E+02  0.25349206319E-01  0.72461362513E+02  0.69999729326E+02 0.  0.
        -12    1    1    2    0    0  0.40426531231E+01  0.18285055776E+02 -0.25349206319E-01  0.18726637487E+02  0.00000000000E+00 0.  1.
         11    1    3    3    0    0  0.10042203447E+02 -0.27179080542E+01  0.83972663444E+01  0.13369628139E+02  0.51100000000E-03 0. -1.
        -11    1    3    3    0    0 -0.49610989870E+01 -0.13490302790E+02  0.22574239813E+02  0.26761858603E+02  0.51100000000E-03 0.  1.
         12    1    3    3    0    0 -0.91237575828E+01 -0.20768449318E+01 -0.30946156951E+02  0.32329875770E+02  0.00000000000E+00 0. -1.
</event>
<event>
 7    1  0.1789107E-013  0.7246152E+02  0.7816164E-02  0.1226708E+00
        -11   -1    0    0    0    0  0.00000000000E+00  0.00000000000E+00  0.45593999997E+02  0.45594000000E+02  0.51100000000E-03 0. -1.
         11   -1    0    0    0    0 -0.00000000000E+00 -0.00000000000E+00 -0.45593999997E+02  0.45594000000E+02  0.51100000000E-03 0.  1.
    9900012    2    1    2    0    0 -0.62951367193E+01 -0.58524362346E+01  0.16637347087E+02  0.72461519437E+02  0.69999933748E+02 0.  0.
        -12    1    1    2    0    0  0.62951367193E+01  0.58524362346E+01 -0.16637347087E+02  0.18726480563E+02  0.00000000000E+00 0.  1.
         11    1    3    3    0    0  0.18999093875E+02 -0.11972275653E+02  0.15541889764E+02  0.27310278103E+02  0.51100000000E-03 0. -1.
        -11    1    3    3    0    0  0.79267056798E+01  0.21478016089E+01  0.74585942059E+01  0.11093977757E+02  0.51100000000E-03 0.  1.
        -12    1    3    3    0    0 -0.33220936274E+02  0.39720378100E+01 -0.63631368826E+01  0.34057263576E+02  0.00000000000E+00 0.  1.
</event>
<event>
 7    1  0.1789107E-013  0.7246159E+02  0.7816164E-02  0.1226708E+00
        -11   -1    0    0    0    0  0.00000000000E+00  0.00000000000E+00  0.45593999997E+02  0.45594000000E+02  0.51100000000E-03 0.  1.
         11   -1    0    0    0    0 -0.00000000000E+00 -0.00000000000E+00 -0.45593999997E+02  0.45594000000E+02  0.51100000000E-03 0. -1.
    9900012    2    1    2    0    0  0.16785542910E+02  0.93067064718E+00  0.82497170592E+01  0.72461590035E+02  0.70000025715E+02 0.  0.
        -12    1    1    2    0    0 -0.16785542910E+02 -0.93067064718E+00 -0.82497170592E+01  0.18726409965E+02  0.00000000000E+00 0.  1.
         11    1    3    3    0    0  0.71267574753E+01 -0.15663804915E+02 -0.41557050421E+01  0.17703540357E+02  0.51100000000E-03 0. -1.
        -11    1    3    3    0    0 -0.78738897835E+01 -0.72076227416E+01 -0.12260883210E+02  0.16256605527E+02  0.51100000000E-03 0.  1.
         12    1    3    3    0    0  0.17532675218E+02  0.23802098304E+02  0.24666305311E+02  0.38501444150E+02  0.00000000000E+00 0. -1.
</event>
<event>
 7    1  0.1789107E-013  0.7246158E+02  0.7816164E-02  0.1226708E+00
        -11   -1    0    0    0    0  0.00000000000E+00  0.00000000000E+00  0.45593999997E+02  0.45594000000E+02  0.51100000000E-03 0. -1.
         11   -1    0    0    0    0 -0.00000000000E+00 -0.00000000000E+00 -0.45593999997E+02  0.45594000000E+02  0.51100000000E-03 0.  1.
    9900012    2    1    2    0    0 -0.40694834862E+01 -0.47763982069E+01  0.17643814299E+02  0.72461578594E+02  0.70000010811E+02 0.  0.
        -12    1    1    2    0    0  0.40694834862E+01  0.47763982069E+01 -0.17643814299E+02  0.18726421406E+02  0.00000000000E+00 0.  1.
         11    1    3    3    0    0  0.59253643272E+01 -0.71737854123E+01  0.11431697866E+02  0.14739635542E+02  0.51100000000E-03 0. -1.
        -11    1    3    3    0    0 -0.17012225422E+02 -0.17272101985E+02 -0.14549411193E+02  0.28274134595E+02  0.51100000000E-03 0.  1.
         12    1    3    3    0    0  0.70173776090E+01  0.19669489190E+02  0.20761527625E+02  0.29447808456E+02  0.00000000000E+00 0. -1.
</event>
<event>
 7    1  0.1789107E-013  0.7246184E+02  0.7816164E-02  0.1226707E+00
        -11   -1    0    0    0    0  0.00000000000E+00  0.00000000000E+00  0.45593999997E+02  0.45594000000E+02  0.51100000000E-03 0.  1.
         11   -1    0    0    0    0 -0.00000000000E+00 -0.00000000000E+00 -0.45593999997E+02  0.45594000000E+02  0.51100000000E-03 0. -1.
    9900012    2    1    2    0    0 -0.14071493993E+02  0.12340681251E+02 -0.60794919790E+00  0.72461842916E+02  0.70000355139E+02 0.  0.
        -12    1    1    2    0    0  0.14071493993E+02 -0.12340681251E+02  0.60794919790E+00  0.18726157084E+02  0.00000000000E+00 0.  1.
         11    1    3    3    0    0 -0.41735547962E+01 -0.85470528383E+01 -0.50667316149E+01  0.10776940260E+02  0.51100000000E-03 0. -1.
        -11    1    3    3    0    0 -0.21832082947E+02  0.12148045243E+02 -0.20736244288E+02  0.32468549035E+02  0.51100000000E-03 0.  1.
        -12    1    3    3    0    0  0.11934143751E+02  0.87396888462E+01  0.25195026705E+02  0.29216353620E+02  0.00000000000E+00 0.  1.
</event>
<event>
 7    1  0.1789107E-013  0.7246157E+02  0.7816164E-02  0.1226708E+00
        -11   -1    0    0    0    0  0.00000000000E+00  0.00000000000E+00  0.45593999997E+02  0.45594000000E+02  0.51100000000E-03 0. -1.
         11   -1    0    0    0    0 -0.00000000000E+00 -0.00000000000E+00 -0.45593999997E+02  0.45594000000E+02  0.51100000000E-03 0.  1.
    9900012    2    1    2    0    0 -0.24492139171E+01 -0.18239151342E+02 -0.34661205911E+01  0.72461567279E+02  0.69999996072E+02 0.  0.
        -12    1    1    2    0    0  0.24492139171E+01  0.18239151342E+02  0.34661205911E+01  0.18726432721E+02  0.00000000000E+00 0.  1.
         11    1    3    3    0    0  0.42772406121E+01  0.99450894963E+01 -0.28227333425E+01  0.11187824459E+02  0.51100000000E-03 0. -1.
        -11    1    3    3    0    0 -0.63512423245E+01  0.15752264247E+02  0.27463525487E+01  0.17205073686E+02  0.51100000000E-03 0.  1.
         12    1    3    3    0    0 -0.37521220471E+00 -0.43936505085E+02 -0.33897397973E+01  0.44068669134E+02  0.00000000000E+00 0. -1.
</event>
<event>
 7    1  0.3096061E-013  0.7246149E+02  0.7816164E-02  0.1226708E+00
        -11   -1    0    0    0    0  0.00000000000E+00  0.00000000000E+00  0.45593999997E+02  0.45594000000E+02  0.51100000000E-03 0. -1.
         11   -1    0    0    0    0 -0.00000000000E+00 -0.00000000000E+00 -0.45593999997E+02  0.45594000000E+02  0.51100000000E-03 0.  1.
    9900012    2    1    2    0    0 -0.85552468430E+00  0.12029010337E+02  0.14326655691E+02  0.72461492705E+02  0.69999898926E+02 0.  0.
        -12    1    1    2    0    0  0.85552468430E+00 -0.12029010337E+02 -0.14326655691E+02  0.18726507295E+02  0.00000000000E+00 0.  1.
         11    1    3    3    0    0  0.46102267530E+01  0.67177898411E+01  0.38860011472E+02  0.39704954136E+02  0.51100000000E-03 0. -1.
        -11    1    3    3    0    0 -0.11707669495E+01 -0.61683545708E+01 -0.11888888219E+01  0.63900508803E+01  0.51100000000E-03 0.  1.
        -12    1    3    3    0    0 -0.42949844878E+01  0.11479575067E+02 -0.23344466959E+02  0.26366487689E+02  0.00000000000E+00 0.  1.
</event>
<event>
 7    1  0.1789107E-013  0.7246160E+02  0.7816164E-02  0.1226708E+00
        -11   -1    0    0    0    0  0.00000000000E+00  0.00000000000E+00  0.45593999997E+02  0.45594000000E+02  0.51100000000E-03 0. -1.
         11   -1    0    0    0    0 -0.00000000000E+00 -0.00000000000E+00 -0.45593999997E+02  0.45594000000E+02  0.51100000000E-03 0.  1.
    9900012    2    1    2    0    0 -0.99070547132E+01 -0.15539811377E+02  0.33230337413E+01  0.72461600881E+02  0.70000039845E+02 0.  0.
        -12    1    1    2    0    0  0.99070547132E+01  0.15539811377E+02 -0.33230337413E+01  0.18726399119E+02  0.00000000000E+00 0.  1.
         11    1    3    3    0    0  0.45905866202E+01  0.59441198077E+01 -0.14920929329E+02  0.16704495745E+02  0.51100000000E-03 0. -1.
        -11    1    3    3    0    0 -0.54161122434E+01 -0.65261974703E+01 -0.15543764258E+02  0.17706895064E+02  0.51100000000E-03 0.  1.
         12    1    3    3    0    0 -0.90815290901E+01 -0.14957733714E+02  0.33787727328E+02  0.38050210071E+02  0.00000000000E+00 0. -1.
</event>
<event>
 7    1  0.1789107E-013  0.7246149E+02  0.7816164E-02  0.1226708E+00
        -11   -1    0    0    0    0  0.00000000000E+00  0.00000000000E+00  0.45593999997E+02  0.45594000000E+02  0.51100000000E-03 0. -1.
         11   -1    0    0    0    0 -0.00000000000E+00 -0.00000000000E+00 -0.45593999997E+02  0.45594000000E+02  0.51100000000E-03 0.  1.
    9900012    2    1    2    0    0 -0.73497965596E+01  0.16398226125E+02 -0.52688551040E+01  0.72461490352E+02  0.69999895860E+02 0.  0.
        -12    1    1    2    0    0  0.73497965596E+01 -0.16398226125E+02  0.52688551040E+01  0.18726509648E+02  0.00000000000E+00 0.  1.
         11    1    3    3    0    0  0.77264504621E+01 -0.65194799451E+01 -0.55293357039E+01  0.11522812551E+02  0.51100000000E-03 0. -1.
        -11    1    3    3    0    0  0.14957325909E+01 -0.13854367417E+02  0.12571765653E+02  0.18767791677E+02  0.51100000000E-03 0.  1.
         12    1    3    3    0    0 -0.16571979613E+02  0.36772073487E+02 -0.12311285053E+02  0.42170886124E+02  0.00000000000E+00 0. -1.
</event>
<event>
 7    1  0.1789107E-013  0.7246204E+02  0.7816164E-02  0.1226707E+00
        -11   -1    0    0    0    0  0.00000000000E+00  0.00000000000E+00  0.45593999997E+02  0.45594000000E+02  0.51100000000E-03 0.  1.
         11   -1    0    0    0    0 -0.00000000000E+00 -0.00000000000E+00 -0.45593999997E+02  0.45594000000E+02  0.51100000000E-03 0. -1.
    9900012    2    1    2    0    0  0.13721820375E-01 -0.18513889510E+02 -0.28102126467E+01  0.72462039726E+02  0.70000611519E+02 0.  0.
        -12    1    1    2    0    0 -0.13721820375E-01  0.18513889510E+02  0.28102126467E+01  0.18725960274E+02  0.00000000000E+00 0.  1.
         11    1    3    3    0    0  0.72608332206E+01 -0.71977436887E+01 -0.37999959941E+01  0.10907207850E+02  0.51100000000E-03 0. -1.
        -11    1    3    3    0    0 -0.21064741391E+02  0.42261246466E+00  0.24210392917E+02  0.32094315020E+02  0.51100000000E-03 0.  1.
         12    1    3    3    0    0  0.13817629990E+02 -0.11738758286E+02 -0.23220609569E+02  0.29460516856E+02  0.00000000000E+00 0. -1.
</event>
<event>
 7    1  0.1789107E-013  0.7246160E+02  0.7816164E-02  0.1226708E+00
        -11   -1    0    0    0    0  0.00000000000E+00  0.00000000000E+00  0.45593999997E+02  0.45594000000E+02  0.51100000000E-03 0.  1.
         11   -1    0    0    0    0 -0.00000000000E+00 -0.00000000000E+00 -0.45593999997E+02  0.45594000000E+02  0.51100000000E-03 0. -1.
    9900012    2    1    2    0    0  0.67700884290E+01 -0.10466366896E+02 -0.13974949729E+02  0.72461597429E+02  0.70000035348E+02 0.  0.
        -12    1    1    2    0    0 -0.67700884290E+01  0.10466366896E+02  0.13974949729E+02  0.18726402571E+02  0.00000000000E+00 0.  1.
         11    1    3    3    0    0 -0.11095154719E+02  0.17084032069E+01 -0.34494891227E+01  0.11743937808E+02  0.51100000000E-03 0. -1.
        -11    1    3    3    0    0 -0.11055302337E+02  0.14807089330E+02 -0.10318017583E+02  0.21164382611E+02  0.51100000000E-03 0.  1.
        -12    1    3    3    0    0  0.28920545485E+02 -0.26981859433E+02 -0.20744302337E+00  0.39553277010E+02  0.00000000000E+00 0.  1.
</event>
<event>
 7    1  0.1789107E-013  0.7246159E+02  0.7816164E-02  0.1226708E+00
        -11   -1    0    0    0    0  0.00000000000E+00  0.00000000000E+00  0.45593999997E+02  0.45594000000E+02  0.51100000000E-03 0.  1.
         11   -1    0    0    0    0 -0.00000000000E+00 -0.00000000000E+00 -0.45593999997E+02  0.45594000000E+02  0.51100000000E-03 0. -1.
    9900012    2    1    2    0    0  0.45399834126E+01 -0.29596431814E+01 -0.17925057032E+02  0.72461585320E+02  0.70000019574E+02 0.  0.
        -12    1    1    2    0    0 -0.45399834126E+01  0.29596431814E+01  0.17925057032E+02  0.18726414680E+02  0.00000000000E+00 0.  1.
         11    1    3    3    0    0  0.28522823562E+01  0.10434996593E+02 -0.28576803445E+02  0.30555823732E+02  0.51100000000E-03 0. -1.
        -11    1    3    3    0    0 -0.10624041134E+02  0.73770068715E+00 -0.95813088216E+01  0.14325359727E+02  0.51100000000E-03 0.  1.
         12    1    3    3    0    0  0.12311742190E+02 -0.14132340462E+02  0.20233055234E+02  0.27580401861E+02  0.00000000000E+00 0. -1.
</event>
<event>
 7    1  0.1789107E-013  0.7246155E+02  0.7816164E-02  0.1226708E+00
        -11   -1    0    0    0    0  0.00000000000E+00  0.00000000000E+00  0.45593999997E+02  0.45594000000E+02  0.51100000000E-03 0.  1.
         11   -1    0    0    0    0 -0.00000000000E+00 -0.00000000000E+00 -0.45593999997E+02  0.45594000000E+02  0.51100000000E-03 0. -1.
    9900012    2    1    2    0    0  0.15519890734E+02 -0.99990998470E+01 -0.31354059065E+01  0.72461554092E+02  0.69999978894E+02 0.  0.
        -12    1    1    2    0    0 -0.15519890734E+02  0.99990998470E+01  0.31354059065E+01  0.18726445908E+02  0.00000000000E+00 0.  1.
         11    1    3    3    0    0 -0.24239606509E+01 -0.14438539874E+02 -0.24763340488E+02  0.28767517295E+02  0.51100000000E-03 0. -1.
        -11    1    3    3    0    0 -0.13322407841E+01 -0.10363612324E+02  0.15390151889E+02  0.18602045622E+02  0.51100000000E-03 0.  1.
        -12    1    3    3    0    0  0.19276092169E+02  0.14803052352E+02  0.62377826922E+01  0.25091991175E+02  0.00000000000E+00 0.  1.
</event>
<event>
 7    1  0.1789107E-013  0.7246156E+02  0.7816164E-02  0.1226708E+00
        -11   -1    0    0    0    0  0.00000000000E+00  0.00000000000E+00  0.45593999997E+02  0.45594000000E+02  0.51100000000E-03 0. -1.
         11   -1    0    0    0    0 -0.00000000000E+00 -0.00000000000E+00 -0.45593999997E+02  0.45594000000E+02  0.51100000000E-03 0.  1.
    9900012    2    1    2    0    0 -0.43577289259E+01  0.14922855937E+02  0.10440222499E+02  0.72461556757E+02  0.69999982365E+02 0.  0.
        -12    1    1    2    0    0  0.43577289259E+01 -0.14922855937E+02 -0.10440222499E+02  0.18726443243E+02  0.00000000000E+00 0.  1.
         11    1    3    3    0    0 -0.70571168888E+01  0.20178975045E+02  0.53127348854E+01  0.22027689049E+02  0.51100000000E-03 0. -1.
        -11    1    3    3    0    0 -0.14127170583E+02  0.16055892018E+02 -0.40592683167E+01  0.21768010399E+02  0.51100000000E-03 0.  1.
         12    1    3    3    0    0  0.16826558546E+02 -0.21312011126E+02  0.91867559303E+01  0.28665857309E+02  0.00000000000E+00 0. -1.
</event>
<event>
 7    1  0.1789107E-013  0.7246157E+02  0.7816164E-02  0.1226708E+00
        -11   -1    0    0    0    0  0.00000000000E+00  0.00000000000E+00  0.45593999997E+02  0.45594000000E+02  0.51100000000E-03 0.  1.
         11   -1    0    0    0    0 -0.00000000000E+00 -0.00000000000E+00 -0.45593999997E+02  0.45594000000E+02  0.51100000000E-03 0. -1.
    9900012    2    1    2    0    0  0.13199400380E+02  0.13170547225E+02 -0.17296284282E+01  0.72461572174E+02  0.70000002449E+02 0.  0.
        -12    1    1    2    0    0 -0.13199400380E+02 -0.13170547225E+02  0.17296284282E+01  0.18726427826E+02  0.00000000000E+00 0.  1.
         11    1    3    3    0    0  0.80549490177E+01 -0.84411748237E+01  0.20138458691E+01  0.11840236971E+02  0.51100000000E-03 0. -1.
        -11    1    3    3    0    0 -0.44774619107E+01  0.38883229062E+01 -0.28260342945E+02  0.28875832522E+02  0.51100000000E-03 0.  1.
         12    1    3    3    0    0  0.96219132735E+01  0.17723399143E+02  0.24516868648E+02  0.31745502682E+02  0.00000000000E+00 0. -1.
</event>
<event>
 7    1  0.1789107E-013  0.7246161E+02  0.7816164E-02  0.1226708E+00
        -11   -1    0    0    0    0  0.00000000000E+00  0.00000000000E+00  0.45593999997E+02  0.45594000000E+02  0.51100000000E-03 0. -1.
         11   -1    0    0    0    0 -0.00000000000E+00 -0.00000000000E+00 -0.45593999997E+02  0.45594000000E+02  0.51100000000E-03 0.  1.
    9900012    2    1    2    0    0 -0.10297040521E+02  0.95504329147E+01  0.12387001871E+02  0.72461611461E+02  0.70000053628E+02 0.  0.
        -12    1    1    2    0    0  0.10297040521E+02 -0.95504329147E+01 -0.12387001871E+02  0.18726388539E+02  0.00000000000E+00 0.  1.
         11    1    3    3    0    0 -0.36364637612E+01  0.32712053783E+02  0.23924255620E+01  0.33000394417E+02  0.51100000000E-03 0. -1.
        -11    1    3    3    0    0  0.53089282226E+00  0.49607758685E+01 -0.47631965875E+01  0.68977667689E+01  0.51100000000E-03 0.  1.
        -12    1    3    3    0    0 -0.71914695818E+01 -0.28122396736E+02  0.14757772897E+02  0.32563450275E+02  0.00000000000E+00 0.  1.
</event>
<event>
 7    1  0.1789107E-013  0.7246156E+02  0.7816164E-02  0.1226708E+00
        -11   -1    0    0    0    0  0.00000000000E+00  0.00000000000E+00  0.45593999997E+02  0.45594000000E+02  0.51100000000E-03 0. -1.
         11   -1    0    0    0    0 -0.00000000000E+00 -0.00000000000E+00 -0.45593999997E+02  0.45594000000E+02  0.51100000000E-03 0.  1.
    9900012    2    1    2    0    0  0.82182477317E+01  0.74181693645E+01  0.15103335817E+02  0.72461559193E+02  0.69999985538E+02 0.  0.
        -12    1    1    2    0    0 -0.82182477317E+01 -0.74181693645E+01 -0.15103335817E+02  0.18726440807E+02  0.00000000000E+00 0.  1.
         11    1    3    3    0    0 -0.11178055805E+02 -0.27153939627E+01  0.35629753718E+02  0.37440641638E+02  0.51100000000E-03 0. -1.
        -11    1    3    3    0    0  0.68389197086E+01 -0.19658448466E+01  0.11422912109E+01  0.72069548502E+01  0.51100000000E-03 0.  1.
        -12    1    3    3    0    0  0.12557383829E+02  0.12099408174E+02 -0.21668709112E+02  0.27813962705E+02  0.00000000000E+00 0.  1.
</event>
<event>
 7    1  0.1789107E-013  0.7246157E+02  0.7816164E-02  0.1226708E+00
        -11   -1    0    0    0    0  0.00000000000E+00  0.00000000000E+00  0.45593999997E+02  0.45594000000E+02  0.51100000000E-03 0.  1.
         11   -1    0    0    0    0 -0.00000000000E+00 -0.00000000000E+00 -0.45593999997E+02  0.45594000000E+02  0.51100000000E-03 0. -1.
    9900012    2    1    2    0    0  0.57300005160E+01 -0.10564717583E+02 -0.14360820249E+02  0.72461566230E+02  0.69999994705E+02 0.  0.
        -12    1    1    2    0    0 -0.57300005160E+01  0.10564717583E+02  0.14360820249E+02  0.18726433770E+02  0.00000000000E+00 0.  1.
         11    1    3    3    0    0  0.40524254107E+01  0.75019936835E+01  0.85653911116E+01  0.12085858931E+02  0.51100000000E-03 0. -1.
        -11    1    3    3    0    0 -0.10788206552E+02 -0.10926638369E+02  0.13983950396E+02  0.20768430263E+02  0.51100000000E-03 0.  1.
         12    1    3    3    0    0  0.12465781658E+02 -0.71400728969E+01 -0.36910161757E+02  0.39607277036E+02  0.00000000000E+00 0. -1.
</event>
<event>
 7    1  0.1789107E-013  0.7246160E+02  0.7816164E-02  0.1226708E+00
        -11   -1    0    0    0    0  0.00000000000E+00  0.00000000000E+00  0.45593999997E+02  0.45594000000E+02  0.51100000000E-03 0. -1.
         11   -1    0    0    0    0 -0.00000000000E+00 -0.00000000000E+00 -0.45593999997E+02  0.45594000000E+02  0.51100000000E-03 0.  1.
    9900012    2    1    2    0    0  0.13882611248E+02 -0.91692288441E+01  0.85951322255E+01  0.72461602839E+02  0.70000042395E+02 0.  0.
        -12    1    1    2    0    0 -0.13882611248E+02  0.91692288441E+01 -0.85951322255E+01  0.18726397161E+02  0.00000000000E+00 0.  1.
         11    1    3    3    0    0  0.28434223099E+02 -0.10811424693E+02  0.80612292330E+01  0.31470229808E+02  0.51100000000E-03 0. -1.
        -11    1    3    3    0    0  0.91536442700E+01  0.13774236351E+01  0.11590313178E+02  0.14833133826E+02  0.51100000000E-03 0.  1.
        -12    1    3    3    0    0 -0.23705256121E+02  0.26477221380E+00 -0.11056410185E+02  0.26158239204E+02  0.00000000000E+00 0.  1.
</event>
<event>
 7    1  0.1789107E-013  0.7246159E+02  0.7816164E-02  0.1226708E+00
        -11   -1    0    0    0    0  0.00000000000E+00  0.00000000000E+00  0.45593999997E+02  0.45594000000E+02  0.51100000000E-03 0.  1.
         11   -1    0    0    0    0 -0.00000000000E+00 -0.00000000000E+00 -0.45593999997E+02  0.45594000000E+02  0.51100000000E-03 0. -1.
    9900012    2    1    2    0    0 -0.11109972285E+01 -0.18011128932E+02 -0.50043407321E+01  0.72461588000E+02  0.70000023065E+02 0.  0.
        -12    1    1    2    0    0  0.11109972285E+01  0.18011128932E+02  0.50043407321E+01  0.18726412000E+02  0.00000000000E+00 0.  1.
         11    1    3    3    0    0  0.84246667896E+01 -0.73849188678E+01 -0.16492049069E+02  0.19937395014E+02  0.51100000000E-03 0. -1.
        -11    1    3    3    0    0  0.70866618520E+01 -0.26567698969E+02  0.10621556463E+02  0.29476785216E+02  0.51100000000E-03 0.  1.
         12    1    3    3    0    0 -0.16622325870E+02  0.15941488905E+02  0.86615187398E+00  0.23047407770E+02  0.00000000000E+00 0. -1.
</event>
<event>
 7    1  0.1789107E-013  0.7246157E+02  0.7816164E-02  0.1226708E+00
        -11   -1    0    0    0    0  0.00000000000E+00  0.00000000000E+00  0.45593999997E+02  0.45594000000E+02  0.51100000000E-03 0. -1.
         11   -1    0    0    0    0 -0.00000000000E+00 -0.00000000000E+00 -0.45593999997E+02  0.45594000000E+02  0.51100000000E-03 0.  1.
    9900012    2    1    2    0    0 -0.63436796700E+01 -0.15918613784E+02  0.75521312941E+01  0.72461568849E+02  0.69999998118E+02 0.  0.
        -12    1    1    2    0    0  0.63436796700E+01  0.15918613784E+02 -0.75521312941E+01  0.18726431151E+02  0.00000000000E+00 0.  1.
         11    1    3    3    0    0 -0.14655313759E+01 -0.12585455669E+02 -0.12773678982E+02  0.17991896832E+02  0.51100000000E-03 0. -1.
        -11    1    3    3    0    0 -0.11996052407E+02  0.45484209384E+01 -0.13733133314E+02  0.18793412603E+02  0.51100000000E-03 0.  1.
         12    1    3    3    0    0  0.71179041133E+01 -0.78815790535E+01  0.34058943590E+02  0.35676259414E+02  0.00000000000E+00 0. -1.
</event>
<event>
 7    1  0.1789107E-013  0.7246156E+02  0.7816164E-02  0.1226708E+00
        -11   -1    0    0    0    0  0.00000000000E+00  0.00000000000E+00  0.45593999997E+02  0.45594000000E+02  0.51100000000E-03 0. -1.
         11   -1    0    0    0    0 -0.00000000000E+00 -0.00000000000E+00 -0.45593999997E+02  0.45594000000E+02  0.51100000000E-03 0.  1.
    9900012    2    1    2    0    0 -0.21401024786E+00  0.10615902727E-01  0.18725211143E+02  0.72461562927E+02  0.69999990403E+02 0.  0.
        -12    1    1    2    0    0  0.21401024786E+00 -0.10615902727E-01 -0.18725211143E+02  0.18726437073E+02  0.00000000000E+00 0.  1.
         11    1    3    3    0    0 -0.11198893625E+02 -0.10386076559E+02  0.64291584617E+01  0.16571659045E+02  0.51100000000E-03 0. -1.
        -11    1    3    3    0    0  0.20185488977E+02 -0.42076763074E+01 -0.13649061632E+02  0.24727624003E+02  0.51100000000E-03 0.  1.
         12    1    3    3    0    0 -0.92006055990E+01  0.14604368769E+02  0.25945114313E+02  0.31162279879E+02  0.00000000000E+00 0. -1.
</event>
<event>
 7    1  0.1789107E-013  0.7246162E+02  0.7816164E-02  0.1226708E+00
        -11   -1    0    0    0    0  0.00000000000E+00  0.00000000000E+00  0.45593999997E+02  0.45594000000E+02  0.51100000000E-03 0.  1.
         11   -1    0    0    0    0 -0.00000000000E+00 -0.00000000000E+00 -0.45593999997E+02  0.45594000000E+02  0.51100000000E-03 0. -1.
    9900012    2    1    2    0    0 -0.13986413415E+02 -0.12426610655E+02 -0.79800383066E+00  0.72461622275E+02  0.70000067714E+02 0.  0.
        -12    1    1    2    0    0  0.13986413415E+02  0.12426610655E+02  0.79800383066E+00  0.18726377725E+02  0.00000000000E+00 0.  1.
         11    1    3    3    0    0 -0.39624819559E+01  0.23473177046E+01  0.14412168775E+02  0.15130161027E+02  0.51100000000E-03 0. -1.
        -11    1    3    3    0    0  0.63829488216E+01  0.10344119018E+02  0.11816070331E+02  0.16951765461E+02  0.51100000000E-03 0.  1.
         12    1    3    3    0    0 -0.16406880281E+02 -0.25118047377E+02 -0.27026242936E+02  0.40379695787E+02  0.00000000000E+00 0. -1.
</event>
<event>
 7    1  0.1789107E-013  0.7246153E+02  0.7816164E-02  0.1226708E+00
        -11   -1    0    0    0    0  0.00000000000E+00  0.00000000000E+00  0.45593999997E+02  0.45594000000E+02  0.51100000000E-03 0. -1.
         11   -1    0    0    0    0 -0.00000000000E+00 -0.00000000000E+00 -0.45593999997E+02  0.45594000000E+02  0.51100000000E-03 0.  1.
    9900012    2    1    2    0    0  0.10995471823E+01 -0.12897800580E+02  0.13532121481E+02  0.72461532753E+02  0.69999951095E+02 0.  0.
        -12    1    1    2    0    0 -0.10995471823E+01  0.12897800580E+02 -0.13532121481E+02  0.18726467247E+02  0.00000000000E+00 0.  1.
         11    1    3    3    0    0 -0.17898356023E+01  0.90358219933E+01  0.17311821640E+02  0.19609914822E+02  0.51100000000E-03 0. -1.
        -11    1    3    3    0    0  0.31047804644E+01  0.72538042663E+01 -0.18535892457E+02  0.20145387747E+02  0.51100000000E-03 0.  1.
         12    1    3    3    0    0 -0.21539767977E+00 -0.29187426839E+02  0.14756192298E+02  0.32706230183E+02  0.00000000000E+00 0. -1.
</event>
<event>
 7    1  0.1789107E-013  0.7246156E+02  0.7816164E-02  0.1226708E+00
        -11   -1    0    0    0    0  0.00000000000E+00  0.00000000000E+00  0.45593999997E+02  0.45594000000E+02  0.51100000000E-03 0.  1.
         11   -1    0    0    0    0 -0.00000000000E+00 -0.00000000000E+00 -0.45593999997E+02  0.45594000000E+02  0.51100000000E-03 0. -1.
    9900012    2    1    2    0    0  0.28157010573E+01  0.74967042822E+01 -0.16927813376E+02  0.72461558447E+02  0.69999984566E+02 0.  0.
        -12    1    1    2    0    0 -0.28157010573E+01 -0.74967042822E+01  0.16927813376E+02  0.18726441553E+02  0.00000000000E+00 0.  1.
         11    1    3    3    0    0  0.92771461745E+01 -0.14828961118E+02  0.57527706766E+01  0.18413524912E+02  0.51100000000E-03 0.  1.
        -11    1    3    3    0    0  0.18219503846E+02  0.10146216883E+02 -0.14269945736E+02  0.25269099489E+02  0.51100000000E-03 0. -1.
         12    1    3    3    0    0 -0.24680948963E+02  0.12179448517E+02 -0.84106383175E+01  0.28778934046E+02  0.00000000000E+00 0. -1.
</event>
<event>
 7    1  0.1826916E-013  0.7246158E+02  0.7816164E-02  0.1226708E+00
        -11   -1    0    0    0    0  0.00000000000E+00  0.00000000000E+00  0.45593999997E+02  0.45594000000E+02  0.51100000000E-03 0. -1.
         11   -1    0    0    0    0 -0.00000000000E+00 -0.00000000000E+00 -0.45593999997E+02  0.45594000000E+02  0.51100000000E-03 0.  1.
    9900012    2    1    2    0    0  0.73397176659E+01 -0.12892239650E+02  0.11427926221E+02  0.72461580258E+02  0.70000012980E+02 0.  0.
        -12    1    1    2    0    0 -0.73397176659E+01  0.12892239650E+02 -0.11427926221E+02  0.18726419742E+02  0.00000000000E+00 0.  1.
         11    1    3    3    0    0 -0.84124513995E+01  0.10481378099E+02  0.27280282317E+02  0.30411222090E+02  0.51100000000E-03 0. -1.
        -11    1    3    3    0    0 -0.72663845234E+01 -0.98848033864E+01 -0.49911208931E+01  0.13244658171E+02  0.51100000000E-03 0.  1.
        -12    1    3    3    0    0  0.23018553589E+02 -0.13488814363E+02 -0.10861235203E+02  0.28805699998E+02  0.00000000000E+00 0.  1.
</event>
<event>
 7    1  0.1789107E-013  0.7246144E+02  0.7816164E-02  0.1226708E+00
        -11   -1    0    0    0    0  0.00000000000E+00  0.00000000000E+00  0.45593999997E+02  0.45594000000E+02  0.51100000000E-03 0. -1.
         11   -1    0    0    0    0 -0.00000000000E+00 -0.00000000000E+00 -0.45593999997E+02  0.45594000000E+02  0.51100000000E-03 0.  1.
    9900012    2    1    2    0    0  0.15165594358E+00  0.18674279417E+02 -0.13900250960E+01  0.72461444496E+02  0.69999836124E+02 0.  0.
        -12    1    1    2    0    0 -0.15165594358E+00 -0.18674279417E+02  0.13900250960E+01  0.18726555504E+02  0.00000000000E+00 0.  1.
         11    1    3    3    0    0  0.17117639195E+02  0.11020994820E+02 -0.53489326630E+01  0.21049631335E+02  0.51100000000E-03 0. -1.
        -11    1    3    3    0    0  0.90727348242E+01  0.15720834175E+02 -0.10066381775E+02  0.20755509790E+02  0.51100000000E-03 0.  1.
         12    1    3    3    0    0 -0.26038718076E+02 -0.80675495784E+01  0.14025289342E+02  0.30656303371E+02  0.00000000000E+00 0. -1.
</event>
<event>
 7    1  0.1789107E-013  0.7246126E+02  0.7816164E-02  0.1226709E+00
        -11   -1    0    0    0    0  0.00000000000E+00  0.00000000000E+00  0.45593999997E+02  0.45594000000E+02  0.51100000000E-03 0.  1.
         11   -1    0    0    0    0 -0.00000000000E+00 -0.00000000000E+00 -0.45593999997E+02  0.45594000000E+02  0.51100000000E-03 0. -1.
    9900012    2    1    2    0    0 -0.18543664347E+02 -0.26120075388E+01  0.26054550927E-01  0.72461261106E+02  0.69999597223E+02 0.  0.
        -12    1    1    2    0    0  0.18543664347E+02  0.26120075388E+01 -0.26054550927E-01  0.18726738894E+02  0.00000000000E+00 0.  1.
         11    1    3    3    0    0 -0.27857763140E+01 -0.47927572642E+01  0.21194241715E+01  0.59348994048E+01  0.51100000000E-03 0. -1.
        -11    1    3    3    0    0  0.45738105559E+01 -0.26015849162E+02 -0.13855226836E+02  0.29828031473E+02  0.51100000000E-03 0.  1.
         12    1    3    3    0    0 -0.20331698589E+02  0.28196598888E+02  0.11761857216E+02  0.36698330227E+02  0.00000000000E+00 0. -1.
</event>
<event>
 7    1  0.1789107E-013  0.7246158E+02  0.7816164E-02  0.1226708E+00
        -11   -1    0    0    0    0  0.00000000000E+00  0.00000000000E+00  0.45593999997E+02  0.45594000000E+02  0.51100000000E-03 0.  1.
         11   -1    0    0    0    0 -0.00000000000E+00 -0.00000000000E+00 -0.45593999997E+02  0.45594000000E+02  0.51100000000E-03 0. -1.
    9900012    2    1    2    0    0 -0.10277549790E+02  0.49632034327E+01 -0.14846465526E+02  0.72461575980E+02  0.70000007406E+02 0.  0.
        -12    1    1    2    0    0  0.10277549790E+02 -0.49632034327E+01  0.14846465526E+02  0.18726424020E+02  0.00000000000E+00 0.  1.
         11    1    3    3    0    0  0.66647564419E+01  0.57542586813E+01 -0.54722881376E+01  0.10367082961E+02  0.51100000000E-03 0. -1.
        -11    1    3    3    0    0  0.10638619067E+02  0.21627608997E+02  0.33674594436E+01  0.24336669246E+02  0.51100000000E-03 0.  1.
         12    1    3    3    0    0 -0.27580925299E+02 -0.22418664246E+02 -0.12741636832E+02  0.37757823773E+02  0.00000000000E+00 0. -1.
</event>
<event>
 7    1  0.1789107E-013  0.7246154E+02  0.7816164E-02  0.1226708E+00
        -11   -1    0    0    0    0  0.00000000000E+00  0.00000000000E+00  0.45593999997E+02  0.45594000000E+02  0.51100000000E-03 0.  1.
         11   -1    0    0    0    0 -0.00000000000E+00 -0.00000000000E+00 -0.45593999997E+02  0.45594000000E+02  0.51100000000E-03 0. -1.
    9900012    2    1    2    0    0 -0.12409578765E+02  0.10993744891E+02 -0.87074760788E+01  0.72461542473E+02  0.69999963758E+02 0.  0.
        -12    1    1    2    0    0  0.12409578765E+02 -0.10993744891E+02  0.87074760788E+01  0.18726457527E+02  0.00000000000E+00 0.  1.
         11    1    3    3    0    0  0.11393196013E+02  0.34376199338E+02 -0.92687808212E+01  0.37382325965E+02  0.51100000000E-03 0.  1.
        -11    1    3    3    0    0 -0.71539669024E+01 -0.12671811896E+02  0.37509252180E+01  0.15027424910E+02  0.51100000000E-03 0. -1.
        -12    1    3    3    0    0 -0.16648807876E+02 -0.10710642552E+02 -0.31896204756E+01  0.20051791599E+02  0.00000000000E+00 0.  1.
</event>
<event>
 7    1  0.1789107E-013  0.7246159E+02  0.7816164E-02  0.1226708E+00
        -11   -1    0    0    0    0  0.00000000000E+00  0.00000000000E+00  0.45593999997E+02  0.45594000000E+02  0.51100000000E-03 0. -1.
         11   -1    0    0    0    0 -0.00000000000E+00 -0.00000000000E+00 -0.45593999997E+02  0.45594000000E+02  0.51100000000E-03 0.  1.
    9900012    2    1    2    0    0 -0.17902992101E+01  0.18620458820E+02  0.86698096901E+00  0.72461593138E+02  0.70000029759E+02 0.  0.
        -12    1    1    2    0    0  0.17902992101E+01 -0.18620458820E+02 -0.86698096901E+00  0.18726406862E+02  0.00000000000E+00 0.  1.
         11    1    3    3    0    0  0.15756866168E+02 -0.67330766108E+01  0.10851080023E+02  0.20281989301E+02  0.51100000000E-03 0. -1.
        -11    1    3    3    0    0  0.11875536957E+02 -0.20988714246E+00 -0.49946651727E+01  0.12884840359E+02  0.51100000000E-03 0.  1.
        -12    1    3    3    0    0 -0.29422702335E+02  0.25563422574E+02 -0.49894338808E+01  0.39294763479E+02  0.00000000000E+00 0.  1.
</event>
<event>
 7    1  0.1789107E-013  0.7246151E+02  0.7816164E-02  0.1226708E+00
        -11   -1    0    0    0    0  0.00000000000E+00  0.00000000000E+00  0.45593999997E+02  0.45594000000E+02  0.51100000000E-03 0. -1.
         11   -1    0    0    0    0 -0.00000000000E+00 -0.00000000000E+00 -0.45593999997E+02  0.45594000000E+02  0.51100000000E-03 0.  1.
    9900012    2    1    2    0    0 -0.85506460918E+01  0.32105911573E+01  0.16348093024E+02  0.72461505675E+02  0.69999915821E+02 0.  0.
        -12    1    1    2    0    0  0.85506460918E+01 -0.32105911573E+01 -0.16348093024E+02  0.18726494325E+02  0.00000000000E+00 0.  1.
         11    1    3    3    0    0  0.59846793416E+01  0.43602241184E+01 -0.28084755083E+01  0.79193103314E+01  0.51100000000E-03 0. -1.
        -11    1    3    3    0    0 -0.20141482556E+02 -0.10058518362E+02 -0.16145451886E+02  0.27704308835E+02  0.51100000000E-03 0.  1.
         12    1    3    3    0    0  0.56061571226E+01  0.89088854009E+01  0.35302020418E+02  0.36837886508E+02  0.00000000000E+00 0. -1.
</event>
<event>
 7    1  0.1789107E-013  0.7246191E+02  0.7816164E-02  0.1226707E+00
        -11   -1    0    0    0    0  0.00000000000E+00  0.00000000000E+00  0.45593999997E+02  0.45594000000E+02  0.51100000000E-03 0.  1.
         11   -1    0    0    0    0 -0.00000000000E+00 -0.00000000000E+00 -0.45593999997E+02  0.45594000000E+02  0.51100000000E-03 0. -1.
    9900012    2    1    2    0    0 -0.63023656031E+01  0.14922468622E+01 -0.17570429634E+02  0.72461905629E+02  0.70000436834E+02 0.  0.
        -12    1    1    2    0    0  0.63023656031E+01 -0.14922468622E+01  0.17570429634E+02  0.18726094371E+02  0.00000000000E+00 0.  1.
         11    1    3    3    0    0  0.22780942841E+02 -0.12676479670E+01  0.85592649026E+00  0.22832233761E+02  0.51100000000E-03 0. -1.
        -11    1    3    3    0    0 -0.24300266565E+00 -0.20809835757E+01  0.91787081341E+01  0.94147876349E+01  0.51100000000E-03 0.  1.
        -12    1    3    3    0    0 -0.28840305779E+02  0.48408784049E+01 -0.27605064258E+02  0.40214884233E+02  0.00000000000E+00 0.  1.
</event>
<event>
 7    1  0.1789107E-013  0.7246155E+02  0.7816164E-02  0.1226708E+00
        -11   -1    0    0    0    0  0.00000000000E+00  0.00000000000E+00  0.45593999997E+02  0.45594000000E+02  0.51100000000E-03 0. -1.
         11   -1    0    0    0    0 -0.00000000000E+00 -0.00000000000E+00 -0.45593999997E+02  0.45594000000E+02  0.51100000000E-03 0.  1.
    9900012    2    1    2    0    0 -0.58013836863E+01  0.11484717023E+02  0.13606068010E+02  0.72461551739E+02  0.69999975828E+02 0.  0.
        -12    1    1    2    0    0  0.58013836863E+01 -0.11484717023E+02 -0.13606068010E+02  0.18726448261E+02  0.00000000000E+00 0.  1.
         11    1    3    3    0    0  0.22437271457E+02 -0.26221982568E+01  0.27394758914E+02  0.35507462460E+02  0.51100000000E-03 0. -1.
        -11    1    3    3    0    0  0.10623334566E+01 -0.83123907418E+00 -0.94061981171E+00  0.16444685046E+01  0.51100000000E-03 0.  1.
        -12    1    3    3    0    0 -0.29300988600E+02  0.14938154354E+02 -0.12848071092E+02  0.35309620774E+02  0.00000000000E+00 0.  1.
</event>
<event>
 7    1  0.1789107E-013  0.7246154E+02  0.7816164E-02  0.1226708E+00
        -11   -1    0    0    0    0  0.00000000000E+00  0.00000000000E+00  0.45593999997E+02  0.45594000000E+02  0.51100000000E-03 0.  1.
         11   -1    0    0    0    0 -0.00000000000E+00 -0.00000000000E+00 -0.45593999997E+02  0.45594000000E+02  0.51100000000E-03 0. -1.
    9900012    2    1    2    0    0  0.13307407554E+02  0.53030964705E+01 -0.12061106148E+02  0.72461542527E+02  0.69999963827E+02 0.  0.
        -12    1    1    2    0    0 -0.13307407554E+02 -0.53030964705E+01  0.12061106148E+02  0.18726457473E+02  0.00000000000E+00 0.  1.
         11    1    3    3    0    0  0.77302800904E+01  0.65474160191E+01  0.12882862501E+02  0.16388838680E+02  0.51100000000E-03 0. -1.
        -11    1    3    3    0    0  0.26564872144E+02  0.60402179312E+01 -0.88665355764E+01  0.28649469770E+02  0.51100000000E-03 0.  1.
         12    1    3    3    0    0 -0.20987744680E+02 -0.72845374797E+01 -0.16077433072E+02  0.27423234077E+02  0.00000000000E+00 0. -1.
</event>
<event>
 7    1  0.1789107E-013  0.7246131E+02  0.7816164E-02  0.1226709E+00
        -11   -1    0    0    0    0  0.00000000000E+00  0.00000000000E+00  0.45593999997E+02  0.45594000000E+02  0.51100000000E-03 0.  1.
         11   -1    0    0    0    0 -0.00000000000E+00 -0.00000000000E+00 -0.45593999997E+02  0.45594000000E+02  0.51100000000E-03 0. -1.
    9900012    2    1    2    0    0 -0.69002331797E-01 -0.16681178807E+00 -0.18725816446E+02  0.72461313452E+02  0.69999665415E+02 0.  0.
        -12    1    1    2    0    0  0.69002331797E-01  0.16681178807E+00  0.18725816446E+02  0.18726686548E+02  0.00000000000E+00 0.  1.
         11    1    3    3    0    0 -0.11638744349E+02 -0.12057448125E+02 -0.14494352886E+02  0.22156910686E+02  0.51100000000E-03 0. -1.
        -11    1    3    3    0    0  0.23329422673E+02 -0.43354618510E+01 -0.14478395311E+02  0.27797160336E+02  0.51100000000E-03 0.  1.
        -12    1    3    3    0    0 -0.11759680655E+02  0.16226098187E+02  0.10246931751E+02  0.22507242430E+02  0.00000000000E+00 0.  1.
</event>
<event>
 7    1  0.1789107E-013  0.7246152E+02  0.7816164E-02  0.1226708E+00
        -11   -1    0    0    0    0  0.00000000000E+00  0.00000000000E+00  0.45593999997E+02  0.45594000000E+02  0.51100000000E-03 0.  1.
         11   -1    0    0    0    0 -0.00000000000E+00 -0.00000000000E+00 -0.45593999997E+02  0.45594000000E+02  0.51100000000E-03 0. -1.
    9900012    2    1    2    0    0  0.77843203409E+01 -0.12732759419E+02 -0.11312044274E+02  0.72461517381E+02  0.69999931071E+02 0.  0.
        -12    1    1    2    0    0 -0.77843203409E+01  0.12732759419E+02  0.11312044274E+02  0.18726482619E+02  0.00000000000E+00 0.  1.
         11    1    3    3    0    0  0.25246282732E+02 -0.76381430933E+01 -0.14552087996E+02  0.30124396873E+02  0.51100000000E-03 0. -1.
        -11    1    3    3    0    0  0.76509041597E+01 -0.10953403017E+02  0.87456453214E+01  0.15968709543E+02  0.51100000000E-03 0.  1.
        -12    1    3    3    0    0 -0.25112866551E+02  0.58587866908E+01 -0.55056016001E+01  0.26368410966E+02  0.00000000000E+00 0.  1.
</event>
<event>
 7    1  0.1789107E-013  0.7246159E+02  0.7816164E-02  0.1226708E+00
        -11   -1    0    0    0    0  0.00000000000E+00  0.00000000000E+00  0.45593999997E+02  0.45594000000E+02  0.51100000000E-03 0.  1.
         11   -1    0    0    0    0 -0.00000000000E+00 -0.00000000000E+00 -0.45593999997E+02  0.45594000000E+02  0.51100000000E-03 0. -1.
    9900012    2    1    2    0    0  0.42978976291E+01  0.13332965903E+02 -0.12427329789E+02  0.72461590053E+02  0.70000025740E+02 0.  0.
        -12    1    1    2    0    0 -0.42978976291E+01 -0.13332965903E+02  0.12427329789E+02  0.18726409947E+02  0.00000000000E+00 0.  1.
         11    1    3    3    0    0 -0.13886271225E+02  0.24104600708E+02 -0.18494020200E+02  0.33404926093E+02  0.51100000000E-03 0. -1.
        -11    1    3    3    0    0  0.18735016795E+01  0.92277680780E+01  0.90716801944E+01  0.13075056178E+02  0.51100000000E-03 0.  1.
        -12    1    3    3    0    0  0.16310667174E+02 -0.19999402883E+02 -0.30049897832E+01  0.25981607782E+02  0.00000000000E+00 0.  1.
</event>
<event>
 7    1  0.1789107E-013  0.7246158E+02  0.7816164E-02  0.1226708E+00
        -11   -1    0    0    0    0  0.00000000000E+00  0.00000000000E+00  0.45593999997E+02  0.45594000000E+02  0.51100000000E-03 0.  1.
         11   -1    0    0    0    0 -0.00000000000E+00 -0.00000000000E+00 -0.45593999997E+02  0.45594000000E+02  0.51100000000E-03 0. -1.
    9900012    2    1    2    0    0  0.10802751142E+02  0.65388584795E+01 -0.13828333008E+02  0.72461577592E+02  0.70000009506E+02 0.  0.
        -12    1    1    2    0    0 -0.10802751142E+02 -0.65388584795E+01  0.13828333008E+02  0.18726422408E+02  0.00000000000E+00 0.  1.
         11    1    3    3    0    0 -0.11345320535E+02  0.20032896812E+02 -0.19422295118E+02  0.30120737053E+02  0.51100000000E-03 0. -1.
        -11    1    3    3    0    0 -0.57078385764E+01  0.54967899183E+01 -0.10043247312E+01  0.79876648056E+01  0.51100000000E-03 0.  1.
        -12    1    3    3    0    0  0.27855910253E+02 -0.18990828251E+02  0.65982868414E+01  0.34353175733E+02  0.00000000000E+00 0.  1.
</event>
<event>
 7    1  0.1789107E-013  0.7246161E+02  0.7816164E-02  0.1226708E+00
        -11   -1    0    0    0    0  0.00000000000E+00  0.00000000000E+00  0.45593999997E+02  0.45594000000E+02  0.51100000000E-03 0.  1.
         11   -1    0    0    0    0 -0.00000000000E+00 -0.00000000000E+00 -0.45593999997E+02  0.45594000000E+02  0.51100000000E-03 0. -1.
    9900012    2    1    2    0    0 -0.81889269344E+01 -0.14430560170E+02 -0.86820458708E+01  0.72461614559E+02  0.70000057664E+02 0.  0.
        -12    1    1    2    0    0  0.81889269344E+01  0.14430560170E+02  0.86820458708E+01  0.18726385441E+02  0.00000000000E+00 0.  1.
         11    1    3    3    0    0  0.11139303482E+02 -0.19881919358E+02  0.93156134495E+01  0.24620224484E+02  0.51100000000E-03 0. -1.
        -11    1    3    3    0    0  0.36019392607E+00 -0.15504108403E+02 -0.75513032221E+01  0.17249037587E+02  0.51100000000E-03 0.  1.
        -12    1    3    3    0    0 -0.19688424343E+02  0.20955467592E+02 -0.10446356098E+02  0.30592352489E+02  0.00000000000E+00 0.  1.
</event>
<event>
 7    1  0.1789107E-013  0.7246156E+02  0.7816164E-02  0.1226708E+00
        -11   -1    0    0    0    0  0.00000000000E+00  0.00000000000E+00  0.45593999997E+02  0.45594000000E+02  0.51100000000E-03 0.  1.
         11   -1    0    0    0    0 -0.00000000000E+00 -0.00000000000E+00 -0.45593999997E+02  0.45594000000E+02  0.51100000000E-03 0. -1.
    9900012    2    1    2    0    0  0.17838478112E+02 -0.56679922863E+01  0.58503105682E+00  0.72461556150E+02  0.69999981575E+02 0.  0.
        -12    1    1    2    0    0 -0.17838478112E+02  0.56679922863E+01 -0.58503105682E+00  0.18726443850E+02  0.00000000000E+00 0.  1.
         11    1    3    3    0    0  0.31180959518E-01 -0.31567940156E+01  0.12110613448E+02  0.12515321772E+02  0.51100000000E-03 0. -1.
        -11    1    3    3    0    0 -0.19330489933E+02 -0.77156210735E+01 -0.35230137388E+00  0.20816406177E+02  0.51100000000E-03 0.  1.
         12    1    3    3    0    0  0.37137787086E+02  0.52044228027E+01 -0.11173281017E+02  0.39129828201E+02  0.00000000000E+00 0. -1.
</event>
<event>
 7    1  0.1789107E-013  0.7246162E+02  0.7816164E-02  0.1226708E+00
        -11   -1    0    0    0    0  0.00000000000E+00  0.00000000000E+00  0.45593999997E+02  0.45594000000E+02  0.51100000000E-03 0. -1.
         11   -1    0    0    0    0 -0.00000000000E+00 -0.00000000000E+00 -0.45593999997E+02  0.45594000000E+02  0.51100000000E-03 0.  1.
    9900012    2    1    2    0    0 -0.15110724289E+02 -0.62721781738E+00  0.11043096465E+02  0.72461618335E+02  0.70000062582E+02 0.  0.
        -12    1    1    2    0    0  0.15110724289E+02  0.62721781738E+00 -0.11043096465E+02  0.18726381665E+02  0.00000000000E+00 0.  1.
         11    1    3    3    0    0  0.27457247587E+01  0.36643973899E+01  0.16807690814E+02  0.17420254977E+02  0.51100000000E-03 0. -1.
        -11    1    3    3    0    0  0.56619936732E+01  0.15671662332E+02  0.10966000264E+02  0.19947740089E+02  0.51100000000E-03 0.  1.
        -12    1    3    3    0    0 -0.23518442721E+02 -0.19963277539E+02 -0.16730594613E+02  0.35093623270E+02  0.00000000000E+00 0.  1.
</event>
<event>
 7    1  0.1789107E-013  0.7246157E+02  0.7816164E-02  0.1226708E+00
        -11   -1    0    0    0    0  0.00000000000E+00  0.00000000000E+00  0.45593999997E+02  0.45594000000E+02  0.51100000000E-03 0. -1.
         11   -1    0    0    0    0 -0.00000000000E+00 -0.00000000000E+00 -0.45593999997E+02  0.45594000000E+02  0.51100000000E-03 0.  1.
    9900012    2    1    2    0    0  0.17735407396E+02 -0.59902701681E+01 -0.50113222147E+00  0.72461570930E+02  0.70000000828E+02 0.  0.
        -12    1    1    2    0    0 -0.17735407396E+02  0.59902701681E+01  0.50113222147E+00  0.18726429070E+02  0.00000000000E+00 0.  1.
         11    1    3    3    0    0  0.21354027633E+01  0.94689939818E+01  0.23762889531E+02  0.25668983445E+02  0.51100000000E-03 0. -1.
        -11    1    3    3    0    0  0.88786651895E+01  0.28544870127E+01  0.57789112947E+01  0.10971536249E+02  0.51100000000E-03 0.  1.
        -12    1    3    3    0    0  0.67213394435E+01 -0.18313751163E+02 -0.30042933047E+02  0.35821051236E+02  0.00000000000E+00 0.  1.
</event>
<event>
 7    1  0.1789107E-013  0.7246153E+02  0.7816164E-02  0.1226708E+00
        -11   -1    0    0    0    0  0.00000000000E+00  0.00000000000E+00  0.45593999997E+02  0.45594000000E+02  0.51100000000E-03 0. -1.
         11   -1    0    0    0    0 -0.00000000000E+00 -0.00000000000E+00 -0.45593999997E+02  0.45594000000E+02  0.51100000000E-03 0.  1.
    9900012    2    1    2    0    0  0.58515043213E+01 -0.17483253156E+00  0.17787914478E+02  0.72461532882E+02  0.69999951264E+02 0.  0.
        -12    1    1    2    0    0 -0.58515043213E+01  0.17483253156E+00 -0.17787914478E+02  0.18726467118E+02  0.00000000000E+00 0.  1.
         11    1    3    3    0    0 -0.14703904747E+02 -0.12660402078E+02  0.15606191521E+02  0.24900678899E+02  0.51100000000E-03 0. -1.
        -11    1    3    3    0    0 -0.60256776651E+01 -0.83427227222E+00  0.14233885714E+02  0.15479286299E+02  0.51100000000E-03 0.  1.
        -12    1    3    3    0    0  0.26581086733E+02  0.13319841819E+02 -0.12052162757E+02  0.32081567684E+02  0.00000000000E+00 0.  1.
</event>
<event>
 7    1  0.1789107E-013  0.7246159E+02  0.7816164E-02  0.1226708E+00
        -11   -1    0    0    0    0  0.00000000000E+00  0.00000000000E+00  0.45593999997E+02  0.45594000000E+02  0.51100000000E-03 0. -1.
         11   -1    0    0    0    0 -0.00000000000E+00 -0.00000000000E+00 -0.45593999997E+02  0.45594000000E+02  0.51100000000E-03 0.  1.
    9900012    2    1    2    0    0 -0.11912362155E+02  0.10980245315E+02  0.93919332223E+01  0.72461586330E+02  0.70000020889E+02 0.  0.
        -12    1    1    2    0    0  0.11912362155E+02 -0.10980245315E+02 -0.93919332223E+01  0.18726413670E+02  0.00000000000E+00 0.  1.
         11    1    3    3    0    0 -0.53434051790E+01 -0.61088471242E+01  0.87884326031E+00  0.81634770675E+01  0.51100000000E-03 0. -1.
        -11    1    3    3    0    0 -0.25835836340E+02 -0.40519313839E+01 -0.12323674837E+02  0.28909886702E+02  0.51100000000E-03 0.  1.
         12    1    3    3    0    0  0.19266879364E+02  0.21141023823E+02  0.20836764799E+02  0.35388222561E+02  0.00000000000E+00 0. -1.
</event>
<event>
 7    1  0.1789107E-013  0.7246158E+02  0.7816164E-02  0.1226708E+00
        -11   -1    0    0    0    0  0.00000000000E+00  0.00000000000E+00  0.45593999997E+02  0.45594000000E+02  0.51100000000E-03 0.  1.
         11   -1    0    0    0    0 -0.00000000000E+00 -0.00000000000E+00 -0.45593999997E+02  0.45594000000E+02  0.51100000000E-03 0. -1.
    9900012    2    1    2    0    0  0.65512052300E-01 -0.12465534482E+02 -0.13974434265E+02  0.72461584038E+02  0.70000017904E+02 0.  0.
        -12    1    1    2    0    0 -0.65512052300E-01  0.12465534482E+02  0.13974434265E+02  0.18726415962E+02  0.00000000000E+00 0.  1.
         11    1    3    3    0    0  0.20561950094E+02  0.56114766209E+01 -0.25831425262E+02  0.33489475852E+02  0.51100000000E-03 0. -1.
        -11    1    3    3    0    0 -0.21908048714E+02 -0.62948108313E+01  0.88676061306E+00  0.22811698457E+02  0.51100000000E-03 0.  1.
        -12    1    3    3    0    0  0.14116106722E+01 -0.11782200271E+02  0.10970230384E+02  0.16160409729E+02  0.00000000000E+00 0.  1.
</event>
<event>
 7    1  0.1789107E-013  0.7246159E+02  0.7816164E-02  0.1226708E+00
        -11   -1    0    0    0    0  0.00000000000E+00  0.00000000000E+00  0.45593999997E+02  0.45594000000E+02  0.51100000000E-03 0. -1.
         11   -1    0    0    0    0 -0.00000000000E+00 -0.00000000000E+00 -0.45593999997E+02  0.45594000000E+02  0.51100000000E-03 0.  1.
    9900012    2    1    2    0    0  0.15121092629E+02  0.66413306803E+01  0.88274514631E+01  0.72461585105E+02  0.70000019293E+02 0.  0.
        -12    1    1    2    0    0 -0.15121092629E+02 -0.66413306803E+01 -0.88274514631E+01  0.18726414895E+02  0.00000000000E+00 0.  1.
         11    1    3    3    0    0  0.48109338047E+01 -0.28299770921E+01 -0.95088042438E+01  0.11025933649E+02  0.51100000000E-03 0. -1.
        -11    1    3    3    0    0  0.12816900541E+02  0.28575870480E+02  0.25994764629E+02  0.40701119168E+02  0.51100000000E-03 0.  1.
         12    1    3    3    0    0 -0.25067417172E+01 -0.19104562708E+02 -0.76585089220E+01  0.20734532288E+02  0.00000000000E+00 0. -1.
</event>
<event>
 7    1  0.1789107E-013  0.7246157E+02  0.7816164E-02  0.1226708E+00
        -11   -1    0    0    0    0  0.00000000000E+00  0.00000000000E+00  0.45593999997E+02  0.45594000000E+02  0.51100000000E-03 0.  1.
         11   -1    0    0    0    0 -0.00000000000E+00 -0.00000000000E+00 -0.45593999997E+02  0.45594000000E+02  0.51100000000E-03 0. -1.
    9900012    2    1    2    0    0 -0.89434728854E+01 -0.14279242979E+02 -0.81729233410E+01  0.72461570462E+02  0.70000000218E+02 0.  0.
        -12    1    1    2    0    0  0.89434728854E+01  0.14279242979E+02  0.81729233410E+01  0.18726429538E+02  0.00000000000E+00 0.  1.
         11    1    3    3    0    0  0.33730842863E+01  0.42507806170E+01 -0.80751989716E+01  0.97291146641E+01  0.51100000000E-03 0. -1.
        -11    1    3    3    0    0 -0.21391132291E+02  0.57530062005E+01 -0.20160840484E+02  0.29952247166E+02  0.51100000000E-03 0.  1.
         12    1    3    3    0    0  0.90745751193E+01 -0.24283029797E+02  0.20063116114E+02  0.32780208631E+02  0.00000000000E+00 0. -1.
</event>
<event>
 7    1  0.1789107E-013  0.7246154E+02  0.7816164E-02  0.1226708E+00
        -11   -1    0    0    0    0  0.00000000000E+00  0.00000000000E+00  0.45593999997E+02  0.45594000000E+02  0.51100000000E-03 0. -1.
         11   -1    0    0    0    0 -0.00000000000E+00 -0.00000000000E+00 -0.45593999997E+02  0.45594000000E+02  0.51100000000E-03 0.  1.
    9900012    2    1    2    0    0 -0.92903606985E+01  0.34476044096E+01  0.15889726455E+02  0.72461543184E+02  0.69999964684E+02 0.  0.
        -12    1    1    2    0    0  0.92903606985E+01 -0.34476044096E+01 -0.15889726455E+02  0.18726456816E+02  0.00000000000E+00 0.  1.
         11    1    3    3    0    0  0.10464911624E+02  0.72568103881E+00  0.19296324769E+02  0.21963358990E+02  0.51100000000E-03 0. -1.
        -11    1    3    3    0    0  0.12819787389E+02 -0.70490374929E+01  0.50086642328E+01  0.15463589361E+02  0.51100000000E-03 0.  1.
        -12    1    3    3    0    0 -0.32575059712E+02  0.97709608638E+01 -0.84152625468E+01  0.35034594833E+02  0.00000000000E+00 0.  1.
</event>
<event>
 7    1  0.1789107E-013  0.7246158E+02  0.7816164E-02  0.1226708E+00
        -11   -1    0    0    0    0  0.00000000000E+00  0.00000000000E+00  0.45593999997E+02  0.45594000000E+02  0.51100000000E-03 0. -1.
         11   -1    0    0    0    0 -0.00000000000E+00 -0.00000000000E+00 -0.45593999997E+02  0.45594000000E+02  0.51100000000E-03 0.  1.
    9900012    2    1    2    0    0 -0.15999216694E+01 -0.12117512042E+02  0.14187491556E+02  0.72461581120E+02  0.70000014102E+02 0.  0.
        -12    1    1    2    0    0  0.15999216694E+01  0.12117512042E+02 -0.14187491556E+02  0.18726418880E+02  0.00000000000E+00 0.  1.
         11    1    3    3    0    0 -0.56911651456E+01  0.89795411950E+01 -0.11264457964E+02  0.15489013341E+02  0.51100000000E-03 0. -1.
        -11    1    3    3    0    0  0.10023061957E+02  0.11515838025E+02  0.14335941943E+00  0.15267509575E+02  0.51100000000E-03 0.  1.
         12    1    3    3    0    0 -0.59318184811E+01 -0.32612891262E+02  0.25308590100E+02  0.41705058204E+02  0.00000000000E+00 0. -1.
</event>
<event>
 7    1  0.1789107E-013  0.7246145E+02  0.7816164E-02  0.1226708E+00
        -11   -1    0    0    0    0  0.00000000000E+00  0.00000000000E+00  0.45593999997E+02  0.45594000000E+02  0.51100000000E-03 0. -1.
         11   -1    0    0    0    0 -0.00000000000E+00 -0.00000000000E+00 -0.45593999997E+02  0.45594000000E+02  0.51100000000E-03 0.  1.
    9900012    2    1    2    0    0 -0.15784364089E+02 -0.98344211723E+01  0.21957982251E+01  0.72461454154E+02  0.69999848705E+02 0.  0.
        -12    1    1    2    0    0  0.15784364089E+02  0.98344211723E+01 -0.21957982251E+01  0.18726545846E+02  0.00000000000E+00 0.  1.
         11    1    3    3    0    0 -0.22861310502E+02 -0.42206276696E+01 -0.19580054716E+02  0.30394600816E+02  0.51100000000E-03 0. -1.
        -11    1    3    3    0    0  0.12189630676E+02 -0.72204355793E+00 -0.58565846532E+01  0.13542821973E+02  0.51100000000E-03 0.  1.
        -12    1    3    3    0    0 -0.51126842629E+01 -0.48917499447E+01  0.27632437595E+02  0.28524031365E+02  0.00000000000E+00 0.  1.
</event>
<event>
 7    1  0.1789107E-013  0.7246153E+02  0.7816164E-02  0.1226708E+00
        -11   -1    0    0    0    0  0.00000000000E+00  0.00000000000E+00  0.45593999997E+02  0.45594000000E+02  0.51100000000E-03 0.  1.
         11   -1    0    0    0    0 -0.00000000000E+00 -0.00000000000E+00 -0.45593999997E+02  0.45594000000E+02  0.51100000000E-03 0. -1.
    9900012    2    1    2    0    0 -0.21915047799E+01 -0.70647108764E+01 -0.17203710737E+02  0.72461534875E+02  0.69999953859E+02 0.  0.
        -12    1    1    2    0    0  0.21915047799E+01  0.70647108764E+01  0.17203710737E+02  0.18726465125E+02  0.00000000000E+00 0.  1.
         11    1    3    3    0    0 -0.25770368102E+02 -0.55599888608E+01 -0.12035313968E+02  0.28980581961E+02  0.51100000000E-03 0. -1.
        -11    1    3    3    0    0  0.17091093866E+02 -0.36080004840E+01 -0.20361369656E+02  0.26827383987E+02  0.51100000000E-03 0.  1.
         12    1    3    3    0    0  0.64877694561E+01  0.21032784684E+01  0.15192972888E+02  0.16653568927E+02  0.00000000000E+00 0. -1.
</event>
<event>
 7    1  0.1789107E-013  0.7246161E+02  0.7816164E-02  0.1226708E+00
        -11   -1    0    0    0    0  0.00000000000E+00  0.00000000000E+00  0.45593999997E+02  0.45594000000E+02  0.51100000000E-03 0.  1.
         11   -1    0    0    0    0 -0.00000000000E+00 -0.00000000000E+00 -0.45593999997E+02  0.45594000000E+02  0.51100000000E-03 0. -1.
    9900012    2    1    2    0    0 -0.26955220643E+01 -0.78418130521E+01 -0.16790413496E+02  0.72461605352E+02  0.70000045670E+02 0.  0.
        -12    1    1    2    0    0  0.26955220643E+01  0.78418130521E+01  0.16790413496E+02  0.18726394648E+02  0.00000000000E+00 0.  1.
         11    1    3    3    0    0  0.53213234356E+01  0.20910272792E+01  0.67783179953E+00  0.57574590227E+01  0.51100000000E-03 0. -1.
        -11    1    3    3    0    0  0.22420019965E+02 -0.21920961330E+02 -0.52940166896E+01  0.31799566881E+02  0.51100000000E-03 0.  1.
         12    1    3    3    0    0 -0.30436865464E+02  0.11988120999E+02 -0.12174228606E+02  0.34904579449E+02  0.00000000000E+00 0. -1.
</event>
<event>
 7    1  0.1789107E-013  0.7246155E+02  0.7816164E-02  0.1226708E+00
        -11   -1    0    0    0    0  0.00000000000E+00  0.00000000000E+00  0.45593999997E+02  0.45594000000E+02  0.51100000000E-03 0.  1.
         11   -1    0    0    0    0 -0.00000000000E+00 -0.00000000000E+00 -0.45593999997E+02  0.45594000000E+02  0.51100000000E-03 0. -1.
    9900012    2    1    2    0    0  0.18494753337E+02 -0.16604263040E+01 -0.24221916662E+01  0.72461550017E+02  0.69999973585E+02 0.  0.
        -12    1    1    2    0    0 -0.18494753337E+02  0.16604263040E+01  0.24221916662E+01  0.18726449983E+02  0.00000000000E+00 0.  1.
         11    1    3    3    0    0  0.14906545135E+02  0.16487811619E+02 -0.16403375851E+02  0.27624694739E+02  0.51100000000E-03 0. -1.
        -11    1    3    3    0    0  0.10326010248E+02 -0.44416229405E+01  0.24047352994E+02  0.26544861806E+02  0.51100000000E-03 0.  1.
        -12    1    3    3    0    0 -0.67378020461E+01 -0.13706614983E+02 -0.10066168809E+02  0.18291993473E+02  0.00000000000E+00 0.  1.
</event>
<event>
 7    1  0.1789107E-013  0.7246162E+02  0.7816164E-02  0.1226708E+00
        -11   -1    0    0    0    0  0.00000000000E+00  0.00000000000E+00  0.45593999997E+02  0.45594000000E+02  0.51100000000E-03 0.  1.
         11   -1    0    0    0    0 -0.00000000000E+00 -0.00000000000E+00 -0.45593999997E+02  0.45594000000E+02  0.51100000000E-03 0. -1.
    9900012    2    1    2    0    0 -0.18007350197E+02  0.51370361466E+01  0.15352085853E+00  0.72461618338E+02  0.70000062586E+02 0.  0.
        -12    1    1    2    0    0  0.18007350197E+02 -0.51370361466E+01 -0.15352085853E+00  0.18726381662E+02  0.00000000000E+00 0.  1.
         11    1    3    3    0    0 -0.28933775167E+02  0.19415455472E+02 -0.21158464157E+02  0.40765228594E+02  0.51100000000E-03 0. -1.
        -11    1    3    3    0    0  0.34965046801E+01  0.27227794626E+01  0.18346034274E+01  0.47963364120E+01  0.51100000000E-03 0.  1.
        -12    1    3    3    0    0  0.74299202898E+01 -0.17001198788E+02  0.19477381588E+02  0.26900053332E+02  0.00000000000E+00 0.  1.
</event>
<event>
 7    1  0.1789107E-013  0.7246157E+02  0.7816164E-02  0.1226708E+00
        -11   -1    0    0    0    0  0.00000000000E+00  0.00000000000E+00  0.45593999997E+02  0.45594000000E+02  0.51100000000E-03 0.  1.
         11   -1    0    0    0    0 -0.00000000000E+00 -0.00000000000E+00 -0.45593999997E+02  0.45594000000E+02  0.51100000000E-03 0. -1.
    9900012    2    1    2    0    0  0.92921709107E+00  0.14537392484E+02 -0.11767746772E+02  0.72461572451E+02  0.70000002810E+02 0.  0.
        -12    1    1    2    0    0 -0.92921709107E+00 -0.14537392484E+02  0.11767746772E+02  0.18726427549E+02  0.00000000000E+00 0.  1.
         11    1    3    3    0    0 -0.23966881868E+02  0.38567774178E+01 -0.23273061635E+02  0.33629177163E+02  0.51100000000E-03 0. -1.
        -11    1    3    3    0    0  0.29895682502E+01 -0.72761368161E+01 -0.88383669585E+00  0.79158608411E+01  0.51100000000E-03 0.  1.
        -12    1    3    3    0    0  0.21906530709E+02  0.17956751883E+02  0.12389151559E+02  0.30916534447E+02  0.00000000000E+00 0.  1.
</event>
<event>
 7    1  0.1789107E-013  0.7246158E+02  0.7816164E-02  0.1226708E+00
        -11   -1    0    0    0    0  0.00000000000E+00  0.00000000000E+00  0.45593999997E+02  0.45594000000E+02  0.51100000000E-03 0.  1.
         11   -1    0    0    0    0 -0.00000000000E+00 -0.00000000000E+00 -0.45593999997E+02  0.45594000000E+02  0.51100000000E-03 0. -1.
    9900012    2    1    2    0    0 -0.41717979642E+01 -0.17896420905E+02  0.36045582038E+01  0.72461584986E+02  0.70000019138E+02 0.  0.
        -12    1    1    2    0    0  0.41717979642E+01  0.17896420905E+02 -0.36045582038E+01  0.18726415014E+02  0.00000000000E+00 0.  1.
         11    1    3    3    0    0  0.15920039921E+02 -0.23419104785E+02 -0.10015646704E+02  0.30036899294E+02  0.51100000000E-03 0. -1.
        -11    1    3    3    0    0  0.81276819244E+01 -0.54271359100E+01  0.48497748847E+01  0.10910239885E+02  0.51100000000E-03 0.  1.
        -12    1    3    3    0    0 -0.28219519810E+02  0.10949819790E+02  0.87704300232E+01  0.31514445807E+02  0.00000000000E+00 0.  1.
</event>
<event>
 7    1  0.1789107E-013  0.7246151E+02  0.7816164E-02  0.1226708E+00
        -11   -1    0    0    0    0  0.00000000000E+00  0.00000000000E+00  0.45593999997E+02  0.45594000000E+02  0.51100000000E-03 0. -1.
         11   -1    0    0    0    0 -0.00000000000E+00 -0.00000000000E+00 -0.45593999997E+02  0.45594000000E+02  0.51100000000E-03 0.  1.
    9900012    2    1    2    0    0  0.13077436985E+02  0.10734527142E+02 -0.80269461068E+01  0.72461513547E+02  0.69999926076E+02 0.  0.
        -12    1    1    2    0    0 -0.13077436985E+02 -0.10734527142E+02  0.80269461068E+01  0.18726486453E+02  0.00000000000E+00 0.  1.
         11    1    3    3    0    0  0.74222325094E+01  0.26400305225E+02  0.11306389727E+02  0.29663110092E+02  0.51100000000E-03 0. -1.
        -11    1    3    3    0    0 -0.27761455552E+01  0.44722240193E+01 -0.20274172473E+02  0.20946356283E+02  0.51100000000E-03 0.  1.
        -12    1    3    3    0    0  0.84313500312E+01 -0.20138002102E+02  0.94083663946E+00  0.21852047172E+02  0.00000000000E+00 0.  1.
</event>
<event>
 7    1  0.1789107E-013  0.7246151E+02  0.7816164E-02  0.1226708E+00
        -11   -1    0    0    0    0  0.00000000000E+00  0.00000000000E+00  0.45593999997E+02  0.45594000000E+02  0.51100000000E-03 0.  1.
         11   -1    0    0    0    0 -0.00000000000E+00 -0.00000000000E+00 -0.45593999997E+02  0.45594000000E+02  0.51100000000E-03 0. -1.
    9900012    2    1    2    0    0 -0.87112267633E+01  0.16452568427E+02  0.20270475611E+01  0.72461510703E+02  0.69999922371E+02 0.  0.
        -12    1    1    2    0    0  0.87112267633E+01 -0.16452568427E+02 -0.20270475611E+01  0.18726489297E+02  0.00000000000E+00 0.  1.
         11    1    3    3    0    0  0.78645958884E+00  0.64454029096E+01  0.90936209890E+01  0.11173883851E+02  0.51100000000E-03 0. -1.
        -11    1    3    3    0    0  0.98715045073E+01  0.29069010967E+02  0.57630959637E+01  0.31235673119E+02  0.51100000000E-03 0.  1.
         12    1    3    3    0    0 -0.19369190859E+02 -0.19061845450E+02 -0.12829669392E+02  0.30051953733E+02  0.00000000000E+00 0. -1.
</event>
<event>
 7    1  0.1789107E-013  0.7246149E+02  0.7816164E-02  0.1226708E+00
        -11   -1    0    0    0    0  0.00000000000E+00  0.00000000000E+00  0.45593999997E+02  0.45594000000E+02  0.51100000000E-03 0. -1.
         11   -1    0    0    0    0 -0.00000000000E+00 -0.00000000000E+00 -0.45593999997E+02  0.45594000000E+02  0.51100000000E-03 0.  1.
    9900012    2    1    2    0    0  0.50442633663E+01  0.84742588209E+01  0.15919311489E+02  0.72461491149E+02  0.69999896898E+02 0.  0.
        -12    1    1    2    0    0 -0.50442633663E+01 -0.84742588209E+01 -0.15919311489E+02  0.18726508851E+02  0.00000000000E+00 0.  1.
         11    1    3    3    0    0 -0.59009569031E+01  0.64318198045E+00 -0.33980569684E+01  0.68397197935E+01  0.51100000000E-03 0. -1.
        -11    1    3    3    0    0 -0.51519687862E+01 -0.96588573990E+01 -0.18182126002E+02  0.21223242326E+02  0.51100000000E-03 0.  1.
         12    1    3    3    0    0  0.16097189056E+02  0.17489934239E+02  0.37499494460E+02  0.44398529029E+02  0.00000000000E+00 0. -1.
</event>
<event>
 7    1  0.1789107E-013  0.7246155E+02  0.7816164E-02  0.1226708E+00
        -11   -1    0    0    0    0  0.00000000000E+00  0.00000000000E+00  0.45593999997E+02  0.45594000000E+02  0.51100000000E-03 0. -1.
         11   -1    0    0    0    0 -0.00000000000E+00 -0.00000000000E+00 -0.45593999997E+02  0.45594000000E+02  0.51100000000E-03 0.  1.
    9900012    2    1    2    0    0  0.18429362258E+02  0.30252169260E+01  0.13734716869E+01  0.72461554658E+02  0.69999979631E+02 0.  0.
        -12    1    1    2    0    0 -0.18429362258E+02 -0.30252169260E+01 -0.13734716869E+01  0.18726445342E+02  0.00000000000E+00 0.  1.
         11    1    3    3    0    0  0.35707936646E+01  0.17853490398E+02  0.22626083780E+02  0.29041992945E+02  0.51100000000E-03 0. -1.
        -11    1    3    3    0    0 -0.13525477255E+01 -0.38134418861E+01  0.75589215881E+01  0.85737401526E+01  0.51100000000E-03 0.  1.
         12    1    3    3    0    0  0.16211116319E+02 -0.11014831585E+02 -0.28811533681E+02  0.34845821560E+02  0.00000000000E+00 0. -1.
</event>
<event>
 7    1  0.1789107E-013  0.7246153E+02  0.7816164E-02  0.1226708E+00
        -11   -1    0    0    0    0  0.00000000000E+00  0.00000000000E+00  0.45593999997E+02  0.45594000000E+02  0.51100000000E-03 0.  1.
         11   -1    0    0    0    0 -0.00000000000E+00 -0.00000000000E+00 -0.45593999997E+02  0.45594000000E+02  0.51100000000E-03 0. -1.
    9900012    2    1    2    0    0 -0.11178604994E+02 -0.14134175297E+02 -0.50935739942E+01  0.72461531647E+02  0.69999949655E+02 0.  0.
        -12    1    1    2    0    0  0.11178604994E+02  0.14134175297E+02  0.50935739942E+01  0.18726468353E+02  0.00000000000E+00 0.  1.
         11    1    3    3    0    0  0.11455310650E+02 -0.30532761447E+02  0.64702286127E+01  0.33246616704E+02  0.51100000000E-03 0. -1.
        -11    1    3    3    0    0 -0.20268009441E+02  0.81469514211E+01  0.32590393451E+01  0.22085886034E+02  0.51100000000E-03 0.  1.
        -12    1    3    3    0    0 -0.23659062023E+01  0.82516347288E+01 -0.14822841952E+02  0.17129028910E+02  0.00000000000E+00 0.  1.
</event>
<event>
 7    1  0.1789107E-013  0.7246158E+02  0.7816164E-02  0.1226708E+00
        -11   -1    0    0    0    0  0.00000000000E+00  0.00000000000E+00  0.45593999997E+02  0.45594000000E+02  0.51100000000E-03 0. -1.
         11   -1    0    0    0    0 -0.00000000000E+00 -0.00000000000E+00 -0.45593999997E+02  0.45594000000E+02  0.51100000000E-03 0.  1.
    9900012    2    1    2    0    0 -0.16080094587E+02  0.73378280352E+01  0.61859305078E+01  0.72461577532E+02  0.70000009429E+02 0.  0.
        -12    1    1    2    0    0  0.16080094587E+02 -0.73378280352E+01 -0.61859305078E+01  0.18726422468E+02  0.00000000000E+00 0.  1.
         11    1    3    3    0    0  0.28143427157E+01 -0.60335641393E+01  0.16283134251E+01  0.68538913046E+01  0.51100000000E-03 0. -1.
        -11    1    3    3    0    0  0.22536987663E+02  0.31465141428E+01  0.82994450932E+00  0.22770708647E+02  0.51100000000E-03 0.  1.
         12    1    3    3    0    0 -0.41431424965E+02  0.10224878032E+02  0.37276725733E+01  0.42836977580E+02  0.00000000000E+00 0. -1.
</event>
<event>
 7    1  0.1789107E-013  0.7246161E+02  0.7816164E-02  0.1226708E+00
        -11   -1    0    0    0    0  0.00000000000E+00  0.00000000000E+00  0.45593999997E+02  0.45594000000E+02  0.51100000000E-03 0.  1.
         11   -1    0    0    0    0 -0.00000000000E+00 -0.00000000000E+00 -0.45593999997E+02  0.45594000000E+02  0.51100000000E-03 0. -1.
    9900012    2    1    2    0    0 -0.99968228064E+01  0.84485548183E+01 -0.13392657813E+02  0.72461606112E+02  0.70000046660E+02 0.  0.
        -12    1    1    2    0    0  0.99968228064E+01 -0.84485548183E+01  0.13392657813E+02  0.18726393888E+02  0.00000000000E+00 0.  1.
         11    1    3    3    0    0 -0.78229135171E+01  0.10607599997E+02 -0.23744177865E+02  0.27157045796E+02  0.51100000000E-03 0. -1.
        -11    1    3    3    0    0 -0.91884174620E+01  0.10726889474E+02  0.22290906652E+02  0.26388969151E+02  0.51100000000E-03 0.  1.
         12    1    3    3    0    0  0.70145081728E+01 -0.12885934652E+02 -0.11939386600E+02  0.18915591165E+02  0.00000000000E+00 0. -1.
</event>
<event>
 7    1  0.1789107E-013  0.7246159E+02  0.7816164E-02  0.1226708E+00
        -11   -1    0    0    0    0  0.00000000000E+00  0.00000000000E+00  0.45593999997E+02  0.45594000000E+02  0.51100000000E-03 0. -1.
         11   -1    0    0    0    0 -0.00000000000E+00 -0.00000000000E+00 -0.45593999997E+02  0.45594000000E+02  0.51100000000E-03 0.  1.
    9900012    2    1    2    0    0 -0.41345575533E+01 -0.17989822410E+02 -0.31543907968E+01  0.72461589297E+02  0.70000024755E+02 0.  0.
        -12    1    1    2    0    0  0.41345575533E+01  0.17989822410E+02  0.31543907968E+01  0.18726410703E+02  0.00000000000E+00 0.  1.
         11    1    3    3    0    0 -0.39556436034E+01  0.88820126531E+01 -0.14780359435E+02  0.17691701172E+02  0.51100000000E-03 0. -1.
        -11    1    3    3    0    0  0.22547505005E+02 -0.12302349763E+02  0.83928953424E+00  0.25699069999E+02  0.51100000000E-03 0.  1.
         12    1    3    3    0    0 -0.22726418955E+02 -0.14569485300E+02  0.10786679104E+02  0.29070818126E+02  0.00000000000E+00 0. -1.
</event>
<event>
 7    1  0.1789107E-013  0.7246159E+02  0.7816164E-02  0.1226708E+00
        -11   -1    0    0    0    0  0.00000000000E+00  0.00000000000E+00  0.45593999997E+02  0.45594000000E+02  0.51100000000E-03 0.  1.
         11   -1    0    0    0    0 -0.00000000000E+00 -0.00000000000E+00 -0.45593999997E+02  0.45594000000E+02  0.51100000000E-03 0. -1.
    9900012    2    1    2    0    0  0.15851911052E+02  0.13652775096E+01  0.98757921453E+01  0.72461592518E+02  0.70000028951E+02 0.  0.
        -12    1    1    2    0    0 -0.15851911052E+02 -0.13652775096E+01 -0.98757921453E+01  0.18726407482E+02  0.00000000000E+00 0.  1.
         11    1    3    3    0    0  0.90816657776E+01  0.26685360329E+02  0.18282456473E+02  0.33598114890E+02  0.51100000000E-03 0.  1.
        -11    1    3    3    0    0  0.12719815719E+01 -0.12989009836E+02  0.97115732405E+01  0.16267973713E+02  0.51100000000E-03 0. -1.
        -12    1    3    3    0    0  0.54982637024E+01 -0.12331072983E+02 -0.18118237568E+02  0.22595503916E+02  0.00000000000E+00 0.  1.
</event>
<event>
 7    1  0.1789107E-013  0.7246151E+02  0.7816164E-02  0.1226708E+00
        -11   -1    0    0    0    0  0.00000000000E+00  0.00000000000E+00  0.45593999997E+02  0.45594000000E+02  0.51100000000E-03 0.  1.
         11   -1    0    0    0    0 -0.00000000000E+00 -0.00000000000E+00 -0.45593999997E+02  0.45594000000E+02  0.51100000000E-03 0. -1.
    9900012    2    1    2    0    0 -0.17625913371E+02 -0.62746068134E+01 -0.79861263510E+00  0.72461513544E+02  0.69999926073E+02 0.  0.
        -12    1    1    2    0    0  0.17625913371E+02  0.62746068134E+01  0.79861263510E+00  0.18726486456E+02  0.00000000000E+00 0.  1.
         11    1    3    3    0    0  0.77473269033E+01 -0.11554124816E+01  0.89489129774E+01  0.11892816987E+02  0.51100000000E-03 0. -1.
        -11    1    3    3    0    0 -0.10650807254E+02  0.19150762136E+02  0.11839069300E+02  0.24906925697E+02  0.51100000000E-03 0.  1.
         12    1    3    3    0    0 -0.14722433020E+02 -0.24269956467E+02 -0.21586594912E+02  0.35661770860E+02  0.00000000000E+00 0. -1.
</event>
<event>
 7    1  0.1789107E-013  0.7246159E+02  0.7816164E-02  0.1226708E+00
        -11   -1    0    0    0    0  0.00000000000E+00  0.00000000000E+00  0.45593999997E+02  0.45594000000E+02  0.51100000000E-03 0.  1.
         11   -1    0    0    0    0 -0.00000000000E+00 -0.00000000000E+00 -0.45593999997E+02  0.45594000000E+02  0.51100000000E-03 0. -1.
    9900012    2    1    2    0    0 -0.27682384612E+00  0.11567510232E+02 -0.14723945461E+02  0.72461588322E+02  0.70000023484E+02 0.  0.
        -12    1    1    2    0    0  0.27682384612E+00 -0.11567510232E+02  0.14723945461E+02  0.18726411678E+02  0.00000000000E+00 0.  1.
         11    1    3    3    0    0 -0.11781485401E+01 -0.18996444678E+01 -0.10774197904E+02  0.11003636845E+02  0.51100000000E-03 0. -1.
        -11    1    3    3    0    0  0.26038576197E+02  0.20384577752E+02  0.58939942246E+01  0.33589844130E+02  0.51100000000E-03 0.  1.
         12    1    3    3    0    0 -0.25137251503E+02 -0.69174230521E+01 -0.98437417816E+01  0.27868107346E+02  0.00000000000E+00 0. -1.
</event>
<event>
 7    1  0.1789107E-013  0.7246161E+02  0.7816164E-02  0.1226708E+00
        -11   -1    0    0    0    0  0.00000000000E+00  0.00000000000E+00  0.45593999997E+02  0.45594000000E+02  0.51100000000E-03 0. -1.
         11   -1    0    0    0    0 -0.00000000000E+00 -0.00000000000E+00 -0.45593999997E+02  0.45594000000E+02  0.51100000000E-03 0.  1.
    9900012    2    1    2    0    0 -0.11835197918E+02  0.11262363864E+02 -0.91523217181E+01  0.72461608399E+02  0.70000049638E+02 0.  0.
        -12    1    1    2    0    0  0.11835197918E+02 -0.11262363864E+02  0.91523217181E+01  0.18726391601E+02  0.00000000000E+00 0.  1.
         11    1    3    3    0    0 -0.71351755204E+01  0.24268734049E+01  0.29361131097E+01  0.80883375724E+01  0.51100000000E-03 0. -1.
        -11    1    3    3    0    0 -0.19047209201E+02  0.31126829839E+02 -0.43068042947E+01  0.36745398048E+02  0.51100000000E-03 0.  1.
         12    1    3    3    0    0  0.14347186803E+02 -0.22291339380E+02 -0.77816305331E+01  0.27627872779E+02  0.00000000000E+00 0. -1.
</event>
<event>
 7    1  0.1789107E-013  0.7246161E+02  0.7816164E-02  0.1226708E+00
        -11   -1    0    0    0    0  0.00000000000E+00  0.00000000000E+00  0.45593999997E+02  0.45594000000E+02  0.51100000000E-03 0.  1.
         11   -1    0    0    0    0 -0.00000000000E+00 -0.00000000000E+00 -0.45593999997E+02  0.45594000000E+02  0.51100000000E-03 0. -1.
    9900012    2    1    2    0    0  0.15302983906E+02 -0.82427478693E+01 -0.69680212706E+01  0.72461614089E+02  0.70000057050E+02 0.  0.
        -12    1    1    2    0    0 -0.15302983906E+02  0.82427478693E+01  0.69680212706E+01  0.18726385911E+02  0.00000000000E+00 0.  1.
         11    1    3    3    0    0  0.22979234248E+02 -0.97340265996E+01  0.13955304935E+01  0.24994879198E+02  0.51100000000E-03 0.  1.
        -11    1    3    3    0    0 -0.20672080630E+02 -0.11047523658E+02  0.62252425129E+01  0.24251522450E+02  0.51100000000E-03 0. -1.
         12    1    3    3    0    0  0.12995830288E+02  0.12538802388E+02 -0.14588794277E+02  0.23215212441E+02  0.00000000000E+00 0. -1.
</event>
<event>
 7    1  0.1789107E-013  0.7246161E+02  0.7816164E-02  0.1226708E+00
        -11   -1    0    0    0    0  0.00000000000E+00  0.00000000000E+00  0.45593999997E+02  0.45594000000E+02  0.51100000000E-03 0. -1.
         11   -1    0    0    0    0 -0.00000000000E+00 -0.00000000000E+00 -0.45593999997E+02  0.45594000000E+02  0.51100000000E-03 0.  1.
    9900012    2    1    2    0    0  0.84349037318E+01 -0.96821648670E+01  0.13630329759E+02  0.72461606679E+02  0.70000047398E+02 0.  0.
        -12    1    1    2    0    0 -0.84349037318E+01  0.96821648670E+01 -0.13630329759E+02  0.18726393321E+02  0.00000000000E+00 0.  1.
         11    1    3    3    0    0  0.21412120008E+02 -0.14591552017E+02  0.18762650252E+02  0.31991081855E+02  0.51100000000E-03 0. -1.
        -11    1    3    3    0    0 -0.47757565618E+01 -0.16114875200E+02  0.16954637398E+01  0.16892946782E+02  0.51100000000E-03 0.  1.
         12    1    3    3    0    0 -0.82014597147E+01  0.21024262349E+02 -0.68277842324E+01  0.23577578042E+02  0.00000000000E+00 0. -1.
</event>
<event>
 7    1  0.1789107E-013  0.7246164E+02  0.7816164E-02  0.1226708E+00
        -11   -1    0    0    0    0  0.00000000000E+00  0.00000000000E+00  0.45593999997E+02  0.45594000000E+02  0.51100000000E-03 0. -1.
         11   -1    0    0    0    0 -0.00000000000E+00 -0.00000000000E+00 -0.45593999997E+02  0.45594000000E+02  0.51100000000E-03 0.  1.
    9900012    2    1    2    0    0 -0.14023178968E+02  0.96194898730E+01 -0.78417026995E+01  0.72461643306E+02  0.70000095112E+02 0.  0.
        -12    1    1    2    0    0  0.14023178968E+02 -0.96194898730E+01  0.78417026995E+01  0.18726356694E+02  0.00000000000E+00 0.  1.
         11    1    3    3    0    0 -0.26445824426E+01  0.90399582771E+01  0.25016819012E+02  0.26731178344E+02  0.51100000000E-03 0. -1.
        -11    1    3    3    0    0  0.52802872766E+01  0.95333308666E+01 -0.48356931418E+01  0.11922657403E+02  0.51100000000E-03 0.  1.
        -12    1    3    3    0    0 -0.16658883802E+02 -0.89537992707E+01 -0.28022828569E+02  0.33807807559E+02  0.00000000000E+00 0.  1.
</event>
<event>
 7    1  0.1789107E-013  0.7246156E+02  0.7816164E-02  0.1226708E+00
        -11   -1    0    0    0    0  0.00000000000E+00  0.00000000000E+00  0.45593999997E+02  0.45594000000E+02  0.51100000000E-03 0.  1.
         11   -1    0    0    0    0 -0.00000000000E+00 -0.00000000000E+00 -0.45593999997E+02  0.45594000000E+02  0.51100000000E-03 0. -1.
    9900012    2    1    2    0    0  0.18426055353E+00 -0.41207147904E-01 -0.18725487327E+02  0.72461560787E+02  0.69999987615E+02 0.  0.
        -12    1    1    2    0    0 -0.18426055353E+00  0.41207147904E-01  0.18725487327E+02  0.18726439213E+02  0.00000000000E+00 0.  1.
         11    1    3    3    0    0 -0.28506564554E+00  0.97037267465E+01 -0.33158058631E+02  0.34549970009E+02  0.51100000000E-03 0. -1.
        -11    1    3    3    0    0  0.12186151954E+02 -0.83690505201E+01 -0.46321539742E+01  0.15491938444E+02  0.51100000000E-03 0.  1.
        -12    1    3    3    0    0 -0.11716825755E+02 -0.13758833743E+01  0.19064725279E+02  0.22419652334E+02  0.00000000000E+00 0.  1.
</event>
<event>
 7    1  0.1789107E-013  0.7246157E+02  0.7816164E-02  0.1226708E+00
        -11   -1    0    0    0    0  0.00000000000E+00  0.00000000000E+00  0.45593999997E+02  0.45594000000E+02  0.51100000000E-03 0.  1.
         11   -1    0    0    0    0 -0.00000000000E+00 -0.00000000000E+00 -0.45593999997E+02  0.45594000000E+02  0.51100000000E-03 0. -1.
    9900012    2    1    2    0    0  0.74174672742E+01 -0.16021584519E+02 -0.62425398506E+01  0.72461566943E+02  0.69999995634E+02 0.  0.
        -12    1    1    2    0    0 -0.74174672742E+01  0.16021584519E+02  0.62425398506E+01  0.18726433057E+02  0.00000000000E+00 0.  1.
         11    1    3    3    0    0  0.30456979419E+02 -0.25488509941E+02 -0.16956378465E+02  0.43183451753E+02  0.51100000000E-03 0. -1.
        -11    1    3    3    0    0 -0.95950527803E+00 -0.12233898593E+01 -0.12401432778E+01  0.19887907726E+01  0.51100000000E-03 0.  1.
        -12    1    3    3    0    0 -0.22080006867E+02  0.10690315282E+02  0.11953981892E+02  0.27289324417E+02  0.00000000000E+00 0.  1.
</event>
<event>
 7    1  0.1789107E-013  0.7246154E+02  0.7816164E-02  0.1226708E+00
        -11   -1    0    0    0    0  0.00000000000E+00  0.00000000000E+00  0.45593999997E+02  0.45594000000E+02  0.51100000000E-03 0.  1.
         11   -1    0    0    0    0 -0.00000000000E+00 -0.00000000000E+00 -0.45593999997E+02  0.45594000000E+02  0.51100000000E-03 0. -1.
    9900012    2    1    2    0    0 -0.17936150039E+02 -0.52839466913E+01 -0.10270353655E+01  0.72461538174E+02  0.69999958158E+02 0.  0.
        -12    1    1    2    0    0  0.17936150039E+02  0.52839466913E+01  0.10270353655E+01  0.18726461826E+02  0.00000000000E+00 0.  1.
         11    1    3    3    0    0 -0.53408811276E+01 -0.10754192799E+01 -0.11249120552E+02  0.12498970010E+02  0.51100000000E-03 0. -1.
        -11    1    3    3    0    0 -0.28803421372E+02  0.36312325147E+01 -0.11955405142E+02  0.31396729840E+02  0.51100000000E-03 0.  1.
        -12    1    3    3    0    0  0.16208152460E+02 -0.78397599260E+01  0.22177490329E+02  0.28565838324E+02  0.00000000000E+00 0.  1.
</event>
<event>
 7    1  0.1789107E-013  0.7246150E+02  0.7816164E-02  0.1226708E+00
        -11   -1    0    0    0    0  0.00000000000E+00  0.00000000000E+00  0.45593999997E+02  0.45594000000E+02  0.51100000000E-03 0. -1.
         11   -1    0    0    0    0 -0.00000000000E+00 -0.00000000000E+00 -0.45593999997E+02  0.45594000000E+02  0.51100000000E-03 0.  1.
    9900012    2    1    2    0    0  0.59850621029E+01  0.26311756075E+01  0.17548151923E+02  0.72461503014E+02  0.69999912355E+02 0.  0.
        -12    1    1    2    0    0 -0.59850621029E+01 -0.26311756075E+01 -0.17548151923E+02  0.18726496986E+02  0.00000000000E+00 0.  1.
         11    1    3    3    0    0  0.19895290299E+01  0.13921343183E+02  0.50661940121E+01  0.14947519654E+02  0.51100000000E-03 0. -1.
        -11    1    3    3    0    0 -0.40761234152E+01  0.15764537397E+02 -0.11933790575E+02  0.20187886942E+02  0.51100000000E-03 0.  1.
         12    1    3    3    0    0  0.80716564882E+01 -0.27054704973E+02  0.24415748486E+02  0.37326096418E+02  0.00000000000E+00 0. -1.
</event>
<event>
 7    1  0.1789107E-013  0.7246160E+02  0.7816164E-02  0.1226708E+00
        -11   -1    0    0    0    0  0.00000000000E+00  0.00000000000E+00  0.45593999997E+02  0.45594000000E+02  0.51100000000E-03 0.  1.
         11   -1    0    0    0    0 -0.00000000000E+00 -0.00000000000E+00 -0.45593999997E+02  0.45594000000E+02  0.51100000000E-03 0. -1.
    9900012    2    1    2    0    0  0.15838003185E+00  0.13218110554E+02 -0.13264027186E+02  0.72461602908E+02  0.70000042486E+02 0.  0.
        -12    1    1    2    0    0 -0.15838003185E+00 -0.13218110554E+02  0.13264027186E+02  0.18726397092E+02  0.00000000000E+00 0.  1.
         11    1    3    3    0    0 -0.15264227937E+02 -0.49895658325E+01 -0.16202440841E+02  0.22812529697E+02  0.51100000000E-03 0. -1.
        -11    1    3    3    0    0  0.13785601377E+02 -0.12584721324E+02  0.22946492268E+01  0.18806473127E+02  0.51100000000E-03 0.  1.
        -12    1    3    3    0    0  0.16370065925E+01  0.30792397710E+02  0.64376442775E+00  0.30842600085E+02  0.00000000000E+00 0.  1.
</event>
<event>
 7    1  0.1789107E-013  0.7246154E+02  0.7816164E-02  0.1226708E+00
        -11   -1    0    0    0    0  0.00000000000E+00  0.00000000000E+00  0.45593999997E+02  0.45594000000E+02  0.51100000000E-03 0. -1.
         11   -1    0    0    0    0 -0.00000000000E+00 -0.00000000000E+00 -0.45593999997E+02  0.45594000000E+02  0.51100000000E-03 0.  1.
    9900012    2    1    2    0    0 -0.16913795882E+02  0.74332092967E+01 -0.30579461129E+01  0.72461544756E+02  0.69999966732E+02 0.  0.
        -12    1    1    2    0    0  0.16913795882E+02 -0.74332092967E+01  0.30579461129E+01  0.18726455244E+02  0.00000000000E+00 0.  1.
         11    1    3    3    0    0 -0.88349505478E+01  0.11356172644E+02 -0.62295759951E+01  0.15678859194E+02  0.51100000000E-03 0. -1.
        -11    1    3    3    0    0 -0.14230284421E+02 -0.26325967032E+02 -0.80393810891E+01  0.30986919554E+02  0.51100000000E-03 0.  1.
         12    1    3    3    0    0  0.61514390874E+01  0.22403003685E+02  0.11211010971E+02  0.25795766008E+02  0.00000000000E+00 0. -1.
</event>
<event>
 7    1  0.1789107E-013  0.7246157E+02  0.7816164E-02  0.1226708E+00
        -11   -1    0    0    0    0  0.00000000000E+00  0.00000000000E+00  0.45593999997E+02  0.45594000000E+02  0.51100000000E-03 0.  1.
         11   -1    0    0    0    0 -0.00000000000E+00 -0.00000000000E+00 -0.45593999997E+02  0.45594000000E+02  0.51100000000E-03 0. -1.
    9900012    2    1    2    0    0 -0.12979140352E+02 -0.89737996017E+01 -0.10084251956E+02  0.72461566782E+02  0.69999995424E+02 0.  0.
        -12    1    1    2    0    0  0.12979140352E+02  0.89737996017E+01  0.10084251956E+02  0.18726433218E+02  0.00000000000E+00 0.  1.
         11    1    3    3    0    0  0.43687299715E+01 -0.16939920149E+02  0.67222007224E+01  0.18741256069E+02  0.51100000000E-03 0. -1.
        -11    1    3    3    0    0  0.16510073644E+02  0.27699482873E+01 -0.63635333188E+01  0.17909486363E+02  0.51100000000E-03 0.  1.
        -12    1    3    3    0    0 -0.33857943967E+02  0.51961722603E+01 -0.10442919360E+02  0.35810824350E+02  0.00000000000E+00 0.  1.
</event>
<event>
 7    1  0.1789107E-013  0.7246161E+02  0.7816164E-02  0.1226708E+00
        -11   -1    0    0    0    0  0.00000000000E+00  0.00000000000E+00  0.45593999997E+02  0.45594000000E+02  0.51100000000E-03 0.  1.
         11   -1    0    0    0    0 -0.00000000000E+00 -0.00000000000E+00 -0.45593999997E+02  0.45594000000E+02  0.51100000000E-03 0. -1.
    9900012    2    1    2    0    0  0.27356604615E+00 -0.29912882920E+01 -0.18483910133E+02  0.72461612793E+02  0.70000055362E+02 0.  0.
        -12    1    1    2    0    0 -0.27356604615E+00  0.29912882920E+01  0.18483910133E+02  0.18726387207E+02  0.00000000000E+00 0.  1.
         11    1    3    3    0    0  0.18798408404E+02 -0.84820900409E+01 -0.16947279804E+02  0.26693375639E+02  0.51100000000E-03 0. -1.
        -11    1    3    3    0    0 -0.15348019661E+02 -0.84273986964E+01  0.15609265954E+02  0.23457023260E+02  0.51100000000E-03 0.  1.
         12    1    3    3    0    0 -0.31768226972E+01  0.13918200445E+02 -0.17145896283E+02  0.22311213894E+02  0.00000000000E+00 0. -1.
</event>
<event>
 7    1  0.1789107E-013  0.7246157E+02  0.7816164E-02  0.1226708E+00
        -11   -1    0    0    0    0  0.00000000000E+00  0.00000000000E+00  0.45593999997E+02  0.45594000000E+02  0.51100000000E-03 0.  1.
         11   -1    0    0    0    0 -0.00000000000E+00 -0.00000000000E+00 -0.45593999997E+02  0.45594000000E+02  0.51100000000E-03 0. -1.
    9900012    2    1    2    0    0 -0.17518712244E+02 -0.66121648012E+01  0.23095878502E+00  0.72461565635E+02  0.69999993931E+02 0.  0.
        -12    1    1    2    0    0  0.17518712244E+02  0.66121648012E+01 -0.23095878502E+00  0.18726434365E+02  0.00000000000E+00 0.  1.
         11    1    3    3    0    0 -0.14427097964E+02  0.28377378098E+02 -0.11435644815E+02  0.33825888251E+02  0.51100000000E-03 0. -1.
        -11    1    3    3    0    0 -0.32735082904E+01 -0.41179596913E+01  0.45468266097E+01  0.69532065284E+01  0.51100000000E-03 0.  1.
        -12    1    3    3    0    0  0.18189401053E+00 -0.30871583207E+02  0.71197769903E+01  0.31682470856E+02  0.00000000000E+00 0.  1.
</event>
<event>
 7    1  0.1789107E-013  0.7246156E+02  0.7816164E-02  0.1226708E+00
        -11   -1    0    0    0    0  0.00000000000E+00  0.00000000000E+00  0.45593999997E+02  0.45594000000E+02  0.51100000000E-03 0.  1.
         11   -1    0    0    0    0 -0.00000000000E+00 -0.00000000000E+00 -0.45593999997E+02  0.45594000000E+02  0.51100000000E-03 0. -1.
    9900012    2    1    2    0    0 -0.77231719263E+01 -0.94373914263E+01 -0.14211538863E+02  0.72461559377E+02  0.69999985778E+02 0.  0.
        -12    1    1    2    0    0  0.77231719263E+01  0.94373914263E+01  0.14211538863E+02  0.18726440623E+02  0.00000000000E+00 0.  1.
         11    1    3    3    0    0 -0.21465396460E+01 -0.37401827751E+01  0.82039775572E+01  0.92683249653E+01  0.51100000000E-03 0. -1.
        -11    1    3    3    0    0  0.13454199709E+02 -0.14232362444E+02  0.11986815227E+02  0.22962129042E+02  0.51100000000E-03 0.  1.
         12    1    3    3    0    0 -0.19030831990E+02  0.85351537933E+01 -0.34402331648E+02  0.40231105370E+02  0.00000000000E+00 0. -1.
</event>
<event>
 7    1  0.1789107E-013  0.7246152E+02  0.7816164E-02  0.1226708E+00
        -11   -1    0    0    0    0  0.00000000000E+00  0.00000000000E+00  0.45593999997E+02  0.45594000000E+02  0.51100000000E-03 0.  1.
         11   -1    0    0    0    0 -0.00000000000E+00 -0.00000000000E+00 -0.45593999997E+02  0.45594000000E+02  0.51100000000E-03 0. -1.
    9900012    2    1    2    0    0 -0.13522112094E+01  0.14530633809E+01 -0.18620983220E+02  0.72461524506E+02  0.69999940352E+02 0.  0.
        -12    1    1    2    0    0  0.13522112094E+01 -0.14530633809E+01  0.18620983220E+02  0.18726475494E+02  0.00000000000E+00 0.  1.
         11    1    3    3    0    0  0.97627117659E+01 -0.39171506316E+01 -0.51614701230E+01  0.11717311304E+02  0.51100000000E-03 0. -1.
        -11    1    3    3    0    0  0.14727248478E+02 -0.48784086896E+01 -0.25975983352E+02  0.30256279190E+02  0.51100000000E-03 0.  1.
        -12    1    3    3    0    0 -0.25842171453E+02  0.10248622702E+02  0.12516470254E+02  0.30487934012E+02  0.00000000000E+00 0.  1.
</event>
<event>
 7    1  0.1789107E-013  0.7246153E+02  0.7816164E-02  0.1226708E+00
        -11   -1    0    0    0    0  0.00000000000E+00  0.00000000000E+00  0.45593999997E+02  0.45594000000E+02  0.51100000000E-03 0.  1.
         11   -1    0    0    0    0 -0.00000000000E+00 -0.00000000000E+00 -0.45593999997E+02  0.45594000000E+02  0.51100000000E-03 0. -1.
    9900012    2    1    2    0    0  0.47760848557E+01  0.50554590816E+01 -0.17387121886E+02  0.72461530484E+02  0.69999948139E+02 0.  0.
        -12    1    1    2    0    0 -0.47760848557E+01 -0.50554590816E+01  0.17387121886E+02  0.18726469516E+02  0.00000000000E+00 0.  1.
         11    1    3    3    0    0 -0.17136696660E+02  0.71079642416E+01 -0.13306127733E+02  0.22830737254E+02  0.51100000000E-03 0. -1.
        -11    1    3    3    0    0 -0.97124463207E+01 -0.31073098325E+01 -0.13218772674E+02  0.16694997430E+02  0.51100000000E-03 0.  1.
        -12    1    3    3    0    0  0.31625227836E+02  0.10548046725E+01  0.91377785213E+01  0.32935795799E+02  0.00000000000E+00 0.  1.
</event>
<event>
 7    1  0.1789107E-013  0.7246148E+02  0.7816164E-02  0.1226708E+00
        -11   -1    0    0    0    0  0.00000000000E+00  0.00000000000E+00  0.45593999997E+02  0.45594000000E+02  0.51100000000E-03 0.  1.
         11   -1    0    0    0    0 -0.00000000000E+00 -0.00000000000E+00 -0.45593999997E+02  0.45594000000E+02  0.51100000000E-03 0. -1.
    9900012    2    1    2    0    0  0.17124689668E+02  0.73648361547E+01 -0.17851031217E+01  0.72461484014E+02  0.69999887604E+02 0.  0.
        -12    1    1    2    0    0 -0.17124689668E+02 -0.73648361547E+01  0.17851031217E+01  0.18726515986E+02  0.00000000000E+00 0.  1.
         11    1    3    3    0    0  0.93268809253E+01  0.22975427609E+01  0.71323529937E+01  0.11964107573E+02  0.51100000000E-03 0. -1.
        -11    1    3    3    0    0 -0.74303027014E+01  0.17757239177E+02  0.18477926791E+02  0.26682629559E+02  0.51100000000E-03 0.  1.
         12    1    3    3    0    0  0.15228111444E+02 -0.12689945783E+02 -0.27395382907E+02  0.33814746882E+02  0.00000000000E+00 0. -1.
</event>
<event>
 7    1  0.1789107E-013  0.7246156E+02  0.7816164E-02  0.1226708E+00
        -11   -1    0    0    0    0  0.00000000000E+00  0.00000000000E+00  0.45593999997E+02  0.45594000000E+02  0.51100000000E-03 0. -1.
         11   -1    0    0    0    0 -0.00000000000E+00 -0.00000000000E+00 -0.45593999997E+02  0.45594000000E+02  0.51100000000E-03 0.  1.
    9900012    2    1    2    0    0 -0.74991404318E+01 -0.17130508817E+02 -0.99410829681E+00  0.72461556374E+02  0.69999981867E+02 0.  0.
        -12    1    1    2    0    0  0.74991404318E+01  0.17130508817E+02  0.99410829681E+00  0.18726443626E+02  0.00000000000E+00 0.  1.
         11    1    3    3    0    0  0.18684763796E+02  0.25539549512E+01  0.16497533041E+02  0.25056170511E+02  0.51100000000E-03 0. -1.
        -11    1    3    3    0    0 -0.70145127602E+00  0.60649358041E+01 -0.77984775950E+01  0.99041270822E+01  0.51100000000E-03 0.  1.
        -12    1    3    3    0    0 -0.25482452952E+02 -0.25749399573E+02 -0.96931637424E+01  0.37501258781E+02  0.00000000000E+00 0.  1.
</event>
<event>
 7    1  0.1789107E-013  0.7246156E+02  0.7816164E-02  0.1226708E+00
        -11   -1    0    0    0    0  0.00000000000E+00  0.00000000000E+00  0.45593999997E+02  0.45594000000E+02  0.51100000000E-03 0.  1.
         11   -1    0    0    0    0 -0.00000000000E+00 -0.00000000000E+00 -0.45593999997E+02  0.45594000000E+02  0.51100000000E-03 0. -1.
    9900012    2    1    2    0    0 -0.18330189553E+02  0.33476206640E+01 -0.18646754895E+01  0.72461563397E+02  0.69999991016E+02 0.  0.
        -12    1    1    2    0    0  0.18330189553E+02 -0.33476206640E+01  0.18646754895E+01  0.18726436603E+02  0.00000000000E+00 0.  1.
         11    1    3    3    0    0 -0.79448154708E+01  0.16144298787E+01 -0.20463010353E+02  0.22010480905E+02  0.51100000000E-03 0. -1.
        -11    1    3    3    0    0 -0.26205748697E+02  0.70272986578E+01  0.24649191474E+01  0.27243348140E+02  0.51100000000E-03 0.  1.
        -12    1    3    3    0    0  0.15820374615E+02 -0.52941078726E+01  0.16133415716E+02  0.23207734353E+02  0.00000000000E+00 0.  1.
</event>
<event>
 7    1  0.1789107E-013  0.7246170E+02  0.7816164E-02  0.1226708E+00
        -11   -1    0    0    0    0  0.00000000000E+00  0.00000000000E+00  0.45593999997E+02  0.45594000000E+02  0.51100000000E-03 0.  1.
         11   -1    0    0    0    0 -0.00000000000E+00 -0.00000000000E+00 -0.45593999997E+02  0.45594000000E+02  0.51100000000E-03 0. -1.
    9900012    2    1    2    0    0  0.13194912357E+02  0.10906856855E+02 -0.75900724757E+01  0.72461696607E+02  0.70000164546E+02 0.  0.
        -12    1    1    2    0    0 -0.13194912357E+02 -0.10906856855E+02  0.75900724757E+01  0.18726303393E+02  0.00000000000E+00 0.  1.
         11    1    3    3    0    0  0.26424464223E+02  0.92262492136E+01 -0.98655171281E+01  0.29676664444E+02  0.51100000000E-03 0. -1.
        -11    1    3    3    0    0  0.12771631749E+02 -0.68919204405E+01 -0.32093081341E+01  0.14863135734E+02  0.51100000000E-03 0.  1.
        -12    1    3    3    0    0 -0.26001183615E+02  0.85725280816E+01  0.54847527865E+01  0.27921896429E+02  0.00000000000E+00 0.  1.
</event>
<event>
 7    1  0.1789107E-013  0.7246170E+02  0.7816164E-02  0.1226708E+00
        -11   -1    0    0    0    0  0.00000000000E+00  0.00000000000E+00  0.45593999997E+02  0.45594000000E+02  0.51100000000E-03 0. -1.
         11   -1    0    0    0    0 -0.00000000000E+00 -0.00000000000E+00 -0.45593999997E+02  0.45594000000E+02  0.51100000000E-03 0.  1.
    9900012    2    1    2    0    0  0.74513815121E+01 -0.16895369507E+02 -0.31141284497E+01  0.72461697823E+02  0.70000166130E+02 0.  0.
        -12    1    1    2    0    0 -0.74513815121E+01  0.16895369507E+02  0.31141284497E+01  0.18726302177E+02  0.00000000000E+00 0.  1.
         11    1    3    3    0    0 -0.13348341028E+02  0.11014188082E+01 -0.10579810618E+02  0.17068208007E+02  0.51100000000E-03 0. -1.
        -11    1    3    3    0    0 -0.96493591042E+01 -0.12782743909E+02 -0.10975367476E+02  0.19415647412E+02  0.51100000000E-03 0.  1.
         12    1    3    3    0    0  0.30449081644E+02 -0.52140444066E+01  0.18441049644E+02  0.35977842404E+02  0.00000000000E+00 0. -1.
</event>
<event>
 7    1  0.1789107E-013  0.7246154E+02  0.7816164E-02  0.1226708E+00
        -11   -1    0    0    0    0  0.00000000000E+00  0.00000000000E+00  0.45593999997E+02  0.45594000000E+02  0.51100000000E-03 0.  1.
         11   -1    0    0    0    0 -0.00000000000E+00 -0.00000000000E+00 -0.45593999997E+02  0.45594000000E+02  0.51100000000E-03 0. -1.
    9900012    2    1    2    0    0 -0.65277873555E+01  0.12402880293E+02  0.12419209453E+02  0.72461542492E+02  0.69999963783E+02 0.  0.
        -12    1    1    2    0    0  0.65277873555E+01 -0.12402880293E+02 -0.12419209453E+02  0.18726457508E+02  0.00000000000E+00 0.  1.
         11    1    3    3    0    0  0.16281276257E+02  0.30486269811E+01  0.11195363225E+02  0.19992754714E+02  0.51100000000E-03 0.  1.
        -11    1    3    3    0    0  0.10863181302E+02  0.24386789607E+01 -0.11318984111E+02  0.15876878303E+02  0.51100000000E-03 0. -1.
        -12    1    3    3    0    0 -0.33672244914E+02  0.69155743517E+01  0.12542830340E+02  0.36591909476E+02  0.00000000000E+00 0.  1.
</event>
<event>
 7    1  0.1789107E-013  0.7246144E+02  0.7816164E-02  0.1226708E+00
        -11   -1    0    0    0    0  0.00000000000E+00  0.00000000000E+00  0.45593999997E+02  0.45594000000E+02  0.51100000000E-03 0. -1.
         11   -1    0    0    0    0 -0.00000000000E+00 -0.00000000000E+00 -0.45593999997E+02  0.45594000000E+02  0.51100000000E-03 0.  1.
    9900012    2    1    2    0    0  0.33824586765E+00  0.17075962296E+02  0.76799092061E+01  0.72461443883E+02  0.69999835325E+02 0.  0.
        -12    1    1    2    0    0 -0.33824586765E+00 -0.17075962296E+02 -0.76799092061E+01  0.18726556117E+02  0.00000000000E+00 0.  1.
         11    1    3    3    0    0 -0.29084568747E+01  0.94019699996E+01  0.24061189159E+02  0.25996095577E+02  0.51100000000E-03 0. -1.
        -11    1    3    3    0    0  0.86508123298E+01  0.23469361163E+02 -0.32451845659E+01  0.25222582947E+02  0.51100000000E-03 0.  1.
        -12    1    3    3    0    0 -0.54041095874E+01 -0.15795368867E+02 -0.13136095387E+02  0.21242765359E+02  0.00000000000E+00 0.  1.
</event>
<event>
 7    1  0.1789107E-013  0.7246154E+02  0.7816164E-02  0.1226708E+00
        -11   -1    0    0    0    0  0.00000000000E+00  0.00000000000E+00  0.45593999997E+02  0.45594000000E+02  0.51100000000E-03 0. -1.
         11   -1    0    0    0    0 -0.00000000000E+00 -0.00000000000E+00 -0.45593999997E+02  0.45594000000E+02  0.51100000000E-03 0.  1.
    9900012    2    1    2    0    0 -0.32820390508E+01  0.90964570313E+00  0.18414149610E+02  0.72461544342E+02  0.69999966193E+02 0.  0.
        -12    1    1    2    0    0  0.32820390508E+01 -0.90964570313E+00 -0.18414149610E+02  0.18726455658E+02  0.00000000000E+00 0.  1.
         11    1    3    3    0    0  0.36262178441E+01 -0.10456853612E+01  0.18325420577E+02  0.18709996079E+02  0.51100000000E-03 0. -1.
        -11    1    3    3    0    0  0.15809067311E+01  0.26125987972E+02  0.72351154765E+01  0.27155356927E+02  0.51100000000E-03 0.  1.
        -12    1    3    3    0    0 -0.84891636261E+01 -0.24170656907E+02 -0.71463864429E+01  0.26596191336E+02  0.00000000000E+00 0.  1.
</event>
<event>
 7    1  0.1789107E-013  0.7246160E+02  0.7816164E-02  0.1226708E+00
        -11   -1    0    0    0    0  0.00000000000E+00  0.00000000000E+00  0.45593999997E+02  0.45594000000E+02  0.51100000000E-03 0.  1.
         11   -1    0    0    0    0 -0.00000000000E+00 -0.00000000000E+00 -0.45593999997E+02  0.45594000000E+02  0.51100000000E-03 0. -1.
    9900012    2    1    2    0    0 -0.39808223840E+01 -0.15947050556E+02 -0.89734407219E+01  0.72461601343E+02  0.70000040446E+02 0.  0.
        -12    1    1    2    0    0  0.39808223840E+01  0.15947050556E+02  0.89734407219E+01  0.18726398657E+02  0.00000000000E+00 0.  1.
         11    1    3    3    0    0  0.30419629202E+01 -0.12987433365E+02 -0.31981277439E+02  0.34651537783E+02  0.51100000000E-03 0. -1.
        -11    1    3    3    0    0  0.11356981687E+02 -0.13042185907E+01  0.71920161084E+01  0.13505817826E+02  0.51100000000E-03 0.  1.
        -12    1    3    3    0    0 -0.18379766991E+02 -0.16553986002E+01  0.15815820609E+02  0.24304245734E+02  0.00000000000E+00 0.  1.
</event>
<event>
 7    1  0.1789107E-013  0.7246160E+02  0.7816164E-02  0.1226708E+00
        -11   -1    0    0    0    0  0.00000000000E+00  0.00000000000E+00  0.45593999997E+02  0.45594000000E+02  0.51100000000E-03 0.  1.
         11   -1    0    0    0    0 -0.00000000000E+00 -0.00000000000E+00 -0.45593999997E+02  0.45594000000E+02  0.51100000000E-03 0. -1.
    9900012    2    1    2    0    0  0.78236424572E+01 -0.13100905206E+02 -0.10855173935E+02  0.72461604199E+02  0.70000044167E+02 0.  0.
        -12    1    1    2    0    0 -0.78236424572E+01  0.13100905206E+02  0.10855173935E+02  0.18726395801E+02  0.00000000000E+00 0.  1.
         11    1    3    3    0    0  0.16864047854E+02 -0.23201115966E+02 -0.10482739883E+02  0.30538102885E+02  0.51100000000E-03 0. -1.
        -11    1    3    3    0    0 -0.15145497947E+02 -0.23233049796E+00 -0.16122637297E+02  0.22121923949E+02  0.51100000000E-03 0.  1.
        -12    1    3    3    0    0  0.61050925507E+01  0.10332541258E+02  0.15750203245E+02  0.19801577366E+02  0.00000000000E+00 0.  1.
</event>
<event>
 7    1  0.1789107E-013  0.7246156E+02  0.7816164E-02  0.1226708E+00
        -11   -1    0    0    0    0  0.00000000000E+00  0.00000000000E+00  0.45593999997E+02  0.45594000000E+02  0.51100000000E-03 0. -1.
         11   -1    0    0    0    0 -0.00000000000E+00 -0.00000000000E+00 -0.45593999997E+02  0.45594000000E+02  0.51100000000E-03 0.  1.
    9900012    2    1    2    0    0  0.17542969477E+02  0.63158341801E+01 -0.17418651127E+01  0.72461557905E+02  0.69999983861E+02 0.  0.
        -12    1    1    2    0    0 -0.17542969477E+02 -0.63158341801E+01  0.17418651127E+01  0.18726442095E+02  0.00000000000E+00 0.  1.
         11    1    3    3    0    0  0.18708233785E+01  0.20829228726E+02  0.31921130718E+01  0.21155290959E+02  0.51100000000E-03 0. -1.
        -11    1    3    3    0    0 -0.89013676700E+01 -0.51277813212E+01 -0.18909210862E+02  0.21519450350E+02  0.51100000000E-03 0.  1.
        -12    1    3    3    0    0  0.24573513769E+02 -0.93856132244E+01  0.13975232678E+02  0.29786816596E+02  0.00000000000E+00 0.  1.
</event>
<event>
 7    1  0.1789107E-013  0.7246161E+02  0.7816164E-02  0.1226708E+00
        -11   -1    0    0    0    0  0.00000000000E+00  0.00000000000E+00  0.45593999997E+02  0.45594000000E+02  0.51100000000E-03 0.  1.
         11   -1    0    0    0    0 -0.00000000000E+00 -0.00000000000E+00 -0.45593999997E+02  0.45594000000E+02  0.51100000000E-03 0. -1.
    9900012    2    1    2    0    0 -0.67663411422E+01 -0.64052279186E+01 -0.16243997872E+02  0.72461607288E+02  0.70000048191E+02 0.  0.
        -12    1    1    2    0    0  0.67663411422E+01  0.64052279186E+01  0.16243997872E+02  0.18726392712E+02  0.00000000000E+00 0.  1.
         11    1    3    3    0    0  0.28437193197E+01  0.14221152111E+02 -0.11884911792E+02  0.18750440942E+02  0.51100000000E-03 0. -1.
        -11    1    3    3    0    0  0.13418625681E+01 -0.11685405908E+01 -0.23944375086E+02  0.24010397347E+02  0.51100000000E-03 0.  1.
        -12    1    3    3    0    0 -0.10951923030E+02 -0.19457839439E+02  0.19585289006E+02  0.29700768999E+02  0.00000000000E+00 0.  1.
</event>
<event>
 7    1  0.1789107E-013  0.7246160E+02  0.7816164E-02  0.1226708E+00
        -11   -1    0    0    0    0  0.00000000000E+00  0.00000000000E+00  0.45593999997E+02  0.45594000000E+02  0.51100000000E-03 0.  1.
         11   -1    0    0    0    0 -0.00000000000E+00 -0.00000000000E+00 -0.45593999997E+02  0.45594000000E+02  0.51100000000E-03 0. -1.
    9900012    2    1    2    0    0  0.28192124096E+01 -0.93431991650E+01 -0.15982326375E+02  0.72461599235E+02  0.70000037701E+02 0.  0.
        -12    1    1    2    0    0 -0.28192124096E+01  0.93431991650E+01  0.15982326375E+02  0.18726400765E+02  0.00000000000E+00 0.  1.
         11    1    3    3    0    0 -0.86597477024E+01 -0.14372553688E+02  0.76383198289E+01  0.18436525157E+02  0.51100000000E-03 0.  1.
        -11    1    3    3    0    0  0.91997922043E+01  0.25911494851E+02 -0.14971891731E+02  0.31308134475E+02  0.51100000000E-03 0. -1.
         12    1    3    3    0    0  0.22791679078E+01 -0.20882140328E+02 -0.86487544729E+01  0.22716939604E+02  0.00000000000E+00 0. -1.
</event>
<event>
 7    1  0.1789107E-013  0.7246156E+02  0.7816164E-02  0.1226708E+00
        -11   -1    0    0    0    0  0.00000000000E+00  0.00000000000E+00  0.45593999997E+02  0.45594000000E+02  0.51100000000E-03 0. -1.
         11   -1    0    0    0    0 -0.00000000000E+00 -0.00000000000E+00 -0.45593999997E+02  0.45594000000E+02  0.51100000000E-03 0.  1.
    9900012    2    1    2    0    0 -0.12487261127E+02 -0.21211787124E+00  0.13953595921E+02  0.72461560841E+02  0.69999987685E+02 0.  0.
        -12    1    1    2    0    0  0.12487261127E+02  0.21211787124E+00 -0.13953595921E+02  0.18726439159E+02  0.00000000000E+00 0.  1.
         11    1    3    3    0    0  0.26240810184E+01  0.21620525042E+02  0.71736311313E+01  0.22930195990E+02  0.51100000000E-03 0.  1.
        -11    1    3    3    0    0 -0.55062643620E+01  0.10523830776E+02  0.10134046223E+02  0.15613098812E+02  0.51100000000E-03 0. -1.
        -12    1    3    3    0    0 -0.96050777836E+01 -0.32356473689E+02 -0.33540814328E+01  0.33918266038E+02  0.00000000000E+00 0.  1.
</event>
<event>
 7    1  0.1789107E-013  0.7246157E+02  0.7816164E-02  0.1226708E+00
        -11   -1    0    0    0    0  0.00000000000E+00  0.00000000000E+00  0.45593999997E+02  0.45594000000E+02  0.51100000000E-03 0.  1.
         11   -1    0    0    0    0 -0.00000000000E+00 -0.00000000000E+00 -0.45593999997E+02  0.45594000000E+02  0.51100000000E-03 0. -1.
    9900012    2    1    2    0    0 -0.44852815013E+00  0.80276758926E+01 -0.16912552445E+02  0.72461569803E+02  0.69999999360E+02 0.  0.
        -12    1    1    2    0    0  0.44852815013E+00 -0.80276758926E+01  0.16912552445E+02  0.18726430197E+02  0.00000000000E+00 0.  1.
         11    1    3    3    0    0  0.74042022633E+01  0.37694045494E-01 -0.11539842410E+02  0.13711002702E+02  0.51100000000E-03 0. -1.
        -11    1    3    3    0    0  0.23871391529E+02  0.18008834605E+01  0.56565130116E+01  0.24598427887E+02  0.51100000000E-03 0.  1.
         12    1    3    3    0    0 -0.31724121943E+02  0.61890983866E+01 -0.11029223046E+02  0.34152139214E+02  0.00000000000E+00 0. -1.
</event>
<event>
 7    1  0.1789107E-013  0.7246152E+02  0.7816164E-02  0.1226708E+00
        -11   -1    0    0    0    0  0.00000000000E+00  0.00000000000E+00  0.45593999997E+02  0.45594000000E+02  0.51100000000E-03 0.  1.
         11   -1    0    0    0    0 -0.00000000000E+00 -0.00000000000E+00 -0.45593999997E+02  0.45594000000E+02  0.51100000000E-03 0. -1.
    9900012    2    1    2    0    0 -0.32433648763E+01  0.11393651637E+02  0.14503328050E+02  0.72461515069E+02  0.69999928059E+02 0.  0.
        -12    1    1    2    0    0  0.32433648763E+01 -0.11393651637E+02 -0.14503328050E+02  0.18726484931E+02  0.00000000000E+00 0.  1.
         11    1    3    3    0    0 -0.37092242379E+00 -0.12593855959E+02  0.57505825624E+01  0.13849620624E+02  0.51100000000E-03 0. -1.
        -11    1    3    3    0    0 -0.20153706022E+02 -0.56306035186E+01  0.12076360363E+02  0.24160174715E+02  0.51100000000E-03 0.  1.
         12    1    3    3    0    0  0.17281263569E+02  0.29618111114E+02 -0.33236148755E+01  0.34451719730E+02  0.00000000000E+00 0. -1.
</event>
<event>
 7    1  0.1789107E-013  0.7246177E+02  0.7816164E-02  0.1226707E+00
        -11   -1    0    0    0    0  0.00000000000E+00  0.00000000000E+00  0.45593999997E+02  0.45594000000E+02  0.51100000000E-03 0. -1.
         11   -1    0    0    0    0 -0.00000000000E+00 -0.00000000000E+00 -0.45593999997E+02  0.45594000000E+02  0.51100000000E-03 0.  1.
    9900012    2    1    2    0    0 -0.88648216639E+01 -0.14339348539E+02  0.81528846567E+01  0.72461774863E+02  0.70000266488E+02 0.  0.
        -12    1    1    2    0    0  0.88648216639E+01  0.14339348539E+02 -0.81528846567E+01  0.18726225137E+02  0.00000000000E+00 0.  1.
         11    1    3    3    0    0  0.11879904893E+02 -0.87687909423E+01  0.26315865139E+02  0.30175297730E+02  0.51100000000E-03 0. -1.
        -11    1    3    3    0    0  0.55044171311E+00  0.39192195982E+01  0.69637240476E+01  0.80097890865E+01  0.51100000000E-03 0.  1.
        -12    1    3    3    0    0 -0.21295168270E+02 -0.94897771954E+01 -0.25126704530E+02  0.34276688046E+02  0.00000000000E+00 0.  1.
</event>
<event>
 7    1  0.1789107E-013  0.7246147E+02  0.7816164E-02  0.1226708E+00
        -11   -1    0    0    0    0  0.00000000000E+00  0.00000000000E+00  0.45593999997E+02  0.45594000000E+02  0.51100000000E-03 0. -1.
         11   -1    0    0    0    0 -0.00000000000E+00 -0.00000000000E+00 -0.45593999997E+02  0.45594000000E+02  0.51100000000E-03 0.  1.
    9900012    2    1    2    0    0  0.94170402762E+00  0.18125626304E+02  0.46106266695E+01  0.72461467655E+02  0.69999866293E+02 0.  0.
        -12    1    1    2    0    0 -0.94170402762E+00 -0.18125626304E+02 -0.46106266695E+01  0.18726532345E+02  0.00000000000E+00 0.  1.
         11    1    3    3    0    0 -0.14966294542E+02 -0.72911472867E+01  0.25371034548E+02  0.30345348826E+02  0.51100000000E-03 0. -1.
        -11    1    3    3    0    0 -0.17882027501E+01  0.14083968942E+02 -0.14253867244E+02  0.20117867230E+02  0.51100000000E-03 0.  1.
        -12    1    3    3    0    0  0.17696201320E+02  0.11332804649E+02 -0.65065406337E+01  0.21998251599E+02  0.00000000000E+00 0.  1.
</event>
<event>
 7    1  0.1789107E-013  0.7246160E+02  0.7816164E-02  0.1226708E+00
        -11   -1    0    0    0    0  0.00000000000E+00  0.00000000000E+00  0.45593999997E+02  0.45594000000E+02  0.51100000000E-03 0.  1.
         11   -1    0    0    0    0 -0.00000000000E+00 -0.00000000000E+00 -0.45593999997E+02  0.45594000000E+02  0.51100000000E-03 0. -1.
    9900012    2    1    2    0    0 -0.15754414338E+02  0.15838526303E+01  0.99983880553E+01  0.72461603550E+02  0.70000043322E+02 0.  0.
        -12    1    1    2    0    0  0.15754414338E+02 -0.15838526303E+01 -0.99983880553E+01  0.18726396450E+02  0.00000000000E+00 0.  1.
         11    1    3    3    0    0  0.11725146499E+02  0.99773220396E+01 -0.77304888592E+01  0.17227491801E+02  0.51100000000E-03 0. -1.
        -11    1    3    3    0    0 -0.72086712123E+01  0.18967860397E+01  0.28941575363E+02  0.29886075732E+02  0.51100000000E-03 0.  1.
         12    1    3    3    0    0 -0.20270889625E+02 -0.10290255449E+02 -0.11212698448E+02  0.25348036016E+02  0.00000000000E+00 0. -1.
</event>
<event>
 7    1  0.2527486E-013  0.7246161E+02  0.7816164E-02  0.1226708E+00
        -11   -1    0    0    0    0  0.00000000000E+00  0.00000000000E+00  0.45593999997E+02  0.45594000000E+02  0.51100000000E-03 0. -1.
         11   -1    0    0    0    0 -0.00000000000E+00 -0.00000000000E+00 -0.45593999997E+02  0.45594000000E+02  0.51100000000E-03 0.  1.
    9900012    2    1    2    0    0  0.35509001916E+01 -0.87184371312E+01  0.16188199754E+02  0.72461605541E+02  0.70000045915E+02 0.  0.
        -12    1    1    2    0    0 -0.35509001916E+01  0.87184371312E+01 -0.16188199754E+02  0.18726394459E+02  0.00000000000E+00 0.  1.
         11    1    3    3    0    0 -0.26351913234E+01  0.73250511051E+01  0.31236645003E+02  0.32192058001E+02  0.51100000000E-03 0. -1.
        -11    1    3    3    0    0 -0.43237945747E+01 -0.47517246791E+01  0.93853866379E+01  0.11373634844E+02  0.51100000000E-03 0.  1.
        -12    1    3    3    0    0  0.10509886090E+02 -0.11291763557E+02 -0.24433831887E+02  0.28895912696E+02  0.00000000000E+00 0.  1.
</event>
<event>
 7    1  0.1789107E-013  0.7246154E+02  0.7816164E-02  0.1226708E+00
        -11   -1    0    0    0    0  0.00000000000E+00  0.00000000000E+00  0.45593999997E+02  0.45594000000E+02  0.51100000000E-03 0.  1.
         11   -1    0    0    0    0 -0.00000000000E+00 -0.00000000000E+00 -0.45593999997E+02  0.45594000000E+02  0.51100000000E-03 0. -1.
    9900012    2    1    2    0    0 -0.73192893628E+01 -0.11678184094E+02 -0.12677872980E+02  0.72461536270E+02  0.69999955677E+02 0.  0.
        -12    1    1    2    0    0  0.73192893628E+01  0.11678184094E+02  0.12677872980E+02  0.18726463730E+02  0.00000000000E+00 0.  1.
         11    1    3    3    0    0 -0.81489575688E+01  0.20984900654E+02  0.27828354292E+01  0.22682939364E+02  0.51100000000E-03 0. -1.
        -11    1    3    3    0    0 -0.10493156697E+02  0.43511075097E+00 -0.97573589259E+01  0.14335330910E+02  0.51100000000E-03 0.  1.
        -12    1    3    3    0    0  0.11322824903E+02 -0.33098195499E+02 -0.57033494835E+01  0.35443265996E+02  0.00000000000E+00 0.  1.
</event>
<event>
 7    1  0.1789107E-013  0.7246155E+02  0.7816164E-02  0.1226708E+00
        -11   -1    0    0    0    0  0.00000000000E+00  0.00000000000E+00  0.45593999997E+02  0.45594000000E+02  0.51100000000E-03 0. -1.
         11   -1    0    0    0    0 -0.00000000000E+00 -0.00000000000E+00 -0.45593999997E+02  0.45594000000E+02  0.51100000000E-03 0.  1.
    9900012    2    1    2    0    0 -0.12275448244E+02 -0.12902078420E+02  0.57904898569E+01  0.72461547321E+02  0.69999970073E+02 0.  0.
        -12    1    1    2    0    0  0.12275448244E+02  0.12902078420E+02 -0.57904898569E+01  0.18726452679E+02  0.00000000000E+00 0.  1.
         11    1    3    3    0    0 -0.25233231661E+02 -0.20438595112E+02  0.79449213706E+01  0.33430134999E+02  0.51100000000E-03 0. -1.
        -11    1    3    3    0    0 -0.11401329558E+02  0.38497409807E+01 -0.70018504489E+01  0.13922526038E+02  0.51100000000E-03 0.  1.
        -12    1    3    3    0    0  0.24359112975E+02  0.36867757114E+01  0.48474189352E+01  0.25108886283E+02  0.00000000000E+00 0.  1.
</event>
<event>
 7    1  0.1789107E-013  0.7246162E+02  0.7816164E-02  0.1226708E+00
        -11   -1    0    0    0    0  0.00000000000E+00  0.00000000000E+00  0.45593999997E+02  0.45594000000E+02  0.51100000000E-03 0.  1.
         11   -1    0    0    0    0 -0.00000000000E+00 -0.00000000000E+00 -0.45593999997E+02  0.45594000000E+02  0.51100000000E-03 0. -1.
    9900012    2    1    2    0    0 -0.88700613125E+01 -0.14077323683E+02  0.85923463416E+01  0.72461616328E+02  0.70000059968E+02 0.  0.
        -12    1    1    2    0    0  0.88700613125E+01  0.14077323683E+02 -0.85923463416E+01  0.18726383672E+02  0.00000000000E+00 0.  1.
         11    1    3    3    0    0 -0.44213483635E+01 -0.61975125984E+01 -0.21715187223E+02  0.23011015626E+02  0.51100000000E-03 0. -1.
        -11    1    3    3    0    0  0.14206002695E+02  0.75044271492E+00  0.18489488284E+01  0.14345462310E+02  0.51100000000E-03 0.  1.
         12    1    3    3    0    0 -0.18654715644E+02 -0.86302537997E+01  0.28458584736E+02  0.35105138393E+02  0.00000000000E+00 0. -1.
</event>
<event>
 7    1  0.1789107E-013  0.7246158E+02  0.7816164E-02  0.1226708E+00
        -11   -1    0    0    0    0  0.00000000000E+00  0.00000000000E+00  0.45593999997E+02  0.45594000000E+02  0.51100000000E-03 0. -1.
         11   -1    0    0    0    0 -0.00000000000E+00 -0.00000000000E+00 -0.45593999997E+02  0.45594000000E+02  0.51100000000E-03 0.  1.
    9900012    2    1    2    0    0 -0.74762286492E+01  0.17082137323E+02  0.17278308786E+01  0.72461579897E+02  0.70000012509E+02 0.  0.
        -12    1    1    2    0    0  0.74762286492E+01 -0.17082137323E+02 -0.17278308786E+01  0.18726420103E+02  0.00000000000E+00 0.  1.
         11    1    3    3    0    0 -0.95413210264E+01  0.17265581702E+02 -0.14108304533E+02  0.24252450917E+02  0.51100000000E-03 0. -1.
        -11    1    3    3    0    0  0.65950126308E+01  0.94796460830E+01 -0.13043315864E+02  0.17420848730E+02  0.51100000000E-03 0.  1.
         12    1    3    3    0    0 -0.45299202536E+01 -0.96630904623E+01  0.28879451276E+02  0.30788280250E+02  0.00000000000E+00 0. -1.
</event>
<event>
 7    1  0.1789107E-013  0.7246158E+02  0.7816164E-02  0.1226708E+00
        -11   -1    0    0    0    0  0.00000000000E+00  0.00000000000E+00  0.45593999997E+02  0.45594000000E+02  0.51100000000E-03 0.  1.
         11   -1    0    0    0    0 -0.00000000000E+00 -0.00000000000E+00 -0.45593999997E+02  0.45594000000E+02  0.51100000000E-03 0. -1.
    9900012    2    1    2    0    0 -0.15126170944E+02  0.11033940030E+02 -0.36070070408E+00  0.72461575220E+02  0.70000006417E+02 0.  0.
        -12    1    1    2    0    0  0.15126170944E+02 -0.11033940030E+02  0.36070070408E+00  0.18726424780E+02  0.00000000000E+00 0.  1.
         11    1    3    3    0    0 -0.16669353986E+02  0.43090061115E+01 -0.23928242241E+01  0.17382764568E+02  0.51100000000E-03 0.  1.
        -11    1    3    3    0    0  0.15387383850E+02 -0.39871021276E+01 -0.20882030105E+02  0.26243622972E+02  0.51100000000E-03 0. -1.
         12    1    3    3    0    0 -0.13844200808E+02  0.10712036046E+02  0.22914153625E+02  0.28835187681E+02  0.00000000000E+00 0. -1.
</event>
<event>
 7    1  0.1789107E-013  0.7246126E+02  0.7816164E-02  0.1226709E+00
        -11   -1    0    0    0    0  0.00000000000E+00  0.00000000000E+00  0.45593999997E+02  0.45594000000E+02  0.51100000000E-03 0.  1.
         11   -1    0    0    0    0 -0.00000000000E+00 -0.00000000000E+00 -0.45593999997E+02  0.45594000000E+02  0.51100000000E-03 0. -1.
    9900012    2    1    2    0    0  0.10029392681E+02 -0.15216709919E+02 -0.43074114271E+01  0.72461260521E+02  0.69999596461E+02 0.  0.
        -12    1    1    2    0    0 -0.10029392681E+02  0.15216709919E+02  0.43074114271E+01  0.18726739479E+02  0.00000000000E+00 0.  1.
         11    1    3    3    0    0  0.29106188855E+02 -0.23160293986E+02 -0.13665606339E+01  0.37221457997E+02  0.51100000000E-03 0.  1.
        -11    1    3    3    0    0 -0.80555230928E+01 -0.10704395817E+02 -0.21142237752E+01  0.13562650351E+02  0.51100000000E-03 0. -1.
        -12    1    3    3    0    0 -0.11021273082E+02  0.18647979884E+02 -0.82662701795E+00  0.21677152172E+02  0.00000000000E+00 0.  1.
</event>
<event>
 7    1  0.1789107E-013  0.7246158E+02  0.7816164E-02  0.1226708E+00
        -11   -1    0    0    0    0  0.00000000000E+00  0.00000000000E+00  0.45593999997E+02  0.45594000000E+02  0.51100000000E-03 0. -1.
         11   -1    0    0    0    0 -0.00000000000E+00 -0.00000000000E+00 -0.45593999997E+02  0.45594000000E+02  0.51100000000E-03 0.  1.
    9900012    2    1    2    0    0 -0.63519933121E+01 -0.47608766468E+01  0.16960685532E+02  0.72461584988E+02  0.70000019142E+02 0.  0.
        -12    1    1    2    0    0  0.63519933121E+01  0.47608766468E+01 -0.16960685532E+02  0.18726415012E+02  0.00000000000E+00 0.  1.
         11    1    3    3    0    0 -0.30848990680E+02 -0.25247221312E+01  0.21953694697E+02  0.37947320840E+02  0.51100000000E-03 0. -1.
        -11    1    3    3    0    0  0.10902823921E+02  0.95437378389E+01  0.30543721530E+01  0.14808230512E+02  0.51100000000E-03 0.  1.
        -12    1    3    3    0    0  0.13594173447E+02 -0.11779892354E+02 -0.80473813189E+01  0.19706033636E+02  0.00000000000E+00 0.  1.
</event>
<event>
 7    1  0.1789107E-013  0.7246158E+02  0.7816164E-02  0.1226708E+00
        -11   -1    0    0    0    0  0.00000000000E+00  0.00000000000E+00  0.45593999997E+02  0.45594000000E+02  0.51100000000E-03 0. -1.
         11   -1    0    0    0    0 -0.00000000000E+00 -0.00000000000E+00 -0.45593999997E+02  0.45594000000E+02  0.51100000000E-03 0.  1.
    9900012    2    1    2    0    0 -0.15140565204E+02 -0.93064567898E+01 -0.59018687780E+01  0.72461577283E+02  0.70000009105E+02 0.  0.
        -12    1    1    2    0    0  0.15140565204E+02  0.93064567898E+01  0.59018687780E+01  0.18726422717E+02  0.00000000000E+00 0.  1.
         11    1    3    3    0    0  0.16845967102E+02 -0.79557889224E+00  0.38147092656E+01  0.17290794094E+02  0.51100000000E-03 0. -1.
        -11    1    3    3    0    0 -0.38718756996E+01 -0.17107656044E+02 -0.17480252820E+02  0.24763330868E+02  0.51100000000E-03 0.  1.
        -12    1    3    3    0    0 -0.28114656607E+02  0.85967781468E+01  0.77636747765E+01  0.30407452321E+02  0.00000000000E+00 0.  1.
</event>
<event>
 7    1  0.1789107E-013  0.7246160E+02  0.7816164E-02  0.1226708E+00
        -11   -1    0    0    0    0  0.00000000000E+00  0.00000000000E+00  0.45593999997E+02  0.45594000000E+02  0.51100000000E-03 0. -1.
         11   -1    0    0    0    0 -0.00000000000E+00 -0.00000000000E+00 -0.45593999997E+02  0.45594000000E+02  0.51100000000E-03 0.  1.
    9900012    2    1    2    0    0 -0.12599354978E+02  0.10575659645E+02 -0.89492825770E+01  0.72461602017E+02  0.70000041324E+02 0.  0.
        -12    1    1    2    0    0  0.12599354978E+02 -0.10575659645E+02  0.89492825770E+01  0.18726397983E+02  0.00000000000E+00 0.  1.
         11    1    3    3    0    0  0.63600417741E+01  0.98448373881E+01  0.66786118734E+01  0.13489803979E+02  0.51100000000E-03 0. -1.
        -11    1    3    3    0    0 -0.17372457639E+01  0.24093939545E+02 -0.17587875316E+02  0.29880918728E+02  0.51100000000E-03 0.  1.
        -12    1    3    3    0    0 -0.17222150988E+02 -0.23363117288E+02  0.19599808652E+01  0.29090879310E+02  0.00000000000E+00 0.  1.
</event>
<event>
 7    1  0.1789107E-013  0.7246157E+02  0.7816164E-02  0.1226708E+00
        -11   -1    0    0    0    0  0.00000000000E+00  0.00000000000E+00  0.45593999997E+02  0.45594000000E+02  0.51100000000E-03 0.  1.
         11   -1    0    0    0    0 -0.00000000000E+00 -0.00000000000E+00 -0.45593999997E+02  0.45594000000E+02  0.51100000000E-03 0. -1.
    9900012    2    1    2    0    0 -0.14939164485E+02 -0.98640733151E+00 -0.11248450469E+02  0.72461567534E+02  0.69999996404E+02 0.  0.
        -12    1    1    2    0    0  0.14939164485E+02  0.98640733151E+00  0.11248450469E+02  0.18726432466E+02  0.00000000000E+00 0.  1.
         11    1    3    3    0    0  0.73863353721E+01  0.16748729675E+01  0.32836868826E+01  0.82550438818E+01  0.51100000000E-03 0. -1.
        -11    1    3    3    0    0  0.91023391810E+01  0.20334626896E+02  0.95030407947E+00  0.22299163833E+02  0.51100000000E-03 0.  1.
         12    1    3    3    0    0 -0.31427839038E+02 -0.22995907195E+02 -0.15482441431E+02  0.41907359819E+02  0.00000000000E+00 0. -1.
</event>
<event>
 7    1  0.1789107E-013  0.7246152E+02  0.7816164E-02  0.1226708E+00
        -11   -1    0    0    0    0  0.00000000000E+00  0.00000000000E+00  0.45593999997E+02  0.45594000000E+02  0.51100000000E-03 0.  1.
         11   -1    0    0    0    0 -0.00000000000E+00 -0.00000000000E+00 -0.45593999997E+02  0.45594000000E+02  0.51100000000E-03 0. -1.
    9900012    2    1    2    0    0 -0.13043206254E+02 -0.48165873438E+01 -0.12544174486E+02  0.72461519910E+02  0.69999934366E+02 0.  0.
        -12    1    1    2    0    0  0.13043206254E+02  0.48165873438E+01  0.12544174486E+02  0.18726480090E+02  0.00000000000E+00 0.  1.
         11    1    3    3    0    0  0.12162178274E+02 -0.76103291145E+01 -0.19492947242E+02  0.24203526232E+02  0.51100000000E-03 0.  1.
        -11    1    3    3    0    0  0.35084783342E+01  0.85454599052E+01 -0.10645534923E+02  0.14094740837E+02  0.51100000000E-03 0. -1.
        -12    1    3    3    0    0 -0.28713862862E+02 -0.57517181345E+01  0.17594307680E+02  0.34163252841E+02  0.00000000000E+00 0.  1.
</event>
<event>
 7    1  0.1789107E-013  0.7246154E+02  0.7816164E-02  0.1226708E+00
        -11   -1    0    0    0    0  0.00000000000E+00  0.00000000000E+00  0.45593999997E+02  0.45594000000E+02  0.51100000000E-03 0.  1.
         11   -1    0    0    0    0 -0.00000000000E+00 -0.00000000000E+00 -0.45593999997E+02  0.45594000000E+02  0.51100000000E-03 0. -1.
    9900012    2    1    2    0    0  0.16044443610E+02  0.86893574042E+01  0.42131981370E+01  0.72461544345E+02  0.69999966196E+02 0.  0.
        -12    1    1    2    0    0 -0.16044443610E+02 -0.86893574042E+01 -0.42131981370E+01  0.18726455655E+02  0.00000000000E+00 0.  1.
         11    1    3    3    0    0  0.26800869266E+02 -0.16862694218E+02  0.15950767326E+02  0.35455098763E+02  0.51100000000E-03 0. -1.
        -11    1    3    3    0    0  0.47455214575E+01  0.26848883505E+01  0.24180822035E+01  0.59645386378E+01  0.51100000000E-03 0.  1.
        -12    1    3    3    0    0 -0.15501947113E+02  0.22867163272E+02 -0.14155651392E+02  0.31041906944E+02  0.00000000000E+00 0.  1.
</event>
<event>
 7    1  0.1789107E-013  0.7246152E+02  0.7816164E-02  0.1226708E+00
        -11   -1    0    0    0    0  0.00000000000E+00  0.00000000000E+00  0.45593999997E+02  0.45594000000E+02  0.51100000000E-03 0. -1.
         11   -1    0    0    0    0 -0.00000000000E+00 -0.00000000000E+00 -0.45593999997E+02  0.45594000000E+02  0.51100000000E-03 0.  1.
    9900012    2    1    2    0    0  0.30854518289E+01  0.11413045196E+02  0.14522514021E+02  0.72461520696E+02  0.69999935389E+02 0.  0.
        -12    1    1    2    0    0 -0.30854518289E+01 -0.11413045196E+02 -0.14522514021E+02  0.18726479304E+02  0.00000000000E+00 0.  1.
         11    1    3    3    0    0  0.64290624478E+00  0.14862044059E+02  0.15395698764E+02  0.21408438120E+02  0.51100000000E-03 0. -1.
        -11    1    3    3    0    0  0.13886008750E+02 -0.18022595529E+02  0.14497657095E+02  0.26978088333E+02  0.51100000000E-03 0.  1.
         12    1    3    3    0    0 -0.11443463165E+02  0.14573596666E+02 -0.15370841838E+02  0.24074994243E+02  0.00000000000E+00 0. -1.
</event>
<event>
 7    1  0.1789107E-013  0.7246156E+02  0.7816164E-02  0.1226708E+00
        -11   -1    0    0    0    0  0.00000000000E+00  0.00000000000E+00  0.45593999997E+02  0.45594000000E+02  0.51100000000E-03 0. -1.
         11   -1    0    0    0    0 -0.00000000000E+00 -0.00000000000E+00 -0.45593999997E+02  0.45594000000E+02  0.51100000000E-03 0.  1.
    9900012    2    1    2    0    0 -0.18647033212E+02  0.43806461364E+00  0.16661201462E+01  0.72461556008E+02  0.69999981390E+02 0.  0.
        -12    1    1    2    0    0  0.18647033212E+02 -0.43806461364E+00 -0.16661201462E+01  0.18726443992E+02  0.00000000000E+00 0.  1.
         11    1    3    3    0    0 -0.36141144491E+01  0.54069676309E+01 -0.64929360661E+01  0.91899587177E+01  0.51100000000E-03 0. -1.
        -11    1    3    3    0    0  0.76154516000E+01 -0.57426939543E+01 -0.22909902838E+02  0.24816069093E+02  0.51100000000E-03 0.  1.
         12    1    3    3    0    0 -0.22648370363E+02  0.77379093707E+00  0.31068959050E+02  0.38455528198E+02  0.00000000000E+00 0. -1.
</event>
<event>
 7    1  0.1789107E-013  0.7246148E+02  0.7816164E-02  0.1226708E+00
        -11   -1    0    0    0    0  0.00000000000E+00  0.00000000000E+00  0.45593999997E+02  0.45594000000E+02  0.51100000000E-03 0.  1.
         11   -1    0    0    0    0 -0.00000000000E+00 -0.00000000000E+00 -0.45593999997E+02  0.45594000000E+02  0.51100000000E-03 0. -1.
    9900012    2    1    2    0    0 -0.62508077386E+01  0.12607037042E+02 -0.12356074377E+02  0.72461479918E+02  0.69999882268E+02 0.  0.
        -12    1    1    2    0    0  0.62508077386E+01 -0.12607037042E+02  0.12356074377E+02  0.18726520082E+02  0.00000000000E+00 0.  1.
         11    1    3    3    0    0 -0.13315214223E+02 -0.13049892091E+02  0.13270764834E+01  0.18691060581E+02  0.51100000000E-03 0. -1.
        -11    1    3    3    0    0  0.14905722950E+02 -0.83101284095E+01 -0.31549674902E+01  0.17354902217E+02  0.51100000000E-03 0.  1.
        -12    1    3    3    0    0 -0.78413164654E+01  0.33967057543E+02 -0.10528183370E+02  0.36415517120E+02  0.00000000000E+00 0.  1.
</event>
<event>
 7    1  0.1789107E-013  0.7246152E+02  0.7816164E-02  0.1226708E+00
        -11   -1    0    0    0    0  0.00000000000E+00  0.00000000000E+00  0.45593999997E+02  0.45594000000E+02  0.51100000000E-03 0.  1.
         11   -1    0    0    0    0 -0.00000000000E+00 -0.00000000000E+00 -0.45593999997E+02  0.45594000000E+02  0.51100000000E-03 0. -1.
    9900012    2    1    2    0    0  0.88269189282E+01 -0.10225349572E+02 -0.12969530758E+02  0.72461521428E+02  0.69999936342E+02 0.  0.
        -12    1    1    2    0    0 -0.88269189282E+01  0.10225349572E+02  0.12969530758E+02  0.18726478572E+02  0.00000000000E+00 0.  1.
         11    1    3    3    0    0  0.16463237502E+02 -0.92605149996E+01 -0.11912716044E+01  0.18926554240E+02  0.51100000000E-03 0. -1.
        -11    1    3    3    0    0  0.20871023030E+02  0.53749137968E+01 -0.11283313466E+02  0.24326990436E+02  0.51100000000E-03 0.  1.
        -12    1    3    3    0    0 -0.28507341604E+02 -0.63397483690E+01 -0.49494568745E+00  0.29207976752E+02  0.00000000000E+00 0.  1.
</event>
<event>
 7    1  0.1789107E-013  0.7246158E+02  0.7816164E-02  0.1226708E+00
        -11   -1    0    0    0    0  0.00000000000E+00  0.00000000000E+00  0.45593999997E+02  0.45594000000E+02  0.51100000000E-03 0.  1.
         11   -1    0    0    0    0 -0.00000000000E+00 -0.00000000000E+00 -0.45593999997E+02  0.45594000000E+02  0.51100000000E-03 0. -1.
    9900012    2    1    2    0    0 -0.15060482879E+02  0.11039401816E+02 -0.14114823306E+01  0.72461579643E+02  0.70000012178E+02 0.  0.
        -12    1    1    2    0    0  0.15060482879E+02 -0.11039401816E+02  0.14114823306E+01  0.18726420357E+02  0.00000000000E+00 0.  1.
         11    1    3    3    0    0 -0.20185012781E+02 -0.83556813871E+00  0.10244435536E+02  0.22651299627E+02  0.51100000000E-03 0. -1.
        -11    1    3    3    0    0  0.95817921520E+00  0.40422286881E+01  0.18197921075E+02  0.18666066856E+02  0.51100000000E-03 0.  1.
         12    1    3    3    0    0  0.41663506864E+01  0.78327412668E+01 -0.29853838942E+02  0.31144213160E+02  0.00000000000E+00 0. -1.
</event>
<event>
 7    1  0.1789107E-013  0.7246168E+02  0.7816164E-02  0.1226708E+00
        -11   -1    0    0    0    0  0.00000000000E+00  0.00000000000E+00  0.45593999997E+02  0.45594000000E+02  0.51100000000E-03 0. -1.
         11   -1    0    0    0    0 -0.00000000000E+00 -0.00000000000E+00 -0.45593999997E+02  0.45594000000E+02  0.51100000000E-03 0.  1.
    9900012    2    1    2    0    0 -0.13291078069E+02  0.15111039037E+01  0.13104912852E+02  0.72461683435E+02  0.70000147387E+02 0.  0.
        -12    1    1    2    0    0  0.13291078069E+02 -0.15111039037E+01 -0.13104912852E+02  0.18726316565E+02  0.00000000000E+00 0.  1.
         11    1    3    3    0    0 -0.16721943090E+02 -0.61936367221E+01 -0.15811794331E+02  0.23832695122E+02  0.51100000000E-03 0. -1.
        -11    1    3    3    0    0 -0.16155365010E+02  0.94117879977E-01  0.52664559657E+01  0.16992358150E+02  0.51100000000E-03 0.  1.
         12    1    3    3    0    0  0.19586230032E+02  0.76106227458E+01  0.23650251217E+02  0.31636630163E+02  0.00000000000E+00 0. -1.
</event>
<event>
 7    1  0.1789107E-013  0.7246154E+02  0.7816164E-02  0.1226708E+00
        -11   -1    0    0    0    0  0.00000000000E+00  0.00000000000E+00  0.45593999997E+02  0.45594000000E+02  0.51100000000E-03 0. -1.
         11   -1    0    0    0    0 -0.00000000000E+00 -0.00000000000E+00 -0.45593999997E+02  0.45594000000E+02  0.51100000000E-03 0.  1.
    9900012    2    1    2    0    0 -0.11653556783E+02 -0.94379549831E+01  0.11216055895E+02  0.72461540383E+02  0.69999961035E+02 0.  0.
        -12    1    1    2    0    0  0.11653556783E+02  0.94379549831E+01 -0.11216055895E+02  0.18726459617E+02  0.00000000000E+00 0.  1.
         11    1    3    3    0    0  0.10318761814E+02 -0.91987584824E+01 -0.20345810327E+02  0.24597682840E+02  0.51100000000E-03 0. -1.
        -11    1    3    3    0    0 -0.16727437698E+01 -0.74553246540E+01 -0.20765159984E+01  0.79178189149E+01  0.51100000000E-03 0.  1.
         12    1    3    3    0    0 -0.20299574827E+02  0.72161281534E+01  0.33638382220E+02  0.39946038628E+02  0.00000000000E+00 0. -1.
</event>
<event>
 7    1  0.1789107E-013  0.7246154E+02  0.7816164E-02  0.1226708E+00
        -11   -1    0    0    0    0  0.00000000000E+00  0.00000000000E+00  0.45593999997E+02  0.45594000000E+02  0.51100000000E-03 0.  1.
         11   -1    0    0    0    0 -0.00000000000E+00 -0.00000000000E+00 -0.45593999997E+02  0.45594000000E+02  0.51100000000E-03 0. -1.
    9900012    2    1    2    0    0  0.11969486777E+02  0.76292974534E+01 -0.12214968336E+02  0.72461541585E+02  0.69999962600E+02 0.  0.
        -12    1    1    2    0    0 -0.11969486777E+02 -0.76292974534E+01  0.12214968336E+02  0.18726458415E+02  0.00000000000E+00 0.  1.
         11    1    3    3    0    0  0.50759513368E+01 -0.51616773021E+01  0.26121077182E+00  0.72440614212E+01  0.51100000000E-03 0. -1.
        -11    1    3    3    0    0  0.12152219751E+01 -0.18560814153E+02  0.14408650570E+02  0.23528489071E+02  0.51100000000E-03 0.  1.
         12    1    3    3    0    0  0.56783134653E+01  0.31351788908E+02 -0.26884829677E+02  0.41688991093E+02  0.00000000000E+00 0. -1.
</event>
<event>
 7    1  0.1789107E-013  0.7246158E+02  0.7816164E-02  0.1226708E+00
        -11   -1    0    0    0    0  0.00000000000E+00  0.00000000000E+00  0.45593999997E+02  0.45594000000E+02  0.51100000000E-03 0.  1.
         11   -1    0    0    0    0 -0.00000000000E+00 -0.00000000000E+00 -0.45593999997E+02  0.45594000000E+02  0.51100000000E-03 0. -1.
    9900012    2    1    2    0    0  0.25215774114E+01  0.18444368511E+02  0.20311441163E+01  0.72461584731E+02  0.70000018806E+02 0.  0.
        -12    1    1    2    0    0 -0.25215774114E+01 -0.18444368511E+02 -0.20311441163E+01  0.18726415269E+02  0.00000000000E+00 0.  1.
         11    1    3    3    0    0  0.21992769998E+02  0.16780188133E+02 -0.12320522337E+02  0.30282865070E+02  0.51100000000E-03 0. -1.
        -11    1    3    3    0    0 -0.12536503083E+01 -0.72959176067E+01 -0.87253102795E+01  0.11442599904E+02  0.51100000000E-03 0.  1.
        -12    1    3    3    0    0 -0.18217542278E+02  0.89600979849E+01  0.23076976733E+02  0.30736119757E+02  0.00000000000E+00 0.  1.
</event>
<event>
 7    1  0.1789107E-013  0.7246156E+02  0.7816164E-02  0.1226708E+00
        -11   -1    0    0    0    0  0.00000000000E+00  0.00000000000E+00  0.45593999997E+02  0.45594000000E+02  0.51100000000E-03 0.  1.
         11   -1    0    0    0    0 -0.00000000000E+00 -0.00000000000E+00 -0.45593999997E+02  0.45594000000E+02  0.51100000000E-03 0. -1.
    9900012    2    1    2    0    0  0.45102963773E+00 -0.18338811858E+02 -0.37635241437E+01  0.72461559813E+02  0.69999986346E+02 0.  0.
        -12    1    1    2    0    0 -0.45102963773E+00  0.18338811858E+02  0.37635241437E+01  0.18726440187E+02  0.00000000000E+00 0.  1.
         11    1    3    3    0    0 -0.19174224592E+02 -0.15290104798E+02 -0.27121450806E+00  0.24525736503E+02  0.51100000000E-03 0. -1.
        -11    1    3    3    0    0  0.16573587885E+02 -0.22158965158E+02  0.22137367809E+01  0.27759758339E+02  0.51100000000E-03 0.  1.
        -12    1    3    3    0    0  0.30516663448E+01  0.19110258098E+02 -0.57060464166E+01  0.20176064972E+02  0.00000000000E+00 0.  1.
</event>
<event>
 7    1  0.1789107E-013  0.7246158E+02  0.7816164E-02  0.1226708E+00
        -11   -1    0    0    0    0  0.00000000000E+00  0.00000000000E+00  0.45593999997E+02  0.45594000000E+02  0.51100000000E-03 0. -1.
         11   -1    0    0    0    0 -0.00000000000E+00 -0.00000000000E+00 -0.45593999997E+02  0.45594000000E+02  0.51100000000E-03 0.  1.
    9900012    2    1    2    0    0  0.98194387508E+01 -0.12958369261E+02  0.92918294928E+01  0.72461579984E+02  0.70000012623E+02 0.  0.
        -12    1    1    2    0    0 -0.98194387508E+01  0.12958369261E+02 -0.92918294928E+01  0.18726420016E+02  0.00000000000E+00 0.  1.
         11    1    3    3    0    0 -0.20585365910E+01  0.49218315221E+01  0.75238789549E+01  0.92233807911E+01  0.51100000000E-03 0. -1.
        -11    1    3    3    0    0  0.16123057109E+01  0.21693068651E+02  0.46831213597E+01  0.22251300707E+02  0.51100000000E-03 0.  1.
         12    1    3    3    0    0  0.10265669631E+02 -0.39573269434E+02 -0.29151708217E+01  0.40986898487E+02  0.00000000000E+00 0. -1.
</event>
<event>
 7    1  0.1789107E-013  0.7246157E+02  0.7816164E-02  0.1226708E+00
        -11   -1    0    0    0    0  0.00000000000E+00  0.00000000000E+00  0.45593999997E+02  0.45594000000E+02  0.51100000000E-03 0.  1.
         11   -1    0    0    0    0 -0.00000000000E+00 -0.00000000000E+00 -0.45593999997E+02  0.45594000000E+02  0.51100000000E-03 0. -1.
    9900012    2    1    2    0    0 -0.91852832477E+01 -0.14449632274E+02 -0.75840602030E+01  0.72461567602E+02  0.69999996493E+02 0.  0.
        -12    1    1    2    0    0  0.91852832477E+01  0.14449632274E+02  0.75840602030E+01  0.18726432398E+02  0.00000000000E+00 0.  1.
         11    1    3    3    0    0 -0.10965474157E+02 -0.23889056492E+01  0.19854133435E+02  0.22806470757E+02  0.51100000000E-03 0. -1.
        -11    1    3    3    0    0  0.53869802987E+01 -0.24069036550E+01  0.95678686135E+01  0.11240856373E+02  0.51100000000E-03 0.  1.
         12    1    3    3    0    0 -0.36067893899E+01 -0.96538229693E+01 -0.37006062252E+02  0.38414240472E+02  0.00000000000E+00 0. -1.
</event>
<event>
 7    1  0.1789107E-013  0.7246158E+02  0.7816164E-02  0.1226708E+00
        -11   -1    0    0    0    0  0.00000000000E+00  0.00000000000E+00  0.45593999997E+02  0.45594000000E+02  0.51100000000E-03 0.  1.
         11   -1    0    0    0    0 -0.00000000000E+00 -0.00000000000E+00 -0.45593999997E+02  0.45594000000E+02  0.51100000000E-03 0. -1.
    9900012    2    1    2    0    0 -0.85142932670E+01  0.10804817363E+02 -0.12705957971E+02  0.72461584538E+02  0.70000018555E+02 0.  0.
        -12    1    1    2    0    0  0.85142932670E+01 -0.10804817363E+02  0.12705957971E+02  0.18726415462E+02  0.00000000000E+00 0.  1.
         11    1    3    3    0    0  0.39063300386E+01  0.11195298035E+01 -0.33990035999E+01  0.52977341463E+01  0.51100000000E-03 0. -1.
        -11    1    3    3    0    0 -0.28258701900E+02 -0.14182239420E+02 -0.19043383073E+02  0.36909898227E+02  0.51100000000E-03 0.  1.
         12    1    3    3    0    0  0.15838078594E+02  0.23867526980E+02  0.97364287020E+01  0.30253952165E+02  0.00000000000E+00 0. -1.
</event>
<event>
 7    1  0.1789107E-013  0.7246157E+02  0.7816164E-02  0.1226708E+00
        -11   -1    0    0    0    0  0.00000000000E+00  0.00000000000E+00  0.45593999997E+02  0.45594000000E+02  0.51100000000E-03 0.  1.
         11   -1    0    0    0    0 -0.00000000000E+00 -0.00000000000E+00 -0.45593999997E+02  0.45594000000E+02  0.51100000000E-03 0. -1.
    9900012    2    1    2    0    0 -0.11258748321E+02  0.81767022439E+01 -0.12532412280E+02  0.72461568655E+02  0.69999997865E+02 0.  0.
        -12    1    1    2    0    0  0.11258748321E+02 -0.81767022439E+01  0.12532412280E+02  0.18726431345E+02  0.00000000000E+00 0.  1.
         11    1    3    3    0    0 -0.27193614485E+01 -0.78712010491E+01 -0.24779040128E+01  0.86885407981E+01  0.51100000000E-03 0. -1.
        -11    1    3    3    0    0 -0.12112796381E+02  0.89484724888E+01  0.24257733875E+02  0.28552279227E+02  0.51100000000E-03 0.  1.
         12    1    3    3    0    0  0.35734095082E+01  0.70994308042E+01 -0.34312242142E+02  0.35220748630E+02  0.00000000000E+00 0. -1.
</event>
<event>
 7    1  0.1789107E-013  0.7246156E+02  0.7816164E-02  0.1226708E+00
        -11   -1    0    0    0    0  0.00000000000E+00  0.00000000000E+00  0.45593999997E+02  0.45594000000E+02  0.51100000000E-03 0.  1.
         11   -1    0    0    0    0 -0.00000000000E+00 -0.00000000000E+00 -0.45593999997E+02  0.45594000000E+02  0.51100000000E-03 0. -1.
    9900012    2    1    2    0    0  0.16905702399E+02 -0.42387550433E+01  0.68490751699E+01  0.72461557503E+02  0.69999983337E+02 0.  0.
        -12    1    1    2    0    0 -0.16905702399E+02  0.42387550433E+01 -0.68490751699E+01  0.18726442497E+02  0.00000000000E+00 0.  1.
         11    1    3    3    0    0  0.48402730618E+01 -0.63982577152E+01  0.19841691457E+01  0.82645551945E+01  0.51100000000E-03 0. -1.
        -11    1    3    3    0    0  0.33371396666E+02  0.14419903552E+01  0.19180980676E+02  0.38518040858E+02  0.51100000000E-03 0.  1.
         12    1    3    3    0    0 -0.21305967329E+02  0.71751231660E+00 -0.14316074652E+02  0.25678961450E+02  0.00000000000E+00 0. -1.
</event>
<event>
 7    1  0.1789107E-013  0.7246164E+02  0.7816164E-02  0.1226708E+00
        -11   -1    0    0    0    0  0.00000000000E+00  0.00000000000E+00  0.45593999997E+02  0.45594000000E+02  0.51100000000E-03 0. -1.
         11   -1    0    0    0    0 -0.00000000000E+00 -0.00000000000E+00 -0.45593999997E+02  0.45594000000E+02  0.51100000000E-03 0.  1.
    9900012    2    1    2    0    0  0.51605294392E+01  0.47692092752E+01  0.17357996459E+02  0.72461642578E+02  0.70000094163E+02 0.  0.
        -12    1    1    2    0    0 -0.51605294392E+01 -0.47692092752E+01 -0.17357996459E+02  0.18726357422E+02  0.00000000000E+00 0.  1.
         11    1    3    3    0    0  0.19328847316E+02 -0.19584757435E+02  0.78389395503E+01  0.28611466860E+02  0.51100000000E-03 0. -1.
        -11    1    3    3    0    0 -0.80776306484E+00 -0.51294069278E+01 -0.60150977808E+01  0.79463638335E+01  0.51100000000E-03 0.  1.
         12    1    3    3    0    0 -0.13360554812E+02  0.29483373638E+02  0.15534154690E+02  0.35903811885E+02  0.00000000000E+00 0. -1.
</event>
<event>
 7    1  0.1789107E-013  0.7246158E+02  0.7816164E-02  0.1226708E+00
        -11   -1    0    0    0    0  0.00000000000E+00  0.00000000000E+00  0.45593999997E+02  0.45594000000E+02  0.51100000000E-03 0.  1.
         11   -1    0    0    0    0 -0.00000000000E+00 -0.00000000000E+00 -0.45593999997E+02  0.45594000000E+02  0.51100000000E-03 0. -1.
    9900012    2    1    2    0    0 -0.16161686830E+02 -0.70871457571E+01  0.62650657914E+01  0.72461580012E+02  0.70000012659E+02 0.  0.
        -12    1    1    2    0    0  0.16161686830E+02  0.70871457571E+01 -0.62650657914E+01  0.18726419988E+02  0.00000000000E+00 0.  1.
         11    1    3    3    0    0 -0.12982910573E+02  0.42789619610E+01 -0.10277470443E+02  0.17102394024E+02  0.51100000000E-03 0. -1.
        -11    1    3    3    0    0 -0.10842179742E+02  0.63451926813E+01  0.29534567096E+02  0.32095248644E+02  0.51100000000E-03 0.  1.
         12    1    3    3    0    0  0.76634034843E+01 -0.17711300399E+02 -0.12992030862E+02  0.23263937343E+02  0.00000000000E+00 0. -1.
</event>
<event>
 7    1  0.1789107E-013  0.7246158E+02  0.7816164E-02  0.1226708E+00
        -11   -1    0    0    0    0  0.00000000000E+00  0.00000000000E+00  0.45593999997E+02  0.45594000000E+02  0.51100000000E-03 0.  1.
         11   -1    0    0    0    0 -0.00000000000E+00 -0.00000000000E+00 -0.45593999997E+02  0.45594000000E+02  0.51100000000E-03 0. -1.
    9900012    2    1    2    0    0  0.79224730677E+01 -0.15171056472E+02 -0.75994974658E+01  0.72461577605E+02  0.70000009523E+02 0.  0.
        -12    1    1    2    0    0 -0.79224730677E+01  0.15171056472E+02  0.75994974658E+01  0.18726422395E+02  0.00000000000E+00 0.  1.
         11    1    3    3    0    0  0.14085888962E+02 -0.52202097636E+01  0.67744820542E+01  0.16478970392E+02  0.51100000000E-03 0. -1.
        -11    1    3    3    0    0 -0.66195441956E+01 -0.22274056741E+02  0.12520778131E+02  0.26395489280E+02  0.51100000000E-03 0.  1.
         12    1    3    3    0    0  0.45612830173E+00  0.12323210032E+02 -0.26894757651E+02  0.29587117934E+02  0.00000000000E+00 0. -1.
</event>
<event>
 7    1  0.1789107E-013  0.7246157E+02  0.7816164E-02  0.1226708E+00
        -11   -1    0    0    0    0  0.00000000000E+00  0.00000000000E+00  0.45593999997E+02  0.45594000000E+02  0.51100000000E-03 0.  1.
         11   -1    0    0    0    0 -0.00000000000E+00 -0.00000000000E+00 -0.45593999997E+02  0.45594000000E+02  0.51100000000E-03 0. -1.
    9900012    2    1    2    0    0  0.18419747921E+02  0.14544293695E+01 -0.30457899258E+01  0.72461566422E+02  0.69999994956E+02 0.  0.
        -12    1    1    2    0    0 -0.18419747921E+02 -0.14544293695E+01  0.30457899258E+01  0.18726433578E+02  0.00000000000E+00 0.  1.
         11    1    3    3    0    0  0.12498301950E+01 -0.12474974408E+02  0.97990870508E+01  0.15912547543E+02  0.51100000000E-03 0. -1.
        -11    1    3    3    0    0  0.25915401771E+02  0.11606851849E+02  0.11454800012E+02  0.30619266849E+02  0.51100000000E-03 0.  1.
         12    1    3    3    0    0 -0.87454840446E+01  0.23225519293E+01 -0.24299676989E+02  0.25929752031E+02  0.00000000000E+00 0. -1.
</event>
<event>
 7    1  0.1789107E-013  0.7246160E+02  0.7816164E-02  0.1226708E+00
        -11   -1    0    0    0    0  0.00000000000E+00  0.00000000000E+00  0.45593999997E+02  0.45594000000E+02  0.51100000000E-03 0.  1.
         11   -1    0    0    0    0 -0.00000000000E+00 -0.00000000000E+00 -0.45593999997E+02  0.45594000000E+02  0.51100000000E-03 0. -1.
    9900012    2    1    2    0    0  0.71029815382E+01 -0.41867539751E+00 -0.17321959111E+02  0.72461604103E+02  0.70000044042E+02 0.  0.
        -12    1    1    2    0    0 -0.71029815382E+01  0.41867539751E+00  0.17321959111E+02  0.18726395897E+02  0.00000000000E+00 0.  1.
         11    1    3    3    0    0 -0.12449851867E+02 -0.21410578490E+02  0.52949167578E+01  0.25326820300E+02  0.51100000000E-03 0. -1.
        -11    1    3    3    0    0  0.60747984461E+01  0.65824702522E+01  0.71236728299E+01  0.11444597224E+02  0.51100000000E-03 0.  1.
         12    1    3    3    0    0  0.13478034959E+02  0.14409432840E+02 -0.29740548699E+02  0.35690186579E+02  0.00000000000E+00 0. -1.
</event>
<event>
 7    1  0.1789107E-013  0.7246154E+02  0.7816164E-02  0.1226708E+00
        -11   -1    0    0    0    0  0.00000000000E+00  0.00000000000E+00  0.45593999997E+02  0.45594000000E+02  0.51100000000E-03 0. -1.
         11   -1    0    0    0    0 -0.00000000000E+00 -0.00000000000E+00 -0.45593999997E+02  0.45594000000E+02  0.51100000000E-03 0.  1.
    9900012    2    1    2    0    0  0.10778190275E+02 -0.97582621651E+01  0.11801994774E+02  0.72461544202E+02  0.69999966010E+02 0.  0.
        -12    1    1    2    0    0 -0.10778190275E+02  0.97582621651E+01 -0.11801994774E+02  0.18726455798E+02  0.00000000000E+00 0.  1.
         11    1    3    3    0    0 -0.48306628803E+00  0.75290004200E+01  0.26231286058E+01  0.79874904887E+01  0.51100000000E-03 0. -1.
        -11    1    3    3    0    0 -0.99410604108E+01 -0.96061191247E+01 -0.22007230152E+02  0.25988851186E+02  0.51100000000E-03 0.  1.
         12    1    3    3    0    0  0.21202316974E+02 -0.76811434603E+01  0.31186096320E+02  0.38485202528E+02  0.00000000000E+00 0. -1.
</event>
<event>
 7    1  0.1789107E-013  0.7246162E+02  0.7816164E-02  0.1226708E+00
        -11   -1    0    0    0    0  0.00000000000E+00  0.00000000000E+00  0.45593999997E+02  0.45594000000E+02  0.51100000000E-03 0.  1.
         11   -1    0    0    0    0 -0.00000000000E+00 -0.00000000000E+00 -0.45593999997E+02  0.45594000000E+02  0.51100000000E-03 0. -1.
    9900012    2    1    2    0    0 -0.16529818823E+02 -0.65189327463E+01 -0.59114981004E+01  0.72461622767E+02  0.70000068356E+02 0.  0.
        -12    1    1    2    0    0  0.16529818823E+02  0.65189327463E+01  0.59114981004E+01  0.18726377233E+02  0.00000000000E+00 0.  1.
         11    1    3    3    0    0 -0.29148041661E+01 -0.49567773607E+01  0.12170445495E+02  0.13460515181E+02  0.51100000000E-03 0. -1.
        -11    1    3    3    0    0  0.80784472520E+01  0.21760526898E+02 -0.19407205394E+01  0.23292664883E+02  0.51100000000E-03 0.  1.
         12    1    3    3    0    0 -0.21693461909E+02 -0.23322682284E+02 -0.16141223056E+02  0.35708442703E+02  0.00000000000E+00 0. -1.
</event>
<event>
 7    1  0.1789107E-013  0.7246157E+02  0.7816164E-02  0.1226708E+00
        -11   -1    0    0    0    0  0.00000000000E+00  0.00000000000E+00  0.45593999997E+02  0.45594000000E+02  0.51100000000E-03 0. -1.
         11   -1    0    0    0    0 -0.00000000000E+00 -0.00000000000E+00 -0.45593999997E+02  0.45594000000E+02  0.51100000000E-03 0.  1.
    9900012    2    1    2    0    0  0.18122258462E+02 -0.45962559879E+01  0.10665141380E+01  0.72461567524E+02  0.69999996392E+02 0.  0.
        -12    1    1    2    0    0 -0.18122258462E+02  0.45962559879E+01 -0.10665141380E+01  0.18726432476E+02  0.00000000000E+00 0.  1.
         11    1    3    3    0    0 -0.12898264779E+01 -0.53524780117E+01  0.64792011755E-01  0.55060758689E+01  0.51100000000E-03 0. -1.
        -11    1    3    3    0    0 -0.12499580533E+02 -0.10053111771E+02  0.22021055987E+02  0.27243925503E+02  0.51100000000E-03 0.  1.
         12    1    3    3    0    0  0.31911665473E+02  0.10809333795E+02 -0.21019333860E+02  0.39711566152E+02  0.00000000000E+00 0. -1.
</event>
<event>
 7    1  0.1789107E-013  0.7246155E+02  0.7816164E-02  0.1226708E+00
        -11   -1    0    0    0    0  0.00000000000E+00  0.00000000000E+00  0.45593999997E+02  0.45594000000E+02  0.51100000000E-03 0. -1.
         11   -1    0    0    0    0 -0.00000000000E+00 -0.00000000000E+00 -0.45593999997E+02  0.45594000000E+02  0.51100000000E-03 0.  1.
    9900012    2    1    2    0    0 -0.41628589212E+01 -0.16372872046E+02  0.80795703539E+01  0.72461553713E+02  0.69999978400E+02 0.  0.
        -12    1    1    2    0    0  0.41628589212E+01  0.16372872046E+02 -0.80795703539E+01  0.18726446287E+02  0.00000000000E+00 0.  1.
         11    1    3    3    0    0  0.59307288240E+01 -0.73270277067E+01  0.10993254757E+01  0.94903844053E+01  0.51100000000E-03 0. -1.
        -11    1    3    3    0    0 -0.13014824476E+02 -0.26274761397E+02 -0.16543833926E+02  0.33666707351E+02  0.51100000000E-03 0.  1.
         12    1    3    3    0    0  0.29212367306E+01  0.17228917058E+02  0.23524078804E+02  0.29304461957E+02  0.00000000000E+00 0. -1.
</event>
<event>
 7    1  0.1789107E-013  0.7246157E+02  0.7816164E-02  0.1226708E+00
        -11   -1    0    0    0    0  0.00000000000E+00  0.00000000000E+00  0.45593999997E+02  0.45594000000E+02  0.51100000000E-03 0.  1.
         11   -1    0    0    0    0 -0.00000000000E+00 -0.00000000000E+00 -0.45593999997E+02  0.45594000000E+02  0.51100000000E-03 0. -1.
    9900012    2    1    2    0    0  0.22861716540E+01 -0.16596042650E+02 -0.83680322758E+01  0.72461570104E+02  0.69999999753E+02 0.  0.
        -12    1    1    2    0    0 -0.22861716540E+01  0.16596042650E+02  0.83680322758E+01  0.18726429896E+02  0.00000000000E+00 0.  1.
         11    1    3    3    0    0 -0.14597165748E+02  0.10173802822E+02 -0.20043035095E+02  0.26801245639E+02  0.51100000000E-03 0. -1.
        -11    1    3    3    0    0 -0.59474482157E+01 -0.38987623360E+01 -0.55678687208E+01  0.90318132390E+01  0.51100000000E-03 0.  1.
        -12    1    3    3    0    0  0.22830785618E+02 -0.22871083136E+02  0.17242871540E+02  0.36628511226E+02  0.00000000000E+00 0.  1.
</event>
<event>
 7    1  0.1789107E-013  0.7246156E+02  0.7816164E-02  0.1226708E+00
        -11   -1    0    0    0    0  0.00000000000E+00  0.00000000000E+00  0.45593999997E+02  0.45594000000E+02  0.51100000000E-03 0. -1.
         11   -1    0    0    0    0 -0.00000000000E+00 -0.00000000000E+00 -0.45593999997E+02  0.45594000000E+02  0.51100000000E-03 0.  1.
    9900012    2    1    2    0    0  0.90980785032E+01 -0.79664203278E+01  0.14298271426E+02  0.72461562777E+02  0.69999990207E+02 0.  0.
        -12    1    1    2    0    0 -0.90980785032E+01  0.79664203278E+01 -0.14298271426E+02  0.18726437223E+02  0.00000000000E+00 0.  1.
         11    1    3    3    0    0  0.29021345375E+02  0.11295740532E+02 -0.88103026162E+01  0.32364388979E+02  0.51100000000E-03 0. -1.
        -11    1    3    3    0    0  0.67487667606E+00 -0.29281716743E+01 -0.21073158416E+01  0.36702081956E+01  0.51100000000E-03 0.  1.
        -12    1    3    3    0    0 -0.20598143548E+02 -0.16333989185E+02  0.25215889884E+02  0.36426965602E+02  0.00000000000E+00 0.  1.
</event>
<event>
 7    1  0.1789107E-013  0.7246171E+02  0.7816164E-02  0.1226708E+00
        -11   -1    0    0    0    0  0.00000000000E+00  0.00000000000E+00  0.45593999997E+02  0.45594000000E+02  0.51100000000E-03 0. -1.
         11   -1    0    0    0    0 -0.00000000000E+00 -0.00000000000E+00 -0.45593999997E+02  0.45594000000E+02  0.51100000000E-03 0.  1.
    9900012    2    1    2    0    0 -0.18078328121E+02  0.46778300709E+01  0.14020788126E+01  0.72461711878E+02  0.70000184439E+02 0.  0.
        -12    1    1    2    0    0  0.18078328121E+02 -0.46778300709E+01 -0.14020788126E+01  0.18726288122E+02  0.00000000000E+00 0.  1.
         11    1    3    3    0    0  0.76872680295E+00 -0.30932107800E+01  0.25619878706E+01  0.40893368579E+01  0.51100000000E-03 0. -1.
        -11    1    3    3    0    0 -0.54874951114E+01  0.30868619231E+02 -0.18638605529E+02  0.36474400230E+02  0.51100000000E-03 0.  1.
         12    1    3    3    0    0 -0.13359559813E+02 -0.23097578380E+02  0.17478696471E+02  0.31897974790E+02  0.00000000000E+00 0. -1.
</event>
<event>
 7    1  0.1789107E-013  0.7246217E+02  0.7816164E-02  0.1226706E+00
        -11   -1    0    0    0    0  0.00000000000E+00  0.00000000000E+00  0.45593999997E+02  0.45594000000E+02  0.51100000000E-03 0.  1.
         11   -1    0    0    0    0 -0.00000000000E+00 -0.00000000000E+00 -0.45593999997E+02  0.45594000000E+02  0.51100000000E-03 0. -1.
    9900012    2    1    2    0    0  0.52043597068E+00 -0.13828702039E+02 -0.12615574644E+02  0.72462173522E+02  0.70000785811E+02 0.  0.
        -12    1    1    2    0    0 -0.52043597068E+00  0.13828702039E+02  0.12615574644E+02  0.18725826478E+02  0.00000000000E+00 0.  1.
         11    1    3    3    0    0 -0.17430659291E+02 -0.51709748114E+01 -0.24787153569E+02  0.30740361841E+02  0.51100000000E-03 0. -1.
        -11    1    3    3    0    0 -0.67487767249E+01  0.76410720972E+01  0.45456503577E+01  0.11162208899E+02  0.51100000000E-03 0.  1.
        -12    1    3    3    0    0  0.24699871987E+02 -0.16298799325E+02  0.76259285668E+01  0.30559602781E+02  0.00000000000E+00 0.  1.
</event>
<event>
 7    1  0.1789107E-013  0.7246187E+02  0.7816164E-02  0.1226707E+00
        -11   -1    0    0    0    0  0.00000000000E+00  0.00000000000E+00  0.45593999997E+02  0.45594000000E+02  0.51100000000E-03 0.  1.
         11   -1    0    0    0    0 -0.00000000000E+00 -0.00000000000E+00 -0.45593999997E+02  0.45594000000E+02  0.51100000000E-03 0. -1.
    9900012    2    1    2    0    0  0.17502082513E-01  0.37449345888E+01 -0.18347836649E+02  0.72461869831E+02  0.70000390201E+02 0.  0.
        -12    1    1    2    0    0 -0.17502082513E-01 -0.37449345888E+01  0.18347836649E+02  0.18726130169E+02  0.00000000000E+00 0.  1.
         11    1    3    3    0    0 -0.57948052951E+01  0.21613798439E+01  0.63461698677E+01  0.88614447743E+01  0.51100000000E-03 0. -1.
        -11    1    3    3    0    0  0.82595756670E+01 -0.14076580379E+02  0.14179265359E+02  0.21619950780E+02  0.51100000000E-03 0.  1.
         12    1    3    3    0    0 -0.24472682894E+01  0.15660135124E+02 -0.38873271876E+02  0.41980474277E+02  0.00000000000E+00 0. -1.
</event>
<event>
 7    1  0.1789107E-013  0.7246156E+02  0.7816164E-02  0.1226708E+00
        -11   -1    0    0    0    0  0.00000000000E+00  0.00000000000E+00  0.45593999997E+02  0.45594000000E+02  0.51100000000E-03 0.  1.
         11   -1    0    0    0    0 -0.00000000000E+00 -0.00000000000E+00 -0.45593999997E+02  0.45594000000E+02  0.51100000000E-03 0. -1.
    9900012    2    1    2    0    0  0.11418249446E+01 -0.59241299837E+01 -0.17727959562E+02  0.72461557986E+02  0.69999983967E+02 0.  0.
        -12    1    1    2    0    0 -0.11418249446E+01  0.59241299837E+01  0.17727959562E+02  0.18726442014E+02  0.00000000000E+00 0.  1.
         11    1    3    3    0    0  0.22150020290E+01 -0.28859269821E+01 -0.13016088958E+02  0.13514931763E+02  0.51100000000E-03 0. -1.
        -11    1    3    3    0    0 -0.40389115318E+01  0.11818216883E+02 -0.28288155745E+02  0.30922529204E+02  0.51100000000E-03 0.  1.
         12    1    3    3    0    0  0.29657344474E+01 -0.14856419885E+02  0.23576285142E+02  0.28024097019E+02  0.00000000000E+00 0. -1.
</event>
<event>
 7    1  0.1789107E-013  0.7246153E+02  0.7816164E-02  0.1226708E+00
        -11   -1    0    0    0    0  0.00000000000E+00  0.00000000000E+00  0.45593999997E+02  0.45594000000E+02  0.51100000000E-03 0. -1.
         11   -1    0    0    0    0 -0.00000000000E+00 -0.00000000000E+00 -0.45593999997E+02  0.45594000000E+02  0.51100000000E-03 0.  1.
    9900012    2    1    2    0    0  0.16445048383E+02 -0.65881216426E+01  0.60693974981E+01  0.72461533459E+02  0.69999952016E+02 0.  0.
        -12    1    1    2    0    0 -0.16445048383E+02  0.65881216426E+01 -0.60693974981E+01  0.18726466541E+02  0.00000000000E+00 0.  1.
         11    1    3    3    0    0 -0.11428818462E+01  0.17671161884E+02  0.16238522318E+02  0.24026355292E+02  0.51100000000E-03 0. -1.
        -11    1    3    3    0    0 -0.64628888108E+01 -0.14479319017E+02  0.69747626588E+01  0.17322439937E+02  0.51100000000E-03 0.  1.
         12    1    3    3    0    0  0.24050819040E+02 -0.97799645104E+01 -0.17143887479E+02  0.31112738231E+02  0.00000000000E+00 0. -1.
</event>
<event>
 7    1  0.1789107E-013  0.7246157E+02  0.7816164E-02  0.1226708E+00
        -11   -1    0    0    0    0  0.00000000000E+00  0.00000000000E+00  0.45593999997E+02  0.45594000000E+02  0.51100000000E-03 0.  1.
         11   -1    0    0    0    0 -0.00000000000E+00 -0.00000000000E+00 -0.45593999997E+02  0.45594000000E+02  0.51100000000E-03 0. -1.
    9900012    2    1    2    0    0  0.17929583569E+02  0.18626655215E+01  0.50734167996E+01  0.72461573544E+02  0.70000004233E+02 0.  0.
        -12    1    1    2    0    0 -0.17929583569E+02 -0.18626655215E+01 -0.50734167996E+01  0.18726426456E+02  0.00000000000E+00 0.  1.
         11    1    3    3    0    0  0.30278567186E+02 -0.19804083564E+02 -0.80890647569E+01  0.37073256204E+02  0.51100000000E-03 0. -1.
        -11    1    3    3    0    0 -0.34469231795E+00  0.55481166133E+01 -0.56024092531E+01  0.78922367203E+01  0.51100000000E-03 0.  1.
         12    1    3    3    0    0 -0.12004291299E+02  0.16118632473E+02  0.18764890810E+02  0.27496080620E+02  0.00000000000E+00 0. -1.
</event>
<event>
 7    1  0.1789107E-013  0.7246161E+02  0.7816164E-02  0.1226708E+00
        -11   -1    0    0    0    0  0.00000000000E+00  0.00000000000E+00  0.45593999997E+02  0.45594000000E+02  0.51100000000E-03 0.  1.
         11   -1    0    0    0    0 -0.00000000000E+00 -0.00000000000E+00 -0.45593999997E+02  0.45594000000E+02  0.51100000000E-03 0. -1.
    9900012    2    1    2    0    0 -0.88313699945E+01  0.10519781799E+02 -0.12728658573E+02  0.72461610755E+02  0.70000052708E+02 0.  0.
        -12    1    1    2    0    0  0.88313699945E+01 -0.10519781799E+02  0.12728658573E+02  0.18726389245E+02  0.00000000000E+00 0.  1.
         11    1    3    3    0    0 -0.25452301583E+02  0.66571290372E+01 -0.16561859736E+02  0.31087493000E+02  0.51100000000E-03 0. -1.
        -11    1    3    3    0    0 -0.33789755677E+01 -0.96121820970E+01 -0.94031176496E+01  0.13864708520E+02  0.51100000000E-03 0.  1.
        -12    1    3    3    0    0  0.19999907156E+02  0.13474834859E+02  0.13236318813E+02  0.27509409235E+02  0.00000000000E+00 0.  1.
</event>
<event>
 7    1  0.1789107E-013  0.7246153E+02  0.7816164E-02  0.1226708E+00
        -11   -1    0    0    0    0  0.00000000000E+00  0.00000000000E+00  0.45593999997E+02  0.45594000000E+02  0.51100000000E-03 0.  1.
         11   -1    0    0    0    0 -0.00000000000E+00 -0.00000000000E+00 -0.45593999997E+02  0.45594000000E+02  0.51100000000E-03 0. -1.
    9900012    2    1    2    0    0  0.32739904643E+01  0.10231921890E+02 -0.15338490726E+02  0.72461533786E+02  0.69999952441E+02 0.  0.
        -12    1    1    2    0    0 -0.32739904643E+01 -0.10231921890E+02  0.15338490726E+02  0.18726466214E+02  0.00000000000E+00 0.  1.
         11    1    3    3    0    0  0.90854732722E+01  0.72359370450E+01  0.25968296077E+01  0.11901602151E+02  0.51100000000E-03 0. -1.
        -11    1    3    3    0    0 -0.17035601017E+02 -0.10864829346E+02  0.13582053303E+02  0.24346013861E+02  0.51100000000E-03 0.  1.
         12    1    3    3    0    0  0.11224118209E+02  0.13860814191E+02 -0.31517373636E+02  0.36213917774E+02  0.00000000000E+00 0. -1.
</event>
<event>
 7    1  0.1789107E-013  0.7246160E+02  0.7816164E-02  0.1226708E+00
        -11   -1    0    0    0    0  0.00000000000E+00  0.00000000000E+00  0.45593999997E+02  0.45594000000E+02  0.51100000000E-03 0.  1.
         11   -1    0    0    0    0 -0.00000000000E+00 -0.00000000000E+00 -0.45593999997E+02  0.45594000000E+02  0.51100000000E-03 0. -1.
    9900012    2    1    2    0    0  0.14250419556E+02  0.12035053289E+02 -0.16616021415E+01  0.72461604542E+02  0.70000044614E+02 0.  0.
        -12    1    1    2    0    0 -0.14250419556E+02 -0.12035053289E+02  0.16616021415E+01  0.18726395458E+02  0.00000000000E+00 0.  1.
         11    1    3    3    0    0 -0.10232439203E+01 -0.20464884061E+01  0.12229491020E+01  0.25943684557E+01  0.51100000000E-03 0. -1.
        -11    1    3    3    0    0  0.73572559326E+01  0.19216041423E+02  0.29594857311E+02  0.36044986369E+02  0.51100000000E-03 0.  1.
         12    1    3    3    0    0  0.79164075437E+01 -0.51344997279E+01 -0.32479408555E+02  0.33822249717E+02  0.00000000000E+00 0. -1.
</event>
<event>
 7    1  0.1789107E-013  0.7246162E+02  0.7816164E-02  0.1226708E+00
        -11   -1    0    0    0    0  0.00000000000E+00  0.00000000000E+00  0.45593999997E+02  0.45594000000E+02  0.51100000000E-03 0. -1.
         11   -1    0    0    0    0 -0.00000000000E+00 -0.00000000000E+00 -0.45593999997E+02  0.45594000000E+02  0.51100000000E-03 0.  1.
    9900012    2    1    2    0    0 -0.11671117957E+02 -0.13203062253E+02  0.63357198301E+01  0.72461623068E+02  0.70000068747E+02 0.  0.
        -12    1    1    2    0    0  0.11671117957E+02  0.13203062253E+02 -0.63357198301E+01  0.18726376932E+02  0.00000000000E+00 0.  1.
         11    1    3    3    0    0 -0.13762960722E+02 -0.16638992268E+02 -0.38687647428E+01  0.21937239855E+02  0.51100000000E-03 0. -1.
        -11    1    3    3    0    0  0.16551585641E+02 -0.16317129968E+02 -0.16980111330E+01  0.23304226220E+02  0.51100000000E-03 0.  1.
        -12    1    3    3    0    0 -0.14459742876E+02  0.19753059982E+02  0.11902495706E+02  0.27220156993E+02  0.00000000000E+00 0.  1.
</event>
<event>
 7    1  0.1789107E-013  0.7246156E+02  0.7816164E-02  0.1226708E+00
        -11   -1    0    0    0    0  0.00000000000E+00  0.00000000000E+00  0.45593999997E+02  0.45594000000E+02  0.51100000000E-03 0.  1.
         11   -1    0    0    0    0 -0.00000000000E+00 -0.00000000000E+00 -0.45593999997E+02  0.45594000000E+02  0.51100000000E-03 0. -1.
    9900012    2    1    2    0    0  0.44274570070E+01 -0.17647296068E+02 -0.44328306924E+01  0.72461563553E+02  0.69999991218E+02 0.  0.
        -12    1    1    2    0    0 -0.44274570070E+01  0.17647296068E+02  0.44328306924E+01  0.18726436447E+02  0.00000000000E+00 0.  1.
         11    1    3    3    0    0 -0.15839122979E+02  0.10301235391E+02  0.19929109077E+02  0.27462022070E+02  0.51100000000E-03 0.  1.
        -11    1    3    3    0    0 -0.92277375689E+00 -0.10062257895E+02 -0.63689585140E+01  0.11944211073E+02  0.51100000000E-03 0. -1.
        -12    1    3    3    0    0  0.21189353743E+02 -0.17886273564E+02 -0.17992981255E+02  0.33055330410E+02  0.00000000000E+00 0.  1.
</event>
<event>
 7    1  0.1789107E-013  0.7246163E+02  0.7816164E-02  0.1226708E+00
        -11   -1    0    0    0    0  0.00000000000E+00  0.00000000000E+00  0.45593999997E+02  0.45594000000E+02  0.51100000000E-03 0. -1.
         11   -1    0    0    0    0 -0.00000000000E+00 -0.00000000000E+00 -0.45593999997E+02  0.45594000000E+02  0.51100000000E-03 0.  1.
    9900012    2    1    2    0    0 -0.26502176808E+01 -0.18070636788E+02  0.41358819676E+01  0.72461625890E+02  0.70000072423E+02 0.  0.
        -12    1    1    2    0    0  0.26502176808E+01  0.18070636788E+02 -0.41358819676E+01  0.18726374110E+02  0.00000000000E+00 0.  1.
         11    1    3    3    0    0  0.28489523893E+01 -0.12926086396E+02 -0.14814925839E+02  0.19866611868E+02  0.51100000000E-03 0. -1.
        -11    1    3    3    0    0  0.16021951612E+02 -0.13768264400E+02 -0.21650341137E+01  0.21235710749E+02  0.51100000000E-03 0.  1.
         12    1    3    3    0    0 -0.21521121682E+02  0.86237140087E+01  0.21115841920E+02  0.31359303273E+02  0.00000000000E+00 0. -1.
</event>
<event>
 7    1  0.1789107E-013  0.7246161E+02  0.7816164E-02  0.1226708E+00
        -11   -1    0    0    0    0  0.00000000000E+00  0.00000000000E+00  0.45593999997E+02  0.45594000000E+02  0.51100000000E-03 0.  1.
         11   -1    0    0    0    0 -0.00000000000E+00 -0.00000000000E+00 -0.45593999997E+02  0.45594000000E+02  0.51100000000E-03 0. -1.
    9900012    2    1    2    0    0  0.15013188505E+02  0.11037882468E+02 -0.18565847358E+01  0.72461612592E+02  0.70000055101E+02 0.  0.
        -12    1    1    2    0    0 -0.15013188505E+02 -0.11037882468E+02  0.18565847358E+01  0.18726387408E+02  0.00000000000E+00 0.  1.
         11    1    3    3    0    0  0.45230980088E+01 -0.32065348572E+01 -0.81147984057E+01  0.98280331102E+01  0.51100000000E-03 0. -1.
        -11    1    3    3    0    0  0.15622277468E+02 -0.20048436827E+02  0.10889348059E+02  0.27650918138E+02  0.51100000000E-03 0.  1.
         12    1    3    3    0    0 -0.51321869718E+01  0.34292854152E+02 -0.46311343889E+01  0.34982661344E+02  0.00000000000E+00 0. -1.
</event>
<event>
 7    1  0.1789107E-013  0.7246156E+02  0.7816164E-02  0.1226708E+00
        -11   -1    0    0    0    0  0.00000000000E+00  0.00000000000E+00  0.45593999997E+02  0.45594000000E+02  0.51100000000E-03 0.  1.
         11   -1    0    0    0    0 -0.00000000000E+00 -0.00000000000E+00 -0.45593999997E+02  0.45594000000E+02  0.51100000000E-03 0. -1.
    9900012    2    1    2    0    0 -0.88810938649E+01  0.15409796649E+02  0.58603565672E+01  0.72461563070E+02  0.69999990589E+02 0.  0.
        -12    1    1    2    0    0  0.88810938649E+01 -0.15409796649E+02 -0.58603565672E+01  0.18726436930E+02  0.00000000000E+00 0.  1.
         11    1    3    3    0    0  0.85868781383E+01  0.17865505151E+02 -0.14432569811E+02  0.24519580381E+02  0.51100000000E-03 0. -1.
        -11    1    3    3    0    0 -0.88876881590E+01 -0.19962235931E+02  0.33384421691E+01  0.22104910326E+02  0.51100000000E-03 0.  1.
         12    1    3    3    0    0 -0.85802838442E+01  0.17506527429E+02  0.16954484209E+02  0.25837072363E+02  0.00000000000E+00 0. -1.
</event>
<event>
 7    1  0.1789107E-013  0.7246146E+02  0.7816164E-02  0.1226708E+00
        -11   -1    0    0    0    0  0.00000000000E+00  0.00000000000E+00  0.45593999997E+02  0.45594000000E+02  0.51100000000E-03 0.  1.
         11   -1    0    0    0    0 -0.00000000000E+00 -0.00000000000E+00 -0.45593999997E+02  0.45594000000E+02  0.51100000000E-03 0. -1.
    9900012    2    1    2    0    0  0.15770903661E+02 -0.67788140429E+01 -0.74839472045E+01  0.72461463004E+02  0.69999860234E+02 0.  0.
        -12    1    1    2    0    0 -0.15770903661E+02  0.67788140429E+01  0.74839472045E+01  0.18726536996E+02  0.00000000000E+00 0.  1.
         11    1    3    3    0    0  0.60400748397E+01  0.12325737689E+01 -0.23207675688E+02  0.24012454128E+02  0.51100000000E-03 0. -1.
        -11    1    3    3    0    0 -0.16658468851E+02 -0.92755542980E+01  0.95180253454E+01  0.21310403533E+02  0.51100000000E-03 0.  1.
         12    1    3    3    0    0  0.26389297672E+02  0.12641664862E+01  0.62057031382E+01  0.27138605343E+02  0.00000000000E+00 0. -1.
</event>
<event>
 7    1  0.1789107E-013  0.7246130E+02  0.7816164E-02  0.1226709E+00
        -11   -1    0    0    0    0  0.00000000000E+00  0.00000000000E+00  0.45593999997E+02  0.45594000000E+02  0.51100000000E-03 0.  1.
         11   -1    0    0    0    0 -0.00000000000E+00 -0.00000000000E+00 -0.45593999997E+02  0.45594000000E+02  0.51100000000E-03 0. -1.
    9900012    2    1    2    0    0 -0.12373879189E+02 -0.12904033335E+02  0.55733634261E+01  0.72461298679E+02  0.69999646169E+02 0.  0.
        -12    1    1    2    0    0  0.12373879189E+02  0.12904033335E+02 -0.55733634261E+01  0.18726701321E+02  0.00000000000E+00 0.  1.
         11    1    3    3    0    0  0.12286927172E+02  0.34677775069E+01 -0.85957521983E+01  0.15390939421E+02  0.51100000000E-03 0. -1.
        -11    1    3    3    0    0 -0.14149573796E+02 -0.30820738882E+02 -0.55403146607E+00  0.33918067972E+02  0.51100000000E-03 0.  1.
         12    1    3    3    0    0 -0.10511232564E+02  0.14448928040E+02  0.14723147090E+02  0.23152291285E+02  0.00000000000E+00 0. -1.
</event>
<event>
 7    1  0.1789107E-013  0.7246157E+02  0.7816164E-02  0.1226708E+00
        -11   -1    0    0    0    0  0.00000000000E+00  0.00000000000E+00  0.45593999997E+02  0.45594000000E+02  0.51100000000E-03 0.  1.
         11   -1    0    0    0    0 -0.00000000000E+00 -0.00000000000E+00 -0.45593999997E+02  0.45594000000E+02  0.51100000000E-03 0. -1.
    9900012    2    1    2    0    0  0.81260539073E+01 -0.67072570500E+01 -0.15480927204E+02  0.72461570646E+02  0.70000000458E+02 0.  0.
        -12    1    1    2    0    0 -0.81260539073E+01  0.67072570500E+01  0.15480927204E+02  0.18726429354E+02  0.00000000000E+00 0.  1.
         11    1    3    3    0    0  0.21416804411E+02  0.78346488657E+00  0.11084250812E+02  0.24127866560E+02  0.51100000000E-03 0. -1.
        -11    1    3    3    0    0 -0.67216491234E+01  0.14983172482E+02 -0.71245229941E+01  0.17900694197E+02  0.51100000000E-03 0.  1.
        -12    1    3    3    0    0 -0.65691013801E+01 -0.22473894419E+02 -0.19440655022E+02  0.30433009890E+02  0.00000000000E+00 0.  1.
</event>
<event>
 7    1  0.1789107E-013  0.7246148E+02  0.7816164E-02  0.1226708E+00
        -11   -1    0    0    0    0  0.00000000000E+00  0.00000000000E+00  0.45593999997E+02  0.45594000000E+02  0.51100000000E-03 0. -1.
         11   -1    0    0    0    0 -0.00000000000E+00 -0.00000000000E+00 -0.45593999997E+02  0.45594000000E+02  0.51100000000E-03 0.  1.
    9900012    2    1    2    0    0 -0.17261349563E+02  0.72604803277E+01 -0.11792259858E+00  0.72461476856E+02  0.69999878280E+02 0.  0.
        -12    1    1    2    0    0  0.17261349563E+02 -0.72604803277E+01  0.11792259858E+00  0.18726523144E+02  0.00000000000E+00 0.  1.
         11    1    3    3    0    0 -0.15226587856E+02  0.24595804752E+02  0.18253153804E+02  0.34204973515E+02  0.51100000000E-03 0. -1.
        -11    1    3    3    0    0 -0.87662290951E+00 -0.44524741496E+01  0.78223860231E+01  0.90433797406E+01  0.51100000000E-03 0.  1.
        -12    1    3    3    0    0 -0.11581387970E+01 -0.12882850274E+02 -0.26193462426E+02  0.29213123601E+02  0.00000000000E+00 0.  1.
</event>
<event>
 7    1  0.1789107E-013  0.7246156E+02  0.7816164E-02  0.1226708E+00
        -11   -1    0    0    0    0  0.00000000000E+00  0.00000000000E+00  0.45593999997E+02  0.45594000000E+02  0.51100000000E-03 0. -1.
         11   -1    0    0    0    0 -0.00000000000E+00 -0.00000000000E+00 -0.45593999997E+02  0.45594000000E+02  0.51100000000E-03 0.  1.
    9900012    2    1    2    0    0  0.16482681690E+02  0.45086560270E+01  0.76598081566E+01  0.72461563183E+02  0.69999990736E+02 0.  0.
        -12    1    1    2    0    0 -0.16482681690E+02 -0.45086560270E+01 -0.76598081566E+01  0.18726436817E+02  0.00000000000E+00 0.  1.
         11    1    3    3    0    0  0.12153377745E+02 -0.91495578464E+01  0.75699318430E+01  0.16991847097E+02  0.51100000000E-03 0. -1.
        -11    1    3    3    0    0  0.17313479602E+02  0.28277661925E+02 -0.83200624344E+01  0.34184882317E+02  0.51100000000E-03 0.  1.
         12    1    3    3    0    0 -0.12984175657E+02 -0.14619448051E+02  0.84099387479E+01  0.21284833768E+02  0.00000000000E+00 0. -1.
</event>
<event>
 7    1  0.1789107E-013  0.7246153E+02  0.7816164E-02  0.1226708E+00
        -11   -1    0    0    0    0  0.00000000000E+00  0.00000000000E+00  0.45593999997E+02  0.45594000000E+02  0.51100000000E-03 0. -1.
         11   -1    0    0    0    0 -0.00000000000E+00 -0.00000000000E+00 -0.45593999997E+02  0.45594000000E+02  0.51100000000E-03 0.  1.
    9900012    2    1    2    0    0 -0.79619427520E+01  0.15375357991E+02  0.71334824353E+01  0.72461528432E+02  0.69999945466E+02 0.  0.
        -12    1    1    2    0    0  0.79619427520E+01 -0.15375357991E+02 -0.71334824353E+01  0.18726471568E+02  0.00000000000E+00 0.  1.
         11    1    3    3    0    0 -0.10103496042E+01 -0.57038013403E+01  0.64293258658E+01  0.86539232376E+01  0.51100000000E-03 0. -1.
        -11    1    3    3    0    0  0.81573721543E+01  0.39262268711E+02  0.17990651767E+01  0.40141065015E+02  0.51100000000E-03 0.  1.
         12    1    3    3    0    0 -0.15108965302E+02 -0.18183109379E+02 -0.10949086072E+01  0.23666540179E+02  0.00000000000E+00 0. -1.
</event>
<event>
 7    1  0.1789107E-013  0.7246156E+02  0.7816164E-02  0.1226708E+00
        -11   -1    0    0    0    0  0.00000000000E+00  0.00000000000E+00  0.45593999997E+02  0.45594000000E+02  0.51100000000E-03 0. -1.
         11   -1    0    0    0    0 -0.00000000000E+00 -0.00000000000E+00 -0.45593999997E+02  0.45594000000E+02  0.51100000000E-03 0.  1.
    9900012    2    1    2    0    0  0.18329894576E+02  0.14891279514E+01  0.35322811296E+01  0.72461560210E+02  0.69999986864E+02 0.  0.
        -12    1    1    2    0    0 -0.18329894576E+02 -0.14891279514E+01 -0.35322811296E+01  0.18726439790E+02  0.00000000000E+00 0.  1.
         11    1    3    3    0    0 -0.27692315373E+01 -0.61788777755E+01 -0.20748208837E+01  0.70818116207E+01  0.51100000000E-03 0. -1.
        -11    1    3    3    0    0 -0.10690523422E+01  0.46795672302E+01 -0.26121478043E+02  0.26558856108E+02  0.51100000000E-03 0.  1.
         12    1    3    3    0    0  0.22168178455E+02  0.29884384967E+01  0.31728580056E+02  0.38820892481E+02  0.00000000000E+00 0. -1.
</event>
<event>
 7    1  0.1789107E-013  0.7246157E+02  0.7816164E-02  0.1226708E+00
        -11   -1    0    0    0    0  0.00000000000E+00  0.00000000000E+00  0.45593999997E+02  0.45594000000E+02  0.51100000000E-03 0.  1.
         11   -1    0    0    0    0 -0.00000000000E+00 -0.00000000000E+00 -0.45593999997E+02  0.45594000000E+02  0.51100000000E-03 0. -1.
    9900012    2    1    2    0    0 -0.12215920497E+02  0.18943349035E+01 -0.14066343154E+02  0.72461568732E+02  0.69999997964E+02 0.  0.
        -12    1    1    2    0    0  0.12215920497E+02 -0.18943349035E+01  0.14066343154E+02  0.18726431268E+02  0.00000000000E+00 0.  1.
         11    1    3    3    0    0 -0.47318046203E+01  0.18607998100E+02 -0.18406801267E+02  0.26598080784E+02  0.51100000000E-03 0. -1.
        -11    1    3    3    0    0 -0.79677880021E+01  0.13258687760E+02  0.35804762910E+01  0.15877602385E+02  0.51100000000E-03 0.  1.
        -12    1    3    3    0    0  0.48367212510E+00 -0.29972350957E+02  0.75998182227E+00  0.29985885563E+02  0.00000000000E+00 0.  1.
</event>
<event>
 7    1  0.1789107E-013  0.7246154E+02  0.7816164E-02  0.1226708E+00
        -11   -1    0    0    0    0  0.00000000000E+00  0.00000000000E+00  0.45593999997E+02  0.45594000000E+02  0.51100000000E-03 0. -1.
         11   -1    0    0    0    0 -0.00000000000E+00 -0.00000000000E+00 -0.45593999997E+02  0.45594000000E+02  0.51100000000E-03 0.  1.
    9900012    2    1    2    0    0 -0.14009345425E+02  0.64459583800E+01  0.10623938364E+02  0.72461542645E+02  0.69999963982E+02 0.  0.
        -12    1    1    2    0    0  0.14009345425E+02 -0.64459583800E+01 -0.10623938364E+02  0.18726457355E+02  0.00000000000E+00 0.  1.
         11    1    3    3    0    0  0.27246372388E+01 -0.64119633998E+01  0.15076018069E+02  0.16607927137E+02  0.51100000000E-03 0. -1.
        -11    1    3    3    0    0 -0.17597029690E+02 -0.13630316367E+02  0.11363033120E+02  0.24991188450E+02  0.51100000000E-03 0.  1.
        -12    1    3    3    0    0  0.86304702579E+00  0.26488238147E+02 -0.15815112825E+02  0.30862427059E+02  0.00000000000E+00 0.  1.
</event>
<event>
 7    1  0.1789107E-013  0.7246154E+02  0.7816164E-02  0.1226708E+00
        -11   -1    0    0    0    0  0.00000000000E+00  0.00000000000E+00  0.45593999997E+02  0.45594000000E+02  0.51100000000E-03 0. -1.
         11   -1    0    0    0    0 -0.00000000000E+00 -0.00000000000E+00 -0.45593999997E+02  0.45594000000E+02  0.51100000000E-03 0.  1.
    9900012    2    1    2    0    0  0.64765857393E+01 -0.16968827764E+02  0.45599391636E+01  0.72461539478E+02  0.69999959856E+02 0.  0.
        -12    1    1    2    0    0 -0.64765857393E+01  0.16968827764E+02 -0.45599391636E+01  0.18726460522E+02  0.00000000000E+00 0.  1.
         11    1    3    3    0    0  0.92032487220E+01 -0.34453234440E+02  0.13398582093E+02  0.38095237928E+02  0.51100000000E-03 0. -1.
        -11    1    3    3    0    0 -0.71578651200E+01 -0.40023514750E+01 -0.93300147017E+01  0.12421876871E+02  0.51100000000E-03 0.  1.
        -12    1    3    3    0    0  0.44312021374E+01  0.21486758152E+02  0.49137177248E+00  0.21944424678E+02  0.00000000000E+00 0.  1.
</event>
<event>
 7    1  0.1789107E-013  0.7246158E+02  0.7816164E-02  0.1226708E+00
        -11   -1    0    0    0    0  0.00000000000E+00  0.00000000000E+00  0.45593999997E+02  0.45594000000E+02  0.51100000000E-03 0. -1.
         11   -1    0    0    0    0 -0.00000000000E+00 -0.00000000000E+00 -0.45593999997E+02  0.45594000000E+02  0.51100000000E-03 0.  1.
    9900012    2    1    2    0    0 -0.27875930112E+00  0.18668015778E+02  0.14513479503E+01  0.72461576670E+02  0.70000008306E+02 0.  0.
        -12    1    1    2    0    0  0.27875930112E+00 -0.18668015778E+02 -0.14513479503E+01  0.18726423330E+02  0.00000000000E+00 0.  1.
         11    1    3    3    0    0 -0.11104666536E+02 -0.49267821824E+01  0.43392313377E+01  0.12900222107E+02  0.51100000000E-03 0. -1.
        -11    1    3    3    0    0  0.22800362581E+02 -0.86745882882E+01 -0.56194788802E+01  0.25033648534E+02  0.51100000000E-03 0.  1.
         12    1    3    3    0    0 -0.11974455345E+02  0.32269386249E+02  0.27315954927E+01  0.34527706029E+02  0.00000000000E+00 0. -1.
</event>
<event>
 7    1  0.1789107E-013  0.7246155E+02  0.7816164E-02  0.1226708E+00
        -11   -1    0    0    0    0  0.00000000000E+00  0.00000000000E+00  0.45593999997E+02  0.45594000000E+02  0.51100000000E-03 0.  1.
         11   -1    0    0    0    0 -0.00000000000E+00 -0.00000000000E+00 -0.45593999997E+02  0.45594000000E+02  0.51100000000E-03 0. -1.
    9900012    2    1    2    0    0  0.17177392065E+02  0.56611959622E+01  0.48546888057E+01  0.72461549689E+02  0.69999973157E+02 0.  0.
        -12    1    1    2    0    0 -0.17177392065E+02 -0.56611959622E+01 -0.48546888057E+01  0.18726450311E+02  0.00000000000E+00 0.  1.
         11    1    3    3    0    0 -0.15503998263E+02  0.20205923328E+02 -0.80643876812E+01  0.26714933064E+02  0.51100000000E-03 0. -1.
        -11    1    3    3    0    0 -0.14624668994E+01 -0.81553864785E+01  0.62433643217E+01  0.10374427038E+02  0.51100000000E-03 0.  1.
        -12    1    3    3    0    0  0.34143857227E+02 -0.63893408871E+01  0.66757121652E+01  0.35372189587E+02  0.00000000000E+00 0.  1.
</event>
<event>
 7    1  0.1789107E-013  0.7246154E+02  0.7816164E-02  0.1226708E+00
        -11   -1    0    0    0    0  0.00000000000E+00  0.00000000000E+00  0.45593999997E+02  0.45594000000E+02  0.51100000000E-03 0.  1.
         11   -1    0    0    0    0 -0.00000000000E+00 -0.00000000000E+00 -0.45593999997E+02  0.45594000000E+02  0.51100000000E-03 0. -1.
    9900012    2    1    2    0    0  0.10635679634E+02  0.11970733456E+02 -0.97089677654E+01  0.72461542892E+02  0.69999964303E+02 0.  0.
        -12    1    1    2    0    0 -0.10635679634E+02 -0.11970733456E+02  0.97089677654E+01  0.18726457108E+02  0.00000000000E+00 0.  1.
         11    1    3    3    0    0  0.43988844910E+01  0.71411309045E+01 -0.35769086795E+02  0.36739263816E+02  0.51100000000E-03 0. -1.
        -11    1    3    3    0    0  0.48439796501E+01  0.63656318554E+01 -0.14539829274E+01  0.81301583246E+01  0.51100000000E-03 0.  1.
        -12    1    3    3    0    0  0.13928154934E+01 -0.15360293043E+01  0.27514101957E+02  0.27592120751E+02  0.00000000000E+00 0.  1.
</event>
<event>
 7    1  0.1789107E-013  0.7246157E+02  0.7816164E-02  0.1226708E+00
        -11   -1    0    0    0    0  0.00000000000E+00  0.00000000000E+00  0.45593999997E+02  0.45594000000E+02  0.51100000000E-03 0.  1.
         11   -1    0    0    0    0 -0.00000000000E+00 -0.00000000000E+00 -0.45593999997E+02  0.45594000000E+02  0.51100000000E-03 0. -1.
    9900012    2    1    2    0    0  0.73025542135E+01 -0.50404331034E+01 -0.16490779197E+02  0.72461573154E+02  0.70000003725E+02 0.  0.
        -12    1    1    2    0    0 -0.73025542135E+01  0.50404331034E+01  0.16490779197E+02  0.18726426846E+02  0.00000000000E+00 0.  1.
         11    1    3    3    0    0 -0.18683572158E+02  0.18732757690E+02 -0.12645061415E+02  0.29323875217E+02  0.51100000000E-03 0. -1.
        -11    1    3    3    0    0  0.42380946230E+01 -0.13833270684E+02  0.79135527559E+01  0.16490759271E+02  0.51100000000E-03 0.  1.
        -12    1    3    3    0    0  0.21748031749E+02 -0.99399201092E+01 -0.11759270537E+02  0.26646938666E+02  0.00000000000E+00 0.  1.
</event>
<event>
 7    1  0.1789107E-013  0.7246163E+02  0.7816164E-02  0.1226708E+00
        -11   -1    0    0    0    0  0.00000000000E+00  0.00000000000E+00  0.45593999997E+02  0.45594000000E+02  0.51100000000E-03 0.  1.
         11   -1    0    0    0    0 -0.00000000000E+00 -0.00000000000E+00 -0.45593999997E+02  0.45594000000E+02  0.51100000000E-03 0. -1.
    9900012    2    1    2    0    0  0.13025465112E+02  0.80935071852E+01  0.10747525122E+02  0.72461630993E+02  0.70000079071E+02 0.  0.
        -12    1    1    2    0    0 -0.13025465112E+02 -0.80935071852E+01 -0.10747525122E+02  0.18726369007E+02  0.00000000000E+00 0.  1.
         11    1    3    3    0    0 -0.13583422565E+02  0.56110246227E+01 -0.57152102227E+01  0.15768848850E+02  0.51100000000E-03 0.  1.
        -11    1    3    3    0    0  0.23296239155E+02  0.58764638260E+01 -0.12679968812E+02  0.27166692754E+02  0.51100000000E-03 0. -1.
        -12    1    3    3    0    0  0.33126485215E+01 -0.33939812635E+01  0.29142704157E+02  0.29526089389E+02  0.00000000000E+00 0.  1.
</event>
<event>
 7    1  0.1789107E-013  0.7246159E+02  0.7816164E-02  0.1226708E+00
        -11   -1    0    0    0    0  0.00000000000E+00  0.00000000000E+00  0.45593999997E+02  0.45594000000E+02  0.51100000000E-03 0.  1.
         11   -1    0    0    0    0 -0.00000000000E+00 -0.00000000000E+00 -0.45593999997E+02  0.45594000000E+02  0.51100000000E-03 0. -1.
    9900012    2    1    2    0    0  0.81619821555E+01 -0.15316021935E+02  0.70341859082E+01  0.72461594792E+02  0.70000031913E+02 0.  0.
        -12    1    1    2    0    0 -0.81619821555E+01  0.15316021935E+02 -0.70341859082E+01  0.18726405208E+02  0.00000000000E+00 0.  1.
         11    1    3    3    0    0  0.19775636082E+02 -0.28691310072E+02 -0.13878918141E+02  0.37508551361E+02  0.51100000000E-03 0. -1.
        -11    1    3    3    0    0  0.57442351800E+01  0.22988533177E+01  0.97047449163E+01  0.11509258818E+02  0.51100000000E-03 0.  1.
        -12    1    3    3    0    0 -0.17357889107E+02  0.11076434820E+02  0.11208359133E+02  0.23443784614E+02  0.00000000000E+00 0.  1.
</event>
<event>
 7    1  0.1789107E-013  0.7246156E+02  0.7816164E-02  0.1226708E+00
        -11   -1    0    0    0    0  0.00000000000E+00  0.00000000000E+00  0.45593999997E+02  0.45594000000E+02  0.51100000000E-03 0. -1.
         11   -1    0    0    0    0 -0.00000000000E+00 -0.00000000000E+00 -0.45593999997E+02  0.45594000000E+02  0.51100000000E-03 0.  1.
    9900012    2    1    2    0    0  0.80766284034E+00 -0.16718821661E+02  0.83969261610E+01  0.72461556505E+02  0.69999982037E+02 0.  0.
        -12    1    1    2    0    0 -0.80766284034E+00  0.16718821661E+02 -0.83969261610E+01  0.18726443495E+02  0.00000000000E+00 0.  1.
         11    1    3    3    0    0  0.13942255224E+02  0.40488197855E+01  0.54891028645E+01  0.15521265184E+02  0.51100000000E-03 0. -1.
        -11    1    3    3    0    0  0.64807800027E+01  0.34336202164E+01 -0.17990193867E+02  0.19427746469E+02  0.51100000000E-03 0.  1.
        -12    1    3    3    0    0 -0.19615372387E+02 -0.24201261663E+02  0.20898017163E+02  0.37512544852E+02  0.00000000000E+00 0.  1.
</event>
<event>
 7    1  0.1789107E-013  0.7246142E+02  0.7816164E-02  0.1226708E+00
        -11   -1    0    0    0    0  0.00000000000E+00  0.00000000000E+00  0.45593999997E+02  0.45594000000E+02  0.51100000000E-03 0. -1.
         11   -1    0    0    0    0 -0.00000000000E+00 -0.00000000000E+00 -0.45593999997E+02  0.45594000000E+02  0.51100000000E-03 0.  1.
    9900012    2    1    2    0    0  0.71966614671E+01  0.16209960879E+02  0.60108392645E+01  0.72461415778E+02  0.69999798713E+02 0.  0.
        -12    1    1    2    0    0 -0.71966614671E+01 -0.16209960879E+02 -0.60108392645E+01  0.18726584222E+02  0.00000000000E+00 0.  1.
         11    1    3    3    0    0  0.10336309509E+01  0.18218458991E+02 -0.21752062708E+01  0.18376946524E+02  0.51100000000E-03 0. -1.
        -11    1    3    3    0    0 -0.17177732417E+02  0.16383286792E+02  0.40813274714E+01  0.24086174692E+02  0.51100000000E-03 0.  1.
         12    1    3    3    0    0  0.23340762933E+02 -0.18391784904E+02  0.41047180639E+01  0.29998294562E+02  0.00000000000E+00 0. -1.
</event>
<event>
 7    1  0.1789107E-013  0.7246158E+02  0.7816164E-02  0.1226708E+00
        -11   -1    0    0    0    0  0.00000000000E+00  0.00000000000E+00  0.45593999997E+02  0.45594000000E+02  0.51100000000E-03 0. -1.
         11   -1    0    0    0    0 -0.00000000000E+00 -0.00000000000E+00 -0.45593999997E+02  0.45594000000E+02  0.51100000000E-03 0.  1.
    9900012    2    1    2    0    0  0.15712699980E+02  0.54140548205E+00  0.10173329671E+02  0.72461582906E+02  0.70000016429E+02 0.  0.
        -12    1    1    2    0    0 -0.15712699980E+02 -0.54140548205E+00 -0.10173329671E+02  0.18726417094E+02  0.00000000000E+00 0.  1.
         11    1    3    3    0    0  0.60706152335E+01 -0.10051279550E+02 -0.89293054751E+01  0.14751714694E+02  0.51100000000E-03 0. -1.
        -11    1    3    3    0    0 -0.18343217403E+02 -0.87484028350E+01  0.89723690725E+01  0.22215120614E+02  0.51100000000E-03 0.  1.
         12    1    3    3    0    0  0.27985302150E+02  0.19341087867E+02  0.10130266074E+02  0.35494747598E+02  0.00000000000E+00 0. -1.
</event>
<event>
 7    1  0.1789107E-013  0.7246172E+02  0.7816164E-02  0.1226708E+00
        -11   -1    0    0    0    0  0.00000000000E+00  0.00000000000E+00  0.45593999997E+02  0.45594000000E+02  0.51100000000E-03 0. -1.
         11   -1    0    0    0    0 -0.00000000000E+00 -0.00000000000E+00 -0.45593999997E+02  0.45594000000E+02  0.51100000000E-03 0.  1.
    9900012    2    1    2    0    0  0.18005949030E+02  0.28965629710E+01 -0.42508045448E+01  0.72461718554E+02  0.70000193136E+02 0.  0.
        -12    1    1    2    0    0 -0.18005949030E+02 -0.28965629710E+01  0.42508045448E+01  0.18726281446E+02  0.00000000000E+00 0.  1.
         11    1    3    3    0    0  0.62095819984E+01 -0.21288578719E+02  0.18463157828E+01  0.22252446488E+02  0.51100000000E-03 0. -1.
        -11    1    3    3    0    0 -0.13343767917E+02  0.26827043274E+01  0.61472123569E+01  0.14934566105E+02  0.51100000000E-03 0.  1.
        -12    1    3    3    0    0  0.25140134948E+02  0.21502437362E+02 -0.12244332685E+02  0.35274705961E+02  0.00000000000E+00 0.  1.
</event>
<event>
 7    1  0.1789107E-013  0.7246156E+02  0.7816164E-02  0.1226708E+00
        -11   -1    0    0    0    0  0.00000000000E+00  0.00000000000E+00  0.45593999997E+02  0.45594000000E+02  0.51100000000E-03 0. -1.
         11   -1    0    0    0    0 -0.00000000000E+00 -0.00000000000E+00 -0.45593999997E+02  0.45594000000E+02  0.51100000000E-03 0.  1.
    9900012    2    1    2    0    0  0.27990737764E+01  0.14201327206E+02  0.11881377662E+02  0.72461557637E+02  0.69999983512E+02 0.  0.
        -12    1    1    2    0    0 -0.27990737764E+01 -0.14201327206E+02 -0.11881377662E+02  0.18726442363E+02  0.00000000000E+00 0.  1.
         11    1    3    3    0    0  0.34759314691E+01  0.91376929583E+01 -0.10150389647E+02  0.14092903974E+02  0.51100000000E-03 0. -1.
        -11    1    3    3    0    0 -0.93589246488E+01  0.80329144583E+01 -0.15456231350E+02  0.19774030269E+02  0.51100000000E-03 0.  1.
         12    1    3    3    0    0  0.86820669561E+01 -0.29692802107E+01  0.37487998658E+02  0.38594623395E+02  0.00000000000E+00 0. -1.
</event>
<event>
 7    1  0.1789107E-013  0.7246156E+02  0.7816164E-02  0.1226708E+00
        -11   -1    0    0    0    0  0.00000000000E+00  0.00000000000E+00  0.45593999997E+02  0.45594000000E+02  0.51100000000E-03 0.  1.
         11   -1    0    0    0    0 -0.00000000000E+00 -0.00000000000E+00 -0.45593999997E+02  0.45594000000E+02  0.51100000000E-03 0. -1.
    9900012    2    1    2    0    0  0.53855103775E+00 -0.68896870498E+01 -0.17404644608E+02  0.72461562037E+02  0.69999989243E+02 0.  0.
        -12    1    1    2    0    0 -0.53855103775E+00  0.68896870498E+01  0.17404644608E+02  0.18726437963E+02  0.00000000000E+00 0.  1.
         11    1    3    3    0    0 -0.60530495541E+01 -0.58882572069E+00 -0.34470303416E+02  0.35002684790E+02  0.51100000000E-03 0. -1.
        -11    1    3    3    0    0 -0.12407163459E+02  0.13600578799E+01  0.92413751942E+01  0.15530308377E+02  0.51100000000E-03 0.  1.
        -12    1    3    3    0    0  0.18998764051E+02 -0.76609192090E+01  0.78242836145E+01  0.21928568870E+02  0.00000000000E+00 0.  1.
</event>
<event>
 7    1  0.1789107E-013  0.7246166E+02  0.7816164E-02  0.1226708E+00
        -11   -1    0    0    0    0  0.00000000000E+00  0.00000000000E+00  0.45593999997E+02  0.45594000000E+02  0.51100000000E-03 0.  1.
         11   -1    0    0    0    0 -0.00000000000E+00 -0.00000000000E+00 -0.45593999997E+02  0.45594000000E+02  0.51100000000E-03 0. -1.
    9900012    2    1    2    0    0 -0.48620404869E+01 -0.25383144607E+01 -0.17905123466E+02  0.72461656942E+02  0.70000112875E+02 0.  0.
        -12    1    1    2    0    0  0.48620404869E+01  0.25383144607E+01  0.17905123466E+02  0.18726343058E+02  0.00000000000E+00 0.  1.
         11    1    3    3    0    0  0.22337002446E+01 -0.47676079906E+00  0.12899386473E+02  0.13100033942E+02  0.51100000000E-03 0. -1.
        -11    1    3    3    0    0 -0.30592050950E+00 -0.25016631769E+02 -0.23523425107E+02  0.34340602520E+02  0.51100000000E-03 0.  1.
         12    1    3    3    0    0 -0.67898202220E+01  0.22955078107E+02 -0.72810848311E+01  0.25021020480E+02  0.00000000000E+00 0. -1.
</event>
<event>
 7    1  0.1789107E-013  0.7246155E+02  0.7816164E-02  0.1226708E+00
        -11   -1    0    0    0    0  0.00000000000E+00  0.00000000000E+00  0.45593999997E+02  0.45594000000E+02  0.51100000000E-03 0. -1.
         11   -1    0    0    0    0 -0.00000000000E+00 -0.00000000000E+00 -0.45593999997E+02  0.45594000000E+02  0.51100000000E-03 0.  1.
    9900012    2    1    2    0    0  0.95935075607E+01 -0.12534947262E+02  0.10075701043E+02  0.72461547007E+02  0.69999969664E+02 0.  0.
        -12    1    1    2    0    0 -0.95935075607E+01  0.12534947262E+02 -0.10075701043E+02  0.18726452993E+02  0.00000000000E+00 0.  1.
         11    1    3    3    0    0  0.29562712760E+02  0.29576261647E+01  0.90510415824E+00  0.29724076975E+02  0.51100000000E-03 0.  1.
        -11    1    3    3    0    0 -0.45517140246E+01  0.62528072158E+01  0.13667939802E+02  0.15704403119E+02  0.51100000000E-03 0. -1.
        -12    1    3    3    0    0 -0.15417491174E+02 -0.21745380643E+02 -0.44973429175E+01  0.27033066913E+02  0.00000000000E+00 0.  1.
</event>
<event>
 7    1  0.1789107E-013  0.7246161E+02  0.7816164E-02  0.1226708E+00
        -11   -1    0    0    0    0  0.00000000000E+00  0.00000000000E+00  0.45593999997E+02  0.45594000000E+02  0.51100000000E-03 0. -1.
         11   -1    0    0    0    0 -0.00000000000E+00 -0.00000000000E+00 -0.45593999997E+02  0.45594000000E+02  0.51100000000E-03 0.  1.
    9900012    2    1    2    0    0 -0.89549827131E+01 -0.76150403382E+01  0.14577281234E+02  0.72461609987E+02  0.70000051707E+02 0.  0.
        -12    1    1    2    0    0  0.89549827131E+01  0.76150403382E+01 -0.14577281234E+02  0.18726390013E+02  0.00000000000E+00 0.  1.
         11    1    3    3    0    0  0.15291814589E+02 -0.11601218554E+02  0.32111854044E+02  0.37411215374E+02  0.51100000000E-03 0. -1.
        -11    1    3    3    0    0 -0.77637595299E+00  0.32924234492E+01 -0.97385696804E+01  0.10309342921E+02  0.51100000000E-03 0.  1.
        -12    1    3    3    0    0 -0.23470421349E+02  0.69375476621E+00 -0.77960031298E+01  0.24741051691E+02  0.00000000000E+00 0.  1.
</event>
<event>
 7    1  0.1789107E-013  0.7246161E+02  0.7816164E-02  0.1226708E+00
        -11   -1    0    0    0    0  0.00000000000E+00  0.00000000000E+00  0.45593999997E+02  0.45594000000E+02  0.51100000000E-03 0. -1.
         11   -1    0    0    0    0 -0.00000000000E+00 -0.00000000000E+00 -0.45593999997E+02  0.45594000000E+02  0.51100000000E-03 0.  1.
    9900012    2    1    2    0    0  0.63215497818E+01  0.15467094159E+02  0.84548601525E+01  0.72461610771E+02  0.70000052728E+02 0.  0.
        -12    1    1    2    0    0 -0.63215497818E+01 -0.15467094159E+02 -0.84548601525E+01  0.18726389229E+02  0.00000000000E+00 0.  1.
         11    1    3    3    0    0 -0.83112194042E+01 -0.12595941737E+02 -0.10299974515E+02  0.18270839923E+02  0.51100000000E-03 0. -1.
        -11    1    3    3    0    0 -0.79662845854E+01  0.97657369778E+01  0.21565069652E+02  0.24977660783E+02  0.51100000000E-03 0.  1.
        -12    1    3    3    0    0  0.22599053771E+02  0.18297298917E+02 -0.28102349845E+01  0.29213110065E+02  0.00000000000E+00 0.  1.
</event>
<event>
 7    1  0.1789107E-013  0.7246157E+02  0.7816164E-02  0.1226708E+00
        -11   -1    0    0    0    0  0.00000000000E+00  0.00000000000E+00  0.45593999997E+02  0.45594000000E+02  0.51100000000E-03 0. -1.
         11   -1    0    0    0    0 -0.00000000000E+00 -0.00000000000E+00 -0.45593999997E+02  0.45594000000E+02  0.51100000000E-03 0.  1.
    9900012    2    1    2    0    0  0.16894132761E+01  0.17656272781E+02 -0.60067620822E+01  0.72461567440E+02  0.69999996281E+02 0.  0.
        -12    1    1    2    0    0 -0.16894132761E+01 -0.17656272781E+02  0.60067620822E+01  0.18726432560E+02  0.00000000000E+00 0.  1.
         11    1    3    3    0    0 -0.18050196811E+01  0.79704694522E+00  0.27068821132E+02  0.27140642174E+02  0.51100000000E-03 0. -1.
        -11    1    3    3    0    0 -0.29356663109E+01 -0.62597930360E+01 -0.61427094023E+01  0.92485687868E+01  0.51100000000E-03 0.  1.
        -12    1    3    3    0    0  0.64300992680E+01  0.23119018871E+02 -0.26932873812E+02  0.36072356479E+02  0.00000000000E+00 0.  1.
</event>
<event>
 7    1  0.1789107E-013  0.7246172E+02  0.7816164E-02  0.1226708E+00
        -11   -1    0    0    0    0  0.00000000000E+00  0.00000000000E+00  0.45593999997E+02  0.45594000000E+02  0.51100000000E-03 0. -1.
         11   -1    0    0    0    0 -0.00000000000E+00 -0.00000000000E+00 -0.45593999997E+02  0.45594000000E+02  0.51100000000E-03 0.  1.
    9900012    2    1    2    0    0 -0.17055201005E+00  0.90867397664E+01  0.16373014915E+02  0.72461720472E+02  0.70000195634E+02 0.  0.
        -12    1    1    2    0    0  0.17055201005E+00 -0.90867397664E+01 -0.16373014915E+02  0.18726279528E+02  0.00000000000E+00 0.  1.
         11    1    3    3    0    0  0.13769351568E+02 -0.62562366262E+01  0.51468729584E+01  0.15975789208E+02  0.51100000000E-03 0. -1.
        -11    1    3    3    0    0  0.13840418965E+02  0.10631367824E+01 -0.11362380882E+02  0.17938538305E+02  0.51100000000E-03 0.  1.
         12    1    3    3    0    0 -0.27780322543E+02  0.14279839610E+02  0.22588522839E+02  0.38547392959E+02  0.00000000000E+00 0. -1.
</event>
<event>
 7    1  0.1789107E-013  0.7246101E+02  0.7816164E-02  0.1226710E+00
        -11   -1    0    0    0    0  0.00000000000E+00  0.00000000000E+00  0.45593999997E+02  0.45594000000E+02  0.51100000000E-03 0.  1.
         11   -1    0    0    0    0 -0.00000000000E+00 -0.00000000000E+00 -0.45593999997E+02  0.45594000000E+02  0.51100000000E-03 0. -1.
    9900012    2    1    2    0    0  0.18026071302E+02 -0.50729869328E+01 -0.16087770227E+00  0.72461005456E+02  0.69999264190E+02 0.  0.
        -12    1    1    2    0    0 -0.18026071302E+02  0.50729869328E+01  0.16087770227E+00  0.18726994544E+02  0.00000000000E+00 0.  1.
         11    1    3    3    0    0  0.12825540807E+01  0.60257475924E+01  0.11786179234E+02  0.13299195473E+02  0.51100000000E-03 0. -1.
        -11    1    3    3    0    0  0.13918613138E+02 -0.23047460113E+02  0.14080367132E+02  0.30383711890E+02  0.51100000000E-03 0.  1.
         12    1    3    3    0    0  0.28249040830E+01  0.11948725588E+02 -0.26027424068E+02  0.28778098094E+02  0.00000000000E+00 0. -1.
</event>
<event>
 7    1  0.1789107E-013  0.7246159E+02  0.7816164E-02  0.1226708E+00
        -11   -1    0    0    0    0  0.00000000000E+00  0.00000000000E+00  0.45593999997E+02  0.45594000000E+02  0.51100000000E-03 0. -1.
         11   -1    0    0    0    0 -0.00000000000E+00 -0.00000000000E+00 -0.45593999997E+02  0.45594000000E+02  0.51100000000E-03 0.  1.
    9900012    2    1    2    0    0 -0.73644937166E+01 -0.13374180792E+02  0.10843149698E+02  0.72461591510E+02  0.70000027637E+02 0.  0.
        -12    1    1    2    0    0  0.73644937166E+01  0.13374180792E+02 -0.10843149698E+02  0.18726408490E+02  0.00000000000E+00 0.  1.
         11    1    3    3    0    0 -0.13531010227E+00 -0.16117675134E+01  0.57998597375E+01  0.60211690374E+01  0.51100000000E-03 0. -1.
        -11    1    3    3    0    0 -0.15829766094E+02  0.24315053473E+02  0.44060471254E+01  0.29346491640E+02  0.51100000000E-03 0.  1.
         12    1    3    3    0    0  0.86005824801E+01 -0.36077466752E+02  0.63724283524E+00  0.37093930833E+02  0.00000000000E+00 0. -1.
</event>
<event>
 7    1  0.1789107E-013  0.7246156E+02  0.7816164E-02  0.1226708E+00
        -11   -1    0    0    0    0  0.00000000000E+00  0.00000000000E+00  0.45593999997E+02  0.45594000000E+02  0.51100000000E-03 0.  1.
         11   -1    0    0    0    0 -0.00000000000E+00 -0.00000000000E+00 -0.45593999997E+02  0.45594000000E+02  0.51100000000E-03 0. -1.
    9900012    2    1    2    0    0  0.36059475717E+01 -0.79999716961E+01 -0.16543192442E+02  0.72461558235E+02  0.69999984290E+02 0.  0.
        -12    1    1    2    0    0 -0.36059475717E+01  0.79999716961E+01  0.16543192442E+02  0.18726441765E+02  0.00000000000E+00 0.  1.
         11    1    3    3    0    0  0.14683086794E+02 -0.30389633409E+02 -0.10615786216E+02  0.35381036924E+02  0.51100000000E-03 0. -1.
        -11    1    3    3    0    0 -0.50871819342E+01 -0.46741214723E+01  0.35744723120E+01  0.77784114150E+01  0.51100000000E-03 0.  1.
        -12    1    3    3    0    0 -0.59899572881E+01  0.27063783185E+02 -0.95018785372E+01  0.29302109896E+02  0.00000000000E+00 0.  1.
</event>
<event>
 7    1  0.1789107E-013  0.7246159E+02  0.7816164E-02  0.1226708E+00
        -11   -1    0    0    0    0  0.00000000000E+00  0.00000000000E+00  0.45593999997E+02  0.45594000000E+02  0.51100000000E-03 0.  1.
         11   -1    0    0    0    0 -0.00000000000E+00 -0.00000000000E+00 -0.45593999997E+02  0.45594000000E+02  0.51100000000E-03 0. -1.
    9900012    2    1    2    0    0  0.14429928031E+02  0.53734326455E+01 -0.10657477237E+02  0.72461590242E+02  0.70000025985E+02 0.  0.
        -12    1    1    2    0    0 -0.14429928031E+02 -0.53734326455E+01  0.10657477237E+02  0.18726409758E+02  0.00000000000E+00 0.  1.
         11    1    3    3    0    0 -0.74486422638E+01 -0.22389150716E+02 -0.18719344928E+01  0.23669822145E+02  0.51100000000E-03 0. -1.
        -11    1    3    3    0    0 -0.31389771093E+01  0.22081780374E+02 -0.31427302762E+01  0.22524097221E+02  0.51100000000E-03 0.  1.
        -12    1    3    3    0    0  0.25017547404E+02  0.56808029874E+01 -0.56428124684E+01  0.26267670876E+02  0.00000000000E+00 0.  1.
</event>
<event>
 7    1  0.1789107E-013  0.7246155E+02  0.7816164E-02  0.1226708E+00
        -11   -1    0    0    0    0  0.00000000000E+00  0.00000000000E+00  0.45593999997E+02  0.45594000000E+02  0.51100000000E-03 0. -1.
         11   -1    0    0    0    0 -0.00000000000E+00 -0.00000000000E+00 -0.45593999997E+02  0.45594000000E+02  0.51100000000E-03 0.  1.
    9900012    2    1    2    0    0 -0.11272297683E+01 -0.60762543041E+01  0.17677338087E+02  0.72461553590E+02  0.69999978240E+02 0.  0.
        -12    1    1    2    0    0  0.11272297683E+01  0.60762543041E+01 -0.17677338087E+02  0.18726446410E+02  0.00000000000E+00 0.  1.
         11    1    3    3    0    0 -0.46047903560E+01 -0.16086621335E+02  0.25796981735E+02  0.30748459264E+02  0.51100000000E-03 0. -1.
        -11    1    3    3    0    0  0.68883470406E+01 -0.13200678563E+01  0.14543795921E+02  0.16146637550E+02  0.51100000000E-03 0.  1.
        -12    1    3    3    0    0 -0.34107864530E+01  0.11330434887E+02 -0.22663439570E+02  0.25566456776E+02  0.00000000000E+00 0.  1.
</event>
<event>
 7    1  0.1789107E-013  0.7246156E+02  0.7816164E-02  0.1226708E+00
        -11   -1    0    0    0    0  0.00000000000E+00  0.00000000000E+00  0.45593999997E+02  0.45594000000E+02  0.51100000000E-03 0.  1.
         11   -1    0    0    0    0 -0.00000000000E+00 -0.00000000000E+00 -0.45593999997E+02  0.45594000000E+02  0.51100000000E-03 0. -1.
    9900012    2    1    2    0    0  0.97598305661E+01 -0.11844759061E+02 -0.10729724855E+02  0.72461558657E+02  0.69999984841E+02 0.  0.
        -12    1    1    2    0    0 -0.97598305661E+01  0.11844759061E+02  0.10729724855E+02  0.18726441343E+02  0.00000000000E+00 0.  1.
         11    1    3    3    0    0  0.71942450316E+00  0.19572454881E+02  0.92965258368E+01  0.21680035853E+02  0.51100000000E-03 0. -1.
        -11    1    3    3    0    0 -0.69148074549E+01 -0.22796579747E+02 -0.78510056220E-01  0.23822358707E+02  0.51100000000E-03 0.  1.
        -12    1    3    3    0    0  0.15955213518E+02 -0.86206341956E+01 -0.19947740635E+02  0.26959164097E+02  0.00000000000E+00 0.  1.
</event>
<event>
 7    1  0.1789107E-013  0.7246158E+02  0.7816164E-02  0.1226708E+00
        -11   -1    0    0    0    0  0.00000000000E+00  0.00000000000E+00  0.45593999997E+02  0.45594000000E+02  0.51100000000E-03 0.  1.
         11   -1    0    0    0    0 -0.00000000000E+00 -0.00000000000E+00 -0.45593999997E+02  0.45594000000E+02  0.51100000000E-03 0. -1.
    9900012    2    1    2    0    0 -0.15415951745E+02  0.64365433134E+01 -0.84615767841E+01  0.72461576431E+02  0.70000007994E+02 0.  0.
        -12    1    1    2    0    0  0.15415951745E+02 -0.64365433134E+01  0.84615767841E+01  0.18726423569E+02  0.00000000000E+00 0.  1.
         11    1    3    3    0    0 -0.16633165007E+01 -0.54256607394E+01  0.63476016619E+01  0.85144855018E+01  0.51100000000E-03 0. -1.
        -11    1    3    3    0    0 -0.21288245703E+02 -0.20096509090E+02 -0.87724847543E+01  0.30561668340E+02  0.51100000000E-03 0.  1.
         12    1    3    3    0    0  0.75356104585E+01  0.31958713142E+02 -0.60366936917E+01  0.33385422589E+02  0.00000000000E+00 0. -1.
</event>
<event>
 7    1  0.1789107E-013  0.7246157E+02  0.7816164E-02  0.1226708E+00
        -11   -1    0    0    0    0  0.00000000000E+00  0.00000000000E+00  0.45593999997E+02  0.45594000000E+02  0.51100000000E-03 0. -1.
         11   -1    0    0    0    0 -0.00000000000E+00 -0.00000000000E+00 -0.45593999997E+02  0.45594000000E+02  0.51100000000E-03 0.  1.
    9900012    2    1    2    0    0 -0.93084766908E+01  0.63497864954E+01  0.14956992308E+02  0.72461570929E+02  0.70000000827E+02 0.  0.
        -12    1    1    2    0    0  0.93084766908E+01 -0.63497864954E+01 -0.14956992308E+02  0.18726429071E+02  0.00000000000E+00 0.  1.
         11    1    3    3    0    0 -0.29910990457E+01 -0.25693794703E+01  0.13587929611E+01  0.41706957376E+01  0.51100000000E-03 0. -1.
        -11    1    3    3    0    0  0.43866912412E+01  0.31457716891E+02  0.25419031231E+02  0.40681176987E+02  0.51100000000E-03 0.  1.
         12    1    3    3    0    0 -0.10704068886E+02 -0.22538550926E+02 -0.11820831884E+02  0.27609698205E+02  0.00000000000E+00 0. -1.
</event>
<event>
 7    1  0.1789107E-013  0.7246149E+02  0.7816164E-02  0.1226708E+00
        -11   -1    0    0    0    0  0.00000000000E+00  0.00000000000E+00  0.45593999997E+02  0.45594000000E+02  0.51100000000E-03 0.  1.
         11   -1    0    0    0    0 -0.00000000000E+00 -0.00000000000E+00 -0.45593999997E+02  0.45594000000E+02  0.51100000000E-03 0. -1.
    9900012    2    1    2    0    0  0.88502986034E+01  0.59709639216E+01 -0.15385126057E+02  0.72461486728E+02  0.69999891140E+02 0.  0.
        -12    1    1    2    0    0 -0.88502986034E+01 -0.59709639216E+01  0.15385126057E+02  0.18726513272E+02  0.00000000000E+00 0.  1.
         11    1    3    3    0    0 -0.11113554828E+02  0.18694056488E+01 -0.59175971788E+01  0.12728854427E+02  0.51100000000E-03 0. -1.
        -11    1    3    3    0    0 -0.11463736886E+02  0.18752399042E+02 -0.11861538327E+02  0.24975304302E+02  0.51100000000E-03 0.  1.
        -12    1    3    3    0    0  0.31427590318E+02 -0.14650840769E+02  0.23940094487E+01  0.34757327999E+02  0.00000000000E+00 0.  1.
</event>
<event>
 7    1  0.1789107E-013  0.7246152E+02  0.7816164E-02  0.1226708E+00
        -11   -1    0    0    0    0  0.00000000000E+00  0.00000000000E+00  0.45593999997E+02  0.45594000000E+02  0.51100000000E-03 0. -1.
         11   -1    0    0    0    0 -0.00000000000E+00 -0.00000000000E+00 -0.45593999997E+02  0.45594000000E+02  0.51100000000E-03 0.  1.
    9900012    2    1    2    0    0 -0.18416455561E+01  0.16518297617E+02  0.86275922217E+01  0.72461517093E+02  0.69999930695E+02 0.  0.
        -12    1    1    2    0    0  0.18416455561E+01 -0.16518297617E+02 -0.86275922217E+01  0.18726482907E+02  0.00000000000E+00 0.  1.
         11    1    3    3    0    0  0.42478629659E+01  0.79484701690E+01  0.12994237701E+02  0.15813688105E+02  0.51100000000E-03 0. -1.
        -11    1    3    3    0    0  0.95647875801E+01  0.25019822301E+02  0.11287431496E+02  0.29066867383E+02  0.51100000000E-03 0.  1.
        -12    1    3    3    0    0 -0.15654296102E+02 -0.16449994853E+02 -0.15654076975E+02  0.27580961605E+02  0.00000000000E+00 0.  1.
</event>
<event>
 7    1  0.2534430E-013  0.7246154E+02  0.7816164E-02  0.1226708E+00
        -11   -1    0    0    0    0  0.00000000000E+00  0.00000000000E+00  0.45593999997E+02  0.45594000000E+02  0.51100000000E-03 0. -1.
         11   -1    0    0    0    0 -0.00000000000E+00 -0.00000000000E+00 -0.45593999997E+02  0.45594000000E+02  0.51100000000E-03 0.  1.
    9900012    2    1    2    0    0  0.67859959211E+01  0.11971041586E+02  0.12701363362E+02  0.72461542552E+02  0.69999963861E+02 0.  0.
        -12    1    1    2    0    0 -0.67859959211E+01 -0.11971041586E+02 -0.12701363362E+02  0.18726457448E+02  0.00000000000E+00 0.  1.
         11    1    3    3    0    0  0.81193490589E+01  0.23470414323E+02  0.24434444994E+02  0.34840009760E+02  0.51100000000E-03 0. -1.
        -11    1    3    3    0    0  0.14708023533E+02 -0.91501632362E+01  0.47206879242E+00  0.17328424414E+02  0.51100000000E-03 0.  1.
        -12    1    3    3    0    0 -0.16041376670E+02 -0.23492095009E+01 -0.12205150424E+02  0.20293108378E+02  0.00000000000E+00 0.  1.
</event>
<event>
 7    1  0.1789107E-013  0.7246159E+02  0.7816164E-02  0.1226708E+00
        -11   -1    0    0    0    0  0.00000000000E+00  0.00000000000E+00  0.45593999997E+02  0.45594000000E+02  0.51100000000E-03 0.  1.
         11   -1    0    0    0    0 -0.00000000000E+00 -0.00000000000E+00 -0.45593999997E+02  0.45594000000E+02  0.51100000000E-03 0. -1.
    9900012    2    1    2    0    0 -0.55014251710E+01 -0.14169053528E+02  0.10938500508E+02  0.72461586831E+02  0.70000021543E+02 0.  0.
        -12    1    1    2    0    0  0.55014251710E+01  0.14169053528E+02 -0.10938500508E+02  0.18726413169E+02  0.00000000000E+00 0.  1.
         11    1    3    3    0    0 -0.15806753869E+01 -0.14802274311E+02 -0.10053692975E+02  0.17963368341E+02  0.51100000000E-03 0. -1.
        -11    1    3    3    0    0  0.17621097012E+01  0.18130557482E+02 -0.82127999264E+01  0.19981797419E+02  0.51100000000E-03 0.  1.
        -12    1    3    3    0    0 -0.56828594854E+01 -0.17497336699E+02  0.29204993409E+02  0.34516421071E+02  0.00000000000E+00 0.  1.
</event>
<event>
 7    1  0.1789107E-013  0.7246160E+02  0.7816164E-02  0.1226708E+00
        -11   -1    0    0    0    0  0.00000000000E+00  0.00000000000E+00  0.45593999997E+02  0.45594000000E+02  0.51100000000E-03 0.  1.
         11   -1    0    0    0    0 -0.00000000000E+00 -0.00000000000E+00 -0.45593999997E+02  0.45594000000E+02  0.51100000000E-03 0. -1.
    9900012    2    1    2    0    0 -0.61778521490E+01 -0.17161595140E+02  0.42417013559E+01  0.72461595237E+02  0.70000032493E+02 0.  0.
        -12    1    1    2    0    0  0.61778521490E+01  0.17161595140E+02 -0.42417013559E+01  0.18726404763E+02  0.00000000000E+00 0.  1.
         11    1    3    3    0    0 -0.13962572854E+02 -0.21303485907E+02 -0.14671504013E+02  0.29394642076E+02  0.51100000000E-03 0. -1.
        -11    1    3    3    0    0  0.16278168286E+02 -0.15117470855E+01 -0.49771386793E+01  0.17089062341E+02  0.51100000000E-03 0.  1.
        -12    1    3    3    0    0 -0.84934475812E+01  0.56536378524E+01  0.23890344048E+02  0.25977890821E+02  0.00000000000E+00 0.  1.
</event>
<event>
 7    1  0.1789107E-013  0.7246160E+02  0.7816164E-02  0.1226708E+00
        -11   -1    0    0    0    0  0.00000000000E+00  0.00000000000E+00  0.45593999997E+02  0.45594000000E+02  0.51100000000E-03 0.  1.
         11   -1    0    0    0    0 -0.00000000000E+00 -0.00000000000E+00 -0.45593999997E+02  0.45594000000E+02  0.51100000000E-03 0. -1.
    9900012    2    1    2    0    0 -0.13611503364E+02 -0.11688334516E+02  0.53654281250E+01  0.72461601346E+02  0.70000040450E+02 0.  0.
        -12    1    1    2    0    0  0.13611503364E+02  0.11688334516E+02 -0.53654281250E+01  0.18726398654E+02  0.00000000000E+00 0.  1.
         11    1    3    3    0    0  0.10747710238E+02  0.24090760235E+01  0.59020042190E+01  0.12496022436E+02  0.51100000000E-03 0. -1.
        -11    1    3    3    0    0 -0.14644546564E+02  0.11164683847E+02  0.19096468231E+02  0.26529003159E+02  0.51100000000E-03 0.  1.
         12    1    3    3    0    0 -0.97146670389E+01 -0.25262094386E+02 -0.19633044325E+02  0.33436575751E+02  0.00000000000E+00 0. -1.
</event>
<event>
 7    1  0.1789107E-013  0.7246154E+02  0.7816164E-02  0.1226708E+00
        -11   -1    0    0    0    0  0.00000000000E+00  0.00000000000E+00  0.45593999997E+02  0.45594000000E+02  0.51100000000E-03 0.  1.
         11   -1    0    0    0    0 -0.00000000000E+00 -0.00000000000E+00 -0.45593999997E+02  0.45594000000E+02  0.51100000000E-03 0. -1.
    9900012    2    1    2    0    0 -0.17483991705E+02 -0.66963525378E+01  0.38612117618E+00  0.72461542972E+02  0.69999964407E+02 0.  0.
        -12    1    1    2    0    0  0.17483991705E+02  0.66963525378E+01 -0.38612117618E+00  0.18726457028E+02  0.00000000000E+00 0.  1.
         11    1    3    3    0    0  0.19795996183E+01  0.47106765375E+01 -0.11061368606E+02  0.12184546105E+02  0.51100000000E-03 0. -1.
        -11    1    3    3    0    0  0.71819871196E+01  0.90531535191E+01  0.22179743908E+02  0.25009629500E+02  0.51100000000E-03 0.  1.
         12    1    3    3    0    0 -0.26645578443E+02 -0.20460182594E+02 -0.10732254126E+02  0.35267367367E+02  0.00000000000E+00 0. -1.
</event>
<event>
 7    1  0.1789107E-013  0.7246157E+02  0.7816164E-02  0.1226708E+00
        -11   -1    0    0    0    0  0.00000000000E+00  0.00000000000E+00  0.45593999997E+02  0.45594000000E+02  0.51100000000E-03 0.  1.
         11   -1    0    0    0    0 -0.00000000000E+00 -0.00000000000E+00 -0.45593999997E+02  0.45594000000E+02  0.51100000000E-03 0. -1.
    9900012    2    1    2    0    0 -0.88936668295E+01 -0.13175845958E+02 -0.98984283229E+01  0.72461571893E+02  0.70000002082E+02 0.  0.
        -12    1    1    2    0    0  0.88936668295E+01  0.13175845958E+02  0.98984283229E+01  0.18726428107E+02  0.00000000000E+00 0.  1.
         11    1    3    3    0    0 -0.21716317082E+01 -0.91610862912E+01  0.11406808485E+02  0.14790428201E+02  0.51100000000E-03 0.  1.
        -11    1    3    3    0    0 -0.14454506404E+02  0.73925068991E+01  0.12937329655E+02  0.20759489697E+02  0.51100000000E-03 0. -1.
        -12    1    3    3    0    0  0.77324712824E+01 -0.11407266566E+02 -0.34242566463E+02  0.36911653994E+02  0.00000000000E+00 0.  1.
</event>
<event>
 7    1  0.1789107E-013  0.7246153E+02  0.7816164E-02  0.1226708E+00
        -11   -1    0    0    0    0  0.00000000000E+00  0.00000000000E+00  0.45593999997E+02  0.45594000000E+02  0.51100000000E-03 0. -1.
         11   -1    0    0    0    0 -0.00000000000E+00 -0.00000000000E+00 -0.45593999997E+02  0.45594000000E+02  0.51100000000E-03 0.  1.
    9900012    2    1    2    0    0 -0.44573844377E+01 -0.73940047590E+01  0.16617497858E+02  0.72461526294E+02  0.69999942681E+02 0.  0.
        -12    1    1    2    0    0  0.44573844377E+01  0.73940047590E+01 -0.16617497858E+02  0.18726473706E+02  0.00000000000E+00 0.  1.
         11    1    3    3    0    0  0.48063512337E+01  0.13690441501E+01 -0.36416695767E+01  0.61836115364E+01  0.51100000000E-03 0. -1.
        -11    1    3    3    0    0  0.19133825859E+02  0.12272185886E+02  0.20976319031E+02  0.30930822795E+02  0.51100000000E-03 0.  1.
         12    1    3    3    0    0 -0.28397561530E+02 -0.21035234795E+02 -0.71715159599E+00  0.35347091962E+02  0.00000000000E+00 0. -1.
</event>
<event>
 7    1  0.1789107E-013  0.7246155E+02  0.7816164E-02  0.1226708E+00
        -11   -1    0    0    0    0  0.00000000000E+00  0.00000000000E+00  0.45593999997E+02  0.45594000000E+02  0.51100000000E-03 0. -1.
         11   -1    0    0    0    0 -0.00000000000E+00 -0.00000000000E+00 -0.45593999997E+02  0.45594000000E+02  0.51100000000E-03 0.  1.
    9900012    2    1    2    0    0  0.84382674367E+01  0.16116966450E+02  0.44406139942E+01  0.72461547652E+02  0.69999970504E+02 0.  0.
        -12    1    1    2    0    0 -0.84382674367E+01 -0.16116966450E+02 -0.44406139942E+01  0.18726452348E+02  0.00000000000E+00 0.  1.
         11    1    3    3    0    0 -0.92591358067E+01  0.16824154521E+02  0.17399122915E+02  0.25913572693E+02  0.51100000000E-03 0. -1.
        -11    1    3    3    0    0 -0.12851590686E+02 -0.39230006201E+01 -0.64003976806E+00  0.13452247701E+02  0.51100000000E-03 0.  1.
         12    1    3    3    0    0  0.30548993930E+02  0.32158125498E+01 -0.12318469153E+02  0.33095727258E+02  0.00000000000E+00 0. -1.
</event>
<event>
 7    1  0.1789107E-013  0.7246158E+02  0.7816164E-02  0.1226708E+00
        -11   -1    0    0    0    0  0.00000000000E+00  0.00000000000E+00  0.45593999997E+02  0.45594000000E+02  0.51100000000E-03 0.  1.
         11   -1    0    0    0    0 -0.00000000000E+00 -0.00000000000E+00 -0.45593999997E+02  0.45594000000E+02  0.51100000000E-03 0. -1.
    9900012    2    1    2    0    0  0.15148118692E+02 -0.10998815910E+02 -0.48919744275E+00  0.72461581082E+02  0.70000014053E+02 0.  0.
        -12    1    1    2    0    0 -0.15148118692E+02  0.10998815910E+02  0.48919744275E+00  0.18726418918E+02  0.00000000000E+00 0.  1.
         11    1    3    3    0    0  0.16363819320E+02  0.13167617078E+02 -0.45226314351E+01  0.21485225566E+02  0.51100000000E-03 0. -1.
        -11    1    3    3    0    0  0.92875478891E+01  0.26215030458E+01  0.16896777284E+02  0.19458466200E+02  0.51100000000E-03 0.  1.
        -12    1    3    3    0    0 -0.10503248517E+02 -0.26787936034E+02 -0.12863343291E+02  0.31517889317E+02  0.00000000000E+00 0.  1.
</event>
<event>
 7    1  0.1789107E-013  0.7246156E+02  0.7816164E-02  0.1226708E+00
        -11   -1    0    0    0    0  0.00000000000E+00  0.00000000000E+00  0.45593999997E+02  0.45594000000E+02  0.51100000000E-03 0. -1.
         11   -1    0    0    0    0 -0.00000000000E+00 -0.00000000000E+00 -0.45593999997E+02  0.45594000000E+02  0.51100000000E-03 0.  1.
    9900012    2    1    2    0    0  0.14055146671E+02  0.11921160999E+02  0.33193934213E+01  0.72461558795E+02  0.69999985020E+02 0.  0.
        -12    1    1    2    0    0 -0.14055146671E+02 -0.11921160999E+02 -0.33193934213E+01  0.18726441205E+02  0.00000000000E+00 0.  1.
         11    1    3    3    0    0  0.76475043926E-01  0.19494906932E+01  0.19079592777E+02  0.19179082961E+02  0.51100000000E-03 0. -1.
        -11    1    3    3    0    0 -0.13724018425E+02  0.60449337291E+01  0.76191137850E+01  0.16820844231E+02  0.51100000000E-03 0.  1.
        -12    1    3    3    0    0  0.27702690052E+02  0.39267365772E+01 -0.23379313141E+02  0.36461631604E+02  0.00000000000E+00 0.  1.
</event>
<event>
 7    1  0.1789107E-013  0.7246143E+02  0.7816164E-02  0.1226708E+00
        -11   -1    0    0    0    0  0.00000000000E+00  0.00000000000E+00  0.45593999997E+02  0.45594000000E+02  0.51100000000E-03 0. -1.
         11   -1    0    0    0    0 -0.00000000000E+00 -0.00000000000E+00 -0.45593999997E+02  0.45594000000E+02  0.51100000000E-03 0.  1.
    9900012    2    1    2    0    0 -0.44187725991E+01 -0.18197454198E+02 -0.10746511536E+00  0.72461429590E+02  0.69999816706E+02 0.  0.
        -12    1    1    2    0    0  0.44187725991E+01  0.18197454198E+02  0.10746511536E+00  0.18726570410E+02  0.00000000000E+00 0.  1.
         11    1    3    3    0    0 -0.72155997025E+01  0.47454281838E+01  0.14482836353E+02  0.16862280890E+02  0.51100000000E-03 0. -1.
        -11    1    3    3    0    0  0.12619782906E+02  0.11776496641E+02 -0.75330580286E+01  0.18833261992E+02  0.51100000000E-03 0.  1.
        -12    1    3    3    0    0 -0.98229558024E+01 -0.34719379024E+02 -0.70572434396E+01  0.36765886708E+02  0.00000000000E+00 0.  1.
</event>
<event>
 7    1  0.1789107E-013  0.7246156E+02  0.7816164E-02  0.1226708E+00
        -11   -1    0    0    0    0  0.00000000000E+00  0.00000000000E+00  0.45593999997E+02  0.45594000000E+02  0.51100000000E-03 0. -1.
         11   -1    0    0    0    0 -0.00000000000E+00 -0.00000000000E+00 -0.45593999997E+02  0.45594000000E+02  0.51100000000E-03 0.  1.
    9900012    2    1    2    0    0  0.15240453219E+02 -0.20082517505E+01  0.10694628150E+02  0.72461559850E+02  0.69999986395E+02 0.  0.
        -12    1    1    2    0    0 -0.15240453219E+02  0.20082517505E+01 -0.10694628150E+02  0.18726440150E+02  0.00000000000E+00 0.  1.
         11    1    3    3    0    0 -0.16722317326E+02 -0.30709500580E+01  0.85353680868E+01  0.19024172508E+02  0.51100000000E-03 0. -1.
        -11    1    3    3    0    0 -0.56833231508E+01 -0.97032140140E+01  0.80664120332E+01  0.13839058046E+02  0.51100000000E-03 0.  1.
         12    1    3    3    0    0  0.37646093696E+02  0.10765912322E+02 -0.59071519702E+01  0.39598329296E+02  0.00000000000E+00 0. -1.
</event>
<event>
 7    1  0.1789107E-013  0.7246155E+02  0.7816164E-02  0.1226708E+00
        -11   -1    0    0    0    0  0.00000000000E+00  0.00000000000E+00  0.45593999997E+02  0.45594000000E+02  0.51100000000E-03 0.  1.
         11   -1    0    0    0    0 -0.00000000000E+00 -0.00000000000E+00 -0.45593999997E+02  0.45594000000E+02  0.51100000000E-03 0. -1.
    9900012    2    1    2    0    0 -0.67198089042E+01  0.48830656689E+00 -0.17472421723E+02  0.72461553571E+02  0.69999978214E+02 0.  0.
        -12    1    1    2    0    0  0.67198089042E+01 -0.48830656689E+00  0.17472421723E+02  0.18726446429E+02  0.00000000000E+00 0.  1.
         11    1    3    3    0    0  0.21106753762E+02 -0.13278916060E+02  0.86997861177E+01  0.26410432500E+02  0.51100000000E-03 0.  1.
        -11    1    3    3    0    0 -0.11027351198E+01 -0.50596567863E+01 -0.41398227511E+01  0.66298027280E+01  0.51100000000E-03 0. -1.
        -12    1    3    3    0    0 -0.26723827546E+02  0.18826879413E+02 -0.22032385089E+02  0.39421318343E+02  0.00000000000E+00 0.  1.
</event>
<event>
 7    1  0.1789107E-013  0.7246153E+02  0.7816164E-02  0.1226708E+00
        -11   -1    0    0    0    0  0.00000000000E+00  0.00000000000E+00  0.45593999997E+02  0.45594000000E+02  0.51100000000E-03 0.  1.
         11   -1    0    0    0    0 -0.00000000000E+00 -0.00000000000E+00 -0.45593999997E+02  0.45594000000E+02  0.51100000000E-03 0. -1.
    9900012    2    1    2    0    0  0.84954297451E+00  0.68661335300E+01 -0.17401583961E+02  0.72461531105E+02  0.69999948949E+02 0.  0.
        -12    1    1    2    0    0 -0.84954297451E+00 -0.68661335300E+01  0.17401583961E+02  0.18726468895E+02  0.00000000000E+00 0.  1.
         11    1    3    3    0    0 -0.88644375023E+00  0.31061416891E+02 -0.16002136938E+02  0.34952335954E+02  0.51100000000E-03 0. -1.
        -11    1    3    3    0    0  0.23564969292E+01  0.58155272805E+01  0.33587162173E+01  0.71171911747E+01  0.51100000000E-03 0.  1.
        -12    1    3    3    0    0 -0.62051020448E+00 -0.30010810642E+02 -0.47581632402E+01  0.30392003977E+02  0.00000000000E+00 0.  1.
</event>
<event>
 7    1  0.1789107E-013  0.7246153E+02  0.7816164E-02  0.1226708E+00
        -11   -1    0    0    0    0  0.00000000000E+00  0.00000000000E+00  0.45593999997E+02  0.45594000000E+02  0.51100000000E-03 0.  1.
         11   -1    0    0    0    0 -0.00000000000E+00 -0.00000000000E+00 -0.45593999997E+02  0.45594000000E+02  0.51100000000E-03 0. -1.
    9900012    2    1    2    0    0  0.90143989700E+01  0.92938506232E+01 -0.13529441986E+02  0.72461525462E+02  0.69999941597E+02 0.  0.
        -12    1    1    2    0    0 -0.90143989700E+01 -0.92938506232E+01  0.13529441986E+02  0.18726474538E+02  0.00000000000E+00 0.  1.
         11    1    3    3    0    0 -0.13039973586E+02 -0.25144561738E+01  0.44322720685E+01  0.14000301316E+02  0.51100000000E-03 0. -1.
        -11    1    3    3    0    0 -0.14846939712E+02  0.10779172921E+02 -0.91786060578E+01  0.20515091935E+02  0.51100000000E-03 0.  1.
        -12    1    3    3    0    0  0.36901312268E+02  0.10291338756E+01 -0.87831079963E+01  0.37946132211E+02  0.00000000000E+00 0.  1.
</event>
<event>
 7    1  0.1789107E-013  0.7246158E+02  0.7816164E-02  0.1226708E+00
        -11   -1    0    0    0    0  0.00000000000E+00  0.00000000000E+00  0.45593999997E+02  0.45594000000E+02  0.51100000000E-03 0.  1.
         11   -1    0    0    0    0 -0.00000000000E+00 -0.00000000000E+00 -0.45593999997E+02  0.45594000000E+02  0.51100000000E-03 0. -1.
    9900012    2    1    2    0    0  0.18193422072E+02 -0.31400129451E+01 -0.31334282526E+01  0.72461583883E+02  0.70000017701E+02 0.  0.
        -12    1    1    2    0    0 -0.18193422072E+02  0.31400129451E+01  0.31334282526E+01  0.18726416117E+02  0.00000000000E+00 0.  1.
         11    1    3    3    0    0 -0.14941434913E+01  0.20542696993E+01  0.36038696293E+01  0.44091229668E+01  0.51100000000E-03 0. -1.
        -11    1    3    3    0    0  0.86767100816E+01  0.28841598436E+02 -0.10918120652E+02  0.32036361482E+02  0.51100000000E-03 0.  1.
         12    1    3    3    0    0  0.11010855482E+02 -0.34035881081E+02  0.41808227699E+01  0.36016099434E+02  0.00000000000E+00 0. -1.
</event>
<event>
 7    1  0.1789107E-013  0.7246152E+02  0.7816164E-02  0.1226708E+00
        -11   -1    0    0    0    0  0.00000000000E+00  0.00000000000E+00  0.45593999997E+02  0.45594000000E+02  0.51100000000E-03 0.  1.
         11   -1    0    0    0    0 -0.00000000000E+00 -0.00000000000E+00 -0.45593999997E+02  0.45594000000E+02  0.51100000000E-03 0. -1.
    9900012    2    1    2    0    0  0.27627378065E+01 -0.58752488430E+01 -0.17565013286E+02  0.72461522464E+02  0.69999937693E+02 0.  0.
        -12    1    1    2    0    0 -0.27627378065E+01  0.58752488430E+01  0.17565013286E+02  0.18726477536E+02  0.00000000000E+00 0.  1.
         11    1    3    3    0    0 -0.61768574862E+00  0.19408632866E+02 -0.11187327488E+02  0.22410552469E+02  0.51100000000E-03 0. -1.
        -11    1    3    3    0    0  0.74134929351E+01  0.82817797618E+01 -0.11343033154E+02  0.15881188712E+02  0.51100000000E-03 0.  1.
        -12    1    3    3    0    0 -0.40330693800E+01 -0.33565661470E+02  0.49653473556E+01  0.34169781283E+02  0.00000000000E+00 0.  1.
</event>
<event>
 7    1  0.1789107E-013  0.7246147E+02  0.7816164E-02  0.1226708E+00
        -11   -1    0    0    0    0  0.00000000000E+00  0.00000000000E+00  0.45593999997E+02  0.45594000000E+02  0.51100000000E-03 0.  1.
         11   -1    0    0    0    0 -0.00000000000E+00 -0.00000000000E+00 -0.45593999997E+02  0.45594000000E+02  0.51100000000E-03 0. -1.
    9900012    2    1    2    0    0 -0.90299724711E+01  0.15849477055E+02 -0.42351618382E+01  0.72461470115E+02  0.69999869497E+02 0.  0.
        -12    1    1    2    0    0  0.90299724711E+01 -0.15849477055E+02  0.42351618382E+01  0.18726529885E+02  0.00000000000E+00 0.  1.
         11    1    3    3    0    0  0.53920352823E+01 -0.96790724236E+01 -0.12101066361E+02  0.16407141579E+02  0.51100000000E-03 0. -1.
        -11    1    3    3    0    0 -0.13454954761E+02 -0.10265487158E+02 -0.55587933930E+01  0.17813371900E+02  0.51100000000E-03 0.  1.
         12    1    3    3    0    0 -0.96705299232E+00  0.35794036637E+02  0.13424697916E+02  0.38240956635E+02  0.00000000000E+00 0. -1.
</event>
<event>
 7    1  0.1789107E-013  0.7246165E+02  0.7816164E-02  0.1226708E+00
        -11   -1    0    0    0    0  0.00000000000E+00  0.00000000000E+00  0.45593999997E+02  0.45594000000E+02  0.51100000000E-03 0. -1.
         11   -1    0    0    0    0 -0.00000000000E+00 -0.00000000000E+00 -0.45593999997E+02  0.45594000000E+02  0.51100000000E-03 0.  1.
    9900012    2    1    2    0    0 -0.10870653529E+02  0.70788613694E+01  0.13505365749E+02  0.72461647167E+02  0.70000100141E+02 0.  0.
        -12    1    1    2    0    0  0.10870653529E+02 -0.70788613694E+01 -0.13505365749E+02  0.18726352833E+02  0.00000000000E+00 0.  1.
         11    1    3    3    0    0 -0.96581373290E+01  0.36872553844E+01 -0.57125457803E+01  0.11811377925E+02  0.51100000000E-03 0. -1.
        -11    1    3    3    0    0 -0.49892447677E+01 -0.53446940592E+00 -0.20222330749E+02  0.20835567717E+02  0.51100000000E-03 0.  1.
         12    1    3    3    0    0  0.37767285682E+01  0.39260753909E+01  0.39440242278E+02  0.39814701525E+02  0.00000000000E+00 0. -1.
</event>
<event>
 7    1  0.1789107E-013  0.7246121E+02  0.7816164E-02  0.1226709E+00
        -11   -1    0    0    0    0  0.00000000000E+00  0.00000000000E+00  0.45593999997E+02  0.45594000000E+02  0.51100000000E-03 0. -1.
         11   -1    0    0    0    0 -0.00000000000E+00 -0.00000000000E+00 -0.45593999997E+02  0.45594000000E+02  0.51100000000E-03 0.  1.
    9900012    2    1    2    0    0 -0.66840246128E+01 -0.58355947604E+01  0.16491278828E+02  0.72461210937E+02  0.69999531869E+02 0.  0.
        -12    1    1    2    0    0  0.66840246128E+01  0.58355947604E+01 -0.16491278828E+02  0.18726789063E+02  0.00000000000E+00 0.  1.
         11    1    3    3    0    0  0.11731037365E+02 -0.10935791447E+02 -0.77196854984E+00  0.16056298077E+02  0.51100000000E-03 0. -1.
        -11    1    3    3    0    0 -0.14829890254E+02 -0.11537518734E+02 -0.12183342094E+02  0.22393610882E+02  0.51100000000E-03 0.  1.
         12    1    3    3    0    0 -0.35851717238E+01  0.16637715421E+02  0.29446589471E+02  0.34011301978E+02  0.00000000000E+00 0. -1.
</event>
<event>
 7    1  0.1789107E-013  0.7246158E+02  0.7816164E-02  0.1226708E+00
        -11   -1    0    0    0    0  0.00000000000E+00  0.00000000000E+00  0.45593999997E+02  0.45594000000E+02  0.51100000000E-03 0. -1.
         11   -1    0    0    0    0 -0.00000000000E+00 -0.00000000000E+00 -0.45593999997E+02  0.45594000000E+02  0.51100000000E-03 0.  1.
    9900012    2    1    2    0    0 -0.16209804194E+02  0.90620331045E+01  0.24084408888E+01  0.72461580601E+02  0.70000013426E+02 0.  0.
        -12    1    1    2    0    0  0.16209804194E+02 -0.90620331045E+01 -0.24084408888E+01  0.18726419399E+02  0.00000000000E+00 0.  1.
         11    1    3    3    0    0 -0.14360356231E+02 -0.21744910184E+01  0.32372308764E+02  0.35481186807E+02  0.51100000000E-03 0. -1.
        -11    1    3    3    0    0  0.57348343338E+01  0.17367880639E+01 -0.17236364659E+01  0.62350365310E+01  0.51100000000E-03 0.  1.
        -12    1    3    3    0    0 -0.75842822972E+01  0.94997360590E+01 -0.28240231409E+02  0.30745357263E+02  0.00000000000E+00 0.  1.
</event>
<event>
 7    1  0.1789107E-013  0.7246155E+02  0.7816164E-02  0.1226708E+00
        -11   -1    0    0    0    0  0.00000000000E+00  0.00000000000E+00  0.45593999997E+02  0.45594000000E+02  0.51100000000E-03 0.  1.
         11   -1    0    0    0    0 -0.00000000000E+00 -0.00000000000E+00 -0.45593999997E+02  0.45594000000E+02  0.51100000000E-03 0. -1.
    9900012    2    1    2    0    0  0.44317649071E+01 -0.82464959610E+01 -0.16218342100E+02  0.72461551957E+02  0.69999976112E+02 0.  0.
        -12    1    1    2    0    0 -0.44317649071E+01  0.82464959610E+01  0.16218342100E+02  0.18726448043E+02  0.00000000000E+00 0.  1.
         11    1    3    3    0    0 -0.34644759664E+01 -0.31870782002E+02 -0.21914478720E+02  0.38832894780E+02  0.51100000000E-03 0. -1.
        -11    1    3    3    0    0  0.13472393037E+02  0.65767413443E+01  0.44987252298E+01  0.15652393740E+02  0.51100000000E-03 0.  1.
        -12    1    3    3    0    0 -0.55761521631E+01  0.17047544697E+02  0.11974113895E+01  0.17976263437E+02  0.00000000000E+00 0.  1.
</event>
<event>
 7    1  0.1789107E-013  0.7246156E+02  0.7816164E-02  0.1226708E+00
        -11   -1    0    0    0    0  0.00000000000E+00  0.00000000000E+00  0.45593999997E+02  0.45594000000E+02  0.51100000000E-03 0. -1.
         11   -1    0    0    0    0 -0.00000000000E+00 -0.00000000000E+00 -0.45593999997E+02  0.45594000000E+02  0.51100000000E-03 0.  1.
    9900012    2    1    2    0    0 -0.30029060935E+00  0.11155608236E+02  0.15038007819E+02  0.72461562839E+02  0.69999990288E+02 0.  0.
        -12    1    1    2    0    0  0.30029060935E+00 -0.11155608236E+02 -0.15038007819E+02  0.18726437161E+02  0.00000000000E+00 0.  1.
         11    1    3    3    0    0  0.88387096702E+01 -0.30567682744E+01  0.13196399986E+02  0.16174411698E+02  0.51100000000E-03 0. -1.
        -11    1    3    3    0    0  0.27911325785E+01  0.63858998096E-01  0.25835035176E+02  0.25985448656E+02  0.51100000000E-03 0.  1.
        -12    1    3    3    0    0 -0.11930132858E+02  0.14148517513E+02 -0.23993427343E+02  0.30301702485E+02  0.00000000000E+00 0.  1.
</event>
<event>
 7    1  0.1789107E-013  0.7246154E+02  0.7816164E-02  0.1226708E+00
        -11   -1    0    0    0    0  0.00000000000E+00  0.00000000000E+00  0.45593999997E+02  0.45594000000E+02  0.51100000000E-03 0. -1.
         11   -1    0    0    0    0 -0.00000000000E+00 -0.00000000000E+00 -0.45593999997E+02  0.45594000000E+02  0.51100000000E-03 0.  1.
    9900012    2    1    2    0    0  0.17127452065E+02 -0.23532776623E+01  0.71967257895E+01  0.72461537651E+02  0.69999957476E+02 0.  0.
        -12    1    1    2    0    0 -0.17127452065E+02  0.23532776623E+01 -0.71967257895E+01  0.18726462349E+02  0.00000000000E+00 0.  1.
         11    1    3    3    0    0  0.14420536033E+02 -0.23689195358E+02  0.50928073698E+01  0.28196924005E+02  0.51100000000E-03 0. -1.
        -11    1    3    3    0    0  0.12259508336E+02  0.10576421478E+02 -0.14890533945E+02  0.21997368874E+02  0.51100000000E-03 0.  1.
        -12    1    3    3    0    0 -0.95525923043E+01  0.10759496218E+02  0.16994452365E+02  0.22267244773E+02  0.00000000000E+00 0.  1.
</event>
<event>
 7    1  0.1789107E-013  0.7246157E+02  0.7816164E-02  0.1226708E+00
        -11   -1    0    0    0    0  0.00000000000E+00  0.00000000000E+00  0.45593999997E+02  0.45594000000E+02  0.51100000000E-03 0.  1.
         11   -1    0    0    0    0 -0.00000000000E+00 -0.00000000000E+00 -0.45593999997E+02  0.45594000000E+02  0.51100000000E-03 0. -1.
    9900012    2    1    2    0    0 -0.11458396520E+01 -0.17751273167E+02 -0.58530744171E+01  0.72461571411E+02  0.70000001455E+02 0.  0.
        -12    1    1    2    0    0  0.11458396520E+01  0.17751273167E+02  0.58530744171E+01  0.18726428589E+02  0.00000000000E+00 0.  1.
         11    1    3    3    0    0  0.65575857306E+01  0.80046314756E+01 -0.49728298226E+01  0.11480639894E+02  0.51100000000E-03 0. -1.
        -11    1    3    3    0    0 -0.22639354497E+02  0.88477464658E+00 -0.15165010851E+02  0.27263542554E+02  0.51100000000E-03 0.  1.
        -12    1    3    3    0    0  0.14935929115E+02 -0.26640679289E+02  0.14284766256E+02  0.33717388963E+02  0.00000000000E+00 0.  1.
</event>
<event>
 7    1  0.1789107E-013  0.7246163E+02  0.7816164E-02  0.1226708E+00
        -11   -1    0    0    0    0  0.00000000000E+00  0.00000000000E+00  0.45593999997E+02  0.45594000000E+02  0.51100000000E-03 0.  1.
         11   -1    0    0    0    0 -0.00000000000E+00 -0.00000000000E+00 -0.45593999997E+02  0.45594000000E+02  0.51100000000E-03 0. -1.
    9900012    2    1    2    0    0  0.12855229809E+02  0.10230076228E+02 -0.89869658887E+01  0.72461629584E+02  0.70000077236E+02 0.  0.
        -12    1    1    2    0    0 -0.12855229809E+02 -0.10230076228E+02  0.89869658887E+01  0.18726370416E+02  0.00000000000E+00 0.  1.
         11    1    3    3    0    0 -0.23110864112E+01  0.73875379336E+01 -0.27085619950E+01  0.82008015134E+01  0.51100000000E-03 0. -1.
        -11    1    3    3    0    0 -0.10596175053E+02 -0.29703650935E+01  0.22593961607E+02  0.25131436407E+02  0.51100000000E-03 0.  1.
         12    1    3    3    0    0  0.25762491273E+02  0.58129033876E+01 -0.28872365500E+02  0.39129391664E+02  0.00000000000E+00 0. -1.
</event>
<event>
 7    1  0.1789107E-013  0.7246157E+02  0.7816164E-02  0.1226708E+00
        -11   -1    0    0    0    0  0.00000000000E+00  0.00000000000E+00  0.45593999997E+02  0.45594000000E+02  0.51100000000E-03 0.  1.
         11   -1    0    0    0    0 -0.00000000000E+00 -0.00000000000E+00 -0.45593999997E+02  0.45594000000E+02  0.51100000000E-03 0. -1.
    9900012    2    1    2    0    0 -0.57807921578E+01 -0.72940778032E+01 -0.16249865989E+02  0.72461567515E+02  0.69999996379E+02 0.  0.
        -12    1    1    2    0    0  0.57807921578E+01  0.72940778032E+01  0.16249865989E+02  0.18726432485E+02  0.00000000000E+00 0.  1.
         11    1    3    3    0    0 -0.17181266777E+01  0.96323384484E+00  0.72552387802E+01  0.75178633094E+01  0.51100000000E-03 0. -1.
        -11    1    3    3    0    0 -0.72718543578E+00  0.25823756943E+02 -0.14101682470E+02  0.29432170665E+02  0.51100000000E-03 0.  1.
         12    1    3    3    0    0 -0.33354800444E+01 -0.34081068591E+02 -0.94034222992E+01  0.35511533540E+02  0.00000000000E+00 0. -1.
</event>
<event>
 7    1  0.1789107E-013  0.7246158E+02  0.7816164E-02  0.1226708E+00
        -11   -1    0    0    0    0  0.00000000000E+00  0.00000000000E+00  0.45593999997E+02  0.45594000000E+02  0.51100000000E-03 0.  1.
         11   -1    0    0    0    0 -0.00000000000E+00 -0.00000000000E+00 -0.45593999997E+02  0.45594000000E+02  0.51100000000E-03 0. -1.
    9900012    2    1    2    0    0 -0.59069696291E+01  0.49481255159E+01 -0.17067583387E+02  0.72461584460E+02  0.70000018453E+02 0.  0.
        -12    1    1    2    0    0  0.59069696291E+01 -0.49481255159E+01  0.17067583387E+02  0.18726415540E+02  0.00000000000E+00 0.  1.
         11    1    3    3    0    0 -0.13997640183E+02 -0.82254264926E+01 -0.73539079831E+01  0.17823342407E+02  0.51100000000E-03 0. -1.
        -11    1    3    3    0    0  0.10763983641E+02 -0.11650852244E+02  0.13286252836E+02  0.20691307752E+02  0.51100000000E-03 0.  1.
        -12    1    3    3    0    0 -0.26733130872E+01  0.24824404253E+02 -0.22999928239E+02  0.33946934300E+02  0.00000000000E+00 0.  1.
</event>
<event>
 7    1  0.1789107E-013  0.7246157E+02  0.7816164E-02  0.1226708E+00
        -11   -1    0    0    0    0  0.00000000000E+00  0.00000000000E+00  0.45593999997E+02  0.45594000000E+02  0.51100000000E-03 0. -1.
         11   -1    0    0    0    0 -0.00000000000E+00 -0.00000000000E+00 -0.45593999997E+02  0.45594000000E+02  0.51100000000E-03 0.  1.
    9900012    2    1    2    0    0 -0.13812617433E+01  0.14959298394E+02 -0.11179927838E+02  0.72461567374E+02  0.69999996195E+02 0.  0.
        -12    1    1    2    0    0  0.13812617433E+01 -0.14959298394E+02  0.11179927838E+02  0.18726432626E+02  0.00000000000E+00 0.  1.
         11    1    3    3    0    0  0.16839126499E+02 -0.13638163926E+02  0.80811182221E-01  0.21669384561E+02  0.51100000000E-03 0. -1.
        -11    1    3    3    0    0 -0.46504465283E+01  0.24680421184E+01 -0.19516088258E+02  0.20213747450E+02  0.51100000000E-03 0.  1.
        -12    1    3    3    0    0 -0.13569941714E+02  0.26129420201E+02  0.82553492378E+01  0.30578435363E+02  0.00000000000E+00 0.  1.
</event>
<event>
 7    1  0.1789107E-013  0.7246135E+02  0.7816164E-02  0.1226709E+00
        -11   -1    0    0    0    0  0.00000000000E+00  0.00000000000E+00  0.45593999997E+02  0.45594000000E+02  0.51100000000E-03 0. -1.
         11   -1    0    0    0    0 -0.00000000000E+00 -0.00000000000E+00 -0.45593999997E+02  0.45594000000E+02  0.51100000000E-03 0.  1.
    9900012    2    1    2    0    0 -0.13100680337E+02  0.87925257511E+01  0.10087170495E+02  0.72461352063E+02  0.69999715712E+02 0.  0.
        -12    1    1    2    0    0  0.13100680337E+02 -0.87925257511E+01 -0.10087170495E+02  0.18726647937E+02  0.00000000000E+00 0.  1.
         11    1    3    3    0    0  0.10401188194E+02  0.21523216445E+02  0.50327124141E+01  0.24428707630E+02  0.51100000000E-03 0. -1.
        -11    1    3    3    0    0 -0.14763355054E+02  0.12934490405E+02 -0.27499136011E+01  0.19819680108E+02  0.51100000000E-03 0.  1.
         12    1    3    3    0    0 -0.87385134766E+01 -0.25665181099E+02  0.78043716817E+01  0.28212964325E+02  0.00000000000E+00 0. -1.
</event>
<event>
 7    1  0.1789107E-013  0.7246150E+02  0.7816164E-02  0.1226708E+00
        -11   -1    0    0    0    0  0.00000000000E+00  0.00000000000E+00  0.45593999997E+02  0.45594000000E+02  0.51100000000E-03 0. -1.
         11   -1    0    0    0    0 -0.00000000000E+00 -0.00000000000E+00 -0.45593999997E+02  0.45594000000E+02  0.51100000000E-03 0.  1.
    9900012    2    1    2    0    0 -0.14808745869E+02 -0.91356705793E+01  0.69225889468E+01  0.72461503561E+02  0.69999913068E+02 0.  0.
        -12    1    1    2    0    0  0.14808745869E+02  0.91356705793E+01 -0.69225889468E+01  0.18726496439E+02  0.00000000000E+00 0.  1.
         11    1    3    3    0    0 -0.10304634785E+02  0.66395445147E+01  0.76702842305E+01  0.14460370322E+02  0.51100000000E-03 0. -1.
        -11    1    3    3    0    0  0.50987656373E+01 -0.18341014657E+02  0.24407441468E+02  0.30953407388E+02  0.51100000000E-03 0.  1.
         12    1    3    3    0    0 -0.96028767210E+01  0.25657995634E+01 -0.25155136751E+02  0.27047725851E+02  0.00000000000E+00 0. -1.
</event>
<event>
 7    1  0.1789107E-013  0.7246139E+02  0.7816164E-02  0.1226708E+00
        -11   -1    0    0    0    0  0.00000000000E+00  0.00000000000E+00  0.45593999997E+02  0.45594000000E+02  0.51100000000E-03 0. -1.
         11   -1    0    0    0    0 -0.00000000000E+00 -0.00000000000E+00 -0.45593999997E+02  0.45594000000E+02  0.51100000000E-03 0.  1.
    9900012    2    1    2    0    0  0.57030735674E+01  0.16755305120E+02  0.61172314661E+01  0.72461392763E+02  0.69999768732E+02 0.  0.
        -12    1    1    2    0    0 -0.57030735674E+01 -0.16755305120E+02 -0.61172314661E+01  0.18726607237E+02  0.00000000000E+00 0.  1.
         11    1    3    3    0    0  0.17451812989E+02  0.47726018058E+01  0.41286938647E+01  0.18557737413E+02  0.51100000000E-03 0. -1.
        -11    1    3    3    0    0  0.16340307058E+02 -0.51468469718E+01 -0.88261898099E+01  0.19271670797E+02  0.51100000000E-03 0.  1.
        -12    1    3    3    0    0 -0.28089046479E+02  0.17129550286E+02  0.10814727411E+02  0.34631984553E+02  0.00000000000E+00 0.  1.
</event>
<event>
 7    1  0.1789107E-013  0.7246158E+02  0.7816164E-02  0.1226708E+00
        -11   -1    0    0    0    0  0.00000000000E+00  0.00000000000E+00  0.45593999997E+02  0.45594000000E+02  0.51100000000E-03 0. -1.
         11   -1    0    0    0    0 -0.00000000000E+00 -0.00000000000E+00 -0.45593999997E+02  0.45594000000E+02  0.51100000000E-03 0.  1.
    9900012    2    1    2    0    0  0.13191386157E+02 -0.13288124136E+02 -0.30309937691E+00  0.72461580667E+02  0.70000013512E+02 0.  0.
        -12    1    1    2    0    0 -0.13191386157E+02  0.13288124136E+02  0.30309937691E+00  0.18726419333E+02  0.00000000000E+00 0.  1.
         11    1    3    3    0    0  0.12683206884E+02 -0.22861852302E+02 -0.21235619359E+01  0.26230469746E+02  0.51100000000E-03 0. -1.
        -11    1    3    3    0    0 -0.14342128598E+02 -0.12877649786E+02  0.55803576726E+00  0.19283203077E+02  0.51100000000E-03 0.  1.
         12    1    3    3    0    0  0.14850307871E+02  0.22451377951E+02  0.12624267918E+01  0.26947907844E+02  0.00000000000E+00 0. -1.
</event>
<event>
 7    1  0.1789107E-013  0.7246168E+02  0.7816164E-02  0.1226708E+00
        -11   -1    0    0    0    0  0.00000000000E+00  0.00000000000E+00  0.45593999997E+02  0.45594000000E+02  0.51100000000E-03 0. -1.
         11   -1    0    0    0    0 -0.00000000000E+00 -0.00000000000E+00 -0.45593999997E+02  0.45594000000E+02  0.51100000000E-03 0.  1.
    9900012    2    1    2    0    0  0.25835111903E+01 -0.17163747737E+02 -0.70289740906E+01  0.72461675128E+02  0.70000136566E+02 0.  0.
        -12    1    1    2    0    0 -0.25835111903E+01  0.17163747737E+02  0.70289740906E+01  0.18726324872E+02  0.00000000000E+00 0.  1.
         11    1    3    3    0    0  0.13395374951E+02 -0.16028735990E+02 -0.29943494214E+02  0.36509852006E+02  0.51100000000E-03 0. -1.
        -11    1    3    3    0    0 -0.13417630136E+02 -0.94120529842E+01  0.69929927217E+01  0.17819132619E+02  0.51100000000E-03 0.  1.
        -12    1    3    3    0    0  0.26057663749E+01  0.82770412372E+01  0.15921527402E+02  0.18132690502E+02  0.00000000000E+00 0.  1.
</event>
<event>
 7    1  0.1789107E-013  0.7246159E+02  0.7816164E-02  0.1226708E+00
        -11   -1    0    0    0    0  0.00000000000E+00  0.00000000000E+00  0.45593999997E+02  0.45594000000E+02  0.51100000000E-03 0.  1.
         11   -1    0    0    0    0 -0.00000000000E+00 -0.00000000000E+00 -0.45593999997E+02  0.45594000000E+02  0.51100000000E-03 0. -1.
    9900012    2    1    2    0    0 -0.37337055577E+01 -0.12604755006E+02 -0.13336338344E+02  0.72461592807E+02  0.70000029326E+02 0.  0.
        -12    1    1    2    0    0  0.37337055577E+01  0.12604755006E+02  0.13336338344E+02  0.18726407193E+02  0.00000000000E+00 0.  1.
         11    1    3    3    0    0 -0.12137656211E+02  0.12686375877E+02  0.30670520487E+00  0.17560207844E+02  0.51100000000E-03 0. -1.
        -11    1    3    3    0    0  0.47343174779E+01  0.83065801319E+01  0.98605514916E+01  0.13734755602E+02  0.51100000000E-03 0.  1.
         12    1    3    3    0    0  0.36696331759E+01 -0.33597711014E+02 -0.23503595041E+02  0.41166629360E+02  0.00000000000E+00 0. -1.
</event>
<event>
 7    1  0.1789107E-013  0.7246154E+02  0.7816164E-02  0.1226708E+00
        -11   -1    0    0    0    0  0.00000000000E+00  0.00000000000E+00  0.45593999997E+02  0.45594000000E+02  0.51100000000E-03 0.  1.
         11   -1    0    0    0    0 -0.00000000000E+00 -0.00000000000E+00 -0.45593999997E+02  0.45594000000E+02  0.51100000000E-03 0. -1.
    9900012    2    1    2    0    0 -0.15733761416E+02 -0.56754432078E+01  0.84213108767E+01  0.72461537953E+02  0.69999957870E+02 0.  0.
        -12    1    1    2    0    0  0.15733761416E+02  0.56754432078E+01 -0.84213108767E+01  0.18726462047E+02  0.00000000000E+00 0.  1.
         11    1    3    3    0    0 -0.29730462899E+02 -0.70959033846E+01 -0.13826059010E+01  0.30596795067E+02  0.51100000000E-03 0. -1.
        -11    1    3    3    0    0  0.11936845214E+02 -0.12757693097E-01 -0.13732272024E+02  0.18195156818E+02  0.51100000000E-03 0.  1.
        -12    1    3    3    0    0  0.20598562690E+01  0.14332178699E+01  0.23536188802E+02  0.23669586068E+02  0.00000000000E+00 0.  1.
</event>
<event>
 7    1  0.1789107E-013  0.7246155E+02  0.7816164E-02  0.1226708E+00
        -11   -1    0    0    0    0  0.00000000000E+00  0.00000000000E+00  0.45593999997E+02  0.45594000000E+02  0.51100000000E-03 0.  1.
         11   -1    0    0    0    0 -0.00000000000E+00 -0.00000000000E+00 -0.45593999997E+02  0.45594000000E+02  0.51100000000E-03 0. -1.
    9900012    2    1    2    0    0  0.74935495235E+01  0.12717720802E+02 -0.11523287853E+02  0.72461551597E+02  0.69999975643E+02 0.  0.
        -12    1    1    2    0    0 -0.74935495235E+01 -0.12717720802E+02  0.11523287853E+02  0.18726448403E+02  0.00000000000E+00 0.  1.
         11    1    3    3    0    0  0.19691946567E+02  0.22597185830E+02 -0.78026068835E+01  0.30972346399E+02  0.51100000000E-03 0. -1.
        -11    1    3    3    0    0  0.13913720963E+02 -0.35472292005E+01  0.36671291978E-01  0.14358823458E+02  0.51100000000E-03 0.  1.
         12    1    3    3    0    0 -0.26112118007E+02 -0.63322358276E+01 -0.37573522613E+01  0.27130381741E+02  0.00000000000E+00 0. -1.
</event>
<event>
 7    1  0.1789107E-013  0.7246157E+02  0.7816164E-02  0.1226708E+00
        -11   -1    0    0    0    0  0.00000000000E+00  0.00000000000E+00  0.45593999997E+02  0.45594000000E+02  0.51100000000E-03 0.  1.
         11   -1    0    0    0    0 -0.00000000000E+00 -0.00000000000E+00 -0.45593999997E+02  0.45594000000E+02  0.51100000000E-03 0. -1.
    9900012    2    1    2    0    0 -0.10817730188E+02 -0.14986252678E+02 -0.30113128677E+01  0.72461573194E+02  0.70000003777E+02 0.  0.
        -12    1    1    2    0    0  0.10817730188E+02  0.14986252678E+02  0.30113128677E+01  0.18726426806E+02  0.00000000000E+00 0.  1.
         11    1    3    3    0    0  0.18289521635E+01 -0.67553718238E+01 -0.73674007125E+01  0.10161629201E+02  0.51100000000E-03 0. -1.
        -11    1    3    3    0    0 -0.34887054786E+02 -0.16275549905E+02  0.27556693195E+01  0.38595256574E+02  0.51100000000E-03 0.  1.
         12    1    3    3    0    0  0.22240372435E+02  0.80446690509E+01  0.16004185252E+01  0.23704687419E+02  0.00000000000E+00 0. -1.
</event>
<event>
 7    1  0.1789107E-013  0.7246155E+02  0.7816164E-02  0.1226708E+00
        -11   -1    0    0    0    0  0.00000000000E+00  0.00000000000E+00  0.45593999997E+02  0.45594000000E+02  0.51100000000E-03 0. -1.
         11   -1    0    0    0    0 -0.00000000000E+00 -0.00000000000E+00 -0.45593999997E+02  0.45594000000E+02  0.51100000000E-03 0.  1.
    9900012    2    1    2    0    0 -0.10628019005E+02 -0.26451004369E+01 -0.15189753035E+02  0.72461549681E+02  0.69999973147E+02 0.  0.
        -12    1    1    2    0    0  0.10628019005E+02  0.26451004369E+01  0.15189753035E+02  0.18726450319E+02  0.00000000000E+00 0.  1.
         11    1    3    3    0    0  0.88879281864E+00  0.71284367161E+01  0.59976097361E+01  0.93581988383E+01  0.51100000000E-03 0. -1.
        -11    1    3    3    0    0  0.41643045516E+01  0.17991976628E+02 -0.24899244162E+02  0.31000403473E+02  0.51100000000E-03 0.  1.
         12    1    3    3    0    0 -0.15681116375E+02 -0.27765513781E+02  0.37118813912E+01  0.32102947369E+02  0.00000000000E+00 0. -1.
</event>
<event>
 7    1  0.1789107E-013  0.7246155E+02  0.7816164E-02  0.1226708E+00
        -11   -1    0    0    0    0  0.00000000000E+00  0.00000000000E+00  0.45593999997E+02  0.45594000000E+02  0.51100000000E-03 0. -1.
         11   -1    0    0    0    0 -0.00000000000E+00 -0.00000000000E+00 -0.45593999997E+02  0.45594000000E+02  0.51100000000E-03 0.  1.
    9900012    2    1    2    0    0  0.99614129121E+01 -0.15001616457E+02  0.51382458264E+01  0.72461553095E+02  0.69999977594E+02 0.  0.
        -12    1    1    2    0    0 -0.99614129121E+01  0.15001616457E+02 -0.51382458264E+01  0.18726446905E+02  0.00000000000E+00 0.  1.
         11    1    3    3    0    0  0.21814784531E+02 -0.86152088818E+01  0.89820256470E+01  0.25115402310E+02  0.51100000000E-03 0. -1.
        -11    1    3    3    0    0  0.12418807711E+02 -0.96317315406E+01 -0.13796510706E+02  0.20912693403E+02  0.51100000000E-03 0.  1.
         12    1    3    3    0    0 -0.24272179330E+02  0.32453239655E+01  0.99527308854E+01  0.26433457382E+02  0.00000000000E+00 0. -1.
</event>
<event>
 7    1  0.1789107E-013  0.7246156E+02  0.7816164E-02  0.1226708E+00
        -11   -1    0    0    0    0  0.00000000000E+00  0.00000000000E+00  0.45593999997E+02  0.45594000000E+02  0.51100000000E-03 0.  1.
         11   -1    0    0    0    0 -0.00000000000E+00 -0.00000000000E+00 -0.45593999997E+02  0.45594000000E+02  0.51100000000E-03 0. -1.
    9900012    2    1    2    0    0 -0.13160044803E+02  0.94968277661E+01 -0.93435995186E+01  0.72461564974E+02  0.69999993069E+02 0.  0.
        -12    1    1    2    0    0  0.13160044803E+02 -0.94968277661E+01  0.93435995186E+01  0.18726435026E+02  0.00000000000E+00 0.  1.
         11    1    3    3    0    0 -0.31786429630E+02 -0.59989365663E+01 -0.63171566550E+01  0.32958622802E+02  0.51100000000E-03 0. -1.
        -11    1    3    3    0    0  0.75955459417E+00 -0.64736142109E+01 -0.84489936920E+01  0.10670993337E+02  0.51100000000E-03 0.  1.
        -12    1    3    3    0    0  0.17866830233E+02  0.21969378543E+02  0.54225508283E+01  0.28831948835E+02  0.00000000000E+00 0.  1.
</event>
<event>
 7    1  0.2234632E-013  0.7246157E+02  0.7816164E-02  0.1226708E+00
        -11   -1    0    0    0    0  0.00000000000E+00  0.00000000000E+00  0.45593999997E+02  0.45594000000E+02  0.51100000000E-03 0. -1.
         11   -1    0    0    0    0 -0.00000000000E+00 -0.00000000000E+00 -0.45593999997E+02  0.45594000000E+02  0.51100000000E-03 0.  1.
    9900012    2    1    2    0    0 -0.11959424975E+02  0.34020959512E+00  0.14406089574E+02  0.72461574684E+02  0.70000005718E+02 0.  0.
        -12    1    1    2    0    0  0.11959424975E+02 -0.34020959512E+00 -0.14406089574E+02  0.18726425316E+02  0.00000000000E+00 0.  1.
         11    1    3    3    0    0  0.21394514992E+02  0.76274056072E+01  0.15095472915E+02  0.27272254964E+02  0.51100000000E-03 0. -1.
        -11    1    3    3    0    0 -0.17955565457E+02  0.95028403120E+01 -0.71041810178E+01  0.21521516979E+02  0.51100000000E-03 0.  1.
        -12    1    3    3    0    0 -0.15398374510E+02 -0.16790036324E+02  0.64147976769E+01  0.23667802740E+02  0.00000000000E+00 0.  1.
</event>
<event>
 7    1  0.1922236E-013  0.7246157E+02  0.7816164E-02  0.1226708E+00
        -11   -1    0    0    0    0  0.00000000000E+00  0.00000000000E+00  0.45593999997E+02  0.45594000000E+02  0.51100000000E-03 0. -1.
         11   -1    0    0    0    0 -0.00000000000E+00 -0.00000000000E+00 -0.45593999997E+02  0.45594000000E+02  0.51100000000E-03 0.  1.
    9900012    2    1    2    0    0 -0.12682209811E+02 -0.40906604646E+01  0.13157016056E+02  0.72461574281E+02  0.70000005193E+02 0.  0.
        -12    1    1    2    0    0  0.12682209811E+02  0.40906604646E+01 -0.13157016056E+02  0.18726425719E+02  0.00000000000E+00 0.  1.
         11    1    3    3    0    0  0.32186289756E+01  0.75933668255E+01  0.22794986507E+02  0.24241085007E+02  0.51100000000E-03 0. -1.
        -11    1    3    3    0    0  0.48840652536E+01  0.10770674831E+02  0.66392956316E+01  0.13562513648E+02  0.51100000000E-03 0.  1.
        -12    1    3    3    0    0 -0.20784904040E+02 -0.22454702121E+02 -0.16277266083E+02  0.34657975625E+02  0.00000000000E+00 0.  1.
</event>
<event>
 7    1  0.1789107E-013  0.7246162E+02  0.7816164E-02  0.1226708E+00
        -11   -1    0    0    0    0  0.00000000000E+00  0.00000000000E+00  0.45593999997E+02  0.45594000000E+02  0.51100000000E-03 0.  1.
         11   -1    0    0    0    0 -0.00000000000E+00 -0.00000000000E+00 -0.45593999997E+02  0.45594000000E+02  0.51100000000E-03 0. -1.
    9900012    2    1    2    0    0  0.58900151153E+01 -0.48053142532E+01 -0.17114144742E+02  0.72461620921E+02  0.70000065951E+02 0.  0.
        -12    1    1    2    0    0 -0.58900151153E+01  0.48053142532E+01  0.17114144742E+02  0.18726379079E+02  0.00000000000E+00 0.  1.
         11    1    3    3    0    0  0.70542816027E+01 -0.41571443894E+01 -0.56680986440E+01  0.99585180074E+01  0.51100000000E-03 0. -1.
        -11    1    3    3    0    0  0.10991398835E+02 -0.26351943056E+02  0.59565203535E+01  0.29167034237E+02  0.51100000000E-03 0.  1.
         12    1    3    3    0    0 -0.12155665323E+02  0.25703773192E+02 -0.17402566452E+02  0.33336068677E+02  0.00000000000E+00 0. -1.
</event>
<event>
 7    1  0.1789107E-013  0.7246160E+02  0.7816164E-02  0.1226708E+00
        -11   -1    0    0    0    0  0.00000000000E+00  0.00000000000E+00  0.45593999997E+02  0.45594000000E+02  0.51100000000E-03 0.  1.
         11   -1    0    0    0    0 -0.00000000000E+00 -0.00000000000E+00 -0.45593999997E+02  0.45594000000E+02  0.51100000000E-03 0. -1.
    9900012    2    1    2    0    0 -0.27659422009E+01 -0.16086952887E+02 -0.91780994600E+01  0.72461601543E+02  0.70000040708E+02 0.  0.
        -12    1    1    2    0    0  0.27659422009E+01  0.16086952887E+02  0.91780994600E+01  0.18726398457E+02  0.00000000000E+00 0.  1.
         11    1    3    3    0    0 -0.13246357039E+02 -0.22699619842E+02 -0.17437356063E+02  0.31540451843E+02  0.51100000000E-03 0. -1.
        -11    1    3    3    0    0 -0.87955892120E+01  0.15087215901E+02  0.94012551061E+01  0.19833559213E+02  0.51100000000E-03 0.  1.
         12    1    3    3    0    0  0.19276004050E+02 -0.84745489465E+01 -0.11419985034E+01  0.21087590487E+02  0.00000000000E+00 0. -1.
</event>
<event>
 7    1  0.1789107E-013  0.7246150E+02  0.7816164E-02  0.1226708E+00
        -11   -1    0    0    0    0  0.00000000000E+00  0.00000000000E+00  0.45593999997E+02  0.45594000000E+02  0.51100000000E-03 0.  1.
         11   -1    0    0    0    0 -0.00000000000E+00 -0.00000000000E+00 -0.45593999997E+02  0.45594000000E+02  0.51100000000E-03 0. -1.
    9900012    2    1    2    0    0  0.29424255991E+01  0.17868070454E+01 -0.18407373854E+02  0.72461495787E+02  0.69999902941E+02 0.  0.
        -12    1    1    2    0    0 -0.29424255991E+01 -0.17868070454E+01  0.18407373854E+02  0.18726504213E+02  0.00000000000E+00 0.  1.
         11    1    3    3    0    0  0.15201104067E+02  0.21599383917E+01 -0.28647468327E+02  0.32502558984E+02  0.51100000000E-03 0. -1.
        -11    1    3    3    0    0  0.12515272081E+02 -0.35092718525E+01  0.76532456018E-01  0.12998187630E+02  0.51100000000E-03 0.  1.
         12    1    3    3    0    0 -0.24773950549E+02  0.31361405061E+01  0.10163562017E+02  0.26960749173E+02  0.00000000000E+00 0. -1.
</event>
<event>
 7    1  0.1789107E-013  0.7246157E+02  0.7816164E-02  0.1226708E+00
        -11   -1    0    0    0    0  0.00000000000E+00  0.00000000000E+00  0.45593999997E+02  0.45594000000E+02  0.51100000000E-03 0. -1.
         11   -1    0    0    0    0 -0.00000000000E+00 -0.00000000000E+00 -0.45593999997E+02  0.45594000000E+02  0.51100000000E-03 0.  1.
    9900012    2    1    2    0    0 -0.45021460527E+01 -0.17151489308E+02 -0.60196570541E+01  0.72461570132E+02  0.69999999788E+02 0.  0.
        -12    1    1    2    0    0  0.45021460527E+01  0.17151489308E+02  0.60196570541E+01  0.18726429868E+02  0.00000000000E+00 0.  1.
         11    1    3    3    0    0 -0.11134612824E+02 -0.25152821629E+01 -0.82950811588E+01  0.14110797950E+02  0.51100000000E-03 0. -1.
        -11    1    3    3    0    0 -0.17740240761E+02 -0.11505798756E+02 -0.16990912233E+02  0.27125461214E+02  0.51100000000E-03 0.  1.
         12    1    3    3    0    0  0.24372707532E+02 -0.31304083888E+01  0.19266336338E+02  0.31225310968E+02  0.00000000000E+00 0. -1.
</event>
<event>
 7    1  0.1789107E-013  0.7246158E+02  0.7816164E-02  0.1226708E+00
        -11   -1    0    0    0    0  0.00000000000E+00  0.00000000000E+00  0.45593999997E+02  0.45594000000E+02  0.51100000000E-03 0. -1.
         11   -1    0    0    0    0 -0.00000000000E+00 -0.00000000000E+00 -0.45593999997E+02  0.45594000000E+02  0.51100000000E-03 0.  1.
    9900012    2    1    2    0    0 -0.14546649077E+02  0.58295955377E+01  0.10251331176E+02  0.72461575505E+02  0.70000006788E+02 0.  0.
        -12    1    1    2    0    0  0.14546649077E+02 -0.58295955377E+01 -0.10251331176E+02  0.18726424495E+02  0.00000000000E+00 0.  1.
         11    1    3    3    0    0  0.58501869138E+01  0.35183967117E+01 -0.80821829006E+01  0.10579484063E+02  0.51100000000E-03 0. -1.
        -11    1    3    3    0    0  0.52091191771E+01 -0.22683884210E+02  0.60265846940E+01  0.24041906098E+02  0.51100000000E-03 0.  1.
         12    1    3    3    0    0 -0.25605955168E+02  0.24995083036E+02  0.12306929383E+02  0.37840185344E+02  0.00000000000E+00 0. -1.
</event>
<event>
 7    1  0.1789107E-013  0.7246157E+02  0.7816164E-02  0.1226708E+00
        -11   -1    0    0    0    0  0.00000000000E+00  0.00000000000E+00  0.45593999997E+02  0.45594000000E+02  0.51100000000E-03 0.  1.
         11   -1    0    0    0    0 -0.00000000000E+00 -0.00000000000E+00 -0.45593999997E+02  0.45594000000E+02  0.51100000000E-03 0. -1.
    9900012    2    1    2    0    0 -0.11962680142E+02  0.26150809469E-01 -0.14407382895E+02  0.72461572633E+02  0.70000003046E+02 0.  0.
        -12    1    1    2    0    0  0.11962680142E+02 -0.26150809469E-01  0.14407382895E+02  0.18726427367E+02  0.00000000000E+00 0.  1.
         11    1    3    3    0    0 -0.15007369757E+02 -0.34872154556E+01  0.93813106560E+01  0.18038592200E+02  0.51100000000E-03 0. -1.
        -11    1    3    3    0    0 -0.96197847144E+01  0.21590483540E+02 -0.25188256194E+01  0.23770437947E+02  0.51100000000E-03 0.  1.
         12    1    3    3    0    0  0.12664474329E+02 -0.18077117275E+02 -0.21269867932E+02  0.30652542486E+02  0.00000000000E+00 0. -1.
</event>
<event>
 7    1  0.1789107E-013  0.7246146E+02  0.7816164E-02  0.1226708E+00
        -11   -1    0    0    0    0  0.00000000000E+00  0.00000000000E+00  0.45593999997E+02  0.45594000000E+02  0.51100000000E-03 0.  1.
         11   -1    0    0    0    0 -0.00000000000E+00 -0.00000000000E+00 -0.45593999997E+02  0.45594000000E+02  0.51100000000E-03 0. -1.
    9900012    2    1    2    0    0 -0.95007442983E+01 -0.11751351750E+02 -0.11060057905E+02  0.72461460249E+02  0.69999856646E+02 0.  0.
        -12    1    1    2    0    0  0.95007442983E+01  0.11751351750E+02  0.11060057905E+02  0.18726539751E+02  0.00000000000E+00 0.  1.
         11    1    3    3    0    0  0.17184350481E+01  0.94043328521E+01 -0.19974725297E+02  0.22144618903E+02  0.51100000000E-03 0. -1.
        -11    1    3    3    0    0  0.13959327451E+02 -0.92468005662E+01 -0.71010890029E+01  0.18187677391E+02  0.51100000000E-03 0.  1.
        -12    1    3    3    0    0 -0.25178506798E+02 -0.11908884036E+02  0.16015756395E+02  0.32129163955E+02  0.00000000000E+00 0.  1.
</event>
<event>
 7    1  0.1789107E-013  0.7246158E+02  0.7816164E-02  0.1226708E+00
        -11   -1    0    0    0    0  0.00000000000E+00  0.00000000000E+00  0.45593999997E+02  0.45594000000E+02  0.51100000000E-03 0. -1.
         11   -1    0    0    0    0 -0.00000000000E+00 -0.00000000000E+00 -0.45593999997E+02  0.45594000000E+02  0.51100000000E-03 0.  1.
    9900012    2    1    2    0    0 -0.15448307537E+00  0.15219464522E+01  0.18663830211E+02  0.72461581651E+02  0.70000014794E+02 0.  0.
        -12    1    1    2    0    0  0.15448307537E+00 -0.15219464522E+01 -0.18663830211E+02  0.18726418349E+02  0.00000000000E+00 0.  1.
         11    1    3    3    0    0  0.65988285425E+01  0.14491334998E+02  0.53604082146E+01  0.16801110220E+02  0.51100000000E-03 0. -1.
        -11    1    3    3    0    0  0.15853646762E+02  0.14937085765E+01 -0.11080667815E+02  0.19399754649E+02  0.51100000000E-03 0.  1.
         12    1    3    3    0    0 -0.22606958379E+02 -0.14463097122E+02  0.24384089812E+02  0.36260716781E+02  0.00000000000E+00 0. -1.
</event>
<event>
 7    1  0.1789107E-013  0.7246156E+02  0.7816164E-02  0.1226708E+00
        -11   -1    0    0    0    0  0.00000000000E+00  0.00000000000E+00  0.45593999997E+02  0.45594000000E+02  0.51100000000E-03 0. -1.
         11   -1    0    0    0    0 -0.00000000000E+00 -0.00000000000E+00 -0.45593999997E+02  0.45594000000E+02  0.51100000000E-03 0.  1.
    9900012    2    1    2    0    0  0.51238925337E+01  0.13459816295E+02  0.11969068517E+02  0.72461560655E+02  0.69999987443E+02 0.  0.
        -12    1    1    2    0    0 -0.51238925337E+01 -0.13459816295E+02 -0.11969068517E+02  0.18726439345E+02  0.00000000000E+00 0.  1.
         11    1    3    3    0    0  0.34895072952E+01  0.54877849325E+01  0.91394227595E+01  0.11217018020E+02  0.51100000000E-03 0. -1.
        -11    1    3    3    0    0  0.52066580859E+01  0.33181696025E+02 -0.63425810071E+01  0.34181319074E+02  0.51100000000E-03 0.  1.
         12    1    3    3    0    0 -0.35722728474E+01 -0.25209664662E+02  0.91722267641E+01  0.27063223561E+02  0.00000000000E+00 0. -1.
</event>
<event>
 7    1  0.1789107E-013  0.7246154E+02  0.7816164E-02  0.1226708E+00
        -11   -1    0    0    0    0  0.00000000000E+00  0.00000000000E+00  0.45593999997E+02  0.45594000000E+02  0.51100000000E-03 0.  1.
         11   -1    0    0    0    0 -0.00000000000E+00 -0.00000000000E+00 -0.45593999997E+02  0.45594000000E+02  0.51100000000E-03 0. -1.
    9900012    2    1    2    0    0  0.26286618047E+01 -0.18288920939E+02  0.30472713730E+01  0.72461538646E+02  0.69999958773E+02 0.  0.
        -12    1    1    2    0    0 -0.26286618047E+01  0.18288920939E+02 -0.30472713730E+01  0.18726461354E+02  0.00000000000E+00 0.  1.
         11    1    3    3    0    0  0.63094626165E+01 -0.28273858751E+01 -0.25778672469E+02  0.26689761781E+02  0.51100000000E-03 0. -1.
        -11    1    3    3    0    0 -0.78103706875E+01 -0.91614160472E+01 -0.35338467723E+01  0.12546772794E+02  0.51100000000E-03 0.  1.
        -12    1    3    3    0    0  0.41295698758E+01 -0.63001190169E+01  0.32359790614E+02  0.33225004072E+02  0.00000000000E+00 0.  1.
</event>
<event>
 7    1  0.1789107E-013  0.7246155E+02  0.7816164E-02  0.1226708E+00
        -11   -1    0    0    0    0  0.00000000000E+00  0.00000000000E+00  0.45593999997E+02  0.45594000000E+02  0.51100000000E-03 0.  1.
         11   -1    0    0    0    0 -0.00000000000E+00 -0.00000000000E+00 -0.45593999997E+02  0.45594000000E+02  0.51100000000E-03 0. -1.
    9900012    2    1    2    0    0 -0.66091365360E+00  0.72778270299E+01 -0.17241708987E+02  0.72461545399E+02  0.69999967569E+02 0.  0.
        -12    1    1    2    0    0  0.66091365360E+00 -0.72778270299E+01  0.17241708987E+02  0.18726454601E+02  0.00000000000E+00 0.  1.
         11    1    3    3    0    0 -0.21681754199E+01  0.14708299142E+02  0.11314247996E+02  0.18682806434E+02  0.51100000000E-03 0. -1.
        -11    1    3    3    0    0 -0.39584569185E+01  0.84385435552E+01  0.88042736494E+01  0.12821608061E+02  0.51100000000E-03 0.  1.
        -12    1    3    3    0    0  0.54657186847E+01 -0.15869015667E+02 -0.37360230632E+02  0.40957130904E+02  0.00000000000E+00 0.  1.
</event>
<event>
 7    1  0.1789107E-013  0.7246157E+02  0.7816164E-02  0.1226708E+00
        -11   -1    0    0    0    0  0.00000000000E+00  0.00000000000E+00  0.45593999997E+02  0.45594000000E+02  0.51100000000E-03 0. -1.
         11   -1    0    0    0    0 -0.00000000000E+00 -0.00000000000E+00 -0.45593999997E+02  0.45594000000E+02  0.51100000000E-03 0.  1.
    9900012    2    1    2    0    0  0.14696906082E+02  0.86363966177E+01  0.77519480069E+01  0.72461572342E+02  0.70000002668E+02 0.  0.
        -12    1    1    2    0    0 -0.14696906082E+02 -0.86363966177E+01 -0.77519480069E+01  0.18726427658E+02  0.00000000000E+00 0.  1.
         11    1    3    3    0    0  0.48549417015E+01 -0.83451241993E+01 -0.18425399422E+01  0.98288611002E+01  0.51100000000E-03 0.  1.
        -11    1    3    3    0    0 -0.21060674627E+02  0.21887205871E+02  0.20324176548E+01  0.30442281754E+02  0.51100000000E-03 0. -1.
         12    1    3    3    0    0  0.30902639008E+02 -0.49056850545E+01  0.75620702943E+01  0.32190429488E+02  0.00000000000E+00 0. -1.
</event>
<event>
 7    1  0.1789107E-013  0.7246154E+02  0.7816164E-02  0.1226708E+00
        -11   -1    0    0    0    0  0.00000000000E+00  0.00000000000E+00  0.45593999997E+02  0.45594000000E+02  0.51100000000E-03 0.  1.
         11   -1    0    0    0    0 -0.00000000000E+00 -0.00000000000E+00 -0.45593999997E+02  0.45594000000E+02  0.51100000000E-03 0. -1.
    9900012    2    1    2    0    0  0.43400816123E+01 -0.15303627698E+02 -0.98814507629E+01  0.72461537486E+02  0.69999957261E+02 0.  0.
        -12    1    1    2    0    0 -0.43400816123E+01  0.15303627698E+02  0.98814507629E+01  0.18726462514E+02  0.00000000000E+00 0.  1.
         11    1    3    3    0    0 -0.94648197104E+01  0.21378504546E+02 -0.12269487474E+02  0.26403855626E+02  0.51100000000E-03 0. -1.
        -11    1    3    3    0    0 -0.52340042067E+01 -0.24270550026E+01 -0.29930908989E+01  0.64995376306E+01  0.51100000000E-03 0.  1.
        -12    1    3    3    0    0  0.19038905529E+02 -0.34255077241E+02  0.53811276099E+01  0.39558144230E+02  0.00000000000E+00 0.  1.
</event>
<event>
 7    1  0.1789107E-013  0.7246157E+02  0.7816164E-02  0.1226708E+00
        -11   -1    0    0    0    0  0.00000000000E+00  0.00000000000E+00  0.45593999997E+02  0.45594000000E+02  0.51100000000E-03 0.  1.
         11   -1    0    0    0    0 -0.00000000000E+00 -0.00000000000E+00 -0.45593999997E+02  0.45594000000E+02  0.51100000000E-03 0. -1.
    9900012    2    1    2    0    0 -0.44267201073E+01 -0.11678480386E+02 -0.13953365477E+02  0.72461570464E+02  0.70000000221E+02 0.  0.
        -12    1    1    2    0    0  0.44267201073E+01  0.11678480386E+02  0.13953365477E+02  0.18726429536E+02  0.00000000000E+00 0.  1.
         11    1    3    3    0    0  0.17431171973E+01  0.73997330758E+00 -0.12393963225E-01  0.18937190739E+01  0.51100000000E-03 0. -1.
        -11    1    3    3    0    0  0.10789688498E+02  0.25338831470E+02 -0.84891045767E+01  0.28819067558E+02  0.51100000000E-03 0.  1.
         12    1    3    3    0    0 -0.16959525803E+02 -0.37757285163E+02 -0.54518669370E+01  0.41748783832E+02  0.00000000000E+00 0. -1.
</event>
<event>
 7    1  0.1789107E-013  0.7246157E+02  0.7816164E-02  0.1226708E+00
        -11   -1    0    0    0    0  0.00000000000E+00  0.00000000000E+00  0.45593999997E+02  0.45594000000E+02  0.51100000000E-03 0.  1.
         11   -1    0    0    0    0 -0.00000000000E+00 -0.00000000000E+00 -0.45593999997E+02  0.45594000000E+02  0.51100000000E-03 0. -1.
    9900012    2    1    2    0    0  0.81516474216E+01 -0.11565444048E+02 -0.12266634238E+02  0.72461570355E+02  0.70000000079E+02 0.  0.
        -12    1    1    2    0    0 -0.81516474216E+01  0.11565444048E+02  0.12266634238E+02  0.18726429645E+02  0.00000000000E+00 0.  1.
         11    1    3    3    0    0  0.64104368375E+01 -0.15977072820E+02  0.22921463775E+02  0.28666252949E+02  0.51100000000E-03 0. -1.
        -11    1    3    3    0    0 -0.46657425655E+01 -0.38965369600E+01  0.96114997782E+00  0.61543450918E+01  0.51100000000E-03 0.  1.
        -12    1    3    3    0    0  0.64069531496E+01  0.83081657314E+01 -0.36149247990E+02  0.37640972314E+02  0.00000000000E+00 0.  1.
</event>
<event>
 7    1  0.1789107E-013  0.7246152E+02  0.7816164E-02  0.1226708E+00
        -11   -1    0    0    0    0  0.00000000000E+00  0.00000000000E+00  0.45593999997E+02  0.45594000000E+02  0.51100000000E-03 0.  1.
         11   -1    0    0    0    0 -0.00000000000E+00 -0.00000000000E+00 -0.45593999997E+02  0.45594000000E+02  0.51100000000E-03 0. -1.
    9900012    2    1    2    0    0 -0.47873266740E+01  0.47159717850E+01 -0.17479188779E+02  0.72461523372E+02  0.69999938874E+02 0.  0.
        -12    1    1    2    0    0  0.47873266740E+01 -0.47159717850E+01  0.17479188779E+02  0.18726476628E+02  0.00000000000E+00 0.  1.
         11    1    3    3    0    0 -0.18000727067E+01 -0.67003578239E+01 -0.83059357239E+01  0.10822366896E+02  0.51100000000E-03 0. -1.
        -11    1    3    3    0    0  0.10352527797E+02  0.16048830118E+01 -0.31867711851E+02  0.33545514456E+02  0.51100000000E-03 0.  1.
        -12    1    3    3    0    0 -0.13339781764E+02  0.98114465971E+01  0.22694458796E+02  0.28093642019E+02  0.00000000000E+00 0.  1.
</event>
<event>
 7    1  0.1789107E-013  0.7246150E+02  0.7816164E-02  0.1226708E+00
        -11   -1    0    0    0    0  0.00000000000E+00  0.00000000000E+00  0.45593999997E+02  0.45594000000E+02  0.51100000000E-03 0. -1.
         11   -1    0    0    0    0 -0.00000000000E+00 -0.00000000000E+00 -0.45593999997E+02  0.45594000000E+02  0.51100000000E-03 0.  1.
    9900012    2    1    2    0    0 -0.13690016201E+02  0.12738187005E+02  0.10019906243E+01  0.72461496403E+02  0.69999903743E+02 0.  0.
        -12    1    1    2    0    0  0.13690016201E+02 -0.12738187005E+02 -0.10019906243E+01  0.18726503597E+02  0.00000000000E+00 0.  1.
         11    1    3    3    0    0 -0.29593275736E+01 -0.23112374288E+01  0.96222638146E+01  0.10328959256E+02  0.51100000000E-03 0. -1.
        -11    1    3    3    0    0 -0.88694316332E+01 -0.21365933840E+02 -0.10951850346E+02  0.25595174792E+02  0.51100000000E-03 0.  1.
        -12    1    3    3    0    0 -0.18612569939E+01  0.36415358274E+02  0.23315771557E+01  0.36537362355E+02  0.00000000000E+00 0.  1.
</event>
<event>
 7    1  0.1789107E-013  0.7246162E+02  0.7816164E-02  0.1226708E+00
        -11   -1    0    0    0    0  0.00000000000E+00  0.00000000000E+00  0.45593999997E+02  0.45594000000E+02  0.51100000000E-03 0.  1.
         11   -1    0    0    0    0 -0.00000000000E+00 -0.00000000000E+00 -0.45593999997E+02  0.45594000000E+02  0.51100000000E-03 0. -1.
    9900012    2    1    2    0    0 -0.13348447825E+01  0.16603374607E+02 -0.85570685015E+01  0.72461620738E+02  0.70000065712E+02 0.  0.
        -12    1    1    2    0    0  0.13348447825E+01 -0.16603374607E+02  0.85570685015E+01  0.18726379262E+02  0.00000000000E+00 0.  1.
         11    1    3    3    0    0 -0.55130300114E+01 -0.46497067517E+01  0.16860046828E+02  0.18337787546E+02  0.51100000000E-03 0. -1.
        -11    1    3    3    0    0  0.84272618016E+01  0.19446177926E+02  0.62702906365E+01  0.22101790025E+02  0.51100000000E-03 0.  1.
         12    1    3    3    0    0 -0.42490765727E+01  0.18069034334E+01 -0.31687405966E+02  0.32022043167E+02  0.00000000000E+00 0. -1.
</event>
<event>
 7    1  0.1789107E-013  0.7246162E+02  0.7816164E-02  0.1226708E+00
        -11   -1    0    0    0    0  0.00000000000E+00  0.00000000000E+00  0.45593999997E+02  0.45594000000E+02  0.51100000000E-03 0.  1.
         11   -1    0    0    0    0 -0.00000000000E+00 -0.00000000000E+00 -0.45593999997E+02  0.45594000000E+02  0.51100000000E-03 0. -1.
    9900012    2    1    2    0    0  0.32054175451E+00  0.96898257718E+01 -0.16021289195E+02  0.72461623470E+02  0.70000069270E+02 0.  0.
        -12    1    1    2    0    0 -0.32054175451E+00 -0.96898257718E+01  0.16021289195E+02  0.18726376530E+02  0.00000000000E+00 0.  1.
         11    1    3    3    0    0  0.13529854627E+02 -0.84157990048E+00 -0.17369181085E+00  0.13557115920E+02  0.51100000000E-03 0. -1.
        -11    1    3    3    0    0  0.29541349892E+01 -0.33475282096E-01  0.18912029009E+02  0.19141391684E+02  0.51100000000E-03 0.  1.
         12    1    3    3    0    0 -0.16163447862E+02  0.10564880954E+02 -0.34759626392E+02  0.39763115865E+02  0.00000000000E+00 0. -1.
</event>
<event>
 7    1  0.1789107E-013  0.7246184E+02  0.7816164E-02  0.1226707E+00
        -11   -1    0    0    0    0  0.00000000000E+00  0.00000000000E+00  0.45593999997E+02  0.45594000000E+02  0.51100000000E-03 0. -1.
         11   -1    0    0    0    0 -0.00000000000E+00 -0.00000000000E+00 -0.45593999997E+02  0.45594000000E+02  0.51100000000E-03 0.  1.
    9900012    2    1    2    0    0 -0.74482037783E+01  0.10509840860E+02 -0.13591783683E+02  0.72461839739E+02  0.70000351001E+02 0.  0.
        -12    1    1    2    0    0  0.74482037783E+01 -0.10509840860E+02  0.13591783683E+02  0.18726160261E+02  0.00000000000E+00 0.  1.
         11    1    3    3    0    0  0.17218412836E+02  0.96419630255E+01 -0.17708063702E+02  0.26514462316E+02  0.51100000000E-03 0. -1.
        -11    1    3    3    0    0  0.27488844941E+01  0.13719466547E+02  0.67874592475E+01  0.15551518627E+02  0.51100000000E-03 0.  1.
        -12    1    3    3    0    0 -0.27415501109E+02 -0.12851588713E+02 -0.26711792278E+01  0.30395858796E+02  0.00000000000E+00 0.  1.
</event>
<event>
 7    1  0.1789107E-013  0.7246151E+02  0.7816164E-02  0.1226708E+00
        -11   -1    0    0    0    0  0.00000000000E+00  0.00000000000E+00  0.45593999997E+02  0.45594000000E+02  0.51100000000E-03 0. -1.
         11   -1    0    0    0    0 -0.00000000000E+00 -0.00000000000E+00 -0.45593999997E+02  0.45594000000E+02  0.51100000000E-03 0.  1.
    9900012    2    1    2    0    0 -0.12584488122E+01 -0.83732086278E+01  0.16702907531E+02  0.72461509775E+02  0.69999921163E+02 0.  0.
        -12    1    1    2    0    0  0.12584488122E+01  0.83732086278E+01 -0.16702907531E+02  0.18726490225E+02  0.00000000000E+00 0.  1.
         11    1    3    3    0    0  0.17620149758E+01 -0.13589295493E+02 -0.11023393911E+01  0.13747319781E+02  0.51100000000E-03 0. -1.
        -11    1    3    3    0    0 -0.11963242334E+02  0.79597061719E+01 -0.17239367032E+02  0.22442634992E+02  0.51100000000E-03 0.  1.
         12    1    3    3    0    0  0.89427785457E+01 -0.27436193066E+01  0.35044613954E+02  0.36271555002E+02  0.00000000000E+00 0. -1.
</event>
<event>
 7    1  0.1789107E-013  0.7246159E+02  0.7816164E-02  0.1226708E+00
        -11   -1    0    0    0    0  0.00000000000E+00  0.00000000000E+00  0.45593999997E+02  0.45594000000E+02  0.51100000000E-03 0. -1.
         11   -1    0    0    0    0 -0.00000000000E+00 -0.00000000000E+00 -0.45593999997E+02  0.45594000000E+02  0.51100000000E-03 0.  1.
    9900012    2    1    2    0    0 -0.26570215688E+01 -0.15245912807E+02 -0.10544233574E+02  0.72461588635E+02  0.70000023892E+02 0.  0.
        -12    1    1    2    0    0  0.26570215688E+01  0.15245912807E+02  0.10544233574E+02  0.18726411365E+02  0.00000000000E+00 0.  1.
         11    1    3    3    0    0 -0.22277515918E+01  0.14999604743E+02  0.50299758923E+01  0.15976597802E+02  0.51100000000E-03 0. -1.
        -11    1    3    3    0    0 -0.14487684937E+02 -0.24851555953E+01 -0.20245703288E+02  0.25019142972E+02  0.51100000000E-03 0.  1.
         12    1    3    3    0    0  0.14058414960E+02 -0.27760361955E+02  0.46714938214E+01  0.31465847861E+02  0.00000000000E+00 0. -1.
</event>
<event>
 7    1  0.1789107E-013  0.7246143E+02  0.7816164E-02  0.1226708E+00
        -11   -1    0    0    0    0  0.00000000000E+00  0.00000000000E+00  0.45593999997E+02  0.45594000000E+02  0.51100000000E-03 0. -1.
         11   -1    0    0    0    0 -0.00000000000E+00 -0.00000000000E+00 -0.45593999997E+02  0.45594000000E+02  0.51100000000E-03 0.  1.
    9900012    2    1    2    0    0  0.12904053457E+02  0.12386788527E+02  0.55441125912E+01  0.72461433042E+02  0.69999821203E+02 0.  0.
        -12    1    1    2    0    0 -0.12904053457E+02 -0.12386788527E+02 -0.55441125912E+01  0.18726566958E+02  0.00000000000E+00 0.  1.
         11    1    3    3    0    0 -0.13396340488E+02  0.69413440246E-01  0.58494078744E+01  0.14617877050E+02  0.51100000000E-03 0. -1.
        -11    1    3    3    0    0 -0.40012246334E+01  0.79656406990E+01  0.19460112161E+02  0.21404606884E+02  0.51100000000E-03 0.  1.
        -12    1    3    3    0    0  0.30301618578E+02  0.43517343875E+01 -0.19765407444E+02  0.36438949108E+02  0.00000000000E+00 0.  1.
</event>
<event>
 7    1  0.1789107E-013  0.7246152E+02  0.7816164E-02  0.1226708E+00
        -11   -1    0    0    0    0  0.00000000000E+00  0.00000000000E+00  0.45593999997E+02  0.45594000000E+02  0.51100000000E-03 0. -1.
         11   -1    0    0    0    0 -0.00000000000E+00 -0.00000000000E+00 -0.45593999997E+02  0.45594000000E+02  0.51100000000E-03 0.  1.
    9900012    2    1    2    0    0 -0.13495481249E+02 -0.57283105808E+01  0.11650722135E+02  0.72461524557E+02  0.69999940419E+02 0.  0.
        -12    1    1    2    0    0  0.13495481249E+02  0.57283105808E+01 -0.11650722135E+02  0.18726475443E+02  0.00000000000E+00 0.  1.
         11    1    3    3    0    0 -0.30851696004E+01  0.12840349801E+02 -0.15750102935E+02  0.20553797634E+02  0.51100000000E-03 0. -1.
        -11    1    3    3    0    0 -0.15007730669E+01 -0.51198134782E+01 -0.99120710565E+01  0.11256729664E+02  0.51100000000E-03 0.  1.
         12    1    3    3    0    0 -0.89095385813E+01 -0.13448846903E+02  0.37312896126E+02  0.40650997258E+02  0.00000000000E+00 0. -1.
</event>
<event>
 7    1  0.1789107E-013  0.7246153E+02  0.7816164E-02  0.1226708E+00
        -11   -1    0    0    0    0  0.00000000000E+00  0.00000000000E+00  0.45593999997E+02  0.45594000000E+02  0.51100000000E-03 0. -1.
         11   -1    0    0    0    0 -0.00000000000E+00 -0.00000000000E+00 -0.45593999997E+02  0.45594000000E+02  0.51100000000E-03 0.  1.
    9900012    2    1    2    0    0 -0.11850239031E+02 -0.11306926959E+02  0.90777707779E+01  0.72461529840E+02  0.69999947301E+02 0.  0.
        -12    1    1    2    0    0  0.11850239031E+02  0.11306926959E+02 -0.90777707779E+01  0.18726470160E+02  0.00000000000E+00 0.  1.
         11    1    3    3    0    0 -0.12821427343E+02  0.31239629263E+01 -0.19061642521E+01  0.13333476887E+02  0.51100000000E-03 0. -1.
        -11    1    3    3    0    0 -0.47659649565E+00 -0.30144988441E+02 -0.10977311951E+02  0.32085025327E+02  0.51100000000E-03 0.  1.
         12    1    3    3    0    0  0.14477848078E+01  0.15714098555E+02  0.21961246981E+02  0.27043027627E+02  0.00000000000E+00 0. -1.
</event>
<event>
 7    1  0.1789107E-013  0.7246156E+02  0.7816164E-02  0.1226708E+00
        -11   -1    0    0    0    0  0.00000000000E+00  0.00000000000E+00  0.45593999997E+02  0.45594000000E+02  0.51100000000E-03 0.  1.
         11   -1    0    0    0    0 -0.00000000000E+00 -0.00000000000E+00 -0.45593999997E+02  0.45594000000E+02  0.51100000000E-03 0. -1.
    9900012    2    1    2    0    0 -0.65609718374E+01 -0.17044890795E+02 -0.41358067819E+01  0.72461560098E+02  0.69999986718E+02 0.  0.
        -12    1    1    2    0    0  0.65609718374E+01  0.17044890795E+02  0.41358067819E+01  0.18726439902E+02  0.00000000000E+00 0.  1.
         11    1    3    3    0    0  0.18037754467E+02 -0.34985751176E+00 -0.11991965108E+02  0.21663107208E+02  0.51100000000E-03 0. -1.
        -11    1    3    3    0    0  0.95507791264E+01 -0.17013429484E+00 -0.49488164032E+01  0.10758118407E+02  0.51100000000E-03 0.  1.
        -12    1    3    3    0    0 -0.34149505431E+02 -0.16524898988E+02  0.12804974729E+02  0.40040334484E+02  0.00000000000E+00 0.  1.
</event>
<event>
 7    1  0.1789107E-013  0.7246155E+02  0.7816164E-02  0.1226708E+00
        -11   -1    0    0    0    0  0.00000000000E+00  0.00000000000E+00  0.45593999997E+02  0.45594000000E+02  0.51100000000E-03 0. -1.
         11   -1    0    0    0    0 -0.00000000000E+00 -0.00000000000E+00 -0.45593999997E+02  0.45594000000E+02  0.51100000000E-03 0.  1.
    9900012    2    1    2    0    0  0.42266362890E+01 -0.61516304974E+01 -0.17174771225E+02  0.72461554029E+02  0.69999978811E+02 0.  0.
        -12    1    1    2    0    0 -0.42266362890E+01  0.61516304974E+01  0.17174771225E+02  0.18726445971E+02  0.00000000000E+00 0.  1.
         11    1    3    3    0    0  0.88708969387E+01  0.85132176669E+01 -0.12992501779E+02  0.17887783269E+02  0.51100000000E-03 0. -1.
        -11    1    3    3    0    0 -0.34001333988E+01 -0.19411993809E+02 -0.25766230060E+02  0.32438942994E+02  0.51100000000E-03 0.  1.
         12    1    3    3    0    0 -0.12441272509E+01  0.47471456444E+01  0.21583960615E+02  0.22134827766E+02  0.00000000000E+00 0. -1.
</event>
<event>
 7    1  0.1789107E-013  0.7246157E+02  0.7816164E-02  0.1226708E+00
        -11   -1    0    0    0    0  0.00000000000E+00  0.00000000000E+00  0.45593999997E+02  0.45594000000E+02  0.51100000000E-03 0.  1.
         11   -1    0    0    0    0 -0.00000000000E+00 -0.00000000000E+00 -0.45593999997E+02  0.45594000000E+02  0.51100000000E-03 0. -1.
    9900012    2    1    2    0    0 -0.53684140562E+01 -0.14977452180E+02  0.98759899451E+01  0.72461571599E+02  0.70000001699E+02 0.  0.
        -12    1    1    2    0    0  0.53684140562E+01  0.14977452180E+02 -0.98759899451E+01  0.18726428401E+02  0.00000000000E+00 0.  1.
         11    1    3    3    0    0 -0.98809543585E+01  0.94039670538E+01 -0.13851540645E+02  0.19440499836E+02  0.51100000000E-03 0. -1.
        -11    1    3    3    0    0 -0.25254660450E+01  0.11019319304E+02  0.62689032486E+01  0.12926814181E+02  0.51100000000E-03 0.  1.
        -12    1    3    3    0    0  0.70380063473E+01 -0.35400738538E+02  0.17458627342E+02  0.40094257581E+02  0.00000000000E+00 0.  1.
</event>
<event>
 7    1  0.1789107E-013  0.7246156E+02  0.7816164E-02  0.1226708E+00
        -11   -1    0    0    0    0  0.00000000000E+00  0.00000000000E+00  0.45593999997E+02  0.45594000000E+02  0.51100000000E-03 0. -1.
         11   -1    0    0    0    0 -0.00000000000E+00 -0.00000000000E+00 -0.45593999997E+02  0.45594000000E+02  0.51100000000E-03 0.  1.
    9900012    2    1    2    0    0  0.14085000616E+02 -0.87428471998E+01 -0.87094698230E+01  0.72461561895E+02  0.69999989059E+02 0.  0.
        -12    1    1    2    0    0 -0.14085000616E+02  0.87428471998E+01  0.87094698230E+01  0.18726438105E+02  0.00000000000E+00 0.  1.
         11    1    3    3    0    0  0.17052683329E+02 -0.61016910055E+01  0.20352639407E+02  0.27244349376E+02  0.51100000000E-03 0. -1.
        -11    1    3    3    0    0  0.13226389076E+01 -0.17928218198E+02 -0.10610918083E+02  0.20874912317E+02  0.51100000000E-03 0.  1.
         12    1    3    3    0    0 -0.42903216206E+01  0.15287062004E+02 -0.18451191148E+02  0.24342300201E+02  0.00000000000E+00 0. -1.
</event>
<event>
 7    1  0.2664247E-013  0.7246159E+02  0.7816164E-02  0.1226708E+00
        -11   -1    0    0    0    0  0.00000000000E+00  0.00000000000E+00  0.45593999997E+02  0.45594000000E+02  0.51100000000E-03 0. -1.
         11   -1    0    0    0    0 -0.00000000000E+00 -0.00000000000E+00 -0.45593999997E+02  0.45594000000E+02  0.51100000000E-03 0.  1.
    9900012    2    1    2    0    0 -0.57013753372E+01  0.66859417813E+01  0.16536958881E+02  0.72461587976E+02  0.70000023034E+02 0.  0.
        -12    1    1    2    0    0  0.57013753372E+01 -0.66859417813E+01 -0.16536958881E+02  0.18726412024E+02  0.00000000000E+00 0.  1.
         11    1    3    3    0    0 -0.51995167793E+01 -0.13740642929E+02  0.26769778609E+02  0.30536229137E+02  0.51100000000E-03 0. -1.
        -11    1    3    3    0    0  0.12378857203E+02 -0.38727312547E+01 -0.51601867356E+01  0.13959286531E+02  0.51100000000E-03 0.  1.
        -12    1    3    3    0    0 -0.12880715761E+02  0.24299315965E+02 -0.50726329924E+01  0.27966072309E+02  0.00000000000E+00 0.  1.
</event>
<event>
 7    1  0.1789107E-013  0.7246158E+02  0.7816164E-02  0.1226708E+00
        -11   -1    0    0    0    0  0.00000000000E+00  0.00000000000E+00  0.45593999997E+02  0.45594000000E+02  0.51100000000E-03 0. -1.
         11   -1    0    0    0    0 -0.00000000000E+00 -0.00000000000E+00 -0.45593999997E+02  0.45594000000E+02  0.51100000000E-03 0.  1.
    9900012    2    1    2    0    0  0.15868600906E+02  0.83661197283E+01 -0.53734833022E+01  0.72461580779E+02  0.70000013659E+02 0.  0.
        -12    1    1    2    0    0 -0.15868600906E+02 -0.83661197283E+01  0.53734833022E+01  0.18726419221E+02  0.00000000000E+00 0.  1.
         11    1    3    3    0    0  0.14774896489E+02 -0.79114632049E+01 -0.88821945536E+01  0.18967925471E+02  0.51100000000E-03 0. -1.
        -11    1    3    3    0    0  0.41761520054E-01  0.25793461270E+02 -0.16978400661E+02  0.30879936489E+02  0.51100000000E-03 0.  1.
         12    1    3    3    0    0  0.10519428967E+01 -0.95158783364E+01  0.20487111912E+02  0.22613718820E+02  0.00000000000E+00 0. -1.
</event>
<event>
 7    1  0.1789107E-013  0.7246154E+02  0.7816164E-02  0.1226708E+00
        -11   -1    0    0    0    0  0.00000000000E+00  0.00000000000E+00  0.45593999997E+02  0.45594000000E+02  0.51100000000E-03 0.  1.
         11   -1    0    0    0    0 -0.00000000000E+00 -0.00000000000E+00 -0.45593999997E+02  0.45594000000E+02  0.51100000000E-03 0. -1.
    9900012    2    1    2    0    0  0.64330077559E+01 -0.17585528524E+02 -0.21439006431E+00  0.72461538366E+02  0.69999958407E+02 0.  0.
        -12    1    1    2    0    0 -0.64330077559E+01  0.17585528524E+02  0.21439006431E+00  0.18726461634E+02  0.00000000000E+00 0.  1.
         11    1    3    3    0    0 -0.12044001855E+02 -0.98121170985E+01 -0.25893249100E+02  0.30195959529E+02  0.51100000000E-03 0. -1.
        -11    1    3    3    0    0 -0.12746688938E+01  0.47147792297E+01 -0.26383962444E+01  0.55511313241E+01  0.51100000000E-03 0.  1.
        -12    1    3    3    0    0  0.19751678504E+02 -0.12488190655E+02  0.28317255280E+02  0.36714447513E+02  0.00000000000E+00 0.  1.
</event>
<event>
 7    1  0.1789107E-013  0.7246161E+02  0.7816164E-02  0.1226708E+00
        -11   -1    0    0    0    0  0.00000000000E+00  0.00000000000E+00  0.45593999997E+02  0.45594000000E+02  0.51100000000E-03 0. -1.
         11   -1    0    0    0    0 -0.00000000000E+00 -0.00000000000E+00 -0.45593999997E+02  0.45594000000E+02  0.51100000000E-03 0.  1.
    9900012    2    1    2    0    0  0.26304238595E+01 -0.14275545758E+02  0.11830775806E+02  0.72461612400E+02  0.70000054851E+02 0.  0.
        -12    1    1    2    0    0 -0.26304238595E+01  0.14275545758E+02 -0.11830775806E+02  0.18726387600E+02  0.00000000000E+00 0.  1.
         11    1    3    3    0    0  0.13409727097E+02 -0.13216114993E+02  0.11934909316E+02  0.22291893975E+02  0.51100000000E-03 0. -1.
        -11    1    3    3    0    0  0.18926159794E+02 -0.38669737049E+01 -0.49491063209E+01  0.19941079806E+02  0.51100000000E-03 0.  1.
        -12    1    3    3    0    0 -0.29705463031E+02  0.28075429398E+01  0.48449728101E+01  0.30228638620E+02  0.00000000000E+00 0.  1.
</event>
<event>
 7    1  0.1789107E-013  0.7246191E+02  0.7816164E-02  0.1226707E+00
        -11   -1    0    0    0    0  0.00000000000E+00  0.00000000000E+00  0.45593999997E+02  0.45594000000E+02  0.51100000000E-03 0. -1.
         11   -1    0    0    0    0 -0.00000000000E+00 -0.00000000000E+00 -0.45593999997E+02  0.45594000000E+02  0.51100000000E-03 0.  1.
    9900012    2    1    2    0    0 -0.10594026481E+02  0.15320157148E+02 -0.19302330240E+01  0.72461910935E+02  0.70000443747E+02 0.  0.
        -12    1    1    2    0    0  0.10594026481E+02 -0.15320157148E+02  0.19302330240E+01  0.18726089065E+02  0.00000000000E+00 0.  1.
         11    1    3    3    0    0  0.37113580962E+01  0.19281150853E+02  0.19072032761E+02  0.27372968254E+02  0.51100000000E-03 0. -1.
        -11    1    3    3    0    0  0.10797662868E+02  0.64521207733E+01 -0.48966998251E+01  0.13498038943E+02  0.51100000000E-03 0.  1.
         12    1    3    3    0    0 -0.25103047445E+02 -0.10413114478E+02 -0.16105565960E+02  0.31590903738E+02  0.00000000000E+00 0. -1.
</event>
<event>
 7    1  0.1789107E-013  0.7246160E+02  0.7816164E-02  0.1226708E+00
        -11   -1    0    0    0    0  0.00000000000E+00  0.00000000000E+00  0.45593999997E+02  0.45594000000E+02  0.51100000000E-03 0. -1.
         11   -1    0    0    0    0 -0.00000000000E+00 -0.00000000000E+00 -0.45593999997E+02  0.45594000000E+02  0.51100000000E-03 0.  1.
    9900012    2    1    2    0    0  0.13048492043E+02 -0.36400870656E+01  0.12929213638E+02  0.72461603023E+02  0.70000042635E+02 0.  0.
        -12    1    1    2    0    0 -0.13048492043E+02  0.36400870656E+01 -0.12929213638E+02  0.18726396977E+02  0.00000000000E+00 0.  1.
         11    1    3    3    0    0 -0.48223812873E+01 -0.16992608311E+01 -0.91289254659E+01  0.10463275256E+02  0.51100000000E-03 0. -1.
        -11    1    3    3    0    0 -0.28532434388E+01 -0.16158871718E+02 -0.11525345597E+02  0.20052025452E+02  0.51100000000E-03 0.  1.
         12    1    3    3    0    0  0.20724116769E+02  0.14218045484E+02  0.33583484701E+02  0.41946302315E+02  0.00000000000E+00 0. -1.
</event>
<event>
 7    1  0.1789107E-013  0.7246148E+02  0.7816164E-02  0.1226708E+00
        -11   -1    0    0    0    0  0.00000000000E+00  0.00000000000E+00  0.45593999997E+02  0.45594000000E+02  0.51100000000E-03 0. -1.
         11   -1    0    0    0    0 -0.00000000000E+00 -0.00000000000E+00 -0.45593999997E+02  0.45594000000E+02  0.51100000000E-03 0.  1.
    9900012    2    1    2    0    0 -0.17843255470E+02 -0.55382757503E+01  0.12759917915E+01  0.72461483530E+02  0.69999886973E+02 0.  0.
        -12    1    1    2    0    0  0.17843255470E+02  0.55382757503E+01 -0.12759917915E+01  0.18726516470E+02  0.00000000000E+00 0.  1.
         11    1    3    3    0    0  0.17599105256E+02  0.21876916960E+01 -0.65806654310E+01  0.18916121657E+02  0.51100000000E-03 0. -1.
        -11    1    3    3    0    0 -0.34366246173E+01 -0.11074567602E+02 -0.11220229852E+02  0.16135364716E+02  0.51100000000E-03 0.  1.
        -12    1    3    3    0    0 -0.32005736108E+02  0.33486001562E+01  0.19076887074E+02  0.37409997157E+02  0.00000000000E+00 0.  1.
</event>
<event>
 7    1  0.1789107E-013  0.7246161E+02  0.7816164E-02  0.1226708E+00
        -11   -1    0    0    0    0  0.00000000000E+00  0.00000000000E+00  0.45593999997E+02  0.45594000000E+02  0.51100000000E-03 0.  1.
         11   -1    0    0    0    0 -0.00000000000E+00 -0.00000000000E+00 -0.45593999997E+02  0.45594000000E+02  0.51100000000E-03 0. -1.
    9900012    2    1    2    0    0 -0.57704858599E+01 -0.29263964621E+01 -0.17573143854E+02  0.72461609845E+02  0.70000051523E+02 0.  0.
        -12    1    1    2    0    0  0.57704858599E+01  0.29263964621E+01  0.17573143854E+02  0.18726390155E+02  0.00000000000E+00 0.  1.
         11    1    3    3    0    0 -0.59219756798E+01 -0.12976908797E+01 -0.45308879838E+01  0.75685364341E+01  0.51100000000E-03 0. -1.
        -11    1    3    3    0    0 -0.18752066600E+02  0.21027059047E+02  0.72383388047E+01  0.29089014470E+02  0.51100000000E-03 0.  1.
         12    1    3    3    0    0  0.18903556420E+02 -0.22655764629E+02 -0.20280594675E+02  0.35804058941E+02  0.00000000000E+00 0. -1.
</event>
<event>
 7    1  0.1789107E-013  0.7246155E+02  0.7816164E-02  0.1226708E+00
        -11   -1    0    0    0    0  0.00000000000E+00  0.00000000000E+00  0.45593999997E+02  0.45594000000E+02  0.51100000000E-03 0.  1.
         11   -1    0    0    0    0 -0.00000000000E+00 -0.00000000000E+00 -0.45593999997E+02  0.45594000000E+02  0.51100000000E-03 0. -1.
    9900012    2    1    2    0    0 -0.12900579023E+02 -0.10485279782E+02  0.86205611916E+01  0.72461545277E+02  0.69999967411E+02 0.  0.
        -12    1    1    2    0    0  0.12900579023E+02  0.10485279782E+02 -0.86205611916E+01  0.18726454723E+02  0.00000000000E+00 0.  1.
         11    1    3    3    0    0 -0.25785941156E+02 -0.21932759241E+02  0.24063746347E+01  0.33937462020E+02  0.51100000000E-03 0. -1.
        -11    1    3    3    0    0  0.50906061128E+01 -0.11245750586E+02 -0.31942338920E+01  0.12750855158E+02  0.51100000000E-03 0.  1.
        -12    1    3    3    0    0  0.77947560206E+01  0.22693230045E+02  0.94084204489E+01  0.25773228099E+02  0.00000000000E+00 0.  1.
</event>
<event>
 7    1  0.1789107E-013  0.7246157E+02  0.7816164E-02  0.1226708E+00
        -11   -1    0    0    0    0  0.00000000000E+00  0.00000000000E+00  0.45593999997E+02  0.45594000000E+02  0.51100000000E-03 0.  1.
         11   -1    0    0    0    0 -0.00000000000E+00 -0.00000000000E+00 -0.45593999997E+02  0.45594000000E+02  0.51100000000E-03 0. -1.
    9900012    2    1    2    0    0 -0.11930333657E+02 -0.62284861700E+01 -0.13021231323E+02  0.72461565041E+02  0.69999993156E+02 0.  0.
        -12    1    1    2    0    0  0.11930333657E+02  0.62284861700E+01  0.13021231323E+02  0.18726434959E+02  0.00000000000E+00 0.  1.
         11    1    3    3    0    0  0.68098593173E+01 -0.21980673202E+01  0.18210132849E+02  0.19565649044E+02  0.51100000000E-03 0. -1.
        -11    1    3    3    0    0  0.11373706241E+02 -0.20629559904E+01 -0.13961652741E+02  0.18125802840E+02  0.51100000000E-03 0.  1.
         12    1    3    3    0    0 -0.30113899215E+02 -0.19674628594E+01 -0.17269711430E+02  0.34770113157E+02  0.00000000000E+00 0. -1.
</event>
<event>
 7    1  0.1789107E-013  0.7246151E+02  0.7816164E-02  0.1226708E+00
        -11   -1    0    0    0    0  0.00000000000E+00  0.00000000000E+00  0.45593999997E+02  0.45594000000E+02  0.51100000000E-03 0. -1.
         11   -1    0    0    0    0 -0.00000000000E+00 -0.00000000000E+00 -0.45593999997E+02  0.45594000000E+02  0.51100000000E-03 0.  1.
    9900012    2    1    2    0    0 -0.17089644743E+02  0.72810841665E+01 -0.23688017503E+01  0.72461511653E+02  0.69999923609E+02 0.  0.
        -12    1    1    2    0    0  0.17089644743E+02 -0.72810841665E+01  0.23688017503E+01  0.18726488347E+02  0.00000000000E+00 0.  1.
         11    1    3    3    0    0 -0.18978860470E+02 -0.13714602342E+02  0.19429096855E+01  0.23496007330E+02  0.51100000000E-03 0. -1.
        -11    1    3    3    0    0 -0.15523618819E+02  0.47714887900E+01 -0.15693647083E+02  0.22584074157E+02  0.51100000000E-03 0.  1.
        -12    1    3    3    0    0  0.17412834546E+02  0.16224197719E+02  0.11381935647E+02  0.26381430166E+02  0.00000000000E+00 0.  1.
</event>
<event>
 7    1  0.2070922E-013  0.7246159E+02  0.7816164E-02  0.1226708E+00
        -11   -1    0    0    0    0  0.00000000000E+00  0.00000000000E+00  0.45593999997E+02  0.45594000000E+02  0.51100000000E-03 0. -1.
         11   -1    0    0    0    0 -0.00000000000E+00 -0.00000000000E+00 -0.45593999997E+02  0.45594000000E+02  0.51100000000E-03 0.  1.
    9900012    2    1    2    0    0 -0.57203089398E+01  0.10294675805E+02  0.14559402426E+02  0.72461588617E+02  0.70000023868E+02 0.  0.
        -12    1    1    2    0    0  0.57203089398E+01 -0.10294675805E+02 -0.14559402426E+02  0.18726411383E+02  0.00000000000E+00 0.  1.
         11    1    3    3    0    0  0.15932163828E+02  0.25463224063E+02  0.19699812328E+02  0.35920637939E+02  0.51100000000E-03 0. -1.
        -11    1    3    3    0    0 -0.42152561262E+01  0.35833704464E+01 -0.90804531247E+01  0.10633134871E+02  0.51100000000E-03 0.  1.
        -12    1    3    3    0    0 -0.17437216641E+02 -0.18751918704E+02  0.39400432223E+01  0.25907815807E+02  0.00000000000E+00 0.  1.
</event>
<event>
 7    1  0.1789107E-013  0.7246158E+02  0.7816164E-02  0.1226708E+00
        -11   -1    0    0    0    0  0.00000000000E+00  0.00000000000E+00  0.45593999997E+02  0.45594000000E+02  0.51100000000E-03 0.  1.
         11   -1    0    0    0    0 -0.00000000000E+00 -0.00000000000E+00 -0.45593999997E+02  0.45594000000E+02  0.51100000000E-03 0. -1.
    9900012    2    1    2    0    0 -0.58873415731E+01 -0.45642113697E+01 -0.17180980106E+02  0.72461577660E+02  0.70000009596E+02 0.  0.
        -12    1    1    2    0    0  0.58873415731E+01  0.45642113697E+01  0.17180980106E+02  0.18726422340E+02  0.00000000000E+00 0.  1.
         11    1    3    3    0    0  0.66413535635E+01  0.31516491705E+01 -0.77109700126E+01  0.10653615745E+02  0.51100000000E-03 0. -1.
        -11    1    3    3    0    0 -0.10035039465E+02  0.25529066673E+02 -0.11877250438E+01  0.27456255267E+02  0.51100000000E-03 0.  1.
         12    1    3    3    0    0 -0.24936556717E+01 -0.33244927213E+02 -0.82822850500E+01  0.34351706648E+02  0.00000000000E+00 0. -1.
</event>
<event>
 7    1  0.1789107E-013  0.7246157E+02  0.7816164E-02  0.1226708E+00
        -11   -1    0    0    0    0  0.00000000000E+00  0.00000000000E+00  0.45593999997E+02  0.45594000000E+02  0.51100000000E-03 0.  1.
         11   -1    0    0    0    0 -0.00000000000E+00 -0.00000000000E+00 -0.45593999997E+02  0.45594000000E+02  0.51100000000E-03 0. -1.
    9900012    2    1    2    0    0 -0.38001269298E+01  0.15801746333E+02  0.93028405099E+01  0.72461574996E+02  0.70000006125E+02 0.  0.
        -12    1    1    2    0    0  0.38001269298E+01 -0.15801746333E+02 -0.93028405099E+01  0.18726425004E+02  0.00000000000E+00 0.  1.
         11    1    3    3    0    0  0.10418326274E+02  0.19560223213E+02  0.95377469202E+01  0.24127007089E+02  0.51100000000E-03 0. -1.
        -11    1    3    3    0    0  0.12262383797E+02 -0.65837900392E+01  0.12597867165E+02  0.18772815586E+02  0.51100000000E-03 0.  1.
         12    1    3    3    0    0 -0.26480837000E+02  0.28253131595E+01 -0.12832773575E+02  0.29561752322E+02  0.00000000000E+00 0. -1.
</event>
<event>
 7    1  0.1789107E-013  0.7246153E+02  0.7816164E-02  0.1226708E+00
        -11   -1    0    0    0    0  0.00000000000E+00  0.00000000000E+00  0.45593999997E+02  0.45594000000E+02  0.51100000000E-03 0.  1.
         11   -1    0    0    0    0 -0.00000000000E+00 -0.00000000000E+00 -0.45593999997E+02  0.45594000000E+02  0.51100000000E-03 0. -1.
    9900012    2    1    2    0    0 -0.81597322664E+01  0.14105798752E+02 -0.92263650862E+01  0.72461532052E+02  0.69999950182E+02 0.  0.
        -12    1    1    2    0    0  0.81597322664E+01 -0.14105798752E+02  0.92263650862E+01  0.18726467948E+02  0.00000000000E+00 0.  1.
         11    1    3    3    0    0  0.15422446559E+02  0.89168416029E+01  0.13506530832E+02  0.22355945460E+02  0.51100000000E-03 0. -1.
        -11    1    3    3    0    0 -0.44075074439E+01  0.10759917957E+02  0.75271053887E+01  0.13851327449E+02  0.51100000000E-03 0.  1.
         12    1    3    3    0    0 -0.19174671381E+02 -0.55709608076E+01 -0.30260001307E+02  0.36254259143E+02  0.00000000000E+00 0. -1.
</event>
<event>
 7    1  0.1789107E-013  0.7246162E+02  0.7816164E-02  0.1226708E+00
        -11   -1    0    0    0    0  0.00000000000E+00  0.00000000000E+00  0.45593999997E+02  0.45594000000E+02  0.51100000000E-03 0.  1.
         11   -1    0    0    0    0 -0.00000000000E+00 -0.00000000000E+00 -0.45593999997E+02  0.45594000000E+02  0.51100000000E-03 0. -1.
    9900012    2    1    2    0    0 -0.13548293731E+02 -0.38519207254E+01 -0.12340329036E+02  0.72461620825E+02  0.70000065825E+02 0.  0.
        -12    1    1    2    0    0  0.13548293731E+02  0.38519207254E+01  0.12340329036E+02  0.18726379175E+02  0.00000000000E+00 0.  1.
         11    1    3    3    0    0 -0.96285675244E+01 -0.65798339915E+01 -0.15245509665E+02  0.19194506848E+02  0.51100000000E-03 0. -1.
        -11    1    3    3    0    0 -0.23258489107E+02 -0.25061399613E+01  0.16873698171E+02  0.28843712370E+02  0.51100000000E-03 0.  1.
        -12    1    3    3    0    0  0.19338762901E+02  0.52340532275E+01 -0.13968517542E+02  0.24423401607E+02  0.00000000000E+00 0.  1.
</event>
<event>
 7    1  0.1789107E-013  0.7246155E+02  0.7816164E-02  0.1226708E+00
        -11   -1    0    0    0    0  0.00000000000E+00  0.00000000000E+00  0.45593999997E+02  0.45594000000E+02  0.51100000000E-03 0.  1.
         11   -1    0    0    0    0 -0.00000000000E+00 -0.00000000000E+00 -0.45593999997E+02  0.45594000000E+02  0.51100000000E-03 0. -1.
    9900012    2    1    2    0    0  0.47538522334E+01 -0.59373324304E+01 -0.17112245021E+02  0.72461549266E+02  0.69999972607E+02 0.  0.
        -12    1    1    2    0    0 -0.47538522334E+01  0.59373324304E+01  0.17112245021E+02  0.18726450734E+02  0.00000000000E+00 0.  1.
         11    1    3    3    0    0 -0.52397269419E+01 -0.77314131607E+01  0.43832047407E+01  0.10317071869E+02  0.51100000000E-03 0. -1.
        -11    1    3    3    0    0  0.27466501083E+01  0.14370368509E+02  0.16153651705E+02  0.21794312138E+02  0.51100000000E-03 0.  1.
         12    1    3    3    0    0  0.72469290670E+01 -0.12576287779E+02 -0.37649101466E+02  0.40350165259E+02  0.00000000000E+00 0. -1.
</event>
<event>
 7    1  0.1789107E-013  0.7246152E+02  0.7816164E-02  0.1226708E+00
        -11   -1    0    0    0    0  0.00000000000E+00  0.00000000000E+00  0.45593999997E+02  0.45594000000E+02  0.51100000000E-03 0. -1.
         11   -1    0    0    0    0 -0.00000000000E+00 -0.00000000000E+00 -0.45593999997E+02  0.45594000000E+02  0.51100000000E-03 0.  1.
    9900012    2    1    2    0    0 -0.42319904538E+01  0.24043186851E+01  0.18082884719E+02  0.72461515779E+02  0.69999928983E+02 0.  0.
        -12    1    1    2    0    0  0.42319904538E+01 -0.24043186851E+01 -0.18082884719E+02  0.18726484221E+02  0.00000000000E+00 0.  1.
         11    1    3    3    0    0 -0.20873876177E+02  0.82969338316E-01  0.13797141191E+02  0.25021724478E+02  0.51100000000E-03 0. -1.
        -11    1    3    3    0    0 -0.94951888647E+01  0.13443731455E+02 -0.55662944454E+01  0.17374583768E+02  0.51100000000E-03 0.  1.
        -12    1    3    3    0    0  0.26137074588E+02 -0.11122382108E+02  0.98520379735E+01  0.30065207533E+02  0.00000000000E+00 0.  1.
</event>
<event>
 7    1  0.1789107E-013  0.7246159E+02  0.7816164E-02  0.1226708E+00
        -11   -1    0    0    0    0  0.00000000000E+00  0.00000000000E+00  0.45593999997E+02  0.45594000000E+02  0.51100000000E-03 0. -1.
         11   -1    0    0    0    0 -0.00000000000E+00 -0.00000000000E+00 -0.45593999997E+02  0.45594000000E+02  0.51100000000E-03 0.  1.
    9900012    2    1    2    0    0 -0.16182587368E+02 -0.94229693871E+01 -0.10008131371E+00  0.72461588111E+02  0.70000023209E+02 0.  0.
        -12    1    1    2    0    0  0.16182587368E+02  0.94229693871E+01  0.10008131371E+00  0.18726411889E+02  0.00000000000E+00 0.  1.
         11    1    3    3    0    0 -0.11274430975E+02  0.77088089454E+01  0.12037110043E+01  0.13710851527E+02  0.51100000000E-03 0. -1.
        -11    1    3    3    0    0 -0.23529864226E+02 -0.64573456423E+01  0.17651184191E+02  0.30115048180E+02  0.51100000000E-03 0.  1.
         12    1    3    3    0    0  0.18621707833E+02 -0.10674432690E+02 -0.18954976509E+02  0.28635688404E+02  0.00000000000E+00 0. -1.
</event>
<event>
 7    1  0.1789107E-013  0.7246156E+02  0.7816164E-02  0.1226708E+00
        -11   -1    0    0    0    0  0.00000000000E+00  0.00000000000E+00  0.45593999997E+02  0.45594000000E+02  0.51100000000E-03 0. -1.
         11   -1    0    0    0    0 -0.00000000000E+00 -0.00000000000E+00 -0.45593999997E+02  0.45594000000E+02  0.51100000000E-03 0.  1.
    9900012    2    1    2    0    0  0.14827301107E+02 -0.10092480919E+02 -0.53826126039E+01  0.72461560198E+02  0.69999986848E+02 0.  0.
        -12    1    1    2    0    0 -0.14827301107E+02  0.10092480919E+02  0.53826126039E+01  0.18726439802E+02  0.00000000000E+00 0.  1.
         11    1    3    3    0    0  0.31871835123E+02  0.17712709606E+01  0.33930239237E+01  0.32100839343E+02  0.51100000000E-03 0. -1.
        -11    1    3    3    0    0  0.80533861464E+00 -0.38364593099E+01  0.11518100388E+02  0.12166907049E+02  0.51100000000E-03 0.  1.
        -12    1    3    3    0    0 -0.17849872631E+02 -0.80272925694E+01 -0.20293736916E+02  0.28193813806E+02  0.00000000000E+00 0.  1.
</event>
<event>
 7    1  0.1789107E-013  0.7246157E+02  0.7816164E-02  0.1226708E+00
        -11   -1    0    0    0    0  0.00000000000E+00  0.00000000000E+00  0.45593999997E+02  0.45594000000E+02  0.51100000000E-03 0. -1.
         11   -1    0    0    0    0 -0.00000000000E+00 -0.00000000000E+00 -0.45593999997E+02  0.45594000000E+02  0.51100000000E-03 0.  1.
    9900012    2    1    2    0    0 -0.43191521001E+01 -0.11996302145E+02  0.13715418179E+02  0.72461573863E+02  0.70000004649E+02 0.  0.
        -12    1    1    2    0    0  0.43191521001E+01  0.11996302145E+02 -0.13715418179E+02  0.18726426137E+02  0.00000000000E+00 0.  1.
         11    1    3    3    0    0  0.17909035596E+02 -0.12068016579E+02 -0.50828926462E+01  0.22185724646E+02  0.51100000000E-03 0. -1.
        -11    1    3    3    0    0  0.96287364280E+01  0.93775962874E+01  0.54927375689E+01  0.14519712242E+02  0.51100000000E-03 0.  1.
         12    1    3    3    0    0 -0.31856924124E+02 -0.93058818536E+01  0.13305573256E+02  0.35756136976E+02  0.00000000000E+00 0. -1.
</event>
<event>
 7    1  0.1789107E-013  0.7246081E+02  0.7816164E-02  0.1226710E+00
        -11   -1    0    0    0    0  0.00000000000E+00  0.00000000000E+00  0.45593999997E+02  0.45594000000E+02  0.51100000000E-03 0. -1.
         11   -1    0    0    0    0 -0.00000000000E+00 -0.00000000000E+00 -0.45593999997E+02  0.45594000000E+02  0.51100000000E-03 0.  1.
    9900012    2    1    2    0    0 -0.69681755485E+01  0.16518077969E+02  0.54134437455E+01  0.72460807379E+02  0.69999006155E+02 0.  0.
        -12    1    1    2    0    0  0.69681755485E+01 -0.16518077969E+02 -0.54134437455E+01  0.18727192621E+02  0.00000000000E+00 0.  1.
         11    1    3    3    0    0 -0.19431010430E+02 -0.64691251684E+01  0.11095167343E+02  0.23291983286E+02  0.51100000000E-03 0. -1.
        -11    1    3    3    0    0 -0.14474611807E+02  0.91962725353E+01 -0.77852150757E+01  0.18833358424E+02  0.51100000000E-03 0.  1.
        -12    1    3    3    0    0  0.26937446688E+02  0.13790930602E+02  0.21034914779E+01  0.30335465669E+02  0.00000000000E+00 0.  1.
</event>
<event>
 7    1  0.1789107E-013  0.7246168E+02  0.7816164E-02  0.1226708E+00
        -11   -1    0    0    0    0  0.00000000000E+00  0.00000000000E+00  0.45593999997E+02  0.45594000000E+02  0.51100000000E-03 0.  1.
         11   -1    0    0    0    0 -0.00000000000E+00 -0.00000000000E+00 -0.45593999997E+02  0.45594000000E+02  0.51100000000E-03 0. -1.
    9900012    2    1    2    0    0  0.33336100589E+01 -0.17499864876E+02 -0.57720810012E+01  0.72461677729E+02  0.70000139954E+02 0.  0.
        -12    1    1    2    0    0 -0.33336100589E+01  0.17499864876E+02  0.57720810012E+01  0.18726322271E+02  0.00000000000E+00 0.  1.
         11    1    3    3    0    0 -0.86030241364E+00  0.48301269325E+01 -0.44003170709E+01  0.65903745730E+01  0.51100000000E-03 0. -1.
        -11    1    3    3    0    0 -0.25703213270E+02  0.24192725533E+01  0.56538056954E+01  0.26428650575E+02  0.51100000000E-03 0.  1.
         12    1    3    3    0    0  0.29897125743E+02 -0.24749264362E+02 -0.70255696257E+01  0.39442652582E+02  0.00000000000E+00 0. -1.
</event>
<event>
 7    1  0.1789107E-013  0.7246173E+02  0.7816164E-02  0.1226708E+00
        -11   -1    0    0    0    0  0.00000000000E+00  0.00000000000E+00  0.45593999997E+02  0.45594000000E+02  0.51100000000E-03 0. -1.
         11   -1    0    0    0    0 -0.00000000000E+00 -0.00000000000E+00 -0.45593999997E+02  0.45594000000E+02  0.51100000000E-03 0.  1.
    9900012    2    1    2    0    0 -0.46838709641E+01  0.11170514966E+02  0.14281253902E+02  0.72461727952E+02  0.70000205377E+02 0.  0.
        -12    1    1    2    0    0  0.46838709641E+01 -0.11170514966E+02 -0.14281253902E+02  0.18726272048E+02  0.00000000000E+00 0.  1.
         11    1    3    3    0    0 -0.61026430367E+01  0.22023968173E+02  0.12487364496E+02  0.26042881915E+02  0.51100000000E-03 0. -1.
        -11    1    3    3    0    0  0.68440277863E+01  0.15469205568E+02  0.81875051952E+01  0.18792878407E+02  0.51100000000E-03 0.  1.
        -12    1    3    3    0    0 -0.54252557137E+01 -0.26322658776E+02 -0.63936157890E+01  0.27625967629E+02  0.00000000000E+00 0.  1.
</event>
<event>
 7    1  0.1789107E-013  0.7246164E+02  0.7816164E-02  0.1226708E+00
        -11   -1    0    0    0    0  0.00000000000E+00  0.00000000000E+00  0.45593999997E+02  0.45594000000E+02  0.51100000000E-03 0. -1.
         11   -1    0    0    0    0 -0.00000000000E+00 -0.00000000000E+00 -0.45593999997E+02  0.45594000000E+02  0.51100000000E-03 0.  1.
    9900012    2    1    2    0    0 -0.81318432517E+01 -0.51966734592E+01  0.16048190418E+02  0.72461636087E+02  0.70000085708E+02 0.  0.
        -12    1    1    2    0    0  0.81318432517E+01  0.51966734592E+01 -0.16048190418E+02  0.18726363913E+02  0.00000000000E+00 0.  1.
         11    1    3    3    0    0 -0.13859725960E+02 -0.14264633793E+02 -0.36815837145E+01  0.20226859367E+02  0.51100000000E-03 0. -1.
        -11    1    3    3    0    0 -0.72492510538E+01 -0.37204270843E+01 -0.12669821747E+02  0.15063784448E+02  0.51100000000E-03 0.  1.
         12    1    3    3    0    0  0.12977133762E+02  0.12788387418E+02  0.32399595879E+02  0.37170992273E+02  0.00000000000E+00 0. -1.
</event>
<event>
 7    1  0.1789107E-013  0.7246157E+02  0.7816164E-02  0.1226708E+00
        -11   -1    0    0    0    0  0.00000000000E+00  0.00000000000E+00  0.45593999997E+02  0.45594000000E+02  0.51100000000E-03 0. -1.
         11   -1    0    0    0    0 -0.00000000000E+00 -0.00000000000E+00 -0.45593999997E+02  0.45594000000E+02  0.51100000000E-03 0.  1.
    9900012    2    1    2    0    0  0.41981519288E+01  0.17526686816E+02  0.50862337950E+01  0.72461574698E+02  0.70000005737E+02 0.  0.
        -12    1    1    2    0    0 -0.41981519288E+01 -0.17526686816E+02 -0.50862337950E+01  0.18726425302E+02  0.00000000000E+00 0.  1.
         11    1    3    3    0    0 -0.73536340049E+01 -0.72681399689E+00 -0.67329664773E+01  0.99968509797E+01  0.51100000000E-03 0. -1.
        -11    1    3    3    0    0 -0.11077333971E+02  0.27771668628E+02 -0.79576151698E+01  0.30940209206E+02  0.51100000000E-03 0.  1.
         12    1    3    3    0    0  0.22629119905E+02 -0.95181678151E+01  0.19776815442E+02  0.31524514513E+02  0.00000000000E+00 0. -1.
</event>
<event>
 7    1  0.1789107E-013  0.7246156E+02  0.7816164E-02  0.1226708E+00
        -11   -1    0    0    0    0  0.00000000000E+00  0.00000000000E+00  0.45593999997E+02  0.45594000000E+02  0.51100000000E-03 0.  1.
         11   -1    0    0    0    0 -0.00000000000E+00 -0.00000000000E+00 -0.45593999997E+02  0.45594000000E+02  0.51100000000E-03 0. -1.
    9900012    2    1    2    0    0  0.16888831376E+02  0.78504981933E+01 -0.19536313503E+01  0.72461558198E+02  0.69999984242E+02 0.  0.
        -12    1    1    2    0    0 -0.16888831376E+02 -0.78504981933E+01  0.19536313503E+01  0.18726441802E+02  0.00000000000E+00 0.  1.
         11    1    3    3    0    0  0.91180681401E+01  0.25512579730E+02 -0.14102468550E+02  0.30543583787E+02  0.51100000000E-03 0. -1.
        -11    1    3    3    0    0 -0.36272273187E+01 -0.15596965022E+02 -0.85838657776E+01  0.18168787738E+02  0.51100000000E-03 0.  1.
        -12    1    3    3    0    0  0.11397990554E+02 -0.20651165142E+01  0.20732702977E+02  0.23749186673E+02  0.00000000000E+00 0.  1.
</event>
<event>
 7    1  0.1789107E-013  0.7246159E+02  0.7816164E-02  0.1226708E+00
        -11   -1    0    0    0    0  0.00000000000E+00  0.00000000000E+00  0.45593999997E+02  0.45594000000E+02  0.51100000000E-03 0.  1.
         11   -1    0    0    0    0 -0.00000000000E+00 -0.00000000000E+00 -0.45593999997E+02  0.45594000000E+02  0.51100000000E-03 0. -1.
    9900012    2    1    2    0    0 -0.25023191325E+01  0.16818623518E+02  0.78454388200E+01  0.72461585277E+02  0.70000019518E+02 0.  0.
        -12    1    1    2    0    0  0.25023191325E+01 -0.16818623518E+02 -0.78454388200E+01  0.18726414723E+02  0.00000000000E+00 0.  1.
         11    1    3    3    0    0  0.34820551259E+01  0.99019826957E+01 -0.20580343782E+02  0.23102478647E+02  0.51100000000E-03 0. -1.
        -11    1    3    3    0    0 -0.15913445571E+02  0.18889555469E+02  0.19105182919E+02  0.31225967886E+02  0.51100000000E-03 0.  1.
         12    1    3    3    0    0  0.99290713129E+01 -0.11972914646E+02  0.93205996832E+01  0.18133138744E+02  0.00000000000E+00 0. -1.
</event>
<event>
 7    1  0.1882300E-013  0.7246155E+02  0.7816164E-02  0.1226708E+00
        -11   -1    0    0    0    0  0.00000000000E+00  0.00000000000E+00  0.45593999997E+02  0.45594000000E+02  0.51100000000E-03 0. -1.
         11   -1    0    0    0    0 -0.00000000000E+00 -0.00000000000E+00 -0.45593999997E+02  0.45594000000E+02  0.51100000000E-03 0.  1.
    9900012    2    1    2    0    0 -0.12445125441E+02  0.10204405676E+02  0.95743841692E+01  0.72461551467E+02  0.69999975474E+02 0.  0.
        -12    1    1    2    0    0  0.12445125441E+02 -0.10204405676E+02 -0.95743841692E+01  0.18726448533E+02  0.00000000000E+00 0.  1.
         11    1    3    3    0    0  0.49443246034E+01  0.30239728384E+01  0.20468915920E+02  0.21273628668E+02  0.51100000000E-03 0. -1.
        -11    1    3    3    0    0  0.13853911605E+02 -0.61312995830E+01 -0.79241944946E+01  0.17097267618E+02  0.51100000000E-03 0.  1.
        -12    1    3    3    0    0 -0.31243361650E+02  0.13311732420E+02 -0.29703372563E+01  0.34090655181E+02  0.00000000000E+00 0.  1.
</event>
<event>
 7    1  0.1789107E-013  0.7246148E+02  0.7816164E-02  0.1226708E+00
        -11   -1    0    0    0    0  0.00000000000E+00  0.00000000000E+00  0.45593999997E+02  0.45594000000E+02  0.51100000000E-03 0.  1.
         11   -1    0    0    0    0 -0.00000000000E+00 -0.00000000000E+00 -0.45593999997E+02  0.45594000000E+02  0.51100000000E-03 0. -1.
    9900012    2    1    2    0    0  0.12331888256E+02  0.12950601017E+02 -0.55578018013E+01  0.72461476149E+02  0.69999877358E+02 0.  0.
        -12    1    1    2    0    0 -0.12331888256E+02 -0.12950601017E+02  0.55578018013E+01  0.18726523851E+02  0.00000000000E+00 0.  1.
         11    1    3    3    0    0  0.21215393491E+02 -0.14320344755E+02 -0.25635836770E+01  0.25724252301E+02  0.51100000000E-03 0. -1.
        -11    1    3    3    0    0  0.79370680894E+01  0.28494345240E+02 -0.39681992773E+01  0.29844117784E+02  0.51100000000E-03 0.  1.
        -12    1    3    3    0    0 -0.16820573325E+02 -0.12233994676E+01  0.97398115301E+00  0.16893106065E+02  0.00000000000E+00 0.  1.
</event>
<event>
 7    1  0.1789107E-013  0.7246158E+02  0.7816164E-02  0.1226708E+00
        -11   -1    0    0    0    0  0.00000000000E+00  0.00000000000E+00  0.45593999997E+02  0.45594000000E+02  0.51100000000E-03 0.  1.
         11   -1    0    0    0    0 -0.00000000000E+00 -0.00000000000E+00 -0.45593999997E+02  0.45594000000E+02  0.51100000000E-03 0. -1.
    9900012    2    1    2    0    0  0.12013800320E+02 -0.97576866793E+01 -0.10542060390E+02  0.72461577898E+02  0.70000009905E+02 0.  0.
        -12    1    1    2    0    0 -0.12013800320E+02  0.97576866793E+01  0.10542060390E+02  0.18726422102E+02  0.00000000000E+00 0.  1.
         11    1    3    3    0    0  0.25742971720E+02  0.11367638679E+02 -0.58013284757E+01  0.28732894293E+02  0.51100000000E-03 0. -1.
        -11    1    3    3    0    0  0.32461247165E+01  0.85059189181E+01 -0.27966540300E+01  0.95241407140E+01  0.51100000000E-03 0.  1.
        -12    1    3    3    0    0 -0.16975296116E+02 -0.29631244276E+02 -0.19440778847E+01  0.34204542891E+02  0.00000000000E+00 0.  1.
</event>
<event>
 7    1  0.1789107E-013  0.7246165E+02  0.7816164E-02  0.1226708E+00
        -11   -1    0    0    0    0  0.00000000000E+00  0.00000000000E+00  0.45593999997E+02  0.45594000000E+02  0.51100000000E-03 0.  1.
         11   -1    0    0    0    0 -0.00000000000E+00 -0.00000000000E+00 -0.45593999997E+02  0.45594000000E+02  0.51100000000E-03 0. -1.
    9900012    2    1    2    0    0 -0.13038752745E+01 -0.10254025972E+02 -0.15615085397E+02  0.72461654086E+02  0.70000109154E+02 0.  0.
        -12    1    1    2    0    0  0.13038752745E+01  0.10254025972E+02  0.15615085397E+02  0.18726345914E+02  0.00000000000E+00 0.  1.
         11    1    3    3    0    0 -0.18693259822E+02 -0.12122211702E+02 -0.33734875863E+02  0.40428057449E+02  0.51100000000E-03 0. -1.
        -11    1    3    3    0    0 -0.32703386214E+00 -0.88138838760E+00 -0.36858592422E+01  0.38038605720E+01  0.51100000000E-03 0.  1.
        -12    1    3    3    0    0  0.17716418409E+02  0.27495741177E+01  0.21805649709E+02  0.28229736065E+02  0.00000000000E+00 0.  1.
</event>
<event>
 7    1  0.1789107E-013  0.7246161E+02  0.7816164E-02  0.1226708E+00
        -11   -1    0    0    0    0  0.00000000000E+00  0.00000000000E+00  0.45593999997E+02  0.45594000000E+02  0.51100000000E-03 0. -1.
         11   -1    0    0    0    0 -0.00000000000E+00 -0.00000000000E+00 -0.45593999997E+02  0.45594000000E+02  0.51100000000E-03 0.  1.
    9900012    2    1    2    0    0  0.48131225495E+01  0.83872256319E+01  0.16036394649E+02  0.72461610711E+02  0.70000052650E+02 0.  0.
        -12    1    1    2    0    0 -0.48131225495E+01 -0.83872256319E+01 -0.16036394649E+02  0.18726389289E+02  0.00000000000E+00 0.  1.
         11    1    3    3    0    0  0.12071740593E+01  0.11597992369E+01  0.58170134743E+01  0.60531024690E+01  0.51100000000E-03 0. -1.
        -11    1    3    3    0    0  0.27032711816E+02  0.23952954287E+02  0.81742357755E+00  0.36127270984E+02  0.51100000000E-03 0.  1.
         12    1    3    3    0    0 -0.23426763326E+02 -0.16725527892E+02  0.94019575974E+01  0.30281237257E+02  0.00000000000E+00 0. -1.
</event>
<event>
 7    1  0.1789107E-013  0.7246153E+02  0.7816164E-02  0.1226708E+00
        -11   -1    0    0    0    0  0.00000000000E+00  0.00000000000E+00  0.45593999997E+02  0.45594000000E+02  0.51100000000E-03 0. -1.
         11   -1    0    0    0    0 -0.00000000000E+00 -0.00000000000E+00 -0.45593999997E+02  0.45594000000E+02  0.51100000000E-03 0.  1.
    9900012    2    1    2    0    0 -0.42733564305E+01  0.17761112328E+02 -0.41185025519E+01  0.72461528106E+02  0.69999945042E+02 0.  0.
        -12    1    1    2    0    0  0.42733564305E+01 -0.17761112328E+02  0.41185025519E+01  0.18726471894E+02  0.00000000000E+00 0.  1.
         11    1    3    3    0    0  0.42725588672E+01 -0.10543613894E+01 -0.99031809441E+01  0.10836947462E+02  0.51100000000E-03 0. -1.
        -11    1    3    3    0    0 -0.31323352167E+02  0.16989230166E+02 -0.56392290741E+01  0.36077517063E+02  0.51100000000E-03 0.  1.
         12    1    3    3    0    0  0.22777436869E+02  0.18262435516E+01  0.11423907466E+02  0.25547063582E+02  0.00000000000E+00 0. -1.
</event>
<event>
 7    1  0.1789107E-013  0.7246087E+02  0.7816164E-02  0.1226710E+00
        -11   -1    0    0    0    0  0.00000000000E+00  0.00000000000E+00  0.45593999997E+02  0.45594000000E+02  0.51100000000E-03 0.  1.
         11   -1    0    0    0    0 -0.00000000000E+00 -0.00000000000E+00 -0.45593999997E+02  0.45594000000E+02  0.51100000000E-03 0. -1.
    9900012    2    1    2    0    0 -0.22706911004E+01 -0.11481500335E+02 -0.14619325344E+02  0.72460865635E+02  0.69999082044E+02 0.  0.
        -12    1    1    2    0    0  0.22706911004E+01  0.11481500335E+02  0.14619325344E+02  0.18727134365E+02  0.00000000000E+00 0.  1.
         11    1    3    3    0    0 -0.23420418026E+02  0.89468145059E+01 -0.15767176514E+02  0.29616976986E+02  0.51100000000E-03 0. -1.
        -11    1    3    3    0    0  0.18646404836E+01 -0.72982197268E+01 -0.13383713199E+02  0.15357886396E+02  0.51100000000E-03 0.  1.
        -12    1    3    3    0    0  0.19285086442E+02 -0.13130095115E+02  0.14531564369E+02  0.27486002252E+02  0.00000000000E+00 0.  1.
</event>
<event>
 7    1  0.1789107E-013  0.7246171E+02  0.7816164E-02  0.1226708E+00
        -11   -1    0    0    0    0  0.00000000000E+00  0.00000000000E+00  0.45593999997E+02  0.45594000000E+02  0.51100000000E-03 0.  1.
         11   -1    0    0    0    0 -0.00000000000E+00 -0.00000000000E+00 -0.45593999997E+02  0.45594000000E+02  0.51100000000E-03 0. -1.
    9900012    2    1    2    0    0  0.55593640002E+01  0.16796267728E+02 -0.61361938183E+01  0.72461707995E+02  0.70000179381E+02 0.  0.
        -12    1    1    2    0    0 -0.55593640002E+01 -0.16796267728E+02  0.61361938183E+01  0.18726292005E+02  0.00000000000E+00 0.  1.
         11    1    3    3    0    0  0.14455429846E+02 -0.16569528632E+02  0.77316485200E+01  0.23308520335E+02  0.51100000000E-03 0. -1.
        -11    1    3    3    0    0 -0.33166412820E+01 -0.60800525481E+01  0.13006669389E+00  0.69270531964E+01  0.51100000000E-03 0.  1.
         12    1    3    3    0    0 -0.55794245642E+01  0.39445848907E+02 -0.13997909032E+02  0.42226134464E+02  0.00000000000E+00 0. -1.
</event>
<event>
 7    1  0.1789107E-013  0.7246157E+02  0.7816164E-02  0.1226708E+00
        -11   -1    0    0    0    0  0.00000000000E+00  0.00000000000E+00  0.45593999997E+02  0.45594000000E+02  0.51100000000E-03 0. -1.
         11   -1    0    0    0    0 -0.00000000000E+00 -0.00000000000E+00 -0.45593999997E+02  0.45594000000E+02  0.51100000000E-03 0.  1.
    9900012    2    1    2    0    0 -0.16747436985E+02 -0.92739479824E+00  0.83272041878E+01  0.72461573852E+02  0.70000004634E+02 0.  0.
        -12    1    1    2    0    0  0.16747436985E+02  0.92739479824E+00 -0.83272041878E+01  0.18726426148E+02  0.00000000000E+00 0.  1.
         11    1    3    3    0    0 -0.66150428574E+01 -0.17274948111E+02  0.29596886915E+02  0.34902125144E+02  0.51100000000E-03 0.  1.
        -11    1    3    3    0    0 -0.72585731594E+01 -0.31467154757E+01  0.82520407176E+00  0.79542230681E+01  0.51100000000E-03 0. -1.
        -12    1    3    3    0    0 -0.28738209686E+01  0.19494268788E+02 -0.22094886799E+02  0.29605225640E+02  0.00000000000E+00 0.  1.
</event>
<event>
 7    1  0.1789107E-013  0.7246177E+02  0.7816164E-02  0.1226707E+00
        -11   -1    0    0    0    0  0.00000000000E+00  0.00000000000E+00  0.45593999997E+02  0.45594000000E+02  0.51100000000E-03 0.  1.
         11   -1    0    0    0    0 -0.00000000000E+00 -0.00000000000E+00 -0.45593999997E+02  0.45594000000E+02  0.51100000000E-03 0. -1.
    9900012    2    1    2    0    0  0.10320605344E+02  0.67799569797E+01 -0.14077961533E+02  0.72461769406E+02  0.70000259380E+02 0.  0.
        -12    1    1    2    0    0 -0.10320605344E+02 -0.67799569797E+01  0.14077961533E+02  0.18726230594E+02  0.00000000000E+00 0.  1.
         11    1    3    3    0    0  0.43808682373E+01 -0.22773605852E+02 -0.14444180801E+02  0.27321484024E+02  0.51100000000E-03 0. -1.
        -11    1    3    3    0    0  0.14129019374E+02  0.61756006043E+00 -0.41306781862E+01  0.14733399861E+02  0.51100000000E-03 0.  1.
        -12    1    3    3    0    0 -0.81892822678E+01  0.28936002771E+02  0.44968974539E+01  0.30406885522E+02  0.00000000000E+00 0.  1.
</event>
<event>
 7    1  0.1789107E-013  0.7246159E+02  0.7816164E-02  0.1226708E+00
        -11   -1    0    0    0    0  0.00000000000E+00  0.00000000000E+00  0.45593999997E+02  0.45594000000E+02  0.51100000000E-03 0. -1.
         11   -1    0    0    0    0 -0.00000000000E+00 -0.00000000000E+00 -0.45593999997E+02  0.45594000000E+02  0.51100000000E-03 0.  1.
    9900012    2    1    2    0    0 -0.15309995155E+02 -0.85229964788E+01 -0.66061440319E+01  0.72461586579E+02  0.70000021214E+02 0.  0.
        -12    1    1    2    0    0  0.15309995155E+02  0.85229964788E+01  0.66061440319E+01  0.18726413421E+02  0.00000000000E+00 0.  1.
         11    1    3    3    0    0 -0.95376519186E+01  0.64048002537E+01  0.10377276469E+02  0.15481477242E+02  0.51100000000E-03 0. -1.
        -11    1    3    3    0    0 -0.61580966193E+01  0.18127195233E+02  0.13269012558E+01  0.19190571336E+02  0.51100000000E-03 0.  1.
        -12    1    3    3    0    0  0.38575338255E+00 -0.33054991966E+02 -0.18310321757E+02  0.37789538002E+02  0.00000000000E+00 0.  1.
</event>
<event>
 7    1  0.1789107E-013  0.7246155E+02  0.7816164E-02  0.1226708E+00
        -11   -1    0    0    0    0  0.00000000000E+00  0.00000000000E+00  0.45593999997E+02  0.45594000000E+02  0.51100000000E-03 0.  1.
         11   -1    0    0    0    0 -0.00000000000E+00 -0.00000000000E+00 -0.45593999997E+02  0.45594000000E+02  0.51100000000E-03 0. -1.
    9900012    2    1    2    0    0  0.51376316321E+01 -0.82488726543E+01 -0.16007522598E+02  0.72461549760E+02  0.69999973250E+02 0.  0.
        -12    1    1    2    0    0 -0.51376316321E+01  0.82488726543E+01  0.16007522598E+02  0.18726450240E+02  0.00000000000E+00 0.  1.
         11    1    3    3    0    0 -0.10370335645E+02 -0.16465267186E+02 -0.31369609923E+02  0.36914784462E+02  0.51100000000E-03 0. -1.
        -11    1    3    3    0    0 -0.19760645429E+01  0.87729095832E+01 -0.36556538334E+01  0.97073466428E+01  0.51100000000E-03 0.  1.
        -12    1    3    3    0    0  0.17484031820E+02 -0.55651505190E+00  0.19017741158E+02  0.25839418655E+02  0.00000000000E+00 0.  1.
</event>
<event>
 7    1  0.1789107E-013  0.7246159E+02  0.7816164E-02  0.1226708E+00
        -11   -1    0    0    0    0  0.00000000000E+00  0.00000000000E+00  0.45593999997E+02  0.45594000000E+02  0.51100000000E-03 0. -1.
         11   -1    0    0    0    0 -0.00000000000E+00 -0.00000000000E+00 -0.45593999997E+02  0.45594000000E+02  0.51100000000E-03 0.  1.
    9900012    2    1    2    0    0 -0.38067907578E+01 -0.12730516128E+01  0.18291146545E+02  0.72461591957E+02  0.70000028220E+02 0.  0.
        -12    1    1    2    0    0  0.38067907578E+01  0.12730516128E+01 -0.18291146545E+02  0.18726408043E+02  0.00000000000E+00 0.  1.
         11    1    3    3    0    0 -0.18941650811E+02 -0.18129942488E+02  0.45256966650E+01  0.26607571867E+02  0.51100000000E-03 0. -1.
        -11    1    3    3    0    0 -0.52640606781E+01 -0.80760797091E+01  0.91854980062E+01  0.13315658909E+02  0.51100000000E-03 0.  1.
        -12    1    3    3    0    0  0.20398920732E+02  0.24932970585E+02  0.45799518733E+01  0.32538361181E+02  0.00000000000E+00 0.  1.
</event>
<event>
 7    1  0.1789107E-013  0.7246149E+02  0.7816164E-02  0.1226708E+00
        -11   -1    0    0    0    0  0.00000000000E+00  0.00000000000E+00  0.45593999997E+02  0.45594000000E+02  0.51100000000E-03 0. -1.
         11   -1    0    0    0    0 -0.00000000000E+00 -0.00000000000E+00 -0.45593999997E+02  0.45594000000E+02  0.51100000000E-03 0.  1.
    9900012    2    1    2    0    0  0.54477587650E+01 -0.13179983478E+02  0.12136401869E+02  0.72461486967E+02  0.69999891451E+02 0.  0.
        -12    1    1    2    0    0 -0.54477587650E+01  0.13179983478E+02 -0.12136401869E+02  0.18726513033E+02  0.00000000000E+00 0.  1.
         11    1    3    3    0    0 -0.80019783359E+00  0.20491282138E+01  0.18108215838E+01  0.28492662352E+01  0.51100000000E-03 0. -1.
        -11    1    3    3    0    0  0.87438457982E+01  0.17709814385E+02 -0.17525147382E+02  0.26404983543E+02  0.51100000000E-03 0.  1.
         12    1    3    3    0    0 -0.24958891996E+01 -0.32938926076E+02  0.27850727667E+02  0.43207237189E+02  0.00000000000E+00 0. -1.
</event>
<event>
 7    1  0.1789107E-013  0.7246154E+02  0.7816164E-02  0.1226708E+00
        -11   -1    0    0    0    0  0.00000000000E+00  0.00000000000E+00  0.45593999997E+02  0.45594000000E+02  0.51100000000E-03 0.  1.
         11   -1    0    0    0    0 -0.00000000000E+00 -0.00000000000E+00 -0.45593999997E+02  0.45594000000E+02  0.51100000000E-03 0. -1.
    9900012    2    1    2    0    0 -0.64563295868E+01 -0.14614735117E+02 -0.97675784040E+01  0.72461541121E+02  0.69999961996E+02 0.  0.
        -12    1    1    2    0    0  0.64563295868E+01  0.14614735117E+02  0.97675784040E+01  0.18726458879E+02  0.00000000000E+00 0.  1.
         11    1    3    3    0    0 -0.28766774058E+02  0.21085177027E+00  0.18296688964E+00  0.28768128638E+02  0.51100000000E-03 0. -1.
        -11    1    3    3    0    0 -0.33593707200E+01 -0.12955105482E+02 -0.11863283129E+02  0.17884563639E+02  0.51100000000E-03 0.  1.
        -12    1    3    3    0    0  0.25669815191E+02 -0.18704814057E+01  0.19127378357E+01  0.25808848844E+02  0.00000000000E+00 0.  1.
</event>
<event>
 7    1  0.1789107E-013  0.7246155E+02  0.7816164E-02  0.1226708E+00
        -11   -1    0    0    0    0  0.00000000000E+00  0.00000000000E+00  0.45593999997E+02  0.45594000000E+02  0.51100000000E-03 0.  1.
         11   -1    0    0    0    0 -0.00000000000E+00 -0.00000000000E+00 -0.45593999997E+02  0.45594000000E+02  0.51100000000E-03 0. -1.
    9900012    2    1    2    0    0 -0.59559139968E+01  0.11673193264E+02 -0.13376973479E+02  0.72461554209E+02  0.69999979045E+02 0.  0.
        -12    1    1    2    0    0  0.59559139968E+01 -0.11673193264E+02  0.13376973479E+02  0.18726445791E+02  0.00000000000E+00 0.  1.
         11    1    3    3    0    0  0.15865304431E+02  0.47901228461E+01 -0.91124425865E+01  0.18912688114E+02  0.51100000000E-03 0. -1.
        -11    1    3    3    0    0 -0.26244941642E+01 -0.18861551847E+01  0.20647467065E+02  0.20898886273E+02  0.51100000000E-03 0.  1.
        -12    1    3    3    0    0 -0.19196724263E+02  0.87692256028E+01 -0.24911997957E+02  0.32649979821E+02  0.00000000000E+00 0.  1.
</event>
<event>
 7    1  0.1789107E-013  0.7246150E+02  0.7816164E-02  0.1226708E+00
        -11   -1    0    0    0    0  0.00000000000E+00  0.00000000000E+00  0.45593999997E+02  0.45594000000E+02  0.51100000000E-03 0.  1.
         11   -1    0    0    0    0 -0.00000000000E+00 -0.00000000000E+00 -0.45593999997E+02  0.45594000000E+02  0.51100000000E-03 0. -1.
    9900012    2    1    2    0    0 -0.30421449556E+01  0.83070019724E+01 -0.16505175485E+02  0.72461501516E+02  0.69999910403E+02 0.  0.
        -12    1    1    2    0    0  0.30421449556E+01 -0.83070019724E+01  0.16505175485E+02  0.18726498484E+02  0.00000000000E+00 0.  1.
         11    1    3    3    0    0  0.32347532445E+01 -0.98114967379E+01  0.14592037922E+02  0.17878944817E+02  0.51100000000E-03 0. -1.
        -11    1    3    3    0    0 -0.58662784869E+01  0.79488316757E+01  0.89084186127E+01  0.13302521217E+02  0.51100000000E-03 0.  1.
         12    1    3    3    0    0 -0.41061971323E+00  0.10169667035E+02 -0.40005632019E+02  0.41280035482E+02  0.00000000000E+00 0. -1.
</event>
<event>
 7    1  0.1789107E-013  0.7246154E+02  0.7816164E-02  0.1226708E+00
        -11   -1    0    0    0    0  0.00000000000E+00  0.00000000000E+00  0.45593999997E+02  0.45594000000E+02  0.51100000000E-03 0.  1.
         11   -1    0    0    0    0 -0.00000000000E+00 -0.00000000000E+00 -0.45593999997E+02  0.45594000000E+02  0.51100000000E-03 0. -1.
    9900012    2    1    2    0    0  0.12773782424E+02 -0.13090119307E+02 -0.40198968288E+01  0.72461539806E+02  0.69999960283E+02 0.  0.
        -12    1    1    2    0    0 -0.12773782424E+02  0.13090119307E+02  0.40198968288E+01  0.18726460194E+02  0.00000000000E+00 0.  1.
         11    1    3    3    0    0 -0.13368067102E-01  0.30180407179E+01  0.90653301403E+01  0.95545255923E+01  0.51100000000E-03 0. -1.
        -11    1    3    3    0    0 -0.48633866014E+01 -0.17332914897E+02  0.19057884028E+02  0.26216128851E+02  0.51100000000E-03 0.  1.
         12    1    3    3    0    0  0.17650537093E+02  0.12247548726E+01 -0.32143110997E+02  0.36690885363E+02  0.00000000000E+00 0. -1.
</event>
<event>
 7    1  0.1789107E-013  0.7246155E+02  0.7816164E-02  0.1226708E+00
        -11   -1    0    0    0    0  0.00000000000E+00  0.00000000000E+00  0.45593999997E+02  0.45594000000E+02  0.51100000000E-03 0.  1.
         11   -1    0    0    0    0 -0.00000000000E+00 -0.00000000000E+00 -0.45593999997E+02  0.45594000000E+02  0.51100000000E-03 0. -1.
    9900012    2    1    2    0    0  0.20636608558E+01 -0.16591465731E+02 -0.84347190764E+01  0.72461550333E+02  0.69999973996E+02 0.  0.
        -12    1    1    2    0    0 -0.20636608558E+01  0.16591465731E+02  0.84347190764E+01  0.18726449667E+02  0.00000000000E+00 0.  1.
         11    1    3    3    0    0 -0.22377086254E+02 -0.19217906234E+02 -0.78658795346E+01  0.30527593590E+02  0.51100000000E-03 0. -1.
        -11    1    3    3    0    0 -0.12794816112E+01  0.53520592596E+01 -0.12344291739E+02  0.13515293201E+02  0.51100000000E-03 0.  1.
        -12    1    3    3    0    0  0.25720228721E+02 -0.27256187564E+01  0.11775452197E+02  0.28418663542E+02  0.00000000000E+00 0.  1.
</event>
<event>
 7    1  0.1789107E-013  0.7246161E+02  0.7816164E-02  0.1226708E+00
        -11   -1    0    0    0    0  0.00000000000E+00  0.00000000000E+00  0.45593999997E+02  0.45594000000E+02  0.51100000000E-03 0.  1.
         11   -1    0    0    0    0 -0.00000000000E+00 -0.00000000000E+00 -0.45593999997E+02  0.45594000000E+02  0.51100000000E-03 0. -1.
    9900012    2    1    2    0    0 -0.37873959606E+01 -0.13530917375E+02 -0.12379327708E+02  0.72461605588E+02  0.70000045976E+02 0.  0.
        -12    1    1    2    0    0  0.37873959606E+01  0.13530917375E+02  0.12379327708E+02  0.18726394412E+02  0.00000000000E+00 0.  1.
         11    1    3    3    0    0  0.15898289230E+01 -0.27459407448E+01 -0.12746675060E+02  0.13135656510E+02  0.51100000000E-03 0. -1.
        -11    1    3    3    0    0  0.77640276887E+01 -0.32733787455E+02  0.19208349015E+01  0.33696744265E+02  0.51100000000E-03 0.  1.
         12    1    3    3    0    0 -0.13141252572E+02  0.21948810824E+02 -0.15534875489E+01  0.25629204813E+02  0.00000000000E+00 0. -1.
</event>
<event>
 7    1  0.1789107E-013  0.7246155E+02  0.7816164E-02  0.1226708E+00
        -11   -1    0    0    0    0  0.00000000000E+00  0.00000000000E+00  0.45593999997E+02  0.45594000000E+02  0.51100000000E-03 0.  1.
         11   -1    0    0    0    0 -0.00000000000E+00 -0.00000000000E+00 -0.45593999997E+02  0.45594000000E+02  0.51100000000E-03 0. -1.
    9900012    2    1    2    0    0  0.16325186271E+02 -0.34997691528E+01 -0.84805509915E+01  0.72461552499E+02  0.69999976818E+02 0.  0.
        -12    1    1    2    0    0 -0.16325186271E+02  0.34997691528E+01  0.84805509915E+01  0.18726447501E+02  0.00000000000E+00 0.  1.
         11    1    3    3    0    0  0.69008404930E+01 -0.19532842937E+02 -0.11270435513E+02  0.23583389697E+02  0.51100000000E-03 0. -1.
        -11    1    3    3    0    0 -0.16201838785E+02 -0.24858974810E+01  0.51271230057E+01  0.17174593354E+02  0.51100000000E-03 0.  1.
         12    1    3    3    0    0  0.25626184563E+02  0.18518971265E+02 -0.23372384847E+01  0.31703569447E+02  0.00000000000E+00 0. -1.
</event>
<event>
 7    1  0.1789107E-013  0.7246167E+02  0.7816164E-02  0.1226708E+00
        -11   -1    0    0    0    0  0.00000000000E+00  0.00000000000E+00  0.45593999997E+02  0.45594000000E+02  0.51100000000E-03 0.  1.
         11   -1    0    0    0    0 -0.00000000000E+00 -0.00000000000E+00 -0.45593999997E+02  0.45594000000E+02  0.51100000000E-03 0. -1.
    9900012    2    1    2    0    0 -0.12982277963E+02 -0.14162501626E+01 -0.13421256026E+02  0.72461670436E+02  0.70000130452E+02 0.  0.
        -12    1    1    2    0    0  0.12982277963E+02  0.14162501626E+01  0.13421256026E+02  0.18726329564E+02  0.00000000000E+00 0.  1.
         11    1    3    3    0    0 -0.16672806064E+02 -0.12365908330E+02 -0.27681494951E+02  0.34600047888E+02  0.51100000000E-03 0. -1.
        -11    1    3    3    0    0 -0.12126599364E+02 -0.62265095470E+00  0.13628234481E+02  0.18252969120E+02  0.51100000000E-03 0.  1.
        -12    1    3    3    0    0  0.15817127465E+02  0.11572309122E+02  0.63200444434E+00  0.19608653428E+02  0.00000000000E+00 0.  1.
</event>
<event>
 7    1  0.1789107E-013  0.7246154E+02  0.7816164E-02  0.1226708E+00
        -11   -1    0    0    0    0  0.00000000000E+00  0.00000000000E+00  0.45593999997E+02  0.45594000000E+02  0.51100000000E-03 0. -1.
         11   -1    0    0    0    0 -0.00000000000E+00 -0.00000000000E+00 -0.45593999997E+02  0.45594000000E+02  0.51100000000E-03 0.  1.
    9900012    2    1    2    0    0 -0.44344168892E+01  0.54790064888E+01  0.17349256033E+02  0.72461541441E+02  0.69999962413E+02 0.  0.
        -12    1    1    2    0    0  0.44344168892E+01 -0.54790064888E+01 -0.17349256033E+02  0.18726458559E+02  0.00000000000E+00 0.  1.
         11    1    3    3    0    0  0.68994707242E+01 -0.28133041992E+00  0.80626331813E+01  0.10615455579E+02  0.51100000000E-03 0. -1.
        -11    1    3    3    0    0  0.22417041508E+02  0.82361403674E+01  0.13991681297E+02  0.27678961395E+02  0.51100000000E-03 0.  1.
        -12    1    3    3    0    0 -0.33750929122E+02 -0.24758034586E+01 -0.47050584451E+01  0.34167124467E+02  0.00000000000E+00 0.  1.
</event>
<event>
 7    1  0.1789107E-013  0.7246161E+02  0.7816164E-02  0.1226708E+00
        -11   -1    0    0    0    0  0.00000000000E+00  0.00000000000E+00  0.45593999997E+02  0.45594000000E+02  0.51100000000E-03 0. -1.
         11   -1    0    0    0    0 -0.00000000000E+00 -0.00000000000E+00 -0.45593999997E+02  0.45594000000E+02  0.51100000000E-03 0.  1.
    9900012    2    1    2    0    0 -0.14227621979E+02  0.10610740293E+02 -0.59720007140E+01  0.72461606079E+02  0.70000046617E+02 0.  0.
        -12    1    1    2    0    0  0.14227621979E+02 -0.10610740293E+02  0.59720007140E+01  0.18726393921E+02  0.00000000000E+00 0.  1.
         11    1    3    3    0    0  0.74792160298E+01  0.14296545322E+02 -0.31072659806E+02  0.35011998918E+02  0.51100000000E-03 0. -1.
        -11    1    3    3    0    0 -0.20950595589E+01  0.28098184432E+01 -0.14628534531E+01  0.37979329543E+01  0.51100000000E-03 0.  1.
         12    1    3    3    0    0 -0.19611778450E+02 -0.64956234719E+01  0.26563512545E+02  0.33651674207E+02  0.00000000000E+00 0. -1.
</event>
<event>
 7    1  0.1789107E-013  0.7246161E+02  0.7816164E-02  0.1226708E+00
        -11   -1    0    0    0    0  0.00000000000E+00  0.00000000000E+00  0.45593999997E+02  0.45594000000E+02  0.51100000000E-03 0.  1.
         11   -1    0    0    0    0 -0.00000000000E+00 -0.00000000000E+00 -0.45593999997E+02  0.45594000000E+02  0.51100000000E-03 0. -1.
    9900012    2    1    2    0    0  0.10168549069E+01 -0.15765055500E+02 -0.10055186863E+02  0.72461608151E+02  0.70000049315E+02 0.  0.
        -12    1    1    2    0    0 -0.10168549069E+01  0.15765055500E+02  0.10055186863E+02  0.18726391849E+02  0.00000000000E+00 0.  1.
         11    1    3    3    0    0  0.67889301773E+01  0.84857915676E-01 -0.46086798143E+00  0.68050843768E+01  0.51100000000E-03 0. -1.
        -11    1    3    3    0    0  0.32373655113E+00  0.67781285924E+00  0.25963438112E+02  0.25974301810E+02  0.51100000000E-03 0.  1.
         12    1    3    3    0    0 -0.60958118215E+01 -0.16527726275E+02 -0.35557756994E+02  0.39682221964E+02  0.00000000000E+00 0. -1.
</event>
<event>
 7    1  0.1789107E-013  0.7246156E+02  0.7816164E-02  0.1226708E+00
        -11   -1    0    0    0    0  0.00000000000E+00  0.00000000000E+00  0.45593999997E+02  0.45594000000E+02  0.51100000000E-03 0.  1.
         11   -1    0    0    0    0 -0.00000000000E+00 -0.00000000000E+00 -0.45593999997E+02  0.45594000000E+02  0.51100000000E-03 0. -1.
    9900012    2    1    2    0    0 -0.15153975370E+02 -0.24513801688E+01 -0.10725083570E+02  0.72461557416E+02  0.69999983224E+02 0.  0.
        -12    1    1    2    0    0  0.15153975370E+02  0.24513801688E+01  0.10725083570E+02  0.18726442584E+02  0.00000000000E+00 0.  1.
         11    1    3    3    0    0  0.49083031216E+01 -0.92429229217E+01 -0.24355623165E+02  0.26508855949E+02  0.51100000000E-03 0. -1.
        -11    1    3    3    0    0 -0.37178951642E+01  0.16171162400E+01 -0.13368898547E+02  0.13970155976E+02  0.51100000000E-03 0.  1.
        -12    1    3    3    0    0 -0.16344383328E+02  0.51744265129E+01  0.26999438142E+02  0.31982545491E+02  0.00000000000E+00 0.  1.
</event>
<event>
 7    1  0.1789107E-013  0.7246158E+02  0.7816164E-02  0.1226708E+00
        -11   -1    0    0    0    0  0.00000000000E+00  0.00000000000E+00  0.45593999997E+02  0.45594000000E+02  0.51100000000E-03 0.  1.
         11   -1    0    0    0    0 -0.00000000000E+00 -0.00000000000E+00 -0.45593999997E+02  0.45594000000E+02  0.51100000000E-03 0. -1.
    9900012    2    1    2    0    0  0.94412875207E+01  0.70246189628E+01 -0.14566933745E+02  0.72461581753E+02  0.70000014927E+02 0.  0.
        -12    1    1    2    0    0 -0.94412875207E+01 -0.70246189628E+01  0.14566933745E+02  0.18726418247E+02  0.00000000000E+00 0.  1.
         11    1    3    3    0    0 -0.53687349093E+01  0.71064807354E+00 -0.10581808902E+02  0.11887094477E+02  0.51100000000E-03 0. -1.
        -11    1    3    3    0    0 -0.32283378675E+01  0.28665088014E+02  0.72332088429E+01  0.29739346776E+02  0.51100000000E-03 0.  1.
         12    1    3    3    0    0  0.18038360297E+02 -0.22351117125E+02 -0.11218333686E+02  0.30835140500E+02  0.00000000000E+00 0. -1.
</event>
<event>
 7    1  0.1789107E-013  0.7246230E+02  0.7816164E-02  0.1226706E+00
        -11   -1    0    0    0    0  0.00000000000E+00  0.00000000000E+00  0.45593999997E+02  0.45594000000E+02  0.51100000000E-03 0.  1.
         11   -1    0    0    0    0 -0.00000000000E+00 -0.00000000000E+00 -0.45593999997E+02  0.45594000000E+02  0.51100000000E-03 0. -1.
    9900012    2    1    2    0    0  0.23185962960E+01 -0.14746052927E+02 -0.11306188197E+02  0.72462299552E+02  0.70000949988E+02 0.  0.
        -12    1    1    2    0    0 -0.23185962960E+01  0.14746052927E+02  0.11306188197E+02  0.18725700448E+02  0.00000000000E+00 0.  1.
         11    1    3    3    0    0  0.60496371847E+00  0.57870006747E+01 -0.32055800770E+01  0.66431244005E+01  0.51100000000E-03 0. -1.
        -11    1    3    3    0    0 -0.25480754644E+02 -0.78971250256E+01 -0.20222451694E+02  0.33475080189E+02  0.51100000000E-03 0.  1.
         12    1    3    3    0    0  0.27194387222E+02 -0.12635928576E+02  0.12121843574E+02  0.32344094963E+02  0.00000000000E+00 0. -1.
</event>
<event>
 7    1  0.1789107E-013  0.7246158E+02  0.7816164E-02  0.1226708E+00
        -11   -1    0    0    0    0  0.00000000000E+00  0.00000000000E+00  0.45593999997E+02  0.45594000000E+02  0.51100000000E-03 0.  1.
         11   -1    0    0    0    0 -0.00000000000E+00 -0.00000000000E+00 -0.45593999997E+02  0.45594000000E+02  0.51100000000E-03 0. -1.
    9900012    2    1    2    0    0 -0.41135042502E+01  0.46561793895E+01 -0.17665726396E+02  0.72461579818E+02  0.70000012407E+02 0.  0.
        -12    1    1    2    0    0  0.41135042502E+01 -0.46561793895E+01  0.17665726396E+02  0.18726420182E+02  0.00000000000E+00 0.  1.
         11    1    3    3    0    0  0.18071595260E+02 -0.91514737858E+01 -0.73036385192E+01  0.21533117832E+02  0.51100000000E-03 0. -1.
        -11    1    3    3    0    0 -0.93727773118E-01 -0.14145260762E+02 -0.15801784577E+01  0.14233557220E+02  0.51100000000E-03 0.  1.
         12    1    3    3    0    0 -0.22091371737E+02  0.27952913937E+02 -0.87819094191E+01  0.36694904767E+02  0.00000000000E+00 0. -1.
</event>
<event>
 7    1  0.1789107E-013  0.7246160E+02  0.7816164E-02  0.1226708E+00
        -11   -1    0    0    0    0  0.00000000000E+00  0.00000000000E+00  0.45593999997E+02  0.45594000000E+02  0.51100000000E-03 0.  1.
         11   -1    0    0    0    0 -0.00000000000E+00 -0.00000000000E+00 -0.45593999997E+02  0.45594000000E+02  0.51100000000E-03 0. -1.
    9900012    2    1    2    0    0  0.81538781134E+01  0.16702737807E+02 -0.22827408995E+01  0.72461599264E+02  0.70000037738E+02 0.  0.
        -12    1    1    2    0    0 -0.81538781134E+01 -0.16702737807E+02  0.22827408995E+01  0.18726400736E+02  0.00000000000E+00 0.  1.
         11    1    3    3    0    0  0.64154690917E+00  0.11340602948E+02  0.15260092823E+02  0.19023440564E+02  0.51100000000E-03 0. -1.
        -11    1    3    3    0    0  0.25603057934E+02  0.90337371390E+01  0.11401095841E+01  0.27173973438E+02  0.51100000000E-03 0.  1.
         12    1    3    3    0    0 -0.18090726730E+02 -0.36716022805E+01 -0.18682943306E+02  0.26264185262E+02  0.00000000000E+00 0. -1.
</event>
<event>
 7    1  0.1789107E-013  0.7246147E+02  0.7816164E-02  0.1226708E+00
        -11   -1    0    0    0    0  0.00000000000E+00  0.00000000000E+00  0.45593999997E+02  0.45594000000E+02  0.51100000000E-03 0.  1.
         11   -1    0    0    0    0 -0.00000000000E+00 -0.00000000000E+00 -0.45593999997E+02  0.45594000000E+02  0.51100000000E-03 0. -1.
    9900012    2    1    2    0    0  0.15934656679E+02  0.72183548258E+01  0.66831823440E+01  0.72461471862E+02  0.69999871773E+02 0.  0.
        -12    1    1    2    0    0 -0.15934656679E+02 -0.72183548258E+01 -0.66831823440E+01  0.18726528138E+02  0.00000000000E+00 0.  1.
         11    1    3    3    0    0 -0.14099756496E+02 -0.60867119824E+01  0.79646337729E+00  0.15378086688E+02  0.51100000000E-03 0. -1.
        -11    1    3    3    0    0 -0.47340943953E+01 -0.10929119920E+02  0.84836975710E+01  0.14622942136E+02  0.51100000000E-03 0.  1.
        -12    1    3    3    0    0  0.34768507571E+02  0.24234186728E+02 -0.25969786043E+01  0.42460443038E+02  0.00000000000E+00 0.  1.
</event>
<event>
 7    1  0.1789107E-013  0.7246153E+02  0.7816164E-02  0.1226708E+00
        -11   -1    0    0    0    0  0.00000000000E+00  0.00000000000E+00  0.45593999997E+02  0.45594000000E+02  0.51100000000E-03 0.  1.
         11   -1    0    0    0    0 -0.00000000000E+00 -0.00000000000E+00 -0.45593999997E+02  0.45594000000E+02  0.51100000000E-03 0. -1.
    9900012    2    1    2    0    0 -0.67185218905E+01 -0.16585409781E+02 -0.55196146188E+01  0.72461534782E+02  0.69999953739E+02 0.  0.
        -12    1    1    2    0    0  0.67185218905E+01  0.16585409781E+02  0.55196146188E+01  0.18726465218E+02  0.00000000000E+00 0.  1.
         11    1    3    3    0    0  0.10830811326E+02  0.37611856293E+01  0.82023628396E+01  0.14097224824E+02  0.51100000000E-03 0. -1.
        -11    1    3    3    0    0  0.17006314861E+02 -0.11318409807E+01 -0.60667138910E+01  0.18091457289E+02  0.51100000000E-03 0.  1.
         12    1    3    3    0    0 -0.34555648077E+02 -0.19214754430E+02 -0.76552635673E+01  0.40272852669E+02  0.00000000000E+00 0. -1.
</event>
<event>
 7    1  0.1789107E-013  0.7246164E+02  0.7816164E-02  0.1226708E+00
        -11   -1    0    0    0    0  0.00000000000E+00  0.00000000000E+00  0.45593999997E+02  0.45594000000E+02  0.51100000000E-03 0.  1.
         11   -1    0    0    0    0 -0.00000000000E+00 -0.00000000000E+00 -0.45593999997E+02  0.45594000000E+02  0.51100000000E-03 0. -1.
    9900012    2    1    2    0    0 -0.61874330259E+01  0.16596117387E+02  0.60795569632E+01  0.72461642836E+02  0.70000094499E+02 0.  0.
        -12    1    1    2    0    0  0.61874330259E+01 -0.16596117387E+02 -0.60795569632E+01  0.18726357164E+02  0.00000000000E+00 0.  1.
         11    1    3    3    0    0  0.11797013784E+01  0.44450607035E+01  0.14737255783E+01  0.48292988457E+01  0.51100000000E-03 0. -1.
        -11    1    3    3    0    0 -0.16343780069E+02  0.19643794282E+02  0.30160033429E+02  0.39530057139E+02  0.51100000000E-03 0.  1.
         12    1    3    3    0    0  0.89766456650E+01 -0.74927375983E+01 -0.25554202044E+02  0.28102286851E+02  0.00000000000E+00 0. -1.
</event>
<event>
 7    1  0.1789107E-013  0.7246160E+02  0.7816164E-02  0.1226708E+00
        -11   -1    0    0    0    0  0.00000000000E+00  0.00000000000E+00  0.45593999997E+02  0.45594000000E+02  0.51100000000E-03 0.  1.
         11   -1    0    0    0    0 -0.00000000000E+00 -0.00000000000E+00 -0.45593999997E+02  0.45594000000E+02  0.51100000000E-03 0. -1.
    9900012    2    1    2    0    0 -0.29598962846E+01 -0.15947494266E+02 -0.93591876490E+01  0.72461602780E+02  0.70000042319E+02 0.  0.
        -12    1    1    2    0    0  0.29598962846E+01  0.15947494266E+02  0.93591876490E+01  0.18726397220E+02  0.00000000000E+00 0.  1.
         11    1    3    3    0    0  0.31155495100E+01 -0.20017093363E+02  0.17626311907E+02  0.26852887128E+02  0.51100000000E-03 0. -1.
        -11    1    3    3    0    0  0.15043259300E+02  0.28836089378E+01 -0.85007059567E+01  0.17517900927E+02  0.51100000000E-03 0.  1.
         12    1    3    3    0    0 -0.21118705094E+02  0.11859901589E+01 -0.18484793599E+02  0.28090814725E+02  0.00000000000E+00 0. -1.
</event>
<event>
 7    1  0.1789107E-013  0.7246173E+02  0.7816164E-02  0.1226708E+00
        -11   -1    0    0    0    0  0.00000000000E+00  0.00000000000E+00  0.45593999997E+02  0.45594000000E+02  0.51100000000E-03 0.  1.
         11   -1    0    0    0    0 -0.00000000000E+00 -0.00000000000E+00 -0.45593999997E+02  0.45594000000E+02  0.51100000000E-03 0. -1.
    9900012    2    1    2    0    0 -0.12098287815E+02 -0.12563863626E+02 -0.68157073973E+01  0.72461732230E+02  0.70000210951E+02 0.  0.
        -12    1    1    2    0    0  0.12098287815E+02  0.12563863626E+02  0.68157073973E+01  0.18726267770E+02  0.00000000000E+00 0.  1.
         11    1    3    3    0    0  0.15023508737E+02  0.32839736712E+01 -0.56889246571E+01  0.16396772910E+02  0.51100000000E-03 0. -1.
        -11    1    3    3    0    0 -0.16168048251E+01 -0.48820077018E+01  0.20334341651E+02  0.20974591955E+02  0.51100000000E-03 0.  1.
        -12    1    3    3    0    0 -0.25504991727E+02 -0.10965829595E+02 -0.21461124391E+02  0.35090367365E+02  0.00000000000E+00 0.  1.
</event>
<event>
 7    1  0.1789107E-013  0.7246158E+02  0.7816164E-02  0.1226708E+00
        -11   -1    0    0    0    0  0.00000000000E+00  0.00000000000E+00  0.45593999997E+02  0.45594000000E+02  0.51100000000E-03 0.  1.
         11   -1    0    0    0    0 -0.00000000000E+00 -0.00000000000E+00 -0.45593999997E+02  0.45594000000E+02  0.51100000000E-03 0. -1.
    9900012    2    1    2    0    0 -0.11954978721E+02 -0.14194712413E+02  0.25034928677E+01  0.72461578739E+02  0.70000011000E+02 0.  0.
        -12    1    1    2    0    0  0.11954978721E+02  0.14194712413E+02 -0.25034928677E+01  0.18726421261E+02  0.00000000000E+00 0.  1.
         11    1    3    3    0    0 -0.38020904665E+01 -0.34956110301E-02  0.87869406058E+01  0.95742482528E+01  0.51100000000E-03 0. -1.
        -11    1    3    3    0    0  0.93728581000E+01 -0.31143731218E+01  0.24133576865E+02  0.26076413125E+02  0.51100000000E-03 0.  1.
         12    1    3    3    0    0 -0.17525746355E+02 -0.11076843680E+02 -0.30417024603E+02  0.36810917361E+02  0.00000000000E+00 0. -1.
</event>
<event>
 7    1  0.1789107E-013  0.7246156E+02  0.7816164E-02  0.1226708E+00
        -11   -1    0    0    0    0  0.00000000000E+00  0.00000000000E+00  0.45593999997E+02  0.45594000000E+02  0.51100000000E-03 0. -1.
         11   -1    0    0    0    0 -0.00000000000E+00 -0.00000000000E+00 -0.45593999997E+02  0.45594000000E+02  0.51100000000E-03 0.  1.
    9900012    2    1    2    0    0 -0.18565548070E+01  0.55034945525E+01  0.17802925749E+02  0.72461563787E+02  0.69999991523E+02 0.  0.
        -12    1    1    2    0    0  0.18565548070E+01 -0.55034945525E+01 -0.17802925749E+02  0.18726436213E+02  0.00000000000E+00 0.  1.
         11    1    3    3    0    0 -0.25330323131E+02  0.27433329306E+01  0.10837060112E+02  0.27687416233E+02  0.51100000000E-03 0.  1.
        -11    1    3    3    0    0  0.30586809413E+02  0.10634999226E+02  0.57796156490E+00  0.32388117550E+02  0.51100000000E-03 0. -1.
         12    1    3    3    0    0 -0.71130410888E+01 -0.78748376044E+01  0.63879040717E+01  0.12386030004E+02  0.00000000000E+00 0. -1.
</event>
<event>
 7    1  0.1789107E-013  0.7246164E+02  0.7816164E-02  0.1226708E+00
        -11   -1    0    0    0    0  0.00000000000E+00  0.00000000000E+00  0.45593999997E+02  0.45594000000E+02  0.51100000000E-03 0.  1.
         11   -1    0    0    0    0 -0.00000000000E+00 -0.00000000000E+00 -0.45593999997E+02  0.45594000000E+02  0.51100000000E-03 0. -1.
    9900012    2    1    2    0    0 -0.32054544119E+00  0.14684471763E+01 -0.18665949046E+02  0.72461635156E+02  0.70000084494E+02 0.  0.
        -12    1    1    2    0    0  0.32054544119E+00 -0.14684471763E+01  0.18665949046E+02  0.18726364844E+02  0.00000000000E+00 0.  1.
         11    1    3    3    0    0  0.10833810146E+02  0.15162125773E+02 -0.15022262263E+02  0.23935953375E+02  0.51100000000E-03 0. -1.
        -11    1    3    3    0    0 -0.16753626235E+02 -0.85148671861E+01 -0.21829789039E+02  0.28804976045E+02  0.51100000000E-03 0.  1.
        -12    1    3    3    0    0  0.55992706476E+01 -0.51788114109E+01  0.18186102256E+02  0.19720705735E+02  0.00000000000E+00 0.  1.
</event>
<event>
 7    1  0.1789107E-013  0.7246150E+02  0.7816164E-02  0.1226708E+00
        -11   -1    0    0    0    0  0.00000000000E+00  0.00000000000E+00  0.45593999997E+02  0.45594000000E+02  0.51100000000E-03 0.  1.
         11   -1    0    0    0    0 -0.00000000000E+00 -0.00000000000E+00 -0.45593999997E+02  0.45594000000E+02  0.51100000000E-03 0. -1.
    9900012    2    1    2    0    0 -0.25279400700E+01  0.18352740473E+02 -0.27328412582E+01  0.72461495115E+02  0.69999902065E+02 0.  0.
        -12    1    1    2    0    0  0.25279400700E+01 -0.18352740473E+02  0.27328412582E+01  0.18726504885E+02  0.00000000000E+00 0.  1.
         11    1    3    3    0    0  0.53269841438E+01  0.33399939445E+02 -0.13970795297E+02  0.36593931690E+02  0.51100000000E-03 0. -1.
        -11    1    3    3    0    0 -0.24701521680E+01 -0.15018475390E+02 -0.70714146614E+01  0.16782763787E+02  0.51100000000E-03 0.  1.
        -12    1    3    3    0    0 -0.53847720458E+01 -0.28723583165E-01  0.18309368700E+02  0.19084799638E+02  0.00000000000E+00 0.  1.
</event>
<event>
 7    1  0.1789107E-013  0.7246155E+02  0.7816164E-02  0.1226708E+00
        -11   -1    0    0    0    0  0.00000000000E+00  0.00000000000E+00  0.45593999997E+02  0.45594000000E+02  0.51100000000E-03 0.  1.
         11   -1    0    0    0    0 -0.00000000000E+00 -0.00000000000E+00 -0.45593999997E+02  0.45594000000E+02  0.51100000000E-03 0. -1.
    9900012    2    1    2    0    0  0.50077463351E+01 -0.70453949269E+01 -0.16612194057E+02  0.72461545332E+02  0.69999967483E+02 0.  0.
        -12    1    1    2    0    0 -0.50077463351E+01  0.70453949269E+01  0.16612194057E+02  0.18726454668E+02  0.00000000000E+00 0.  1.
         11    1    3    3    0    0  0.13845707843E+01 -0.24914369725E+01  0.83618199925E+01  0.88342701053E+01  0.51100000000E-03 0. -1.
        -11    1    3    3    0    0  0.36072589404E+01 -0.20683558764E+02  0.11361434233E+02  0.23872664457E+02  0.51100000000E-03 0.  1.
         12    1    3    3    0    0  0.15916610398E-01  0.16129600809E+02 -0.36335448282E+02  0.39754610770E+02  0.00000000000E+00 0. -1.
</event>
<event>
 7    1  0.1789107E-013  0.7246156E+02  0.7816164E-02  0.1226708E+00
        -11   -1    0    0    0    0  0.00000000000E+00  0.00000000000E+00  0.45593999997E+02  0.45594000000E+02  0.51100000000E-03 0. -1.
         11   -1    0    0    0    0 -0.00000000000E+00 -0.00000000000E+00 -0.45593999997E+02  0.45594000000E+02  0.51100000000E-03 0.  1.
    9900012    2    1    2    0    0  0.80829666783E+00 -0.17988075389E+02 -0.51434923594E+01  0.72461555774E+02  0.69999981084E+02 0.  0.
        -12    1    1    2    0    0 -0.80829666783E+00  0.17988075389E+02  0.51434923594E+01  0.18726444226E+02  0.00000000000E+00 0.  1.
         11    1    3    3    0    0 -0.18348645739E+02 -0.68329525889E+01  0.63913990914E+01  0.20596408040E+02  0.51100000000E-03 0. -1.
        -11    1    3    3    0    0  0.74571920778E+00 -0.26431022570E+02 -0.83623541091E+01  0.27732364085E+02  0.51100000000E-03 0.  1.
        -12    1    3    3    0    0  0.18411223199E+02  0.15275899770E+02 -0.31725373417E+01  0.24132783649E+02  0.00000000000E+00 0.  1.
</event>
<event>
 7    1  0.1789107E-013  0.7246153E+02  0.7816164E-02  0.1226708E+00
        -11   -1    0    0    0    0  0.00000000000E+00  0.00000000000E+00  0.45593999997E+02  0.45594000000E+02  0.51100000000E-03 0.  1.
         11   -1    0    0    0    0 -0.00000000000E+00 -0.00000000000E+00 -0.45593999997E+02  0.45594000000E+02  0.51100000000E-03 0. -1.
    9900012    2    1    2    0    0 -0.49600542408E+01  0.13701372267E+02 -0.11762265408E+02  0.72461531364E+02  0.69999949285E+02 0.  0.
        -12    1    1    2    0    0  0.49600542408E+01 -0.13701372267E+02  0.11762265408E+02  0.18726468636E+02  0.00000000000E+00 0.  1.
         11    1    3    3    0    0 -0.97919408914E+01 -0.19411351073E+02  0.10649327327E+02  0.24209312871E+02  0.51100000000E-03 0. -1.
        -11    1    3    3    0    0  0.11435296834E+02  0.43843150130E+01 -0.20287227912E+01  0.12413861134E+02  0.51100000000E-03 0.  1.
         12    1    3    3    0    0 -0.66034101837E+01  0.28728408327E+02 -0.20382869944E+02  0.35838357359E+02  0.00000000000E+00 0. -1.
</event>
<event>
 7    1  0.1789107E-013  0.7246160E+02  0.7816164E-02  0.1226708E+00
        -11   -1    0    0    0    0  0.00000000000E+00  0.00000000000E+00  0.45593999997E+02  0.45594000000E+02  0.51100000000E-03 0.  1.
         11   -1    0    0    0    0 -0.00000000000E+00 -0.00000000000E+00 -0.45593999997E+02  0.45594000000E+02  0.51100000000E-03 0. -1.
    9900012    2    1    2    0    0 -0.25063808033E+01 -0.17764963265E+02 -0.53667702153E+01  0.72461599196E+02  0.70000037650E+02 0.  0.
        -12    1    1    2    0    0  0.25063808033E+01  0.17764963265E+02  0.53667702153E+01  0.18726400804E+02  0.00000000000E+00 0.  1.
         11    1    3    3    0    0 -0.11354847821E+02 -0.33471226234E+02 -0.13425585459E+02  0.37808754275E+02  0.51100000000E-03 0. -1.
        -11    1    3    3    0    0  0.17455059895E+02  0.35565518775E+01  0.19551481600E+00  0.17814780479E+02  0.51100000000E-03 0.  1.
         12    1    3    3    0    0 -0.86065928773E+01  0.12149711091E+02  0.78633004276E+01  0.16838064443E+02  0.00000000000E+00 0. -1.
</event>
<event>
 7    1  0.1789107E-013  0.7246158E+02  0.7816164E-02  0.1226708E+00
        -11   -1    0    0    0    0  0.00000000000E+00  0.00000000000E+00  0.45593999997E+02  0.45594000000E+02  0.51100000000E-03 0.  1.
         11   -1    0    0    0    0 -0.00000000000E+00 -0.00000000000E+00 -0.45593999997E+02  0.45594000000E+02  0.51100000000E-03 0. -1.
    9900012    2    1    2    0    0 -0.15991045188E+02  0.94875332769E+01  0.22253238747E+01  0.72461578018E+02  0.70000010062E+02 0.  0.
        -12    1    1    2    0    0  0.15991045188E+02 -0.94875332769E+01 -0.22253238747E+01  0.18726421982E+02  0.00000000000E+00 0.  1.
         11    1    3    3    0    0 -0.98524871572E+01 -0.10200498450E+02 -0.59970557195E+01  0.15397608560E+02  0.51100000000E-03 0. -1.
        -11    1    3    3    0    0 -0.73070375121E+01 -0.17626472612E+02  0.39714106271E+01  0.19489931672E+02  0.51100000000E-03 0.  1.
         12    1    3    3    0    0  0.11684794808E+01  0.37314504339E+02  0.42509689671E+01  0.37574037786E+02  0.00000000000E+00 0. -1.
</event>
<event>
 7    1  0.1789107E-013  0.7246178E+02  0.7816164E-02  0.1226707E+00
        -11   -1    0    0    0    0  0.00000000000E+00  0.00000000000E+00  0.45593999997E+02  0.45594000000E+02  0.51100000000E-03 0. -1.
         11   -1    0    0    0    0 -0.00000000000E+00 -0.00000000000E+00 -0.45593999997E+02  0.45594000000E+02  0.51100000000E-03 0.  1.
    9900012    2    1    2    0    0  0.59639264271E+01  0.12575148843E+02  0.12528701614E+02  0.72461784392E+02  0.70000278902E+02 0.  0.
        -12    1    1    2    0    0 -0.59639264271E+01 -0.12575148843E+02 -0.12528701614E+02  0.18726215608E+02  0.00000000000E+00 0.  1.
         11    1    3    3    0    0  0.84433353604E+01  0.19931814930E+01  0.11376372635E+02  0.14306800448E+02  0.51100000000E-03 0. -1.
        -11    1    3    3    0    0 -0.23669978430E+02 -0.11272384386E+01  0.17048554098E+02  0.29192323348E+02  0.51100000000E-03 0.  1.
         12    1    3    3    0    0  0.21190569496E+02  0.11709205789E+02 -0.15896225119E+02  0.28962660596E+02  0.00000000000E+00 0. -1.
</event>
<event>
 7    1  0.1789107E-013  0.7246153E+02  0.7816164E-02  0.1226708E+00
        -11   -1    0    0    0    0  0.00000000000E+00  0.00000000000E+00  0.45593999997E+02  0.45594000000E+02  0.51100000000E-03 0.  1.
         11   -1    0    0    0    0 -0.00000000000E+00 -0.00000000000E+00 -0.45593999997E+02  0.45594000000E+02  0.51100000000E-03 0. -1.
    9900012    2    1    2    0    0  0.39405667874E+01  0.17535276946E+02 -0.52599010813E+01  0.72461533073E+02  0.69999951513E+02 0.  0.
        -12    1    1    2    0    0 -0.39405667874E+01 -0.17535276946E+02  0.52599010813E+01  0.18726466927E+02  0.00000000000E+00 0.  1.
         11    1    3    3    0    0  0.11837945881E+02  0.71046329946E+01  0.16445793240E+02  0.21472701000E+02  0.51100000000E-03 0. -1.
        -11    1    3    3    0    0  0.14579746305E+02 -0.78478823427E+00  0.39062418269E+01  0.15114351470E+02  0.51100000000E-03 0.  1.
         12    1    3    3    0    0 -0.22477125399E+02  0.11215432185E+02 -0.25611936149E+02  0.35874480603E+02  0.00000000000E+00 0. -1.
</event>
<event>
 7    1  0.1789107E-013  0.7246145E+02  0.7816164E-02  0.1226708E+00
        -11   -1    0    0    0    0  0.00000000000E+00  0.00000000000E+00  0.45593999997E+02  0.45594000000E+02  0.51100000000E-03 0.  1.
         11   -1    0    0    0    0 -0.00000000000E+00 -0.00000000000E+00 -0.45593999997E+02  0.45594000000E+02  0.51100000000E-03 0. -1.
    9900012    2    1    2    0    0  0.98792399219E+01  0.93178746114E+01 -0.12894236877E+02  0.72461454314E+02  0.69999848914E+02 0.  0.
        -12    1    1    2    0    0 -0.98792399219E+01 -0.93178746114E+01  0.12894236877E+02  0.18726545686E+02  0.00000000000E+00 0.  1.
         11    1    3    3    0    0  0.48317528743E+01  0.16198914902E+02 -0.14290731491E+02  0.22135394432E+02  0.51100000000E-03 0. -1.
        -11    1    3    3    0    0  0.52727644557E+01  0.21201991901E+02 -0.24304641365E+01  0.21982576322E+02  0.51100000000E-03 0.  1.
        -12    1    3    3    0    0 -0.22527740808E+00 -0.28083032192E+02  0.38269587510E+01  0.28343483560E+02  0.00000000000E+00 0.  1.
</event>
<event>
 7    1  0.1789107E-013  0.7246165E+02  0.7816164E-02  0.1226708E+00
        -11   -1    0    0    0    0  0.00000000000E+00  0.00000000000E+00  0.45593999997E+02  0.45594000000E+02  0.51100000000E-03 0. -1.
         11   -1    0    0    0    0 -0.00000000000E+00 -0.00000000000E+00 -0.45593999997E+02  0.45594000000E+02  0.51100000000E-03 0.  1.
    9900012    2    1    2    0    0 -0.10437421596E+02 -0.12829725116E+02 -0.87826237678E+01  0.72461652348E+02  0.70000106890E+02 0.  0.
        -12    1    1    2    0    0  0.10437421596E+02  0.12829725116E+02  0.87826237678E+01  0.18726347652E+02  0.00000000000E+00 0.  1.
         11    1    3    3    0    0 -0.20752584040E+01 -0.15116740068E+02 -0.60137999469E+01  0.16400863325E+02  0.51100000000E-03 0. -1.
        -11    1    3    3    0    0 -0.27575305146E+01  0.27733196882E+01 -0.28985072923E+02  0.29247730326E+02  0.51100000000E-03 0.  1.
         12    1    3    3    0    0 -0.56046326776E+01 -0.48630473592E+00  0.26216249102E+02  0.26813058697E+02  0.00000000000E+00 0. -1.
</event>
<event>
 7    1  0.1789107E-013  0.7246154E+02  0.7816164E-02  0.1226708E+00
        -11   -1    0    0    0    0  0.00000000000E+00  0.00000000000E+00  0.45593999997E+02  0.45594000000E+02  0.51100000000E-03 0.  1.
         11   -1    0    0    0    0 -0.00000000000E+00 -0.00000000000E+00 -0.45593999997E+02  0.45594000000E+02  0.51100000000E-03 0. -1.
    9900012    2    1    2    0    0 -0.10187637113E+02  0.95021819471E+01 -0.12514022255E+02  0.72461543723E+02  0.69999965386E+02 0.  0.
        -12    1    1    2    0    0  0.10187637113E+02 -0.95021819471E+01  0.12514022255E+02  0.18726456277E+02  0.00000000000E+00 0.  1.
         11    1    3    3    0    0  0.42865924638E+01 -0.45859330925E+00  0.52252117261E+01  0.67740697234E+01  0.51100000000E-03 0. -1.
        -11    1    3    3    0    0 -0.91312247755E+01  0.37022754265E+01  0.22527709516E+02  0.24588285942E+02  0.51100000000E-03 0.  1.
         12    1    3    3    0    0 -0.53430048013E+01  0.62584998299E+01 -0.40266943497E+02  0.41099188058E+02  0.00000000000E+00 0. -1.
</event>
<event>
 7    1  0.1789107E-013  0.7246159E+02  0.7816164E-02  0.1226708E+00
        -11   -1    0    0    0    0  0.00000000000E+00  0.00000000000E+00  0.45593999997E+02  0.45594000000E+02  0.51100000000E-03 0. -1.
         11   -1    0    0    0    0 -0.00000000000E+00 -0.00000000000E+00 -0.45593999997E+02  0.45594000000E+02  0.51100000000E-03 0.  1.
    9900012    2    1    2    0    0 -0.15794662209E+02 -0.37861460479E+01  0.93205183595E+01  0.72461593012E+02  0.70000029593E+02 0.  0.
        -12    1    1    2    0    0  0.15794662209E+02  0.37861460479E+01 -0.93205183595E+01  0.18726406988E+02  0.00000000000E+00 0.  1.
         11    1    3    3    0    0 -0.46621902075E+01 -0.36713096702E+01 -0.34063113085E+01  0.68423306860E+01  0.51100000000E-03 0. -1.
        -11    1    3    3    0    0 -0.34602492358E+02  0.13417759051E+02  0.96941246424E+01  0.38358112417E+02  0.51100000000E-03 0.  1.
         12    1    3    3    0    0  0.23470020356E+02 -0.13532595429E+02  0.30327050255E+01  0.27261149909E+02  0.00000000000E+00 0. -1.
</event>
<event>
 7    1  0.1789107E-013  0.7246154E+02  0.7816164E-02  0.1226708E+00
        -11   -1    0    0    0    0  0.00000000000E+00  0.00000000000E+00  0.45593999997E+02  0.45594000000E+02  0.51100000000E-03 0. -1.
         11   -1    0    0    0    0 -0.00000000000E+00 -0.00000000000E+00 -0.45593999997E+02  0.45594000000E+02  0.51100000000E-03 0.  1.
    9900012    2    1    2    0    0  0.22073343645E+00  0.14542641244E+02  0.11795894698E+02  0.72461540929E+02  0.69999961747E+02 0.  0.
        -12    1    1    2    0    0 -0.22073343645E+00 -0.14542641244E+02 -0.11795894698E+02  0.18726459071E+02  0.00000000000E+00 0.  1.
         11    1    3    3    0    0 -0.16964941761E+02  0.21807664150E+02 -0.62364503308E+01  0.28324490774E+02  0.51100000000E-03 0. -1.
        -11    1    3    3    0    0  0.59344406092E+00  0.46183122346E+01 -0.90785836588E+01  0.10203022359E+02  0.51100000000E-03 0.  1.
         12    1    3    3    0    0  0.16592231137E+02 -0.11883335141E+02  0.27110928688E+02  0.33934027796E+02  0.00000000000E+00 0. -1.
</event>
<event>
 7    1  0.1789107E-013  0.7246155E+02  0.7816164E-02  0.1226708E+00
        -11   -1    0    0    0    0  0.00000000000E+00  0.00000000000E+00  0.45593999997E+02  0.45594000000E+02  0.51100000000E-03 0.  1.
         11   -1    0    0    0    0 -0.00000000000E+00 -0.00000000000E+00 -0.45593999997E+02  0.45594000000E+02  0.51100000000E-03 0. -1.
    9900012    2    1    2    0    0  0.12478628821E+02 -0.13927347489E+02 -0.99636015333E+00  0.72461550286E+02  0.69999973936E+02 0.  0.
        -12    1    1    2    0    0 -0.12478628821E+02  0.13927347489E+02  0.99636015333E+00  0.18726449714E+02  0.00000000000E+00 0.  1.
         11    1    3    3    0    0  0.84559184793E+01 -0.32352958127E+01 -0.27530043351E+02  0.28980562166E+02  0.51100000000E-03 0. -1.
        -11    1    3    3    0    0 -0.12595295643E+02  0.19184458217E+01  0.55653406560E+01  0.13903054470E+02  0.51100000000E-03 0.  1.
         12    1    3    3    0    0  0.16618005985E+02 -0.12610497498E+02  0.20968342541E+02  0.29577933650E+02  0.00000000000E+00 0. -1.
</event>
<event>
 7    1  0.1789107E-013  0.7246160E+02  0.7816164E-02  0.1226708E+00
        -11   -1    0    0    0    0  0.00000000000E+00  0.00000000000E+00  0.45593999997E+02  0.45594000000E+02  0.51100000000E-03 0.  1.
         11   -1    0    0    0    0 -0.00000000000E+00 -0.00000000000E+00 -0.45593999997E+02  0.45594000000E+02  0.51100000000E-03 0. -1.
    9900012    2    1    2    0    0  0.78923371342E+01 -0.16168441010E+02 -0.51933099778E+01  0.72461603159E+02  0.70000042812E+02 0.  0.
        -12    1    1    2    0    0 -0.78923371342E+01  0.16168441010E+02  0.51933099778E+01  0.18726396841E+02  0.00000000000E+00 0.  1.
         11    1    3    3    0    0  0.23970947430E+02 -0.17717311639E+02 -0.53927337950E+01  0.30291765060E+02  0.51100000000E-03 0. -1.
        -11    1    3    3    0    0 -0.38210368836E+01  0.88496964389E+01  0.17357849084E+02  0.19854782170E+02  0.51100000000E-03 0.  1.
         12    1    3    3    0    0 -0.12257573413E+02 -0.73008258097E+01 -0.17158425267E+02  0.22315055929E+02  0.00000000000E+00 0. -1.
</event>
<event>
 7    1  0.1789107E-013  0.7246156E+02  0.7816164E-02  0.1226708E+00
        -11   -1    0    0    0    0  0.00000000000E+00  0.00000000000E+00  0.45593999997E+02  0.45594000000E+02  0.51100000000E-03 0.  1.
         11   -1    0    0    0    0 -0.00000000000E+00 -0.00000000000E+00 -0.45593999997E+02  0.45594000000E+02  0.51100000000E-03 0. -1.
    9900012    2    1    2    0    0 -0.17596028677E+02 -0.40969790131E+01  0.49268905893E+01  0.72461555781E+02  0.69999981093E+02 0.  0.
        -12    1    1    2    0    0  0.17596028677E+02  0.40969790131E+01 -0.49268905893E+01  0.18726444219E+02  0.00000000000E+00 0.  1.
         11    1    3    3    0    0 -0.99573688342E+01 -0.27881720300E+02 -0.14196666268E+02  0.32834202509E+02  0.51100000000E-03 0. -1.
        -11    1    3    3    0    0 -0.76569507841E+01  0.78611057099E+01 -0.38890924319E+01  0.11642633658E+02  0.51100000000E-03 0.  1.
        -12    1    3    3    0    0  0.18290941782E-01  0.15923635577E+02  0.23012649290E+02  0.27984719614E+02  0.00000000000E+00 0.  1.
</event>
<event>
 7    1  0.1789107E-013  0.7246152E+02  0.7816164E-02  0.1226708E+00
        -11   -1    0    0    0    0  0.00000000000E+00  0.00000000000E+00  0.45593999997E+02  0.45594000000E+02  0.51100000000E-03 0.  1.
         11   -1    0    0    0    0 -0.00000000000E+00 -0.00000000000E+00 -0.45593999997E+02  0.45594000000E+02  0.51100000000E-03 0. -1.
    9900012    2    1    2    0    0 -0.68249530366E+01  0.10924600127E+02 -0.13592428872E+02  0.72461521566E+02  0.69999936523E+02 0.  0.
        -12    1    1    2    0    0  0.68249530366E+01 -0.10924600127E+02  0.13592428872E+02  0.18726478434E+02  0.00000000000E+00 0.  1.
         11    1    3    3    0    0  0.12076294965E+02  0.88180653541E+01  0.30406778787E+01  0.15259125102E+02  0.51100000000E-03 0. -1.
        -11    1    3    3    0    0  0.87072270037E+01  0.53074186490E+01 -0.25955839105E+02  0.27887095200E+02  0.51100000000E-03 0.  1.
        -12    1    3    3    0    0 -0.27608475005E+02 -0.32008838764E+01  0.93227323538E+01  0.29315301264E+02  0.00000000000E+00 0.  1.
</event>
<event>
 7    1  0.1789107E-013  0.7246157E+02  0.7816164E-02  0.1226708E+00
        -11   -1    0    0    0    0  0.00000000000E+00  0.00000000000E+00  0.45593999997E+02  0.45594000000E+02  0.51100000000E-03 0.  1.
         11   -1    0    0    0    0 -0.00000000000E+00 -0.00000000000E+00 -0.45593999997E+02  0.45594000000E+02  0.51100000000E-03 0. -1.
    9900012    2    1    2    0    0 -0.12634592674E+01 -0.77991262042E+01 -0.16978116954E+02  0.72461570705E+02  0.70000000534E+02 0.  0.
        -12    1    1    2    0    0  0.12634592674E+01  0.77991262042E+01  0.16978116954E+02  0.18726429295E+02  0.00000000000E+00 0.  1.
         11    1    3    3    0    0  0.17569288460E+02  0.12336379501E+02 -0.15860650746E+02  0.26691316913E+02  0.51100000000E-03 0. -1.
        -11    1    3    3    0    0  0.40365964855E+01  0.57119646625E+01  0.74414185734E+01  0.10212510080E+02  0.51100000000E-03 0.  1.
        -12    1    3    3    0    0 -0.22869344213E+02 -0.25847470368E+02 -0.85588847809E+01  0.35557743712E+02  0.00000000000E+00 0.  1.
</event>
<event>
 7    1  0.1789107E-013  0.7246150E+02  0.7816164E-02  0.1226708E+00
        -11   -1    0    0    0    0  0.00000000000E+00  0.00000000000E+00  0.45593999997E+02  0.45594000000E+02  0.51100000000E-03 0.  1.
         11   -1    0    0    0    0 -0.00000000000E+00 -0.00000000000E+00 -0.45593999997E+02  0.45594000000E+02  0.51100000000E-03 0. -1.
    9900012    2    1    2    0    0  0.26109983775E+01 -0.17107054408E+02 -0.71563303299E+01  0.72461503081E+02  0.69999912443E+02 0.  0.
        -12    1    1    2    0    0 -0.26109983775E+01  0.17107054408E+02  0.71563303299E+01  0.18726496919E+02  0.00000000000E+00 0.  1.
         11    1    3    3    0    0 -0.12416805494E+02 -0.13537756415E+02 -0.48477817144E+01  0.18998655090E+02  0.51100000000E-03 0. -1.
        -11    1    3    3    0    0  0.59118989041E+01  0.20865547097E+02  0.10851979871E+02  0.24250506627E+02  0.51100000000E-03 0.  1.
         12    1    3    3    0    0  0.91159049671E+01 -0.24434845090E+02 -0.13160528486E+02  0.29212341364E+02  0.00000000000E+00 0. -1.
</event>
<event>
 7    1  0.1789107E-013  0.7246152E+02  0.7816164E-02  0.1226708E+00
        -11   -1    0    0    0    0  0.00000000000E+00  0.00000000000E+00  0.45593999997E+02  0.45594000000E+02  0.51100000000E-03 0.  1.
         11   -1    0    0    0    0 -0.00000000000E+00 -0.00000000000E+00 -0.45593999997E+02  0.45594000000E+02  0.51100000000E-03 0. -1.
    9900012    2    1    2    0    0  0.64026180087E+01  0.95521755937E+01 -0.14779835245E+02  0.72461518595E+02  0.69999932652E+02 0.  0.
        -12    1    1    2    0    0 -0.64026180087E+01 -0.95521755937E+01  0.14779835245E+02  0.18726481405E+02  0.00000000000E+00 0.  1.
         11    1    3    3    0    0 -0.34418113429E+01  0.18743996917E+02 -0.44764412024E+01  0.19576057107E+02  0.51100000000E-03 0.  1.
        -11    1    3    3    0    0  0.25589314850E+01  0.13647997598E+02 -0.22151445547E+02  0.26143880907E+02  0.51100000000E-03 0. -1.
        -12    1    3    3    0    0  0.72854978665E+01 -0.22839818922E+02  0.11848051505E+02  0.26741580581E+02  0.00000000000E+00 0.  1.
</event>
<event>
 7    1  0.1789107E-013  0.7246153E+02  0.7816164E-02  0.1226708E+00
        -11   -1    0    0    0    0  0.00000000000E+00  0.00000000000E+00  0.45593999997E+02  0.45594000000E+02  0.51100000000E-03 0.  1.
         11   -1    0    0    0    0 -0.00000000000E+00 -0.00000000000E+00 -0.45593999997E+02  0.45594000000E+02  0.51100000000E-03 0. -1.
    9900012    2    1    2    0    0 -0.59144455225E+01 -0.50225325636E+01 -0.17043302959E+02  0.72461530099E+02  0.69999947639E+02 0.  0.
        -12    1    1    2    0    0  0.59144455225E+01  0.50225325636E+01  0.17043302959E+02  0.18726469901E+02  0.00000000000E+00 0.  1.
         11    1    3    3    0    0  0.39548968286E+00  0.71973736400E+01 -0.34619484446E+01  0.79964796440E+01  0.51100000000E-03 0. -1.
        -11    1    3    3    0    0 -0.23708402959E+02  0.13000409993E+02 -0.19399433833E+02  0.33278176996E+02  0.51100000000E-03 0.  1.
        -12    1    3    3    0    0  0.17398467753E+02 -0.25220316197E+02  0.58180793190E+01  0.31186873460E+02  0.00000000000E+00 0.  1.
</event>
<event>
 7    1  0.1789107E-013  0.7246158E+02  0.7816164E-02  0.1226708E+00
        -11   -1    0    0    0    0  0.00000000000E+00  0.00000000000E+00  0.45593999997E+02  0.45594000000E+02  0.51100000000E-03 0. -1.
         11   -1    0    0    0    0 -0.00000000000E+00 -0.00000000000E+00 -0.45593999997E+02  0.45594000000E+02  0.51100000000E-03 0.  1.
    9900012    2    1    2    0    0  0.49579487993E+01 -0.13365468211E+02  0.12143382291E+02  0.72461582023E+02  0.70000015278E+02 0.  0.
        -12    1    1    2    0    0 -0.49579487993E+01  0.13365468211E+02 -0.12143382291E+02  0.18726417977E+02  0.00000000000E+00 0.  1.
         11    1    3    3    0    0 -0.81456962572E+01 -0.21992127396E+02  0.10744502383E+02  0.25796324673E+02  0.51100000000E-03 0. -1.
        -11    1    3    3    0    0 -0.51641059620E+01  0.68364638733E+01 -0.18014622326E+02  0.19948229156E+02  0.51100000000E-03 0.  1.
         12    1    3    3    0    0  0.18267751018E+02  0.17901953111E+01  0.19413502233E+02  0.26717028194E+02  0.00000000000E+00 0. -1.
</event>
<event>
 7    1  0.1789107E-013  0.7246137E+02  0.7816164E-02  0.1226709E+00
        -11   -1    0    0    0    0  0.00000000000E+00  0.00000000000E+00  0.45593999997E+02  0.45594000000E+02  0.51100000000E-03 0.  1.
         11   -1    0    0    0    0 -0.00000000000E+00 -0.00000000000E+00 -0.45593999997E+02  0.45594000000E+02  0.51100000000E-03 0. -1.
    9900012    2    1    2    0    0 -0.43160571549E+01 -0.11947911853E+02 -0.13758841715E+02  0.72461369968E+02  0.69999739037E+02 0.  0.
        -12    1    1    2    0    0  0.43160571549E+01  0.11947911853E+02  0.13758841715E+02  0.18726630032E+02  0.00000000000E+00 0.  1.
         11    1    3    3    0    0  0.76396381371E+01  0.21610346644E+02  0.20011777625E+01  0.23008169541E+02  0.51100000000E-03 0.  1.
        -11    1    3    3    0    0 -0.10345779921E+02 -0.12289031654E+02  0.76417647484E+01  0.17789098625E+02  0.51100000000E-03 0. -1.
         12    1    3    3    0    0 -0.16099153714E+01 -0.21269226843E+02 -0.23401784226E+02  0.31664101802E+02  0.00000000000E+00 0. -1.
</event>
<event>
 7    1  0.1789107E-013  0.7246186E+02  0.7816164E-02  0.1226707E+00
        -11   -1    0    0    0    0  0.00000000000E+00  0.00000000000E+00  0.45593999997E+02  0.45594000000E+02  0.51100000000E-03 0.  1.
         11   -1    0    0    0    0 -0.00000000000E+00 -0.00000000000E+00 -0.45593999997E+02  0.45594000000E+02  0.51100000000E-03 0. -1.
    9900012    2    1    2    0    0  0.15288371365E+02 -0.10582724876E+02  0.22225873096E+01  0.72461861606E+02  0.70000379486E+02 0.  0.
        -12    1    1    2    0    0 -0.15288371365E+02  0.10582724876E+02 -0.22225873096E+01  0.18726138394E+02  0.00000000000E+00 0.  1.
         11    1    3    3    0    0  0.43333060222E+01  0.13846835075E+01 -0.38782413511E+01  0.59779298872E+01  0.51100000000E-03 0. -1.
        -11    1    3    3    0    0  0.95967099353E+00  0.11865836178E+02  0.29380503350E+02  0.31700678447E+02  0.51100000000E-03 0.  1.
         12    1    3    3    0    0  0.99953943496E+01 -0.23833244561E+02 -0.23279674689E+02  0.34783253272E+02  0.00000000000E+00 0. -1.
</event>
<event>
 7    1  0.1789107E-013  0.7246154E+02  0.7816164E-02  0.1226708E+00
        -11   -1    0    0    0    0  0.00000000000E+00  0.00000000000E+00  0.45593999997E+02  0.45594000000E+02  0.51100000000E-03 0. -1.
         11   -1    0    0    0    0 -0.00000000000E+00 -0.00000000000E+00 -0.45593999997E+02  0.45594000000E+02  0.51100000000E-03 0.  1.
    9900012    2    1    2    0    0  0.62173119907E+01 -0.67260628473E+01  0.16333571847E+02  0.72461535862E+02  0.69999955146E+02 0.  0.
        -12    1    1    2    0    0 -0.62173119907E+01  0.67260628473E+01 -0.16333571847E+02  0.18726464138E+02  0.00000000000E+00 0.  1.
         11    1    3    3    0    0 -0.16278634972E+02 -0.10640476429E+02  0.12674861039E+02  0.23213483104E+02  0.51100000000E-03 0. -1.
        -11    1    3    3    0    0 -0.15702694686E+01 -0.63865087344E+01 -0.15480531071E+02  0.16819633840E+02  0.51100000000E-03 0.  1.
         12    1    3    3    0    0  0.24066216431E+02  0.10300922317E+02  0.19139241878E+02  0.32428418919E+02  0.00000000000E+00 0. -1.
</event>
<event>
 7    1  0.1789107E-013  0.7246158E+02  0.7816164E-02  0.1226708E+00
        -11   -1    0    0    0    0  0.00000000000E+00  0.00000000000E+00  0.45593999997E+02  0.45594000000E+02  0.51100000000E-03 0.  1.
         11   -1    0    0    0    0 -0.00000000000E+00 -0.00000000000E+00 -0.45593999997E+02  0.45594000000E+02  0.51100000000E-03 0. -1.
    9900012    2    1    2    0    0  0.70135195610E+01 -0.11358665453E+02  0.13132793125E+02  0.72461575013E+02  0.70000006147E+02 0.  0.
        -12    1    1    2    0    0 -0.70135195610E+01  0.11358665453E+02 -0.13132793125E+02  0.18726424987E+02  0.00000000000E+00 0.  1.
         11    1    3    3    0    0 -0.20545988142E+02  0.16325785192E+02  0.48658467733E+01  0.26689798724E+02  0.51100000000E-03 0. -1.
        -11    1    3    3    0    0  0.21259411683E+02 -0.58991974373E+01  0.66183114717E+01  0.23034000141E+02  0.51100000000E-03 0.  1.
        -12    1    3    3    0    0  0.63000960200E+01 -0.21785253208E+02  0.16486348804E+01  0.22737776148E+02  0.00000000000E+00 0.  1.
</event>
<event>
 7    1  0.1789107E-013  0.7246164E+02  0.7816164E-02  0.1226708E+00
        -11   -1    0    0    0    0  0.00000000000E+00  0.00000000000E+00  0.45593999997E+02  0.45594000000E+02  0.51100000000E-03 0. -1.
         11   -1    0    0    0    0 -0.00000000000E+00 -0.00000000000E+00 -0.45593999997E+02  0.45594000000E+02  0.51100000000E-03 0.  1.
    9900012    2    1    2    0    0 -0.10433477883E+02 -0.14449796112E+02  0.57465184431E+01  0.72461640433E+02  0.70000091369E+02 0.  0.
        -12    1    1    2    0    0  0.10433477883E+02  0.14449796112E+02 -0.57465184431E+01  0.18726359567E+02  0.00000000000E+00 0.  1.
         11    1    3    3    0    0 -0.23461029692E+02  0.92041306096E+01 -0.41431962262E+01  0.25540203791E+02  0.51100000000E-03 0. -1.
        -11    1    3    3    0    0  0.27254176018E+01  0.10064421002E+02  0.51654389973E+00  0.10439697748E+02  0.51100000000E-03 0.  1.
        -12    1    3    3    0    0  0.10302134207E+02 -0.33718347724E+02  0.93731707696E+01  0.36481738894E+02  0.00000000000E+00 0.  1.
</event>
<event>
 7    1  0.1789107E-013  0.7246162E+02  0.7816164E-02  0.1226708E+00
        -11   -1    0    0    0    0  0.00000000000E+00  0.00000000000E+00  0.45593999997E+02  0.45594000000E+02  0.51100000000E-03 0. -1.
         11   -1    0    0    0    0 -0.00000000000E+00 -0.00000000000E+00 -0.45593999997E+02  0.45594000000E+02  0.51100000000E-03 0.  1.
    9900012    2    1    2    0    0 -0.10321953297E+02  0.14343724383E+02 -0.61961551812E+01  0.72461615190E+02  0.70000058484E+02 0.  0.
        -12    1    1    2    0    0  0.10321953297E+02 -0.14343724383E+02  0.61961551812E+01  0.18726384810E+02  0.00000000000E+00 0.  1.
         11    1    3    3    0    0 -0.83596504630E+01  0.68970107246E+01 -0.28821702913E+01  0.11214250695E+02  0.51100000000E-03 0. -1.
        -11    1    3    3    0    0 -0.24658137098E+02 -0.10534458132E+02 -0.14164678620E+02  0.30325511602E+02  0.51100000000E-03 0.  1.
         12    1    3    3    0    0  0.22695834263E+02  0.17981171791E+02  0.10850693730E+02  0.30921852892E+02  0.00000000000E+00 0. -1.
</event>
<event>
 7    1  0.1789107E-013  0.7246156E+02  0.7816164E-02  0.1226708E+00
        -11   -1    0    0    0    0  0.00000000000E+00  0.00000000000E+00  0.45593999997E+02  0.45594000000E+02  0.51100000000E-03 0. -1.
         11   -1    0    0    0    0 -0.00000000000E+00 -0.00000000000E+00 -0.45593999997E+02  0.45594000000E+02  0.51100000000E-03 0.  1.
    9900012    2    1    2    0    0 -0.47180261389E+01  0.15592595303E+02  0.92352960673E+01  0.72461561674E+02  0.69999988770E+02 0.  0.
        -12    1    1    2    0    0  0.47180261389E+01 -0.15592595303E+02 -0.92352960673E+01  0.18726438326E+02  0.00000000000E+00 0.  1.
         11    1    3    3    0    0  0.73691807458E+01  0.35221971531E+01  0.75691036580E+01  0.11135619789E+02  0.51100000000E-03 0. -1.
        -11    1    3    3    0    0  0.17151556980E+02 -0.12960294536E+02 -0.54651760208E+01  0.22181372602E+02  0.51100000000E-03 0.  1.
         12    1    3    3    0    0 -0.29238763865E+02  0.25030692685E+02  0.71313684301E+01  0.39144569283E+02  0.00000000000E+00 0. -1.
</event>
<event>
 7    1  0.1789107E-013  0.7246167E+02  0.7816164E-02  0.1226708E+00
        -11   -1    0    0    0    0  0.00000000000E+00  0.00000000000E+00  0.45593999997E+02  0.45594000000E+02  0.51100000000E-03 0.  1.
         11   -1    0    0    0    0 -0.00000000000E+00 -0.00000000000E+00 -0.45593999997E+02  0.45594000000E+02  0.51100000000E-03 0. -1.
    9900012    2    1    2    0    0 -0.10666853492E+02 -0.14436923418E+02 -0.53356284180E+01  0.72461669559E+02  0.70000129310E+02 0.  0.
        -12    1    1    2    0    0  0.10666853492E+02  0.14436923418E+02  0.53356284180E+01  0.18726330441E+02  0.00000000000E+00 0.  1.
         11    1    3    3    0    0  0.24519929878E+02 -0.79453221090E+01 -0.66850560390E+01  0.26627900390E+02  0.51100000000E-03 0. -1.
        -11    1    3    3    0    0  0.48593578020E+01  0.11629710105E+01 -0.49420743158E+00  0.50209661487E+01  0.51100000000E-03 0.  1.
        -12    1    3    3    0    0 -0.40046141172E+02 -0.76545723193E+01  0.18436350526E+01  0.40812803020E+02  0.00000000000E+00 0.  1.
</event>
<event>
 7    1  0.1789107E-013  0.7246134E+02  0.7816164E-02  0.1226709E+00
        -11   -1    0    0    0    0  0.00000000000E+00  0.00000000000E+00  0.45593999997E+02  0.45594000000E+02  0.51100000000E-03 0.  1.
         11   -1    0    0    0    0 -0.00000000000E+00 -0.00000000000E+00 -0.45593999997E+02  0.45594000000E+02  0.51100000000E-03 0. -1.
    9900012    2    1    2    0    0  0.18433624261E+02  0.34113728513E+00  0.32822265725E+01  0.72461337476E+02  0.69999696710E+02 0.  0.
        -12    1    1    2    0    0 -0.18433624261E+02 -0.34113728513E+00 -0.32822265725E+01  0.18726662524E+02  0.00000000000E+00 0.  1.
         11    1    3    3    0    0  0.12905244803E+02 -0.12251062506E+02 -0.23355389304E+02  0.29361677162E+02  0.51100000000E-03 0. -1.
        -11    1    3    3    0    0  0.12484439039E+02 -0.13578463991E+01  0.38029400641E+00  0.12563820627E+02  0.51100000000E-03 0.  1.
        -12    1    3    3    0    0 -0.69560595814E+01  0.13950046191E+02  0.26257321870E+02  0.30535839687E+02  0.00000000000E+00 0.  1.
</event>
<event>
 7    1  0.1789107E-013  0.7246157E+02  0.7816164E-02  0.1226708E+00
        -11   -1    0    0    0    0  0.00000000000E+00  0.00000000000E+00  0.45593999997E+02  0.45594000000E+02  0.51100000000E-03 0.  1.
         11   -1    0    0    0    0 -0.00000000000E+00 -0.00000000000E+00 -0.45593999997E+02  0.45594000000E+02  0.51100000000E-03 0. -1.
    9900012    2    1    2    0    0  0.72371349781E+01 -0.16313571781E+02 -0.56719063564E+01  0.72461567647E+02  0.69999996552E+02 0.  0.
        -12    1    1    2    0    0 -0.72371349781E+01  0.16313571781E+02  0.56719063564E+01  0.18726432353E+02  0.00000000000E+00 0.  1.
         11    1    3    3    0    0 -0.16434914886E+02 -0.18656059472E+02 -0.46418664515E+01  0.25292329010E+02  0.51100000000E-03 0. -1.
        -11    1    3    3    0    0 -0.15764993406E+01  0.10235120413E+02 -0.14234829583E+02  0.17603221681E+02  0.51100000000E-03 0.  1.
         12    1    3    3    0    0  0.25248549204E+02 -0.78926327221E+01  0.13204789678E+02  0.29566016956E+02  0.00000000000E+00 0. -1.
</event>
<event>
 7    1  0.1789107E-013  0.7246182E+02  0.7816164E-02  0.1226707E+00
        -11   -1    0    0    0    0  0.00000000000E+00  0.00000000000E+00  0.45593999997E+02  0.45594000000E+02  0.51100000000E-03 0.  1.
         11   -1    0    0    0    0 -0.00000000000E+00 -0.00000000000E+00 -0.45593999997E+02  0.45594000000E+02  0.51100000000E-03 0. -1.
    9900012    2    1    2    0    0 -0.14084849905E+02  0.38458745943E+01 -0.11725865499E+02  0.72461823937E+02  0.70000330416E+02 0.  0.
        -12    1    1    2    0    0  0.14084849905E+02 -0.38458745943E+01  0.11725865499E+02  0.18726176063E+02  0.00000000000E+00 0.  1.
         11    1    3    3    0    0 -0.42748499451E+01 -0.71803315533E+01  0.55923416175E+01  0.10055137408E+02  0.51100000000E-03 0. -1.
        -11    1    3    3    0    0 -0.15650399312E+02 -0.37690048430E+00  0.18576966857E+02  0.24293636007E+02  0.51100000000E-03 0.  1.
         12    1    3    3    0    0  0.58403993521E+01  0.11403106632E+02 -0.35895173974E+02  0.38113050521E+02  0.00000000000E+00 0. -1.
</event>
<event>
 7    1  0.1789107E-013  0.7246171E+02  0.7816164E-02  0.1226708E+00
        -11   -1    0    0    0    0  0.00000000000E+00  0.00000000000E+00  0.45593999997E+02  0.45594000000E+02  0.51100000000E-03 0.  1.
         11   -1    0    0    0    0 -0.00000000000E+00 -0.00000000000E+00 -0.45593999997E+02  0.45594000000E+02  0.51100000000E-03 0. -1.
    9900012    2    1    2    0    0 -0.13239701551E+02 -0.79262850212E+01 -0.10609352799E+02  0.72461706768E+02  0.70000177783E+02 0.  0.
        -12    1    1    2    0    0  0.13239701551E+02  0.79262850212E+01  0.10609352799E+02  0.18726293232E+02  0.00000000000E+00 0.  1.
         11    1    3    3    0    0  0.10515050009E+02  0.10070402822E+02 -0.32229895175E+01  0.14911973423E+02  0.51100000000E-03 0. -1.
        -11    1    3    3    0    0 -0.17258086771E+02  0.14643887332E+02  0.26504801002E+01  0.22788375112E+02  0.51100000000E-03 0.  1.
        -12    1    3    3    0    0 -0.64966647890E+01 -0.32640575175E+02 -0.10036843382E+02  0.34761358233E+02  0.00000000000E+00 0.  1.
</event>
<event>
 7    1  0.1789107E-013  0.7246161E+02  0.7816164E-02  0.1226708E+00
        -11   -1    0    0    0    0  0.00000000000E+00  0.00000000000E+00  0.45593999997E+02  0.45594000000E+02  0.51100000000E-03 0.  1.
         11   -1    0    0    0    0 -0.00000000000E+00 -0.00000000000E+00 -0.45593999997E+02  0.45594000000E+02  0.51100000000E-03 0. -1.
    9900012    2    1    2    0    0  0.84496535684E+01  0.16672846891E+02 -0.11389627252E+01  0.72461609398E+02  0.70000050940E+02 0.  0.
        -12    1    1    2    0    0 -0.84496535684E+01 -0.16672846891E+02  0.11389627252E+01  0.18726390602E+02  0.00000000000E+00 0.  1.
         11    1    3    3    0    0  0.15721437765E+02 -0.96541047069E+01  0.89853953728E+01  0.20520786373E+02  0.51100000000E-03 0. -1.
        -11    1    3    3    0    0 -0.10846869853E+02 -0.94772266571E+01 -0.64152394652E+01  0.15767932914E+02  0.51100000000E-03 0.  1.
        -12    1    3    3    0    0  0.35750856563E+01  0.35804178255E+02 -0.37091186328E+01  0.36172890111E+02  0.00000000000E+00 0.  1.
</event>
<event>
 7    1  0.1789107E-013  0.7246194E+02  0.7816164E-02  0.1226707E+00
        -11   -1    0    0    0    0  0.00000000000E+00  0.00000000000E+00  0.45593999997E+02  0.45594000000E+02  0.51100000000E-03 0. -1.
         11   -1    0    0    0    0 -0.00000000000E+00 -0.00000000000E+00 -0.45593999997E+02  0.45594000000E+02  0.51100000000E-03 0.  1.
    9900012    2    1    2    0    0 -0.15334735285E+02  0.10719529717E+02  0.77654073921E+00  0.72461936902E+02  0.70000477573E+02 0.  0.
        -12    1    1    2    0    0  0.15334735285E+02 -0.10719529717E+02 -0.77654073921E+00  0.18726063098E+02  0.00000000000E+00 0.  1.
         11    1    3    3    0    0 -0.91479210894E+01  0.13277210639E+01  0.32867085538E+01  0.98106960436E+01  0.51100000000E-03 0. -1.
        -11    1    3    3    0    0 -0.10406604494E+02  0.15128478585E+02 -0.29494356381E+02  0.34743133710E+02  0.51100000000E-03 0.  1.
         12    1    3    3    0    0  0.42197902981E+01 -0.57366699313E+01  0.26984188566E+02  0.27908107149E+02  0.00000000000E+00 0. -1.
</event>
<event>
 7    1  0.1789107E-013  0.7246154E+02  0.7816164E-02  0.1226708E+00
        -11   -1    0    0    0    0  0.00000000000E+00  0.00000000000E+00  0.45593999997E+02  0.45594000000E+02  0.51100000000E-03 0. -1.
         11   -1    0    0    0    0 -0.00000000000E+00 -0.00000000000E+00 -0.45593999997E+02  0.45594000000E+02  0.51100000000E-03 0.  1.
    9900012    2    1    2    0    0  0.76521204392E+00  0.12946198504E+02  0.13508911484E+02  0.72461540253E+02  0.69999960866E+02 0.  0.
        -12    1    1    2    0    0 -0.76521204392E+00 -0.12946198504E+02 -0.13508911484E+02  0.18726459747E+02  0.00000000000E+00 0.  1.
         11    1    3    3    0    0  0.88637136935E+01  0.15076505058E-01  0.23325257120E+02  0.24952620458E+02  0.51100000000E-03 0. -1.
        -11    1    3    3    0    0 -0.98533485711E+01  0.27837784270E+02  0.80299757082E-01  0.29530275302E+02  0.51100000000E-03 0.  1.
         12    1    3    3    0    0  0.17548469216E+01 -0.14906662271E+02 -0.98966453934E+01  0.17978644493E+02  0.00000000000E+00 0. -1.
</event>
<event>
 7    1  0.1789107E-013  0.7246166E+02  0.7816164E-02  0.1226708E+00
        -11   -1    0    0    0    0  0.00000000000E+00  0.00000000000E+00  0.45593999997E+02  0.45594000000E+02  0.51100000000E-03 0.  1.
         11   -1    0    0    0    0 -0.00000000000E+00 -0.00000000000E+00 -0.45593999997E+02  0.45594000000E+02  0.51100000000E-03 0. -1.
    9900012    2    1    2    0    0  0.61618811536E+01 -0.15465779028E+02  0.85741801083E+01  0.72461663871E+02  0.70000121901E+02 0.  0.
        -12    1    1    2    0    0 -0.61618811536E+01  0.15465779028E+02 -0.85741801083E+01  0.18726336129E+02  0.00000000000E+00 0.  1.
         11    1    3    3    0    0  0.53467745240E+01  0.14921380949E+02 -0.25098980475E+01  0.16047903156E+02  0.51100000000E-03 0. -1.
        -11    1    3    3    0    0 -0.88310079922E+00 -0.37155793441E+01  0.25679837372E+02  0.25962269635E+02  0.51100000000E-03 0.  1.
         12    1    3    3    0    0  0.16982074288E+01 -0.26671580632E+02 -0.14595759217E+02  0.30451491080E+02  0.00000000000E+00 0. -1.
</event>
<event>
 7    1  0.1789107E-013  0.7246156E+02  0.7816164E-02  0.1226708E+00
        -11   -1    0    0    0    0  0.00000000000E+00  0.00000000000E+00  0.45593999997E+02  0.45594000000E+02  0.51100000000E-03 0. -1.
         11   -1    0    0    0    0 -0.00000000000E+00 -0.00000000000E+00 -0.45593999997E+02  0.45594000000E+02  0.51100000000E-03 0.  1.
    9900012    2    1    2    0    0 -0.73499870354E+00  0.49960279601E+00  0.18705335247E+02  0.72461564334E+02  0.69999992235E+02 0.  0.
        -12    1    1    2    0    0  0.73499870354E+00 -0.49960279601E+00 -0.18705335247E+02  0.18726435666E+02  0.00000000000E+00 0.  1.
         11    1    3    3    0    0 -0.70269495281E+00  0.24848142175E+02  0.18914593675E+02  0.31235969712E+02  0.51100000000E-03 0. -1.
        -11    1    3    3    0    0  0.86168998857E+01 -0.41800890052E+01 -0.12752962298E+02  0.15948735228E+02  0.51100000000E-03 0.  1.
        -12    1    3    3    0    0 -0.86492036364E+01 -0.20168450374E+02  0.12543703870E+02  0.25276859394E+02  0.00000000000E+00 0.  1.
</event>
<event>
 7    1  0.1789107E-013  0.7246158E+02  0.7816164E-02  0.1226708E+00
        -11   -1    0    0    0    0  0.00000000000E+00  0.00000000000E+00  0.45593999997E+02  0.45594000000E+02  0.51100000000E-03 0.  1.
         11   -1    0    0    0    0 -0.00000000000E+00 -0.00000000000E+00 -0.45593999997E+02  0.45594000000E+02  0.51100000000E-03 0. -1.
    9900012    2    1    2    0    0 -0.18906745579E+00 -0.18709633992E+02  0.76979469421E+00  0.72461581910E+02  0.70000015132E+02 0.  0.
        -12    1    1    2    0    0  0.18906745579E+00  0.18709633992E+02 -0.76979469421E+00  0.18726418090E+02  0.00000000000E+00 0.  1.
         11    1    3    3    0    0  0.27680270146E+01 -0.12794720114E+02 -0.11159033721E+02  0.17201478721E+02  0.51100000000E-03 0. -1.
        -11    1    3    3    0    0  0.36275427641E+00 -0.28880672543E+02 -0.60024758762E+00  0.28889187158E+02  0.51100000000E-03 0.  1.
        -12    1    3    3    0    0 -0.33198487468E+01  0.22965758666E+02  0.12529076003E+02  0.26370916031E+02  0.00000000000E+00 0.  1.
</event>
<event>
 7    1  0.1789107E-013  0.7246149E+02  0.7816164E-02  0.1226708E+00
        -11   -1    0    0    0    0  0.00000000000E+00  0.00000000000E+00  0.45593999997E+02  0.45594000000E+02  0.51100000000E-03 0.  1.
         11   -1    0    0    0    0 -0.00000000000E+00 -0.00000000000E+00 -0.45593999997E+02  0.45594000000E+02  0.51100000000E-03 0. -1.
    9900012    2    1    2    0    0  0.18090599247E+02 -0.31684664890E+01 -0.36569330295E+01  0.72461491511E+02  0.69999897370E+02 0.  0.
        -12    1    1    2    0    0 -0.18090599247E+02  0.31684664890E+01  0.36569330295E+01  0.18726508489E+02  0.00000000000E+00 0.  1.
         11    1    3    3    0    0  0.24711473692E+01  0.13744282663E+02 -0.19410998371E+02  0.23912313423E+02  0.51100000000E-03 0. -1.
        -11    1    3    3    0    0  0.14764365298E+02  0.32438965096E+01 -0.82271933836E+01  0.17210347424E+02  0.51100000000E-03 0.  1.
        -12    1    3    3    0    0  0.85508657933E+00 -0.20156645661E+02  0.23981258725E+02  0.31338830664E+02  0.00000000000E+00 0.  1.
</event>
<event>
 7    1  0.1789107E-013  0.7246199E+02  0.7816164E-02  0.1226707E+00
        -11   -1    0    0    0    0  0.00000000000E+00  0.00000000000E+00  0.45593999997E+02  0.45594000000E+02  0.51100000000E-03 0. -1.
         11   -1    0    0    0    0 -0.00000000000E+00 -0.00000000000E+00 -0.45593999997E+02  0.45594000000E+02  0.51100000000E-03 0.  1.
    9900012    2    1    2    0    0 -0.13476963250E+02 -0.38519215052E+01 -0.12417628673E+02  0.72461992962E+02  0.70000550601E+02 0.  0.
        -12    1    1    2    0    0  0.13476963250E+02  0.38519215052E+01  0.12417628673E+02  0.18726007038E+02  0.00000000000E+00 0.  1.
         11    1    3    3    0    0 -0.17063542366E+02  0.12645450088E+02  0.74832759571E+01  0.22518243833E+02  0.51100000000E-03 0. -1.
        -11    1    3    3    0    0  0.69295475374E+01  0.13573317124E+02 -0.94585499143E+01  0.17936491674E+02  0.51100000000E-03 0.  1.
         12    1    3    3    0    0 -0.33429684220E+01 -0.30070688717E+02 -0.10442354716E+02  0.32007257455E+02  0.00000000000E+00 0. -1.
</event>
<event>
 7    1  0.1789107E-013  0.7246160E+02  0.7816164E-02  0.1226708E+00
        -11   -1    0    0    0    0  0.00000000000E+00  0.00000000000E+00  0.45593999997E+02  0.45594000000E+02  0.51100000000E-03 0. -1.
         11   -1    0    0    0    0 -0.00000000000E+00 -0.00000000000E+00 -0.45593999997E+02  0.45594000000E+02  0.51100000000E-03 0.  1.
    9900012    2    1    2    0    0 -0.57834891486E+00  0.18203857815E+02  0.43546688999E+01  0.72461599704E+02  0.70000038311E+02 0.  0.
        -12    1    1    2    0    0  0.57834891486E+00 -0.18203857815E+02 -0.43546688999E+01  0.18726400296E+02  0.00000000000E+00 0.  1.
         11    1    3    3    0    0  0.69274367627E+01 -0.39692986119E+01  0.22937031408E+02  0.24286871384E+02  0.51100000000E-03 0. -1.
        -11    1    3    3    0    0  0.91541623673E+01  0.24784691850E+01  0.70439142608E+01  0.11813476479E+02  0.51100000000E-03 0.  1.
        -12    1    3    3    0    0 -0.16659948045E+02  0.19694687242E+02 -0.25626276768E+02  0.36361251841E+02  0.00000000000E+00 0.  1.
</event>
<event>
 7    1  0.1789107E-013  0.7246151E+02  0.7816164E-02  0.1226708E+00
        -11   -1    0    0    0    0  0.00000000000E+00  0.00000000000E+00  0.45593999997E+02  0.45594000000E+02  0.51100000000E-03 0.  1.
         11   -1    0    0    0    0 -0.00000000000E+00 -0.00000000000E+00 -0.45593999997E+02  0.45594000000E+02  0.51100000000E-03 0. -1.
    9900012    2    1    2    0    0 -0.11791300970E+02  0.14339432433E+02 -0.24550628383E+01  0.72461509816E+02  0.69999921215E+02 0.  0.
        -12    1    1    2    0    0  0.11791300970E+02 -0.14339432433E+02  0.24550628383E+01  0.18726490184E+02  0.00000000000E+00 0.  1.
         11    1    3    3    0    0  0.29340877505E+01  0.46271716909E-02  0.26550703391E+01  0.39570558632E+01  0.51100000000E-03 0. -1.
        -11    1    3    3    0    0  0.73257178165E+01  0.34570050767E+02  0.73359810071E+01  0.36091150843E+02  0.51100000000E-03 0.  1.
         12    1    3    3    0    0 -0.22051106537E+02 -0.20235245506E+02 -0.12446114184E+02  0.32413303110E+02  0.00000000000E+00 0. -1.
</event>
<event>
 7    1  0.1789107E-013  0.7246157E+02  0.7816164E-02  0.1226708E+00
        -11   -1    0    0    0    0  0.00000000000E+00  0.00000000000E+00  0.45593999997E+02  0.45594000000E+02  0.51100000000E-03 0.  1.
         11   -1    0    0    0    0 -0.00000000000E+00 -0.00000000000E+00 -0.45593999997E+02  0.45594000000E+02  0.51100000000E-03 0. -1.
    9900012    2    1    2    0    0 -0.79073226222E+01  0.95170739422E+01 -0.14056275634E+02  0.72461565952E+02  0.69999994343E+02 0.  0.
        -12    1    1    2    0    0  0.79073226222E+01 -0.95170739422E+01  0.14056275634E+02  0.18726434048E+02  0.00000000000E+00 0.  1.
         11    1    3    3    0    0  0.72265486486E+01 -0.71972364803E+01 -0.31408070794E+02  0.33022570003E+02  0.51100000000E-03 0. -1.
        -11    1    3    3    0    0 -0.45432534186E+01 -0.71914063014E+01  0.79800839887E+01  0.11663585081E+02  0.51100000000E-03 0.  1.
        -12    1    3    3    0    0 -0.10590617852E+02  0.23905716724E+02  0.93717111720E+01  0.27775410868E+02  0.00000000000E+00 0.  1.
</event>
<event>
 7    1  0.1789107E-013  0.7246167E+02  0.7816164E-02  0.1226708E+00
        -11   -1    0    0    0    0  0.00000000000E+00  0.00000000000E+00  0.45593999997E+02  0.45594000000E+02  0.51100000000E-03 0.  1.
         11   -1    0    0    0    0 -0.00000000000E+00 -0.00000000000E+00 -0.45593999997E+02  0.45594000000E+02  0.51100000000E-03 0. -1.
    9900012    2    1    2    0    0  0.56288466319E+01 -0.12039744665E+02 -0.13192276873E+02  0.72461667334E+02  0.70000126412E+02 0.  0.
        -12    1    1    2    0    0 -0.56288466319E+01  0.12039744665E+02  0.13192276873E+02  0.18726332666E+02  0.00000000000E+00 0.  1.
         11    1    3    3    0    0  0.26450677696E+02 -0.24521121528E+02 -0.12040332747E+02  0.38024904529E+02  0.51100000000E-03 0. -1.
        -11    1    3    3    0    0 -0.99140750669E+00  0.11951480113E+02  0.59229244809E+01  0.13375417766E+02  0.51100000000E-03 0.  1.
        -12    1    3    3    0    0 -0.19830423557E+02  0.52989674949E+00 -0.70748686076E+01  0.21061345039E+02  0.00000000000E+00 0.  1.
</event>
<event>
 7    1  0.1789107E-013  0.7246154E+02  0.7816164E-02  0.1226708E+00
        -11   -1    0    0    0    0  0.00000000000E+00  0.00000000000E+00  0.45593999997E+02  0.45594000000E+02  0.51100000000E-03 0.  1.
         11   -1    0    0    0    0 -0.00000000000E+00 -0.00000000000E+00 -0.45593999997E+02  0.45594000000E+02  0.51100000000E-03 0. -1.
    9900012    2    1    2    0    0 -0.93204312354E+01 -0.85813326284E+01 -0.13790232774E+02  0.72461542031E+02  0.69999963182E+02 0.  0.
        -12    1    1    2    0    0  0.93204312354E+01  0.85813326284E+01  0.13790232774E+02  0.18726457969E+02  0.00000000000E+00 0.  1.
         11    1    3    3    0    0 -0.56047446716E+01 -0.97209902905E+01 -0.19977134957E+02  0.22912807258E+02  0.51100000000E-03 0. -1.
        -11    1    3    3    0    0 -0.24014229348E+02  0.11117389752E+02  0.19274745599E+01  0.26532898909E+02  0.51100000000E-03 0.  1.
         12    1    3    3    0    0  0.20298542785E+02 -0.99777320900E+01  0.42594276231E+01  0.23015835864E+02  0.00000000000E+00 0. -1.
</event>
<event>
 7    1  0.1789107E-013  0.7246162E+02  0.7816164E-02  0.1226708E+00
        -11   -1    0    0    0    0  0.00000000000E+00  0.00000000000E+00  0.45593999997E+02  0.45594000000E+02  0.51100000000E-03 0. -1.
         11   -1    0    0    0    0 -0.00000000000E+00 -0.00000000000E+00 -0.45593999997E+02  0.45594000000E+02  0.51100000000E-03 0.  1.
    9900012    2    1    2    0    0  0.69678917077E+01 -0.61094595149E+01  0.16272690963E+02  0.72461615362E+02  0.70000058709E+02 0.  0.
        -12    1    1    2    0    0 -0.69678917077E+01  0.61094595149E+01 -0.16272690963E+02  0.18726384638E+02  0.00000000000E+00 0.  1.
         11    1    3    3    0    0  0.13754218162E+02  0.45696460567E+01  0.17033345617E+02  0.22365040700E+02  0.51100000000E-03 0. -1.
        -11    1    3    3    0    0  0.24143690914E+00  0.39469420316E+01  0.21883872196E+02  0.22238266698E+02  0.51100000000E-03 0.  1.
        -12    1    3    3    0    0 -0.70277633638E+01 -0.14626047603E+02 -0.22644526850E+02  0.27858307964E+02  0.00000000000E+00 0.  1.
</event>
<event>
 7    1  0.1789107E-013  0.7246156E+02  0.7816164E-02  0.1226708E+00
        -11   -1    0    0    0    0  0.00000000000E+00  0.00000000000E+00  0.45593999997E+02  0.45594000000E+02  0.51100000000E-03 0. -1.
         11   -1    0    0    0    0 -0.00000000000E+00 -0.00000000000E+00 -0.45593999997E+02  0.45594000000E+02  0.51100000000E-03 0.  1.
    9900012    2    1    2    0    0  0.26607939379E+01  0.58917956346E+00  0.18527075635E+02  0.72461561777E+02  0.69999988905E+02 0.  0.
        -12    1    1    2    0    0 -0.26607939379E+01 -0.58917956346E+00 -0.18527075635E+02  0.18726438223E+02  0.00000000000E+00 0.  1.
         11    1    3    3    0    0 -0.18643658435E+02 -0.11938139314E+02  0.14800057164E+02  0.26629811535E+02  0.51100000000E-03 0. -1.
        -11    1    3    3    0    0  0.93827468437E+01 -0.82494537260E+00 -0.16390198858E+02  0.18903838025E+02  0.51100000000E-03 0.  1.
        -12    1    3    3    0    0  0.11921705529E+02  0.13352264250E+02  0.20117217329E+02  0.26927912217E+02  0.00000000000E+00 0.  1.
</event>
<event>
 7    1  0.1789107E-013  0.7246158E+02  0.7816164E-02  0.1226708E+00
        -11   -1    0    0    0    0  0.00000000000E+00  0.00000000000E+00  0.45593999997E+02  0.45594000000E+02  0.51100000000E-03 0.  1.
         11   -1    0    0    0    0 -0.00000000000E+00 -0.00000000000E+00 -0.45593999997E+02  0.45594000000E+02  0.51100000000E-03 0. -1.
    9900012    2    1    2    0    0 -0.89081352894E+01  0.91702298366E+01  0.13683233028E+02  0.72461578674E+02  0.70000010916E+02 0.  0.
        -12    1    1    2    0    0  0.89081352894E+01 -0.91702298366E+01 -0.13683233028E+02  0.18726421326E+02  0.00000000000E+00 0.  1.
         11    1    3    3    0    0 -0.43285106004E+01 -0.35928401839E+01  0.11842217501E+02  0.13110401222E+02  0.51100000000E-03 0. -1.
        -11    1    3    3    0    0  0.24792777325E+02  0.32970028853E+01  0.10761072008E+02  0.27227792906E+02  0.51100000000E-03 0.  1.
         12    1    3    3    0    0 -0.29372402014E+02  0.94660671352E+01 -0.89200564817E+01  0.32123384546E+02  0.00000000000E+00 0. -1.
</event>
<event>
 7    1  0.1789107E-013  0.7246155E+02  0.7816164E-02  0.1226708E+00
        -11   -1    0    0    0    0  0.00000000000E+00  0.00000000000E+00  0.45593999997E+02  0.45594000000E+02  0.51100000000E-03 0.  1.
         11   -1    0    0    0    0 -0.00000000000E+00 -0.00000000000E+00 -0.45593999997E+02  0.45594000000E+02  0.51100000000E-03 0. -1.
    9900012    2    1    2    0    0 -0.13637880984E+02 -0.12596936107E+02 -0.24505757060E+01  0.72461550302E+02  0.69999973956E+02 0.  0.
        -12    1    1    2    0    0  0.13637880984E+02  0.12596936107E+02  0.24505757060E+01  0.18726449698E+02  0.00000000000E+00 0.  1.
         11    1    3    3    0    0 -0.88401706187E+01  0.10572630323E+02 -0.76603892464E+01  0.15767393322E+02  0.51100000000E-03 0. -1.
        -11    1    3    3    0    0 -0.13462144542E+02  0.13295639071E+02  0.29075415399E+01  0.19143070602E+02  0.51100000000E-03 0.  1.
         12    1    3    3    0    0  0.86644341767E+01 -0.36465205501E+02  0.23022720005E+01  0.37551086378E+02  0.00000000000E+00 0. -1.
</event>
<event>
 7    1  0.1789107E-013  0.7246157E+02  0.7816164E-02  0.1226708E+00
        -11   -1    0    0    0    0  0.00000000000E+00  0.00000000000E+00  0.45593999997E+02  0.45594000000E+02  0.51100000000E-03 0. -1.
         11   -1    0    0    0    0 -0.00000000000E+00 -0.00000000000E+00 -0.45593999997E+02  0.45594000000E+02  0.51100000000E-03 0.  1.
    9900012    2    1    2    0    0 -0.12592097847E+02 -0.13840929995E+02  0.73942962508E+00  0.72461574087E+02  0.70000004940E+02 0.  0.
        -12    1    1    2    0    0  0.12592097847E+02  0.13840929995E+02 -0.73942962508E+00  0.18726425913E+02  0.00000000000E+00 0.  1.
         11    1    3    3    0    0  0.11193689766E+02  0.13379956173E+01 -0.13425513840E+01  0.11353033398E+02  0.51100000000E-03 0. -1.
        -11    1    3    3    0    0  0.16552547501E+02 -0.81287166273E+01  0.72888568052E+01  0.19829026617E+02  0.51100000000E-03 0.  1.
        -12    1    3    3    0    0 -0.40338335114E+02 -0.70502089849E+01 -0.52068757961E+01  0.41279514072E+02  0.00000000000E+00 0.  1.
</event>
<event>
 7    1  0.1789107E-013  0.7246153E+02  0.7816164E-02  0.1226708E+00
        -11   -1    0    0    0    0  0.00000000000E+00  0.00000000000E+00  0.45593999997E+02  0.45594000000E+02  0.51100000000E-03 0.  1.
         11   -1    0    0    0    0 -0.00000000000E+00 -0.00000000000E+00 -0.45593999997E+02  0.45594000000E+02  0.51100000000E-03 0. -1.
    9900012    2    1    2    0    0 -0.44510646649E+01  0.18099522987E+02  0.18099444260E+01  0.72461531891E+02  0.69999949972E+02 0.  0.
        -12    1    1    2    0    0  0.44510646649E+01 -0.18099522987E+02 -0.18099444260E+01  0.18726468109E+02  0.00000000000E+00 0.  1.
         11    1    3    3    0    0  0.16018239424E+00  0.10045594947E+01 -0.94463187107E+01  0.95009334080E+01  0.51100000000E-03 0. -1.
        -11    1    3    3    0    0 -0.24991927215E+02  0.26629434747E+02 -0.24700767534E+01  0.36603613213E+02  0.51100000000E-03 0.  1.
        -12    1    3    3    0    0  0.20380680156E+02 -0.95344712538E+01  0.13726339890E+02  0.26356985269E+02  0.00000000000E+00 0.  1.
</event>
<event>
 7    1  0.1789107E-013  0.7246166E+02  0.7816164E-02  0.1226708E+00
        -11   -1    0    0    0    0  0.00000000000E+00  0.00000000000E+00  0.45593999997E+02  0.45594000000E+02  0.51100000000E-03 0.  1.
         11   -1    0    0    0    0 -0.00000000000E+00 -0.00000000000E+00 -0.45593999997E+02  0.45594000000E+02  0.51100000000E-03 0. -1.
    9900012    2    1    2    0    0  0.95491615507E+00 -0.16942384149E+02 -0.79195623756E+01  0.72461662565E+02  0.70000120200E+02 0.  0.
        -12    1    1    2    0    0 -0.95491615507E+00  0.16942384149E+02  0.79195623756E+01  0.18726337435E+02  0.00000000000E+00 0.  1.
         11    1    3    3    0    0 -0.57122258938E+01 -0.24789468973E+02  0.16142366621E+02  0.30128446642E+02  0.51100000000E-03 0. -1.
        -11    1    3    3    0    0  0.17628291191E+01  0.21169901005E+01  0.84864502115E+01  0.89223904332E+01  0.51100000000E-03 0.  1.
         12    1    3    3    0    0  0.49043129298E+01  0.57300947240E+01 -0.32548379208E+02  0.33410825490E+02  0.00000000000E+00 0. -1.
</event>
<event>
 7    1  0.1789107E-013  0.7246161E+02  0.7816164E-02  0.1226708E+00
        -11   -1    0    0    0    0  0.00000000000E+00  0.00000000000E+00  0.45593999997E+02  0.45594000000E+02  0.51100000000E-03 0. -1.
         11   -1    0    0    0    0 -0.00000000000E+00 -0.00000000000E+00 -0.45593999997E+02  0.45594000000E+02  0.51100000000E-03 0.  1.
    9900012    2    1    2    0    0 -0.17554651572E+02  0.27436619700E+01  0.59147576256E+01  0.72461606044E+02  0.70000046570E+02 0.  0.
        -12    1    1    2    0    0  0.17554651572E+02 -0.27436619700E+01 -0.59147576256E+01  0.18726393956E+02  0.00000000000E+00 0.  1.
         11    1    3    3    0    0  0.55260394259E+01 -0.18998963811E+02  0.45857394674E+00  0.19791615092E+02  0.51100000000E-03 0. -1.
        -11    1    3    3    0    0 -0.84570160334E+01  0.15885119008E+02 -0.17319952837E+02  0.24976767057E+02  0.51100000000E-03 0.  1.
         12    1    3    3    0    0 -0.14623674965E+02  0.58575067736E+01  0.22776136516E+02  0.27693223894E+02  0.00000000000E+00 0. -1.
</event>
<event>
 7    1  0.1789107E-013  0.7246155E+02  0.7816164E-02  0.1226708E+00
        -11   -1    0    0    0    0  0.00000000000E+00  0.00000000000E+00  0.45593999997E+02  0.45594000000E+02  0.51100000000E-03 0.  1.
         11   -1    0    0    0    0 -0.00000000000E+00 -0.00000000000E+00 -0.45593999997E+02  0.45594000000E+02  0.51100000000E-03 0. -1.
    9900012    2    1    2    0    0 -0.42007217188E+01 -0.12014487860E+01 -0.18209623986E+02  0.72461549512E+02  0.69999972927E+02 0.  0.
        -12    1    1    2    0    0  0.42007217188E+01  0.12014487860E+01  0.18209623986E+02  0.18726450488E+02  0.00000000000E+00 0.  1.
         11    1    3    3    0    0  0.47754279904E+01 -0.10683547353E+02  0.32119958381E+01  0.12135065474E+02  0.51100000000E-03 0. -1.
        -11    1    3    3    0    0 -0.16681282336E+02 -0.12133255285E+02 -0.29501905208E+02  0.35997825981E+02  0.51100000000E-03 0.  1.
         12    1    3    3    0    0  0.77051326269E+01  0.21615353852E+02  0.80802853837E+01  0.24328658057E+02  0.00000000000E+00 0. -1.
</event>
<event>
 7    1  0.1789107E-013  0.7246151E+02  0.7816164E-02  0.1226708E+00
        -11   -1    0    0    0    0  0.00000000000E+00  0.00000000000E+00  0.45593999997E+02  0.45594000000E+02  0.51100000000E-03 0. -1.
         11   -1    0    0    0    0 -0.00000000000E+00 -0.00000000000E+00 -0.45593999997E+02  0.45594000000E+02  0.51100000000E-03 0.  1.
    9900012    2    1    2    0    0 -0.15628669204E+02  0.67518679210E+01  0.77998988719E+01  0.72461509568E+02  0.69999920892E+02 0.  0.
        -12    1    1    2    0    0  0.15628669204E+02 -0.67518679210E+01 -0.77998988719E+01  0.18726490432E+02  0.00000000000E+00 0.  1.
         11    1    3    3    0    0  0.12030268326E+02 -0.57464262040E+01 -0.86548980217E+01  0.15895157443E+02  0.51100000000E-03 0. -1.
        -11    1    3    3    0    0  0.12277406075E+02  0.97624742719E+00  0.15676927083E+01  0.12415531389E+02  0.51100000000E-03 0.  1.
         12    1    3    3    0    0 -0.39936343605E+02  0.11522046698E+02  0.14887104185E+02  0.44150820736E+02  0.00000000000E+00 0. -1.
</event>
<event>
 7    1  0.1789107E-013  0.7246171E+02  0.7816164E-02  0.1226708E+00
        -11   -1    0    0    0    0  0.00000000000E+00  0.00000000000E+00  0.45593999997E+02  0.45594000000E+02  0.51100000000E-03 0. -1.
         11   -1    0    0    0    0 -0.00000000000E+00 -0.00000000000E+00 -0.45593999997E+02  0.45594000000E+02  0.51100000000E-03 0.  1.
    9900012    2    1    2    0    0 -0.43198125667E+01 -0.14089654944E+02 -0.11553994346E+02  0.72461709860E+02  0.70000181811E+02 0.  0.
        -12    1    1    2    0    0  0.43198125667E+01  0.14089654944E+02  0.11553994346E+02  0.18726290140E+02  0.00000000000E+00 0.  1.
         11    1    3    3    0    0 -0.11373406047E+01 -0.62985642215E+01 -0.62957937593E+01  0.89778880715E+01  0.51100000000E-03 0. -1.
        -11    1    3    3    0    0 -0.20231474982E+02 -0.28588974178E+02 -0.94267624082E+01  0.36269903147E+02  0.51100000000E-03 0.  1.
         12    1    3    3    0    0  0.17049003020E+02  0.20797883456E+02  0.41685618219E+01  0.27213918642E+02  0.00000000000E+00 0. -1.
</event>
<event>
 7    1  0.1789107E-013  0.7246160E+02  0.7816164E-02  0.1226708E+00
        -11   -1    0    0    0    0  0.00000000000E+00  0.00000000000E+00  0.45593999997E+02  0.45594000000E+02  0.51100000000E-03 0.  1.
         11   -1    0    0    0    0 -0.00000000000E+00 -0.00000000000E+00 -0.45593999997E+02  0.45594000000E+02  0.51100000000E-03 0. -1.
    9900012    2    1    2    0    0 -0.27852512513E+01 -0.18033595206E+02  0.42083260945E+01  0.72461596472E+02  0.70000034101E+02 0.  0.
        -12    1    1    2    0    0  0.27852512513E+01  0.18033595206E+02 -0.42083260945E+01  0.18726403528E+02  0.00000000000E+00 0.  1.
         11    1    3    3    0    0  0.19220120086E+02  0.22570378948E+01 -0.90482117881E+01  0.21362990732E+02  0.51100000000E-03 0. -1.
        -11    1    3    3    0    0 -0.36938334613E+01 -0.17876650708E+01  0.22954707806E+02  0.23318635525E+02  0.51100000000E-03 0.  1.
         12    1    3    3    0    0 -0.18311537876E+02 -0.18502968030E+02 -0.96981699230E+01  0.27779970215E+02  0.00000000000E+00 0. -1.
</event>
<event>
 7    1  0.1789107E-013  0.7246156E+02  0.7816164E-02  0.1226708E+00
        -11   -1    0    0    0    0  0.00000000000E+00  0.00000000000E+00  0.45593999997E+02  0.45594000000E+02  0.51100000000E-03 0. -1.
         11   -1    0    0    0    0 -0.00000000000E+00 -0.00000000000E+00 -0.45593999997E+02  0.45594000000E+02  0.51100000000E-03 0.  1.
    9900012    2    1    2    0    0  0.14683580639E+02  0.51885198698E+01  0.10399572991E+02  0.72461564215E+02  0.69999992080E+02 0.  0.
        -12    1    1    2    0    0 -0.14683580639E+02 -0.51885198698E+01 -0.10399572991E+02  0.18726435785E+02  0.00000000000E+00 0.  1.
         11    1    3    3    0    0  0.62881958076E+01  0.53327838849E+01 -0.73708264775E+01  0.11059343276E+02  0.51100000000E-03 0. -1.
        -11    1    3    3    0    0  0.31364887334E+01 -0.19499754176E+02 -0.13733121150E+02  0.24055697688E+02  0.51100000000E-03 0.  1.
         12    1    3    3    0    0  0.52588960983E+01  0.19355490161E+02  0.31503520618E+02  0.37346523250E+02  0.00000000000E+00 0. -1.
</event>
<event>
 7    1  0.1789107E-013  0.7246161E+02  0.7816164E-02  0.1226708E+00
        -11   -1    0    0    0    0  0.00000000000E+00  0.00000000000E+00  0.45593999997E+02  0.45594000000E+02  0.51100000000E-03 0. -1.
         11   -1    0    0    0    0 -0.00000000000E+00 -0.00000000000E+00 -0.45593999997E+02  0.45594000000E+02  0.51100000000E-03 0.  1.
    9900012    2    1    2    0    0  0.12799082374E+02  0.10661874781E+02  0.85548511369E+01  0.72461613231E+02  0.70000055933E+02 0.  0.
        -12    1    1    2    0    0 -0.12799082374E+02 -0.10661874781E+02 -0.85548511369E+01  0.18726386769E+02  0.00000000000E+00 0.  1.
         11    1    3    3    0    0 -0.91626698898E+01  0.28615998314E+01  0.34436173554E+01  0.10198125997E+02  0.51100000000E-03 0.  1.
        -11    1    3    3    0    0  0.64012769222E+01  0.31853869035E+02  0.80269766882E+01  0.33467561515E+02  0.51100000000E-03 0. -1.
        -12    1    3    3    0    0  0.15560475341E+02 -0.24053594085E+02 -0.29157429067E+01  0.28795925718E+02  0.00000000000E+00 0.  1.
</event>
<event>
 7    1  0.1789107E-013  0.7246142E+02  0.7816164E-02  0.1226708E+00
        -11   -1    0    0    0    0  0.00000000000E+00  0.00000000000E+00  0.45593999997E+02  0.45594000000E+02  0.51100000000E-03 0. -1.
         11   -1    0    0    0    0 -0.00000000000E+00 -0.00000000000E+00 -0.45593999997E+02  0.45594000000E+02  0.51100000000E-03 0.  1.
    9900012    2    1    2    0    0  0.16430506941E+02  0.76482224660E+01 -0.47146690167E+01  0.72461415443E+02  0.69999798278E+02 0.  0.
        -12    1    1    2    0    0 -0.16430506941E+02 -0.76482224660E+01  0.47146690167E+01  0.18726584557E+02  0.00000000000E+00 0.  1.
         11    1    3    3    0    0  0.16567813003E+02 -0.10895286544E+02 -0.93427608866E+01  0.21920010899E+02  0.51100000000E-03 0.  1.
        -11    1    3    3    0    0  0.12790467464E+01 -0.11997394715E+02 -0.10891545529E+02  0.16254205757E+02  0.51100000000E-03 0. -1.
         12    1    3    3    0    0 -0.14163528087E+01  0.30540903725E+02  0.15519637399E+02  0.34287198787E+02  0.00000000000E+00 0. -1.
</event>
<event>
 7    1  0.1789107E-013  0.7246155E+02  0.7816164E-02  0.1226708E+00
        -11   -1    0    0    0    0  0.00000000000E+00  0.00000000000E+00  0.45593999997E+02  0.45594000000E+02  0.51100000000E-03 0.  1.
         11   -1    0    0    0    0 -0.00000000000E+00 -0.00000000000E+00 -0.45593999997E+02  0.45594000000E+02  0.51100000000E-03 0. -1.
    9900012    2    1    2    0    0  0.15151824906E+01  0.18389499034E+02  0.31953999341E+01  0.72461547227E+02  0.69999969951E+02 0.  0.
        -12    1    1    2    0    0 -0.15151824906E+01 -0.18389499034E+02 -0.31953999341E+01  0.18726452773E+02  0.00000000000E+00 0.  1.
         11    1    3    3    0    0 -0.87607653929E+01  0.72932858626E+00  0.48320962319E+01  0.10031554451E+02  0.51100000000E-03 0. -1.
        -11    1    3    3    0    0  0.44937533527E+01 -0.15524688376E+02  0.17391856678E+02  0.23742081782E+02  0.51100000000E-03 0.  1.
         12    1    3    3    0    0  0.57821945308E+01  0.33184858824E+02 -0.19028552976E+02  0.38687910994E+02  0.00000000000E+00 0. -1.
</event>
<event>
 7    1  0.1789107E-013  0.7246161E+02  0.7816164E-02  0.1226708E+00
        -11   -1    0    0    0    0  0.00000000000E+00  0.00000000000E+00  0.45593999997E+02  0.45594000000E+02  0.51100000000E-03 0. -1.
         11   -1    0    0    0    0 -0.00000000000E+00 -0.00000000000E+00 -0.45593999997E+02  0.45594000000E+02  0.51100000000E-03 0.  1.
    9900012    2    1    2    0    0  0.30332684880E+00  0.10491820822E+02  0.15508300654E+02  0.72461609517E+02  0.70000051095E+02 0.  0.
        -12    1    1    2    0    0 -0.30332684880E+00 -0.10491820822E+02 -0.15508300654E+02  0.18726390483E+02  0.00000000000E+00 0.  1.
         11    1    3    3    0    0  0.32455485534E+01 -0.16681024471E+01  0.12220208272E+02  0.12753416862E+02  0.51100000000E-03 0. -1.
        -11    1    3    3    0    0  0.18754009087E+02 -0.15452911029E+02  0.37519137803E+01  0.24588252752E+02  0.51100000000E-03 0.  1.
         12    1    3    3    0    0 -0.21696230792E+02  0.27612834298E+02 -0.46382139810E+00  0.35119939904E+02  0.00000000000E+00 0. -1.
</event>
<event>
 7    1  0.1789107E-013  0.7246156E+02  0.7816164E-02  0.1226708E+00
        -11   -1    0    0    0    0  0.00000000000E+00  0.00000000000E+00  0.45593999997E+02  0.45594000000E+02  0.51100000000E-03 0.  1.
         11   -1    0    0    0    0 -0.00000000000E+00 -0.00000000000E+00 -0.45593999997E+02  0.45594000000E+02  0.51100000000E-03 0. -1.
    9900012    2    1    2    0    0  0.10273794704E+02 -0.59729119086E+01 -0.14472485499E+02  0.72461564920E+02  0.69999992999E+02 0.  0.
        -12    1    1    2    0    0 -0.10273794704E+02  0.59729119086E+01  0.14472485499E+02  0.18726435080E+02  0.00000000000E+00 0.  1.
         11    1    3    3    0    0  0.12641260395E+02 -0.21995548487E+01  0.64297356156E+01  0.14352038400E+02  0.51100000000E-03 0. -1.
        -11    1    3    3    0    0  0.49680409104E+01 -0.69410942442E+01  0.17187702342E+02  0.19190553193E+02  0.51100000000E-03 0.  1.
        -12    1    3    3    0    0 -0.73355066012E+01  0.31677371843E+01 -0.38089923456E+02  0.38918973327E+02  0.00000000000E+00 0.  1.
</event>
<event>
 7    1  0.1789107E-013  0.7246160E+02  0.7816164E-02  0.1226708E+00
        -11   -1    0    0    0    0  0.00000000000E+00  0.00000000000E+00  0.45593999997E+02  0.45594000000E+02  0.51100000000E-03 0.  1.
         11   -1    0    0    0    0 -0.00000000000E+00 -0.00000000000E+00 -0.45593999997E+02  0.45594000000E+02  0.51100000000E-03 0. -1.
    9900012    2    1    2    0    0  0.14203343987E+02  0.48679305027E+01 -0.11191350356E+02  0.72461600170E+02  0.70000038919E+02 0.  0.
        -12    1    1    2    0    0 -0.14203343987E+02 -0.48679305027E+01  0.11191350356E+02  0.18726399830E+02  0.00000000000E+00 0.  1.
         11    1    3    3    0    0  0.32815695655E+01  0.78712861210E+01 -0.11930284680E+02  0.14664840156E+02  0.51100000000E-03 0. -1.
        -11    1    3    3    0    0  0.44272292073E+00  0.24029897514E+02 -0.11107685431E+02  0.26476643557E+02  0.51100000000E-03 0.  1.
        -12    1    3    3    0    0  0.10479051500E+02 -0.27033253133E+02  0.11846619755E+02  0.31320116457E+02  0.00000000000E+00 0.  1.
</event>
<event>
 7    1  0.1789107E-013  0.7246160E+02  0.7816164E-02  0.1226708E+00
        -11   -1    0    0    0    0  0.00000000000E+00  0.00000000000E+00  0.45593999997E+02  0.45594000000E+02  0.51100000000E-03 0.  1.
         11   -1    0    0    0    0 -0.00000000000E+00 -0.00000000000E+00 -0.45593999997E+02  0.45594000000E+02  0.51100000000E-03 0. -1.
    9900012    2    1    2    0    0  0.91969819687E+01  0.18357611315E+00 -0.16311337385E+02  0.72461604063E+02  0.70000043989E+02 0.  0.
        -12    1    1    2    0    0 -0.91969819687E+01 -0.18357611315E+00  0.16311337385E+02  0.18726395937E+02  0.00000000000E+00 0.  1.
         11    1    3    3    0    0 -0.23483065057E+01 -0.24265458933E+01 -0.10624401966E+02  0.11148120282E+02  0.51100000000E-03 0. -1.
        -11    1    3    3    0    0  0.21747144233E+02 -0.87139878199E+01 -0.26593151062E+02  0.35441043293E+02  0.51100000000E-03 0.  1.
        -12    1    3    3    0    0 -0.10201855759E+02  0.11324109826E+02  0.20906215643E+02  0.25872440488E+02  0.00000000000E+00 0.  1.
</event>
<event>
 7    1  0.1789107E-013  0.7246160E+02  0.7816164E-02  0.1226708E+00
        -11   -1    0    0    0    0  0.00000000000E+00  0.00000000000E+00  0.45593999997E+02  0.45594000000E+02  0.51100000000E-03 0. -1.
         11   -1    0    0    0    0 -0.00000000000E+00 -0.00000000000E+00 -0.45593999997E+02  0.45594000000E+02  0.51100000000E-03 0.  1.
    9900012    2    1    2    0    0  0.13852155897E+01 -0.98200239512E+01  0.15884787585E+02  0.72461597002E+02  0.70000034791E+02 0.  0.
        -12    1    1    2    0    0 -0.13852155897E+01  0.98200239512E+01 -0.15884787585E+02  0.18726402998E+02  0.00000000000E+00 0.  1.
         11    1    3    3    0    0 -0.11612305290E+02 -0.84375544585E+01 -0.99350584592E+00  0.14388363823E+02  0.51100000000E-03 0.  1.
        -11    1    3    3    0    0  0.25657113759E+01  0.26044033837E+02  0.92219566804E+01  0.27747415351E+02  0.51100000000E-03 0. -1.
         12    1    3    3    0    0  0.10431809504E+02 -0.27426503330E+02  0.76563367508E+01  0.30325817827E+02  0.00000000000E+00 0. -1.
</event>
<event>
 7    1  0.1789107E-013  0.7246190E+02  0.7816164E-02  0.1226707E+00
        -11   -1    0    0    0    0  0.00000000000E+00  0.00000000000E+00  0.45593999997E+02  0.45594000000E+02  0.51100000000E-03 0. -1.
         11   -1    0    0    0    0 -0.00000000000E+00 -0.00000000000E+00 -0.45593999997E+02  0.45594000000E+02  0.51100000000E-03 0.  1.
    9900012    2    1    2    0    0  0.55212627930E+01 -0.86236096735E+01  0.15678517153E+02  0.72461898250E+02  0.70000427222E+02 0.  0.
        -12    1    1    2    0    0 -0.55212627930E+01  0.86236096735E+01 -0.15678517153E+02  0.18726101750E+02  0.00000000000E+00 0.  1.
         11    1    3    3    0    0  0.13499974755E+02 -0.12910393747E+02  0.30019327772E+01  0.18919280793E+02  0.51100000000E-03 0. -1.
        -11    1    3    3    0    0  0.14218901766E+02 -0.94451005647E+01 -0.92841098152E+01  0.19431463852E+02  0.51100000000E-03 0.  1.
         12    1    3    3    0    0 -0.22197613728E+02  0.13731884638E+02  0.21960694191E+02  0.34111153605E+02  0.00000000000E+00 0. -1.
</event>
<event>
 7    1  0.1789107E-013  0.7246158E+02  0.7816164E-02  0.1226708E+00
        -11   -1    0    0    0    0  0.00000000000E+00  0.00000000000E+00  0.45593999997E+02  0.45594000000E+02  0.51100000000E-03 0.  1.
         11   -1    0    0    0    0 -0.00000000000E+00 -0.00000000000E+00 -0.45593999997E+02  0.45594000000E+02  0.51100000000E-03 0. -1.
    9900012    2    1    2    0    0  0.21728780169E+01 -0.18588417988E+02 -0.65437038304E+00  0.72461577951E+02  0.70000009974E+02 0.  0.
        -12    1    1    2    0    0 -0.21728780169E+01  0.18588417988E+02  0.65437038304E+00  0.18726422049E+02  0.00000000000E+00 0.  1.
         11    1    3    3    0    0 -0.25580792825E+01  0.32559228945E+01 -0.20450449133E+02  0.20865418124E+02  0.51100000000E-03 0. -1.
        -11    1    3    3    0    0  0.19495324181E+02 -0.19559553406E+02  0.10648998090E+01  0.27636530286E+02  0.51100000000E-03 0.  1.
        -12    1    3    3    0    0 -0.14764366882E+02 -0.22847874760E+01  0.18731178941E+02  0.23959629541E+02  0.00000000000E+00 0.  1.
</event>
<event>
 7    1  0.1789107E-013  0.7246174E+02  0.7816164E-02  0.1226708E+00
        -11   -1    0    0    0    0  0.00000000000E+00  0.00000000000E+00  0.45593999997E+02  0.45594000000E+02  0.51100000000E-03 0. -1.
         11   -1    0    0    0    0 -0.00000000000E+00 -0.00000000000E+00 -0.45593999997E+02  0.45594000000E+02  0.51100000000E-03 0.  1.
    9900012    2    1    2    0    0  0.13516786565E+02  0.11414519093E+02  0.61382383674E+01  0.72461742087E+02  0.70000223792E+02 0.  0.
        -12    1    1    2    0    0 -0.13516786565E+02 -0.11414519093E+02 -0.61382383674E+01  0.18726257913E+02  0.00000000000E+00 0.  1.
         11    1    3    3    0    0 -0.39552702953E+01 -0.17273797757E+02 -0.21637958235E+01  0.17852458225E+02  0.51100000000E-03 0. -1.
        -11    1    3    3    0    0  0.85751522781E+01  0.27110678453E+02 -0.13152942711E+02  0.31329251905E+02  0.51100000000E-03 0.  1.
         12    1    3    3    0    0  0.88969045818E+01  0.15776383974E+01  0.21454976902E+02  0.23280031956E+02  0.00000000000E+00 0. -1.
</event>
<event>
 7    1  0.1789107E-013  0.7246156E+02  0.7816164E-02  0.1226708E+00
        -11   -1    0    0    0    0  0.00000000000E+00  0.00000000000E+00  0.45593999997E+02  0.45594000000E+02  0.51100000000E-03 0.  1.
         11   -1    0    0    0    0 -0.00000000000E+00 -0.00000000000E+00 -0.45593999997E+02  0.45594000000E+02  0.51100000000E-03 0. -1.
    9900012    2    1    2    0    0 -0.36706499807E+01 -0.12004502717E+02 -0.13895965449E+02  0.72461558466E+02  0.69999984591E+02 0.  0.
        -12    1    1    2    0    0  0.36706499807E+01  0.12004502717E+02  0.13895965449E+02  0.18726441534E+02  0.00000000000E+00 0.  1.
         11    1    3    3    0    0  0.13210339662E+02 -0.11693424763E+02  0.18861985346E+01  0.17742801409E+02  0.51100000000E-03 0. -1.
        -11    1    3    3    0    0 -0.21598574250E+02  0.17532582565E+02  0.34867081632E+01  0.28036529656E+02  0.51100000000E-03 0.  1.
         12    1    3    3    0    0  0.47175846075E+01 -0.17843660520E+02 -0.19268872147E+02  0.26682227401E+02  0.00000000000E+00 0. -1.
</event>
<event>
 7    1  0.1789107E-013  0.7246157E+02  0.7816164E-02  0.1226708E+00
        -11   -1    0    0    0    0  0.00000000000E+00  0.00000000000E+00  0.45593999997E+02  0.45594000000E+02  0.51100000000E-03 0.  1.
         11   -1    0    0    0    0 -0.00000000000E+00 -0.00000000000E+00 -0.45593999997E+02  0.45594000000E+02  0.51100000000E-03 0. -1.
    9900012    2    1    2    0    0 -0.10758014715E+02  0.60209999756E+01 -0.14095810255E+02  0.72461569799E+02  0.69999999355E+02 0.  0.
        -12    1    1    2    0    0  0.10758014715E+02 -0.60209999756E+01  0.14095810255E+02  0.18726430201E+02  0.00000000000E+00 0.  1.
         11    1    3    3    0    0 -0.20169862729E+01 -0.81259913951E+01 -0.33564251252E+02  0.34592758378E+02  0.51100000000E-03 0. -1.
        -11    1    3    3    0    0 -0.62483307036E+01 -0.76090738447E+01  0.24799484217E+01  0.10153314030E+02  0.51100000000E-03 0.  1.
        -12    1    3    3    0    0 -0.24926977388E+01  0.21756065215E+02  0.16988492576E+02  0.27715497392E+02  0.00000000000E+00 0.  1.
</event>
<event>
 7    1  0.1789107E-013  0.7246161E+02  0.7816164E-02  0.1226708E+00
        -11   -1    0    0    0    0  0.00000000000E+00  0.00000000000E+00  0.45593999997E+02  0.45594000000E+02  0.51100000000E-03 0. -1.
         11   -1    0    0    0    0 -0.00000000000E+00 -0.00000000000E+00 -0.45593999997E+02  0.45594000000E+02  0.51100000000E-03 0.  1.
    9900012    2    1    2    0    0 -0.14431854983E+02  0.75579331094E+00  0.11909151937E+02  0.72461613226E+02  0.70000055926E+02 0.  0.
        -12    1    1    2    0    0  0.14431854983E+02 -0.75579331094E+00 -0.11909151937E+02  0.18726386774E+02  0.00000000000E+00 0.  1.
         11    1    3    3    0    0  0.96934897812E+00  0.17772937832E+02  0.24762669132E+02  0.30496011861E+02  0.51100000000E-03 0. -1.
        -11    1    3    3    0    0  0.10369670875E+02 -0.48993855907E+01 -0.38896604775E+01  0.12110471177E+02  0.51100000000E-03 0.  1.
        -12    1    3    3    0    0 -0.25770874836E+02 -0.12117758930E+02 -0.89638567177E+01  0.29855130188E+02  0.00000000000E+00 0.  1.
</event>
<event>
 7    1  0.1789107E-013  0.7246163E+02  0.7816164E-02  0.1226708E+00
        -11   -1    0    0    0    0  0.00000000000E+00  0.00000000000E+00  0.45593999997E+02  0.45594000000E+02  0.51100000000E-03 0.  1.
         11   -1    0    0    0    0 -0.00000000000E+00 -0.00000000000E+00 -0.45593999997E+02  0.45594000000E+02  0.51100000000E-03 0. -1.
    9900012    2    1    2    0    0  0.18567783144E+02 -0.24170408235E+01 -0.26914023167E+00  0.72461625720E+02  0.70000072202E+02 0.  0.
        -12    1    1    2    0    0 -0.18567783144E+02  0.24170408235E+01  0.26914023167E+00  0.18726374280E+02  0.00000000000E+00 0.  1.
         11    1    3    3    0    0  0.40714004190E+02 -0.53116482618E+01 -0.93194368307E+01  0.42103392352E+02  0.51100000000E-03 0. -1.
        -11    1    3    3    0    0  0.31433845587E+01  0.13129865243E+01  0.23810954781E+01  0.41562502371E+01  0.51100000000E-03 0.  1.
        -12    1    3    3    0    0 -0.25289605605E+02  0.15816209139E+01  0.66692011209E+01  0.26201983131E+02  0.00000000000E+00 0.  1.
</event>
<event>
 7    1  0.1789107E-013  0.7246160E+02  0.7816164E-02  0.1226708E+00
        -11   -1    0    0    0    0  0.00000000000E+00  0.00000000000E+00  0.45593999997E+02  0.45594000000E+02  0.51100000000E-03 0. -1.
         11   -1    0    0    0    0 -0.00000000000E+00 -0.00000000000E+00 -0.45593999997E+02  0.45594000000E+02  0.51100000000E-03 0.  1.
    9900012    2    1    2    0    0  0.14167347940E+02  0.66533346777E+00  0.12227903151E+02  0.72461600674E+02  0.70000039575E+02 0.  0.
        -12    1    1    2    0    0 -0.14167347940E+02 -0.66533346777E+00 -0.12227903151E+02  0.18726399326E+02  0.00000000000E+00 0.  1.
         11    1    3    3    0    0 -0.11134017172E+02  0.14887730266E+02  0.95642687792E+01  0.20906603942E+02  0.51100000000E-03 0. -1.
        -11    1    3    3    0    0  0.30989512528E+02 -0.61619923365E+01 -0.12070321637E+02  0.33823256806E+02  0.51100000000E-03 0.  1.
         12    1    3    3    0    0 -0.56881474172E+01 -0.80604044613E+01  0.14733956009E+02  0.17731739926E+02  0.00000000000E+00 0. -1.
</event>
<event>
 7    1  0.1789107E-013  0.7246150E+02  0.7816164E-02  0.1226708E+00
        -11   -1    0    0    0    0  0.00000000000E+00  0.00000000000E+00  0.45593999997E+02  0.45594000000E+02  0.51100000000E-03 0. -1.
         11   -1    0    0    0    0 -0.00000000000E+00 -0.00000000000E+00 -0.45593999997E+02  0.45594000000E+02  0.51100000000E-03 0.  1.
    9900012    2    1    2    0    0  0.92463471301E+01 -0.16146404086E+02  0.21166802858E+01  0.72461504450E+02  0.69999914225E+02 0.  0.
        -12    1    1    2    0    0 -0.92463471301E+01  0.16146404086E+02 -0.21166802858E+01  0.18726495550E+02  0.00000000000E+00 0.  1.
         11    1    3    3    0    0  0.22549131316E+02  0.10560141473E+00  0.59558873963E+01  0.23322672868E+02  0.51100000000E-03 0. -1.
        -11    1    3    3    0    0  0.17975299717E+01  0.14405149089E+02  0.13223508097E+01  0.14576969719E+02  0.51100000000E-03 0.  1.
         12    1    3    3    0    0 -0.15100314158E+02 -0.30657154590E+02 -0.51615579203E+01  0.34561861862E+02  0.00000000000E+00 0. -1.
</event>
<event>
 7    1  0.1789107E-013  0.7246158E+02  0.7816164E-02  0.1226708E+00
        -11   -1    0    0    0    0  0.00000000000E+00  0.00000000000E+00  0.45593999997E+02  0.45594000000E+02  0.51100000000E-03 0.  1.
         11   -1    0    0    0    0 -0.00000000000E+00 -0.00000000000E+00 -0.45593999997E+02  0.45594000000E+02  0.51100000000E-03 0. -1.
    9900012    2    1    2    0    0  0.54075447948E+01 -0.61181983500E+01 -0.16852441673E+02  0.72461583309E+02  0.70000016954E+02 0.  0.
        -12    1    1    2    0    0 -0.54075447948E+01  0.61181983500E+01  0.16852441673E+02  0.18726416691E+02  0.00000000000E+00 0.  1.
         11    1    3    3    0    0 -0.13822602550E+01  0.15034940253E+02 -0.22736422537E+02  0.27292947475E+02  0.51100000000E-03 0. -1.
        -11    1    3    3    0    0  0.58180400563E+01  0.70990211779E+01  0.13097953236E+02  0.15993813523E+02  0.51100000000E-03 0.  1.
        -12    1    3    3    0    0  0.97176499351E+00 -0.28252159781E+02 -0.72139723722E+01  0.29174822311E+02  0.00000000000E+00 0.  1.
</event>
<event>
 7    1  0.1789107E-013  0.7246156E+02  0.7816164E-02  0.1226708E+00
        -11   -1    0    0    0    0  0.00000000000E+00  0.00000000000E+00  0.45593999997E+02  0.45594000000E+02  0.51100000000E-03 0. -1.
         11   -1    0    0    0    0 -0.00000000000E+00 -0.00000000000E+00 -0.45593999997E+02  0.45594000000E+02  0.51100000000E-03 0.  1.
    9900012    2    1    2    0    0 -0.11037509792E+02 -0.42623590311E+01  0.14515003894E+02  0.72461557066E+02  0.69999982767E+02 0.  0.
        -12    1    1    2    0    0  0.11037509792E+02  0.42623590311E+01 -0.14515003894E+02  0.18726442934E+02  0.00000000000E+00 0.  1.
         11    1    3    3    0    0  0.16087957686E+02 -0.32732647569E+01  0.10097427979E+02  0.19274197694E+02  0.51100000000E-03 0. -1.
        -11    1    3    3    0    0  0.11667753917E+02 -0.34330927571E+00 -0.58449964251E+01  0.13054437031E+02  0.51100000000E-03 0.  1.
        -12    1    3    3    0    0 -0.38793221396E+02 -0.64578499845E+00  0.10262572340E+02  0.40132922340E+02  0.00000000000E+00 0.  1.
</event>
<event>
 7    1  0.1789107E-013  0.7246165E+02  0.7816164E-02  0.1226708E+00
        -11   -1    0    0    0    0  0.00000000000E+00  0.00000000000E+00  0.45593999997E+02  0.45594000000E+02  0.51100000000E-03 0.  1.
         11   -1    0    0    0    0 -0.00000000000E+00 -0.00000000000E+00 -0.45593999997E+02  0.45594000000E+02  0.51100000000E-03 0. -1.
    9900012    2    1    2    0    0 -0.17213014664E+02  0.71362021939E+01 -0.18609070509E+01  0.72461648764E+02  0.70000102221E+02 0.  0.
        -12    1    1    2    0    0  0.17213014664E+02 -0.71362021939E+01  0.18609070509E+01  0.18726351236E+02  0.00000000000E+00 0.  1.
         11    1    3    3    0    0 -0.36464231491E+02  0.39566463983E+01 -0.15881640452E+02  0.39969009653E+02  0.51100000000E-03 0. -1.
        -11    1    3    3    0    0  0.69329031206E+00 -0.55273223819E+01  0.10226794793E+02  0.11645568950E+02  0.51100000000E-03 0.  1.
        -12    1    3    3    0    0  0.18557926515E+02  0.87068781775E+01  0.37939386078E+01  0.20847070161E+02  0.00000000000E+00 0.  1.
</event>
<event>
 7    1  0.1789107E-013  0.7246160E+02  0.7816164E-02  0.1226708E+00
        -11   -1    0    0    0    0  0.00000000000E+00  0.00000000000E+00  0.45593999997E+02  0.45594000000E+02  0.51100000000E-03 0.  1.
         11   -1    0    0    0    0 -0.00000000000E+00 -0.00000000000E+00 -0.45593999997E+02  0.45594000000E+02  0.51100000000E-03 0. -1.
    9900012    2    1    2    0    0  0.14765158167E+02 -0.41558250134E+01 -0.10742315420E+02  0.72461598375E+02  0.70000036580E+02 0.  0.
        -12    1    1    2    0    0 -0.14765158167E+02  0.41558250134E+01  0.10742315420E+02  0.18726401625E+02  0.00000000000E+00 0.  1.
         11    1    3    3    0    0  0.12336382167E+02 -0.37378541131E+00 -0.17691225364E+02  0.21570941000E+02  0.51100000000E-03 0. -1.
        -11    1    3    3    0    0  0.22141929467E+02 -0.15853834067E+02  0.50528873143E+01  0.27697306107E+02  0.51100000000E-03 0.  1.
         12    1    3    3    0    0 -0.19713153467E+02  0.12071794465E+02  0.18960226297E+01  0.23193351267E+02  0.00000000000E+00 0. -1.
</event>
<event>
 7    1  0.1789107E-013  0.7246163E+02  0.7816164E-02  0.1226708E+00
        -11   -1    0    0    0    0  0.00000000000E+00  0.00000000000E+00  0.45593999997E+02  0.45594000000E+02  0.51100000000E-03 0. -1.
         11   -1    0    0    0    0 -0.00000000000E+00 -0.00000000000E+00 -0.45593999997E+02  0.45594000000E+02  0.51100000000E-03 0.  1.
    9900012    2    1    2    0    0  0.13305734902E+02 -0.10148648436E+02  0.84047220549E+01  0.72461628243E+02  0.70000075489E+02 0.  0.
        -12    1    1    2    0    0 -0.13305734902E+02  0.10148648436E+02 -0.84047220549E+01  0.18726371757E+02  0.00000000000E+00 0.  1.
         11    1    3    3    0    0  0.21685874735E+02  0.15039937119E+02  0.25868708914E+02  0.36954931642E+02  0.51100000000E-03 0. -1.
        -11    1    3    3    0    0  0.68830088206E+00 -0.57010412295E+01 -0.12039051387E+02  0.13338455225E+02  0.51100000000E-03 0.  1.
        -12    1    3    3    0    0 -0.90684407151E+01 -0.19487544326E+02 -0.54249354712E+01  0.22168241376E+02  0.00000000000E+00 0.  1.
</event>
<event>
 7    1  0.1789107E-013  0.7246145E+02  0.7816164E-02  0.1226708E+00
        -11   -1    0    0    0    0  0.00000000000E+00  0.00000000000E+00  0.45593999997E+02  0.45594000000E+02  0.51100000000E-03 0.  1.
         11   -1    0    0    0    0 -0.00000000000E+00 -0.00000000000E+00 -0.45593999997E+02  0.45594000000E+02  0.51100000000E-03 0. -1.
    9900012    2    1    2    0    0 -0.31655010313E+01  0.75086124689E+01 -0.16860723475E+02  0.72461450556E+02  0.69999844019E+02 0.  0.
        -12    1    1    2    0    0  0.31655010313E+01 -0.75086124689E+01  0.16860723475E+02  0.18726549444E+02  0.00000000000E+00 0.  1.
         11    1    3    3    0    0 -0.12644781273E+01 -0.39698499256E+01  0.11973446637E+02  0.12677619571E+02  0.51100000000E-03 0. -1.
        -11    1    3    3    0    0  0.14755482575E+02  0.15934698351E+02  0.45693200335E+01  0.22192736727E+02  0.51100000000E-03 0.  1.
         12    1    3    3    0    0 -0.16656505479E+02 -0.44562359570E+01 -0.33403490145E+02  0.37591094258E+02  0.00000000000E+00 0. -1.
</event>
<event>
 7    1  0.1789107E-013  0.7246163E+02  0.7816164E-02  0.1226708E+00
        -11   -1    0    0    0    0  0.00000000000E+00  0.00000000000E+00  0.45593999997E+02  0.45594000000E+02  0.51100000000E-03 0. -1.
         11   -1    0    0    0    0 -0.00000000000E+00 -0.00000000000E+00 -0.45593999997E+02  0.45594000000E+02  0.51100000000E-03 0.  1.
    9900012    2    1    2    0    0 -0.11116121247E+01  0.15783536166E+02  0.10016057558E+02  0.72461625433E+02  0.70000071828E+02 0.  0.
        -12    1    1    2    0    0  0.11116121247E+01 -0.15783536166E+02 -0.10016057558E+02  0.18726374567E+02  0.00000000000E+00 0.  1.
         11    1    3    3    0    0 -0.28221024912E+01 -0.84277979582E+01  0.12095991444E+02  0.15010164895E+02  0.51100000000E-03 0. -1.
        -11    1    3    3    0    0 -0.24989281615E+02  0.12064887361E+02 -0.40933780051E+01  0.28049624711E+02  0.51100000000E-03 0.  1.
         12    1    3    3    0    0  0.26699771981E+02  0.12146446763E+02  0.20134441196E+01  0.29401835828E+02  0.00000000000E+00 0. -1.
</event>
<event>
 7    1  0.1789107E-013  0.7246153E+02  0.7816164E-02  0.1226708E+00
        -11   -1    0    0    0    0  0.00000000000E+00  0.00000000000E+00  0.45593999997E+02  0.45594000000E+02  0.51100000000E-03 0.  1.
         11   -1    0    0    0    0 -0.00000000000E+00 -0.00000000000E+00 -0.45593999997E+02  0.45594000000E+02  0.51100000000E-03 0. -1.
    9900012    2    1    2    0    0 -0.39348155808E+01  0.17494154568E+02 -0.53993168726E+01  0.72461525682E+02  0.69999941884E+02 0.  0.
        -12    1    1    2    0    0  0.39348155808E+01 -0.17494154568E+02  0.53993168726E+01  0.18726474318E+02  0.00000000000E+00 0.  1.
         11    1    3    3    0    0 -0.63821169971E+01  0.13745407193E+02 -0.70710536610E+01  0.16723260340E+02  0.51100000000E-03 0. -1.
        -11    1    3    3    0    0 -0.26285285931E+02  0.55401214966E+01 -0.50693193049E+00  0.26867567492E+02  0.51100000000E-03 0.  1.
         12    1    3    3    0    0  0.28732587348E+02 -0.17913741219E+01  0.21786687188E+01  0.28870697849E+02  0.00000000000E+00 0. -1.
</event>
<event>
 7    1  0.3578531E-013  0.7246146E+02  0.7816164E-02  0.1226708E+00
        -11   -1    0    0    0    0  0.00000000000E+00  0.00000000000E+00  0.45593999997E+02  0.45594000000E+02  0.51100000000E-03 0. -1.
         11   -1    0    0    0    0 -0.00000000000E+00 -0.00000000000E+00 -0.45593999997E+02  0.45594000000E+02  0.51100000000E-03 0.  1.
    9900012    2    1    2    0    0 -0.20183972138E+01 -0.80421400738E+01  0.16790875917E+02  0.72461455782E+02  0.69999850827E+02 0.  0.
        -12    1    1    2    0    0  0.20183972138E+01  0.80421400738E+01 -0.16790875917E+02  0.18726544218E+02  0.00000000000E+00 0.  1.
         11    1    3    3    0    0 -0.10671411697E+02  0.20582803051E+01  0.34950454245E+02  0.36601226723E+02  0.51100000000E-03 0. -1.
        -11    1    3    3    0    0  0.29830503909E+01 -0.20242208330E+01  0.75257322025E+01  0.83446213252E+01  0.51100000000E-03 0.  1.
        -12    1    3    3    0    0  0.56699640926E+01 -0.80761995458E+01 -0.25685310531E+02  0.27515607734E+02  0.00000000000E+00 0.  1.
</event>
<event>
 7    1  0.1789107E-013  0.7246203E+02  0.7816164E-02  0.1226707E+00
        -11   -1    0    0    0    0  0.00000000000E+00  0.00000000000E+00  0.45593999997E+02  0.45594000000E+02  0.51100000000E-03 0.  1.
         11   -1    0    0    0    0 -0.00000000000E+00 -0.00000000000E+00 -0.45593999997E+02  0.45594000000E+02  0.51100000000E-03 0. -1.
    9900012    2    1    2    0    0 -0.57410627243E+01 -0.17200776636E+02 -0.46728220706E+01  0.72462034493E+02  0.70000604702E+02 0.  0.
        -12    1    1    2    0    0  0.57410627243E+01  0.17200776636E+02  0.46728220706E+01  0.18725965507E+02  0.00000000000E+00 0.  1.
         11    1    3    3    0    0 -0.26739013670E+02 -0.13450600779E+02  0.15828120148E+01  0.29973301579E+02  0.51100000000E-03 0. -1.
        -11    1    3    3    0    0  0.13475782815E+01 -0.17421409733E+02  0.92144469082E+00  0.17497729707E+02  0.51100000000E-03 0.  1.
         12    1    3    3    0    0  0.19650372665E+02  0.13671233876E+02 -0.71770787762E+01  0.24991003208E+02  0.00000000000E+00 0. -1.
</event>
<event>
 7    1  0.1910468E-013  0.7246159E+02  0.7816164E-02  0.1226708E+00
        -11   -1    0    0    0    0  0.00000000000E+00  0.00000000000E+00  0.45593999997E+02  0.45594000000E+02  0.51100000000E-03 0.  1.
         11   -1    0    0    0    0 -0.00000000000E+00 -0.00000000000E+00 -0.45593999997E+02  0.45594000000E+02  0.51100000000E-03 0. -1.
    9900012    2    1    2    0    0 -0.16913570346E+02 -0.49921067941E+01  0.62998699230E+01  0.72461592092E+02  0.70000028396E+02 0.  0.
        -12    1    1    2    0    0  0.16913570346E+02  0.49921067941E+01 -0.62998699230E+01  0.18726407908E+02  0.00000000000E+00 0.  1.
         11    1    3    3    0    0 -0.26896668829E+02  0.13264538642E+02  0.79593950602E+01  0.31027902756E+02  0.51100000000E-03 0.  1.
        -11    1    3    3    0    0  0.66304428853E+01 -0.52804856409E+00 -0.16679776637E+02  0.17957075404E+02  0.51100000000E-03 0. -1.
        -12    1    3    3    0    0  0.33526555977E+01 -0.17728596872E+02  0.15020251500E+02  0.23476613932E+02  0.00000000000E+00 0.  1.
</event>
<event>
 7    1  0.1789107E-013  0.7246165E+02  0.7816164E-02  0.1226708E+00
        -11   -1    0    0    0    0  0.00000000000E+00  0.00000000000E+00  0.45593999997E+02  0.45594000000E+02  0.51100000000E-03 0.  1.
         11   -1    0    0    0    0 -0.00000000000E+00 -0.00000000000E+00 -0.45593999997E+02  0.45594000000E+02  0.51100000000E-03 0. -1.
    9900012    2    1    2    0    0  0.10604539726E+02  0.40729831663E+01 -0.14887266033E+02  0.72461651061E+02  0.70000105213E+02 0.  0.
        -12    1    1    2    0    0 -0.10604539726E+02 -0.40729831663E+01  0.14887266033E+02  0.18726348939E+02  0.00000000000E+00 0.  1.
         11    1    3    3    0    0 -0.30930836602E+01  0.56705229087E+01  0.77998877846E+01  0.10127203281E+02  0.51100000000E-03 0. -1.
        -11    1    3    3    0    0  0.29963014996E+01  0.83403735101E+01  0.17478115116E+02  0.19596534419E+02  0.51100000000E-03 0.  1.
         12    1    3    3    0    0  0.10701321886E+02 -0.99379132526E+01 -0.40165268933E+02  0.42737913361E+02  0.00000000000E+00 0. -1.
</event>
<event>
 7    1  0.1789107E-013  0.7246152E+02  0.7816164E-02  0.1226708E+00
        -11   -1    0    0    0    0  0.00000000000E+00  0.00000000000E+00  0.45593999997E+02  0.45594000000E+02  0.51100000000E-03 0.  1.
         11   -1    0    0    0    0 -0.00000000000E+00 -0.00000000000E+00 -0.45593999997E+02  0.45594000000E+02  0.51100000000E-03 0. -1.
    9900012    2    1    2    0    0  0.66886940518E+01  0.15050145335E+02  0.89126521192E+01  0.72461524877E+02  0.69999940836E+02 0.  0.
        -12    1    1    2    0    0 -0.66886940518E+01 -0.15050145335E+02 -0.89126521192E+01  0.18726475123E+02  0.00000000000E+00 0.  1.
         11    1    3    3    0    0 -0.84507489836E+01 -0.93368631447E+00  0.21099182491E+02  0.22747800566E+02  0.51100000000E-03 0. -1.
        -11    1    3    3    0    0  0.69770256048E+01  0.28969466861E+02  0.51063502039E+00  0.29802175171E+02  0.51100000000E-03 0.  1.
         12    1    3    3    0    0  0.81624174306E+01 -0.12985635212E+02 -0.12697165393E+02  0.19911549141E+02  0.00000000000E+00 0. -1.
</event>
<event>
 7    1  0.1789107E-013  0.7246159E+02  0.7816164E-02  0.1226708E+00
        -11   -1    0    0    0    0  0.00000000000E+00  0.00000000000E+00  0.45593999997E+02  0.45594000000E+02  0.51100000000E-03 0.  1.
         11   -1    0    0    0    0 -0.00000000000E+00 -0.00000000000E+00 -0.45593999997E+02  0.45594000000E+02  0.51100000000E-03 0. -1.
    9900012    2    1    2    0    0  0.63825296915E+01 -0.15462657023E+02 -0.84171252581E+01  0.72461589637E+02  0.70000025198E+02 0.  0.
        -12    1    1    2    0    0 -0.63825296915E+01  0.15462657023E+02  0.84171252581E+01  0.18726410363E+02  0.00000000000E+00 0.  1.
         11    1    3    3    0    0  0.20354295372E+02 -0.97119042918E+01  0.64412728180E+00  0.22561766892E+02  0.51100000000E-03 0. -1.
        -11    1    3    3    0    0 -0.57842188618E+01 -0.20137458341E+02  0.11183026599E+02  0.23749410529E+02  0.51100000000E-03 0.  1.
        -12    1    3    3    0    0 -0.81875468185E+01  0.14386705611E+02 -0.20244279139E+02  0.26150412217E+02  0.00000000000E+00 0.  1.
</event>
<event>
 7    1  0.1789107E-013  0.7246154E+02  0.7816164E-02  0.1226708E+00
        -11   -1    0    0    0    0  0.00000000000E+00  0.00000000000E+00  0.45593999997E+02  0.45594000000E+02  0.51100000000E-03 0. -1.
         11   -1    0    0    0    0 -0.00000000000E+00 -0.00000000000E+00 -0.45593999997E+02  0.45594000000E+02  0.51100000000E-03 0.  1.
    9900012    2    1    2    0    0 -0.60091687688E+01 -0.17585911711E+02  0.23034735420E+01  0.72461537697E+02  0.69999957536E+02 0.  0.
        -12    1    1    2    0    0  0.60091687688E+01  0.17585911711E+02 -0.23034735420E+01  0.18726462303E+02  0.00000000000E+00 0.  1.
         11    1    3    3    0    0 -0.30108833211E+02  0.25055220014E+01  0.92873554789E+01  0.31608138981E+02  0.51100000000E-03 0. -1.
        -11    1    3    3    0    0 -0.14729478370E+01 -0.40724984357E-01  0.57617851685E+01  0.59472180424E+01  0.51100000000E-03 0.  1.
        -12    1    3    3    0    0  0.25572612279E+02 -0.20050708728E+02 -0.12745667105E+02  0.34906180674E+02  0.00000000000E+00 0.  1.
</event>
<event>
 7    1  0.1789107E-013  0.7246165E+02  0.7816164E-02  0.1226708E+00
        -11   -1    0    0    0    0  0.00000000000E+00  0.00000000000E+00  0.45593999997E+02  0.45594000000E+02  0.51100000000E-03 0.  1.
         11   -1    0    0    0    0 -0.00000000000E+00 -0.00000000000E+00 -0.45593999997E+02  0.45594000000E+02  0.51100000000E-03 0. -1.
    9900012    2    1    2    0    0  0.11539278973E+02  0.11405255045E+02 -0.93510065091E+01  0.72461651595E+02  0.70000105909E+02 0.  0.
        -12    1    1    2    0    0 -0.11539278973E+02 -0.11405255045E+02  0.93510065091E+01  0.18726348405E+02  0.00000000000E+00 0.  1.
         11    1    3    3    0    0  0.12288730127E+01 -0.46021153136E+01 -0.20829051111E+02  0.21366772444E+02  0.51100000000E-03 0. -1.
        -11    1    3    3    0    0  0.17098843063E+02  0.36081457366E+01 -0.13709826539E+02  0.22211449609E+02  0.51100000000E-03 0.  1.
        -12    1    3    3    0    0 -0.67884371022E+01  0.12399224622E+02  0.25187871140E+02  0.28883429542E+02  0.00000000000E+00 0.  1.
</event>
<event>
 7    1  0.1789107E-013  0.7246161E+02  0.7816164E-02  0.1226708E+00
        -11   -1    0    0    0    0  0.00000000000E+00  0.00000000000E+00  0.45593999997E+02  0.45594000000E+02  0.51100000000E-03 0. -1.
         11   -1    0    0    0    0 -0.00000000000E+00 -0.00000000000E+00 -0.45593999997E+02  0.45594000000E+02  0.51100000000E-03 0.  1.
    9900012    2    1    2    0    0 -0.15035368282E+01 -0.16478906068E+02  0.87671465736E+01  0.72461606134E+02  0.70000046688E+02 0.  0.
        -12    1    1    2    0    0  0.15035368282E+01  0.16478906068E+02 -0.87671465736E+01  0.18726393866E+02  0.00000000000E+00 0.  1.
         11    1    3    3    0    0 -0.67517439787E+01 -0.14157780898E+02 -0.13670362870E+02  0.20806432370E+02  0.51100000000E-03 0.  1.
        -11    1    3    3    0    0 -0.55641621778E+01 -0.20261339710E+02  0.22394958071E+02  0.30708564519E+02  0.51100000000E-03 0. -1.
        -12    1    3    3    0    0  0.10812369328E+02  0.17940214540E+02  0.42551372683E-01  0.20946609245E+02  0.00000000000E+00 0.  1.
</event>
<event>
 7    1  0.1789107E-013  0.7246158E+02  0.7816164E-02  0.1226708E+00
        -11   -1    0    0    0    0  0.00000000000E+00  0.00000000000E+00  0.45593999997E+02  0.45594000000E+02  0.51100000000E-03 0. -1.
         11   -1    0    0    0    0 -0.00000000000E+00 -0.00000000000E+00 -0.45593999997E+02  0.45594000000E+02  0.51100000000E-03 0.  1.
    9900012    2    1    2    0    0 -0.48458354537E+01 -0.71262578470E+01  0.16625681424E+02  0.72461576024E+02  0.70000007463E+02 0.  0.
        -12    1    1    2    0    0  0.48458354537E+01  0.71262578470E+01 -0.16625681424E+02  0.18726423976E+02  0.00000000000E+00 0.  1.
         11    1    3    3    0    0  0.77652436758E+01 -0.27950268938E+02  0.52039023905E-01  0.29008951228E+02  0.51100000000E-03 0. -1.
        -11    1    3    3    0    0  0.67172371511E+01 -0.27809470472E+01 -0.22425380296E+01  0.76081481649E+01  0.51100000000E-03 0.  1.
        -12    1    3    3    0    0 -0.19328316281E+02  0.23604958138E+02  0.18816180429E+02  0.35844476630E+02  0.00000000000E+00 0.  1.
</event>
<event>
 7    1  0.1938811E-013  0.7246154E+02  0.7816164E-02  0.1226708E+00
        -11   -1    0    0    0    0  0.00000000000E+00  0.00000000000E+00  0.45593999997E+02  0.45594000000E+02  0.51100000000E-03 0. -1.
         11   -1    0    0    0    0 -0.00000000000E+00 -0.00000000000E+00 -0.45593999997E+02  0.45594000000E+02  0.51100000000E-03 0.  1.
    9900012    2    1    2    0    0  0.88471723846E+01  0.14716926383E+02  0.74712633370E+01  0.72461543923E+02  0.69999965646E+02 0.  0.
        -12    1    1    2    0    0 -0.88471723846E+01 -0.14716926383E+02 -0.74712633370E+01  0.18726456077E+02  0.00000000000E+00 0.  1.
         11    1    3    3    0    0  0.84545735858E+01  0.30232965240E+02  0.24811750699E+02  0.40014184670E+02  0.51100000000E-03 0. -1.
        -11    1    3    3    0    0  0.82670260478E+01 -0.32820689401E+01  0.10955964284E+01  0.89619209993E+01  0.51100000000E-03 0.  1.
        -12    1    3    3    0    0 -0.78744272489E+01 -0.12233969918E+02 -0.18436083791E+02  0.23485438254E+02  0.00000000000E+00 0.  1.
</event>
<event>
 7    1  0.1789107E-013  0.7246155E+02  0.7816164E-02  0.1226708E+00
        -11   -1    0    0    0    0  0.00000000000E+00  0.00000000000E+00  0.45593999997E+02  0.45594000000E+02  0.51100000000E-03 0.  1.
         11   -1    0    0    0    0 -0.00000000000E+00 -0.00000000000E+00 -0.45593999997E+02  0.45594000000E+02  0.51100000000E-03 0. -1.
    9900012    2    1    2    0    0 -0.53763660420E+01  0.91113992608E+01 -0.15451763780E+02  0.72461550464E+02  0.69999974168E+02 0.  0.
        -12    1    1    2    0    0  0.53763660420E+01 -0.91113992608E+01  0.15451763780E+02  0.18726449536E+02  0.00000000000E+00 0.  1.
         11    1    3    3    0    0 -0.40311176335E+01  0.12073203704E+02 -0.85114595386E+01  0.15311992058E+02  0.51100000000E-03 0. -1.
        -11    1    3    3    0    0 -0.22061880812E+02  0.16790664453E+02 -0.12314415118E+00  0.27724865419E+02  0.51100000000E-03 0.  1.
         12    1    3    3    0    0  0.20716632404E+02 -0.19752468897E+02 -0.68171600901E+01  0.29424692987E+02  0.00000000000E+00 0. -1.
</event>
<event>
 7    1  0.1789107E-013  0.7246155E+02  0.7816164E-02  0.1226708E+00
        -11   -1    0    0    0    0  0.00000000000E+00  0.00000000000E+00  0.45593999997E+02  0.45594000000E+02  0.51100000000E-03 0.  1.
         11   -1    0    0    0    0 -0.00000000000E+00 -0.00000000000E+00 -0.45593999997E+02  0.45594000000E+02  0.51100000000E-03 0. -1.
    9900012    2    1    2    0    0  0.69207646204E+01 -0.12267684621E+02 -0.12340463137E+02  0.72461545469E+02  0.69999967660E+02 0.  0.
        -12    1    1    2    0    0 -0.69207646204E+01  0.12267684621E+02  0.12340463137E+02  0.18726454531E+02  0.00000000000E+00 0.  1.
         11    1    3    3    0    0  0.91096199186E+01 -0.10615116648E+02 -0.19819107286E+02  0.24258254067E+02  0.51100000000E-03 0. -1.
        -11    1    3    3    0    0  0.11208081956E+02 -0.20838861451E+02  0.74356145312E+01  0.24802572678E+02  0.51100000000E-03 0.  1.
        -12    1    3    3    0    0 -0.13396937254E+02  0.19186293479E+02  0.43029617483E-01  0.23400718724E+02  0.00000000000E+00 0.  1.
</event>
<event>
 7    1  0.1789107E-013  0.7246155E+02  0.7816164E-02  0.1226708E+00
        -11   -1    0    0    0    0  0.00000000000E+00  0.00000000000E+00  0.45593999997E+02  0.45594000000E+02  0.51100000000E-03 0.  1.
         11   -1    0    0    0    0 -0.00000000000E+00 -0.00000000000E+00 -0.45593999997E+02  0.45594000000E+02  0.51100000000E-03 0. -1.
    9900012    2    1    2    0    0 -0.62720173438E+01 -0.94236901826E+01 -0.14917631399E+02  0.72461551731E+02  0.69999975818E+02 0.  0.
        -12    1    1    2    0    0  0.62720173438E+01  0.94236901826E+01  0.14917631399E+02  0.18726448269E+02  0.00000000000E+00 0.  1.
         11    1    3    3    0    0 -0.28456959538E+01 -0.13828400746E+02 -0.99412353839E+01  0.17267044156E+02  0.51100000000E-03 0. -1.
        -11    1    3    3    0    0  0.14140257819E+02 -0.20242790180E+02 -0.17025420787E+01  0.24751082708E+02  0.51100000000E-03 0.  1.
         12    1    3    3    0    0 -0.17566579209E+02  0.24647500744E+02 -0.32738539364E+01  0.30443424867E+02  0.00000000000E+00 0. -1.
</event>
<event>
 7    1  0.1789107E-013  0.7246140E+02  0.7816164E-02  0.1226708E+00
        -11   -1    0    0    0    0  0.00000000000E+00  0.00000000000E+00  0.45593999997E+02  0.45594000000E+02  0.51100000000E-03 0. -1.
         11   -1    0    0    0    0 -0.00000000000E+00 -0.00000000000E+00 -0.45593999997E+02  0.45594000000E+02  0.51100000000E-03 0.  1.
    9900012    2    1    2    0    0  0.11059103068E+01  0.15028720189E+02  0.11117554665E+02  0.72461401541E+02  0.69999780167E+02 0.  0.
        -12    1    1    2    0    0 -0.11059103068E+01 -0.15028720189E+02 -0.11117554665E+02  0.18726598459E+02  0.00000000000E+00 0.  1.
         11    1    3    3    0    0  0.11487836935E+02  0.62784127016E+01 -0.90270356386E+01  0.15902082762E+02  0.51100000000E-03 0. -1.
        -11    1    3    3    0    0  0.14361118501E+02  0.20176588113E+02  0.46167846043E+01  0.25192283200E+02  0.51100000000E-03 0.  1.
         12    1    3    3    0    0 -0.24743045129E+02 -0.11426280626E+02  0.15527805699E+02  0.31367035579E+02  0.00000000000E+00 0. -1.
</event>
<event>
 7    1  0.1789107E-013  0.7246179E+02  0.7816164E-02  0.1226707E+00
        -11   -1    0    0    0    0  0.00000000000E+00  0.00000000000E+00  0.45593999997E+02  0.45594000000E+02  0.51100000000E-03 0. -1.
         11   -1    0    0    0    0 -0.00000000000E+00 -0.00000000000E+00 -0.45593999997E+02  0.45594000000E+02  0.51100000000E-03 0.  1.
    9900012    2    1    2    0    0 -0.12046294115E+02 -0.91244258349E+01  0.11059058173E+02  0.72461785316E+02  0.70000280105E+02 0.  0.
        -12    1    1    2    0    0  0.12046294115E+02  0.91244258349E+01 -0.11059058173E+02  0.18726214684E+02  0.00000000000E+00 0.  1.
         11    1    3    3    0    0 -0.14318276243E+01 -0.18810939208E+02 -0.10605507819E+02  0.21642050748E+02  0.51100000000E-03 0. -1.
        -11    1    3    3    0    0  0.34876319776E+01 -0.30123349458E+01 -0.11622703575E+02  0.12502998732E+02  0.51100000000E-03 0.  1.
         12    1    3    3    0    0 -0.14102098468E+02  0.12698848319E+02  0.33287269567E+02  0.38316735835E+02  0.00000000000E+00 0. -1.
</event>
<event>
 7    1  0.1789107E-013  0.7246152E+02  0.7816164E-02  0.1226708E+00
        -11   -1    0    0    0    0  0.00000000000E+00  0.00000000000E+00  0.45593999997E+02  0.45594000000E+02  0.51100000000E-03 0. -1.
         11   -1    0    0    0    0 -0.00000000000E+00 -0.00000000000E+00 -0.45593999997E+02  0.45594000000E+02  0.51100000000E-03 0.  1.
    9900012    2    1    2    0    0  0.14438161721E+02  0.54925848220E+01 -0.10585457772E+02  0.72461523606E+02  0.69999939179E+02 0.  0.
        -12    1    1    2    0    0 -0.14438161721E+02 -0.54925848220E+01  0.10585457772E+02  0.18726476394E+02  0.00000000000E+00 0.  1.
         11    1    3    3    0    0 -0.17154285192E+02  0.16745332713E+00  0.64673366442E+01  0.18333684425E+02  0.51100000000E-03 0. -1.
        -11    1    3    3    0    0  0.84610586389E+01  0.21273792485E+02 -0.43997467601E+01  0.23313548246E+02  0.51100000000E-03 0.  1.
         12    1    3    3    0    0  0.23131388274E+02 -0.15948660990E+02 -0.12653047656E+02  0.30814290935E+02  0.00000000000E+00 0. -1.
</event>
<event>
 7    1  0.1789107E-013  0.7246161E+02  0.7816164E-02  0.1226708E+00
        -11   -1    0    0    0    0  0.00000000000E+00  0.00000000000E+00  0.45593999997E+02  0.45594000000E+02  0.51100000000E-03 0. -1.
         11   -1    0    0    0    0 -0.00000000000E+00 -0.00000000000E+00 -0.45593999997E+02  0.45594000000E+02  0.51100000000E-03 0.  1.
    9900012    2    1    2    0    0 -0.51226330825E+01 -0.16916068531E+02 -0.61873097568E+01  0.72461613636E+02  0.70000056461E+02 0.  0.
        -12    1    1    2    0    0  0.51226330825E+01  0.16916068531E+02  0.61873097568E+01  0.18726386364E+02  0.00000000000E+00 0.  1.
         11    1    3    3    0    0 -0.88582181054E+01  0.95660041399E+01  0.73493331579E+01  0.14966267448E+02  0.51100000000E-03 0. -1.
        -11    1    3    3    0    0  0.15805459273E+02  0.89728364845E+01 -0.69994023287E+01  0.19476035804E+02  0.51100000000E-03 0.  1.
        -12    1    3    3    0    0 -0.12069874250E+02 -0.35454909155E+02 -0.65372405860E+01  0.38019310384E+02  0.00000000000E+00 0.  1.
</event>
<event>
 7    1  0.1789107E-013  0.7246161E+02  0.7816164E-02  0.1226708E+00
        -11   -1    0    0    0    0  0.00000000000E+00  0.00000000000E+00  0.45593999997E+02  0.45594000000E+02  0.51100000000E-03 0. -1.
         11   -1    0    0    0    0 -0.00000000000E+00 -0.00000000000E+00 -0.45593999997E+02  0.45594000000E+02  0.51100000000E-03 0.  1.
    9900012    2    1    2    0    0  0.22549450218E+01 -0.15660457627E+02  0.10017130913E+02  0.72461611617E+02  0.70000053831E+02 0.  0.
        -12    1    1    2    0    0 -0.22549450218E+01  0.15660457627E+02 -0.10017130913E+02  0.18726388383E+02  0.00000000000E+00 0.  1.
         11    1    3    3    0    0  0.19075698250E+01  0.90052664784E-01  0.20520540518E+02  0.20609209484E+02  0.51100000000E-03 0. -1.
        -11    1    3    3    0    0  0.23291406955E+02 -0.62133950996E+01  0.17084582997E+01  0.24166397055E+02  0.51100000000E-03 0.  1.
        -12    1    3    3    0    0 -0.22944031758E+02 -0.95371151921E+01 -0.12211867905E+02  0.27686005079E+02  0.00000000000E+00 0.  1.
</event>
<event>
 7    1  0.1789107E-013  0.7246155E+02  0.7816164E-02  0.1226708E+00
        -11   -1    0    0    0    0  0.00000000000E+00  0.00000000000E+00  0.45593999997E+02  0.45594000000E+02  0.51100000000E-03 0. -1.
         11   -1    0    0    0    0 -0.00000000000E+00 -0.00000000000E+00 -0.45593999997E+02  0.45594000000E+02  0.51100000000E-03 0.  1.
    9900012    2    1    2    0    0  0.85091197948E+01  0.15051055256E+02  0.71930980660E+01  0.72461546951E+02  0.69999969591E+02 0.  0.
        -12    1    1    2    0    0 -0.85091197948E+01 -0.15051055256E+02 -0.71930980660E+01  0.18726453049E+02  0.00000000000E+00 0.  1.
         11    1    3    3    0    0  0.31539440225E+02 -0.18302442925E+01  0.91570548106E+01  0.32892821967E+02  0.51100000000E-03 0. -1.
        -11    1    3    3    0    0  0.20913225131E+01 -0.14260939070E+01  0.68135371734E+01  0.72685392452E+01  0.51100000000E-03 0.  1.
        -12    1    3    3    0    0 -0.25121642943E+02  0.18307393456E+02 -0.87774939179E+01  0.32300185739E+02  0.00000000000E+00 0.  1.
</event>
<event>
 7    1  0.1789107E-013  0.7246154E+02  0.7816164E-02  0.1226708E+00
        -11   -1    0    0    0    0  0.00000000000E+00  0.00000000000E+00  0.45593999997E+02  0.45594000000E+02  0.51100000000E-03 0.  1.
         11   -1    0    0    0    0 -0.00000000000E+00 -0.00000000000E+00 -0.45593999997E+02  0.45594000000E+02  0.51100000000E-03 0. -1.
    9900012    2    1    2    0    0 -0.10932440478E+02 -0.15184995438E+02 -0.76019557415E+00  0.72461541750E+02  0.69999962816E+02 0.  0.
        -12    1    1    2    0    0  0.10932440478E+02  0.15184995438E+02  0.76019557415E+00  0.18726458250E+02  0.00000000000E+00 0.  1.
         11    1    3    3    0    0  0.12664558203E+02  0.98254331575E+01 -0.20213067904E+02  0.25797253450E+02  0.51100000000E-03 0. -1.
        -11    1    3    3    0    0  0.53303083073E+00  0.29195502394E+01  0.71771130065E+01  0.77665208965E+01  0.51100000000E-03 0.  1.
        -12    1    3    3    0    0 -0.24130029512E+02 -0.27929978835E+02  0.12275759324E+02  0.38897767403E+02  0.00000000000E+00 0.  1.
</event>
<event>
 7    1  0.1789107E-013  0.7246156E+02  0.7816164E-02  0.1226708E+00
        -11   -1    0    0    0    0  0.00000000000E+00  0.00000000000E+00  0.45593999997E+02  0.45594000000E+02  0.51100000000E-03 0. -1.
         11   -1    0    0    0    0 -0.00000000000E+00 -0.00000000000E+00 -0.45593999997E+02  0.45594000000E+02  0.51100000000E-03 0.  1.
    9900012    2    1    2    0    0 -0.73773174740E+01  0.12898605861E+02  0.11396522456E+02  0.72461559591E+02  0.69999986058E+02 0.  0.
        -12    1    1    2    0    0  0.73773174740E+01 -0.12898605861E+02 -0.11396522456E+02  0.18726440409E+02  0.00000000000E+00 0.  1.
         11    1    3    3    0    0  0.40169344892E+01 -0.28270794171E+01  0.78104090871E+01  0.92266262030E+01  0.51100000000E-03 0. -1.
        -11    1    3    3    0    0 -0.96775174144E+01 -0.10078229350E+02  0.25670991301E+02  0.29227125154E+02  0.51100000000E-03 0.  1.
        -12    1    3    3    0    0 -0.17167345487E+01  0.25803914628E+02 -0.22084877932E+02  0.34007808234E+02  0.00000000000E+00 0.  1.
</event>
<event>
 7    1  0.1789107E-013  0.7246161E+02  0.7816164E-02  0.1226708E+00
        -11   -1    0    0    0    0  0.00000000000E+00  0.00000000000E+00  0.45593999997E+02  0.45594000000E+02  0.51100000000E-03 0. -1.
         11   -1    0    0    0    0 -0.00000000000E+00 -0.00000000000E+00 -0.45593999997E+02  0.45594000000E+02  0.51100000000E-03 0.  1.
    9900012    2    1    2    0    0  0.17840844307E+02 -0.56667514465E+01 -0.51948911017E+00  0.72461610426E+02  0.70000052279E+02 0.  0.
        -12    1    1    2    0    0 -0.17840844307E+02  0.56667514465E+01  0.51948911017E+00  0.18726389574E+02  0.00000000000E+00 0.  1.
         11    1    3    3    0    0  0.14801986631E+02 -0.42893219519E+01  0.22675740697E+01  0.15576873353E+02  0.51100000000E-03 0.  1.
        -11    1    3    3    0    0  0.25077695446E+02  0.11764330107E+02  0.83226633528E+01  0.28923295063E+02  0.51100000000E-03 0. -1.
         12    1    3    3    0    0 -0.22038837770E+02 -0.13141759601E+02 -0.11109726533E+02  0.27961442010E+02  0.00000000000E+00 0. -1.
</event>
<event>
 7    1  0.1789107E-013  0.7246165E+02  0.7816164E-02  0.1226708E+00
        -11   -1    0    0    0    0  0.00000000000E+00  0.00000000000E+00  0.45593999997E+02  0.45594000000E+02  0.51100000000E-03 0.  1.
         11   -1    0    0    0    0 -0.00000000000E+00 -0.00000000000E+00 -0.45593999997E+02  0.45594000000E+02  0.51100000000E-03 0. -1.
    9900012    2    1    2    0    0  0.37898954158E+01 -0.17718346274E+02  0.47300142243E+01  0.72461651276E+02  0.70000105494E+02 0.  0.
        -12    1    1    2    0    0 -0.37898954158E+01  0.17718346274E+02 -0.47300142243E+01  0.18726348724E+02  0.00000000000E+00 0.  1.
         11    1    3    3    0    0 -0.20085817997E+02 -0.50472802763E+01 -0.17636228189E+01  0.20785222840E+02  0.51100000000E-03 0. -1.
        -11    1    3    3    0    0 -0.11261232982E+02 -0.64629139964E+01  0.91689470749E+01  0.15895100387E+02  0.51100000000E-03 0.  1.
        -12    1    3    3    0    0  0.35136946394E+02 -0.62081520018E+01 -0.26753100317E+01  0.35781328049E+02  0.00000000000E+00 0.  1.
</event>
<event>
 7    1  0.1789107E-013  0.7246155E+02  0.7816164E-02  0.1226708E+00
        -11   -1    0    0    0    0  0.00000000000E+00  0.00000000000E+00  0.45593999997E+02  0.45594000000E+02  0.51100000000E-03 0. -1.
         11   -1    0    0    0    0 -0.00000000000E+00 -0.00000000000E+00 -0.45593999997E+02  0.45594000000E+02  0.51100000000E-03 0.  1.
    9900012    2    1    2    0    0  0.17570761973E+02 -0.10312888692E+01 -0.63941001724E+01  0.72461554794E+02  0.69999979808E+02 0.  0.
        -12    1    1    2    0    0 -0.17570761973E+02  0.10312888692E+01  0.63941001724E+01  0.18726445206E+02  0.00000000000E+00 0.  1.
         11    1    3    3    0    0  0.19676395979E+02  0.19884191847E+02 -0.11265720437E+02  0.30157223038E+02  0.51100000000E-03 0. -1.
        -11    1    3    3    0    0  0.11043514321E+02  0.38207479783E+01  0.79322873467E+01  0.14123686009E+02  0.51100000000E-03 0.  1.
        -12    1    3    3    0    0 -0.13149148327E+02 -0.24736228695E+02 -0.30606670823E+01  0.28180645747E+02  0.00000000000E+00 0.  1.
</event>
<event>
 7    1  0.1789107E-013  0.7246157E+02  0.7816164E-02  0.1226708E+00
        -11   -1    0    0    0    0  0.00000000000E+00  0.00000000000E+00  0.45593999997E+02  0.45594000000E+02  0.51100000000E-03 0.  1.
         11   -1    0    0    0    0 -0.00000000000E+00 -0.00000000000E+00 -0.45593999997E+02  0.45594000000E+02  0.51100000000E-03 0. -1.
    9900012    2    1    2    0    0  0.48484239365E+01 -0.14073753972E+02 -0.11362285254E+02  0.72461567031E+02  0.69999995749E+02 0.  0.
        -12    1    1    2    0    0 -0.48484239365E+01  0.14073753972E+02  0.11362285254E+02  0.18726432969E+02  0.00000000000E+00 0.  1.
         11    1    3    3    0    0 -0.10504316867E+02  0.78437863566E+01 -0.21519840037E+02  0.25198594658E+02  0.51100000000E-03 0. -1.
        -11    1    3    3    0    0 -0.52477498716E+01 -0.11809539900E+02 -0.10296530425E+02  0.16523397061E+02  0.51100000000E-03 0.  1.
         12    1    3    3    0    0  0.20600490676E+02 -0.10108000429E+02  0.20454085208E+02  0.30739575313E+02  0.00000000000E+00 0. -1.
</event>
<event>
 7    1  0.1789107E-013  0.7246159E+02  0.7816164E-02  0.1226708E+00
        -11   -1    0    0    0    0  0.00000000000E+00  0.00000000000E+00  0.45593999997E+02  0.45594000000E+02  0.51100000000E-03 0. -1.
         11   -1    0    0    0    0 -0.00000000000E+00 -0.00000000000E+00 -0.45593999997E+02  0.45594000000E+02  0.51100000000E-03 0.  1.
    9900012    2    1    2    0    0  0.18414611223E+02  0.41819524111E+00  0.33772417501E+01  0.72461586687E+02  0.70000021354E+02 0.  0.
        -12    1    1    2    0    0 -0.18414611223E+02 -0.41819524111E+00 -0.33772417501E+01  0.18726413313E+02  0.00000000000E+00 0.  1.
         11    1    3    3    0    0 -0.28926865220E+01 -0.12339795995E+01  0.24375604738E+01  0.39789498981E+01  0.51100000000E-03 0. -1.
        -11    1    3    3    0    0 -0.96903320025E+01  0.21400667030E+02  0.16357120774E+02  0.28625975685E+02  0.51100000000E-03 0.  1.
        -12    1    3    3    0    0  0.30997629747E+02 -0.19748492189E+02 -0.15417439497E+02  0.39856661104E+02  0.00000000000E+00 0.  1.
</event>
<event>
 7    1  0.1789107E-013  0.7246158E+02  0.7816164E-02  0.1226708E+00
        -11   -1    0    0    0    0  0.00000000000E+00  0.00000000000E+00  0.45593999997E+02  0.45594000000E+02  0.51100000000E-03 0. -1.
         11   -1    0    0    0    0 -0.00000000000E+00 -0.00000000000E+00 -0.45593999997E+02  0.45594000000E+02  0.51100000000E-03 0.  1.
    9900012    2    1    2    0    0 -0.15120542204E+01 -0.79102698220E+01  0.16906213842E+02  0.72461581680E+02  0.70000014832E+02 0.  0.
        -12    1    1    2    0    0  0.15120542204E+01  0.79102698220E+01 -0.16906213842E+02  0.18726418320E+02  0.00000000000E+00 0.  1.
         11    1    3    3    0    0  0.17170671669E+02  0.10483787251E+02  0.82819094418E+01  0.21756189578E+02  0.51100000000E-03 0. -1.
        -11    1    3    3    0    0 -0.67939699937E+01 -0.94353304494E+01 -0.17280574664E+02  0.20827907959E+02  0.51100000000E-03 0.  1.
        -12    1    3    3    0    0 -0.11888755896E+02 -0.89587266230E+01  0.25904879064E+02  0.29877484144E+02  0.00000000000E+00 0.  1.
</event>
<event>
 7    1  0.1789107E-013  0.7246157E+02  0.7816164E-02  0.1226708E+00
        -11   -1    0    0    0    0  0.00000000000E+00  0.00000000000E+00  0.45593999997E+02  0.45594000000E+02  0.51100000000E-03 0. -1.
         11   -1    0    0    0    0 -0.00000000000E+00 -0.00000000000E+00 -0.45593999997E+02  0.45594000000E+02  0.51100000000E-03 0.  1.
    9900012    2    1    2    0    0 -0.18257050347E+00 -0.15130137196E+02  0.11032890694E+02  0.72461573202E+02  0.70000003788E+02 0.  0.
        -12    1    1    2    0    0  0.18257050347E+00  0.15130137196E+02 -0.11032890694E+02  0.18726426798E+02  0.00000000000E+00 0.  1.
         11    1    3    3    0    0 -0.90761322136E+01 -0.17789133756E+02  0.65145288457E+01  0.21006392886E+02  0.51100000000E-03 0. -1.
        -11    1    3    3    0    0  0.11269191732E+02 -0.12060203429E+02 -0.18016580129E+02  0.24434409116E+02  0.51100000000E-03 0.  1.
         12    1    3    3    0    0 -0.23756300216E+01  0.14719199989E+02  0.22534941977E+02  0.27020771200E+02  0.00000000000E+00 0. -1.
</event>
<event>
 7    1  0.1789107E-013  0.7246159E+02  0.7816164E-02  0.1226708E+00
        -11   -1    0    0    0    0  0.00000000000E+00  0.00000000000E+00  0.45593999997E+02  0.45594000000E+02  0.51100000000E-03 0. -1.
         11   -1    0    0    0    0 -0.00000000000E+00 -0.00000000000E+00 -0.45593999997E+02  0.45594000000E+02  0.51100000000E-03 0.  1.
    9900012    2    1    2    0    0  0.87086448497E+01  0.16428319297E+02  0.22244764487E+01  0.72461589091E+02  0.70000024486E+02 0.  0.
        -12    1    1    2    0    0 -0.87086448497E+01 -0.16428319297E+02 -0.22244764487E+01  0.18726410909E+02  0.00000000000E+00 0.  1.
         11    1    3    3    0    0  0.15913589527E+02  0.11186884227E+02 -0.51278314540E+01  0.20116743425E+02  0.51100000000E-03 0. -1.
        -11    1    3    3    0    0  0.16294869155E+02 -0.13935527906E+02  0.18765648906E+01  0.21523085161E+02  0.51100000000E-03 0.  1.
         12    1    3    3    0    0 -0.23499813832E+02  0.19176962977E+02  0.54757430120E+01  0.30821760506E+02  0.00000000000E+00 0. -1.
</event>
<event>
 7    1  0.1789107E-013  0.7246142E+02  0.7816164E-02  0.1226708E+00
        -11   -1    0    0    0    0  0.00000000000E+00  0.00000000000E+00  0.45593999997E+02  0.45594000000E+02  0.51100000000E-03 0.  1.
         11   -1    0    0    0    0 -0.00000000000E+00 -0.00000000000E+00 -0.45593999997E+02  0.45594000000E+02  0.51100000000E-03 0. -1.
    9900012    2    1    2    0    0  0.15316057283E+02 -0.91505458746E+01 -0.56895096313E+01  0.72461424756E+02  0.69999810409E+02 0.  0.
        -12    1    1    2    0    0 -0.15316057283E+02  0.91505458746E+01  0.56895096313E+01  0.18726575244E+02  0.00000000000E+00 0.  1.
         11    1    3    3    0    0 -0.22966461353E+01  0.14309169135E+02  0.90785328337E+01  0.17101071998E+02  0.51100000000E-03 0. -1.
        -11    1    3    3    0    0  0.24683224644E+02  0.32688177329E+01 -0.22178408503E+01  0.24997311186E+02  0.51100000000E-03 0.  1.
         12    1    3    3    0    0 -0.70705212257E+01 -0.26728532743E+02 -0.12550201615E+02  0.30363041573E+02  0.00000000000E+00 0. -1.
</event>
<event>
 7    1  0.1789107E-013  0.7246157E+02  0.7816164E-02  0.1226708E+00
        -11   -1    0    0    0    0  0.00000000000E+00  0.00000000000E+00  0.45593999997E+02  0.45594000000E+02  0.51100000000E-03 0. -1.
         11   -1    0    0    0    0 -0.00000000000E+00 -0.00000000000E+00 -0.45593999997E+02  0.45594000000E+02  0.51100000000E-03 0.  1.
    9900012    2    1    2    0    0 -0.17780157388E+02  0.14991863551E+01 -0.56830916313E+01  0.72461572499E+02  0.70000002872E+02 0.  0.
        -12    1    1    2    0    0  0.17780157388E+02 -0.14991863551E+01  0.56830916313E+01  0.18726427501E+02  0.00000000000E+00 0.  1.
         11    1    3    3    0    0 -0.12685062879E+02  0.82748948497E+01  0.15415429558E+01  0.15223700600E+02  0.51100000000E-03 0. -1.
        -11    1    3    3    0    0 -0.28532169000E+02  0.99570413884E+00 -0.13764662642E+02  0.31694511078E+02  0.51100000000E-03 0.  1.
         12    1    3    3    0    0  0.23437074492E+02 -0.77714126334E+01  0.65400280551E+01  0.25543360821E+02  0.00000000000E+00 0. -1.
</event>
<event>
 7    1  0.1789107E-013  0.7246109E+02  0.7816164E-02  0.1226709E+00
        -11   -1    0    0    0    0  0.00000000000E+00  0.00000000000E+00  0.45593999997E+02  0.45594000000E+02  0.51100000000E-03 0. -1.
         11   -1    0    0    0    0 -0.00000000000E+00 -0.00000000000E+00 -0.45593999997E+02  0.45594000000E+02  0.51100000000E-03 0.  1.
    9900012    2    1    2    0    0  0.58514745898E+01 -0.12503886291E+02  0.12653462340E+02  0.72461093249E+02  0.69999378557E+02 0.  0.
        -12    1    1    2    0    0 -0.58514745898E+01  0.12503886291E+02 -0.12653462340E+02  0.18726906751E+02  0.00000000000E+00 0.  1.
         11    1    3    3    0    0 -0.19595306292E+01  0.22090913739E+02  0.33158073430E+01  0.22424156811E+02  0.51100000000E-03 0. -1.
        -11    1    3    3    0    0  0.20279209481E+01 -0.98254942600E+01 -0.12837182153E+02  0.16292515052E+02  0.51100000000E-03 0.  1.
        -12    1    3    3    0    0  0.57830842709E+01 -0.24769305770E+02  0.22174837151E+02  0.33744421386E+02  0.00000000000E+00 0.  1.
</event>
<event>
 7    1  0.1789107E-013  0.7246141E+02  0.7816164E-02  0.1226708E+00
        -11   -1    0    0    0    0  0.00000000000E+00  0.00000000000E+00  0.45593999997E+02  0.45594000000E+02  0.51100000000E-03 0.  1.
         11   -1    0    0    0    0 -0.00000000000E+00 -0.00000000000E+00 -0.45593999997E+02  0.45594000000E+02  0.51100000000E-03 0. -1.
    9900012    2    1    2    0    0 -0.82633525311E+01  0.11548181826E+02 -0.12208263293E+02  0.72461409515E+02  0.69999790555E+02 0.  0.
        -12    1    1    2    0    0  0.82633525311E+01 -0.11548181826E+02  0.12208263293E+02  0.18726590485E+02  0.00000000000E+00 0.  1.
         11    1    3    3    0    0  0.28555101001E+02  0.96807370641E+01 -0.12616116046E+02  0.32684504702E+02  0.51100000000E-03 0. -1.
        -11    1    3    3    0    0 -0.13019560558E+02  0.66650804770E+01  0.41705480014E+01  0.15209395970E+02  0.51100000000E-03 0.  1.
        -12    1    3    3    0    0 -0.23798892974E+02 -0.47976357151E+01 -0.37626952484E+01  0.24567508843E+02  0.00000000000E+00 0.  1.
</event>
<event>
 7    1  0.1789107E-013  0.7246158E+02  0.7816164E-02  0.1226708E+00
        -11   -1    0    0    0    0  0.00000000000E+00  0.00000000000E+00  0.45593999997E+02  0.45594000000E+02  0.51100000000E-03 0. -1.
         11   -1    0    0    0    0 -0.00000000000E+00 -0.00000000000E+00 -0.45593999997E+02  0.45594000000E+02  0.51100000000E-03 0.  1.
    9900012    2    1    2    0    0 -0.11780485860E+02  0.54223381682E+01  0.13509159442E+02  0.72461575164E+02  0.70000006344E+02 0.  0.
        -12    1    1    2    0    0  0.11780485860E+02 -0.54223381682E+01 -0.13509159442E+02  0.18726424836E+02  0.00000000000E+00 0.  1.
         11    1    3    3    0    0 -0.35614838159E+01 -0.22011688340E+02  0.11983166695E+02  0.25313926500E+02  0.51100000000E-03 0. -1.
        -11    1    3    3    0    0 -0.16467158837E+02  0.63659363118E+01 -0.11471982647E+02  0.21054663412E+02  0.51100000000E-03 0.  1.
        -12    1    3    3    0    0  0.82481567926E+01  0.21068090196E+02  0.12997975394E+02  0.26092985252E+02  0.00000000000E+00 0.  1.
</event>
<event>
 7    1  0.1789107E-013  0.7246198E+02  0.7816164E-02  0.1226707E+00
        -11   -1    0    0    0    0  0.00000000000E+00  0.00000000000E+00  0.45593999997E+02  0.45594000000E+02  0.51100000000E-03 0. -1.
         11   -1    0    0    0    0 -0.00000000000E+00 -0.00000000000E+00 -0.45593999997E+02  0.45594000000E+02  0.51100000000E-03 0.  1.
    9900012    2    1    2    0    0  0.14018990329E+02 -0.10750660649E+02 -0.62092647872E+01  0.72461981645E+02  0.70000535859E+02 0.  0.
        -12    1    1    2    0    0 -0.14018990329E+02  0.10750660649E+02  0.62092647872E+01  0.18726018355E+02  0.00000000000E+00 0.  1.
         11    1    3    3    0    0  0.76140050188E+00  0.36557660725E+01  0.83191060860E+01  0.91187654116E+01  0.51100000000E-03 0. -1.
        -11    1    3    3    0    0  0.26270389878E+02  0.63824107054E+01  0.98400495407E+01  0.28769691099E+02  0.51100000000E-03 0.  1.
         12    1    3    3    0    0 -0.13012800051E+02 -0.20788837427E+02 -0.24368420414E+02  0.34573525134E+02  0.00000000000E+00 0. -1.
</event>
<event>
 7    1  0.1789107E-013  0.7246157E+02  0.7816164E-02  0.1226708E+00
        -11   -1    0    0    0    0  0.00000000000E+00  0.00000000000E+00  0.45593999997E+02  0.45594000000E+02  0.51100000000E-03 0.  1.
         11   -1    0    0    0    0 -0.00000000000E+00 -0.00000000000E+00 -0.45593999997E+02  0.45594000000E+02  0.51100000000E-03 0. -1.
    9900012    2    1    2    0    0  0.16222833308E+02 -0.79006402676E+01  0.50078567492E+01  0.72461573048E+02  0.70000003587E+02 0.  0.
        -12    1    1    2    0    0 -0.16222833308E+02  0.79006402676E+01 -0.50078567492E+01  0.18726426952E+02  0.00000000000E+00 0.  1.
         11    1    3    3    0    0  0.17582558832E+02  0.62647836198E+01 -0.19392832822E+02  0.26916089129E+02  0.51100000000E-03 0. -1.
        -11    1    3    3    0    0 -0.75973422673E-01 -0.25642605212E+02  0.11131951544E+02  0.27954772749E+02  0.51100000000E-03 0.  1.
         12    1    3    3    0    0 -0.12837521008E+01  0.11477181325E+02  0.13268738028E+02  0.17590711170E+02  0.00000000000E+00 0. -1.
</event>
<event>
 7    1  0.1789107E-013  0.7246158E+02  0.7816164E-02  0.1226708E+00
        -11   -1    0    0    0    0  0.00000000000E+00  0.00000000000E+00  0.45593999997E+02  0.45594000000E+02  0.51100000000E-03 0.  1.
         11   -1    0    0    0    0 -0.00000000000E+00 -0.00000000000E+00 -0.45593999997E+02  0.45594000000E+02  0.51100000000E-03 0. -1.
    9900012    2    1    2    0    0 -0.10166380390E+02 -0.15071730841E+02  0.44907042554E+01  0.72461580548E+02  0.70000013357E+02 0.  0.
        -12    1    1    2    0    0  0.10166380390E+02  0.15071730841E+02 -0.44907042554E+01  0.18726419452E+02  0.00000000000E+00 0.  1.
         11    1    3    3    0    0 -0.17640818815E+02 -0.60743281059E+01 -0.20353525726E+02  0.27610902921E+02  0.51100000000E-03 0. -1.
        -11    1    3    3    0    0 -0.99154781629E+01  0.72609042132E+01  0.14180907476E+02  0.18765275759E+02  0.51100000000E-03 0.  1.
        -12    1    3    3    0    0  0.17389916588E+02 -0.16258306949E+02  0.10663322505E+02  0.26085401868E+02  0.00000000000E+00 0.  1.
</event>
<event>
 7    1  0.1789107E-013  0.7246159E+02  0.7816164E-02  0.1226708E+00
        -11   -1    0    0    0    0  0.00000000000E+00  0.00000000000E+00  0.45593999997E+02  0.45594000000E+02  0.51100000000E-03 0. -1.
         11   -1    0    0    0    0 -0.00000000000E+00 -0.00000000000E+00 -0.45593999997E+02  0.45594000000E+02  0.51100000000E-03 0.  1.
    9900012    2    1    2    0    0  0.54047528702E+01  0.17458988686E+02  0.40805280254E+01  0.72461592216E+02  0.70000028557E+02 0.  0.
        -12    1    1    2    0    0 -0.54047528702E+01 -0.17458988686E+02 -0.40805280254E+01  0.18726407784E+02  0.00000000000E+00 0.  1.
         11    1    3    3    0    0 -0.76155112225E+01  0.46620389396E+01  0.31642285253E+02  0.32878029664E+02  0.51100000000E-03 0. -1.
        -11    1    3    3    0    0  0.99827289708E+01 -0.80169466330E+00 -0.16317434617E+01  0.10146929537E+02  0.51100000000E-03 0.  1.
        -12    1    3    3    0    0  0.30375351220E+01  0.13598644410E+02 -0.25930013766E+02  0.29436633016E+02  0.00000000000E+00 0.  1.
</event>
<event>
 7    1  0.1789107E-013  0.7246158E+02  0.7816164E-02  0.1226708E+00
        -11   -1    0    0    0    0  0.00000000000E+00  0.00000000000E+00  0.45593999997E+02  0.45594000000E+02  0.51100000000E-03 0. -1.
         11   -1    0    0    0    0 -0.00000000000E+00 -0.00000000000E+00 -0.45593999997E+02  0.45594000000E+02  0.51100000000E-03 0.  1.
    9900012    2    1    2    0    0  0.30351857849E+01 -0.13193930525E+02  0.12937801238E+02  0.72461578657E+02  0.70000010894E+02 0.  0.
        -12    1    1    2    0    0 -0.30351857849E+01  0.13193930525E+02 -0.12937801238E+02  0.18726421343E+02  0.00000000000E+00 0.  1.
         11    1    3    3    0    0  0.90386814242E+01 -0.87899119861E+01  0.28439447927E+02  0.31108881582E+02  0.51100000000E-03 0. -1.
        -11    1    3    3    0    0 -0.38392401213E+00 -0.19787148828E+02 -0.15731156278E+01  0.19853295682E+02  0.51100000000E-03 0.  1.
        -12    1    3    3    0    0 -0.56195716272E+01  0.15383130289E+02 -0.13928531061E+02  0.21499401394E+02  0.00000000000E+00 0.  1.
</event>
<event>
 7    1  0.1789107E-013  0.7246157E+02  0.7816164E-02  0.1226708E+00
        -11   -1    0    0    0    0  0.00000000000E+00  0.00000000000E+00  0.45593999997E+02  0.45594000000E+02  0.51100000000E-03 0. -1.
         11   -1    0    0    0    0 -0.00000000000E+00 -0.00000000000E+00 -0.45593999997E+02  0.45594000000E+02  0.51100000000E-03 0.  1.
    9900012    2    1    2    0    0  0.11105689372E+02  0.11288319107E+02  0.99958255067E+01  0.72461574494E+02  0.70000005471E+02 0.  0.
        -12    1    1    2    0    0 -0.11105689372E+02 -0.11288319107E+02 -0.99958255067E+01  0.18726425506E+02  0.00000000000E+00 0.  1.
         11    1    3    3    0    0  0.28068381465E+02  0.15657937037E+02  0.15353526871E+01  0.32177046764E+02  0.51100000000E-03 0. -1.
        -11    1    3    3    0    0 -0.90096976211E+00 -0.16389783812E+02 -0.36984035010E+01  0.16826019988E+02  0.51100000000E-03 0.  1.
        -12    1    3    3    0    0 -0.16061722331E+02  0.12020165882E+02  0.12158876321E+02  0.23458507741E+02  0.00000000000E+00 0.  1.
</event>
<event>
 7    1  0.1789107E-013  0.7246159E+02  0.7816164E-02  0.1226708E+00
        -11   -1    0    0    0    0  0.00000000000E+00  0.00000000000E+00  0.45593999997E+02  0.45594000000E+02  0.51100000000E-03 0.  1.
         11   -1    0    0    0    0 -0.00000000000E+00 -0.00000000000E+00 -0.45593999997E+02  0.45594000000E+02  0.51100000000E-03 0. -1.
    9900012    2    1    2    0    0 -0.13223320327E+02 -0.48937977618E+00  0.13250760786E+02  0.72461592057E+02  0.70000028350E+02 0.  0.
        -12    1    1    2    0    0  0.13223320327E+02  0.48937977618E+00 -0.13250760786E+02  0.18726407943E+02  0.00000000000E+00 0.  1.
         11    1    3    3    0    0  0.37989663840E+01 -0.74914374766E+01 -0.11955365535E+02  0.14611110375E+02  0.51100000000E-03 0. -1.
        -11    1    3    3    0    0 -0.16265916527E+02  0.13745365850E+02 -0.88963786998E+01  0.23079442737E+02  0.51100000000E-03 0.  1.
        -12    1    3    3    0    0 -0.75637018359E+00 -0.67433081495E+01  0.34102505021E+02  0.34771038945E+02  0.00000000000E+00 0.  1.
</event>
<event>
 7    1  0.1789107E-013  0.7246159E+02  0.7816164E-02  0.1226708E+00
        -11   -1    0    0    0    0  0.00000000000E+00  0.00000000000E+00  0.45593999997E+02  0.45594000000E+02  0.51100000000E-03 0.  1.
         11   -1    0    0    0    0 -0.00000000000E+00 -0.00000000000E+00 -0.45593999997E+02  0.45594000000E+02  0.51100000000E-03 0. -1.
    9900012    2    1    2    0    0 -0.19075448208E+01  0.14009366221E+02 -0.12279149698E+02  0.72461585862E+02  0.70000020280E+02 0.  0.
        -12    1    1    2    0    0  0.19075448208E+01 -0.14009366221E+02  0.12279149698E+02  0.18726414138E+02  0.00000000000E+00 0.  1.
         11    1    3    3    0    0 -0.36908436863E+01 -0.43771253319E+00  0.22787551540E+01  0.43596610753E+01  0.51100000000E-03 0. -1.
        -11    1    3    3    0    0 -0.28043377061E+02  0.20274994318E+02 -0.47860397968E+00  0.34608314804E+02  0.51100000000E-03 0.  1.
         12    1    3    3    0    0  0.29826675926E+02 -0.58279155643E+01 -0.14079300872E+02  0.33493609983E+02  0.00000000000E+00 0. -1.
</event>
<event>
 7    1  0.2052934E-013  0.7246163E+02  0.7816164E-02  0.1226708E+00
        -11   -1    0    0    0    0  0.00000000000E+00  0.00000000000E+00  0.45593999997E+02  0.45594000000E+02  0.51100000000E-03 0.  1.
         11   -1    0    0    0    0 -0.00000000000E+00 -0.00000000000E+00 -0.45593999997E+02  0.45594000000E+02  0.51100000000E-03 0. -1.
    9900012    2    1    2    0    0  0.24788408973E+01  0.15488574689E+02  0.10229184907E+02  0.72461632975E+02  0.70000081653E+02 0.  0.
        -12    1    1    2    0    0 -0.24788408973E+01 -0.15488574689E+02 -0.10229184907E+02  0.18726367025E+02  0.00000000000E+00 0.  1.
         11    1    3    3    0    0 -0.93031662200E+01  0.35694197050E+02  0.14764657970E+02  0.39731847805E+02  0.51100000000E-03 0. -1.
        -11    1    3    3    0    0 -0.54346530995E+01  0.43548339863E+00 -0.16515999080E+01  0.56967431590E+01  0.51100000000E-03 0.  1.
        -12    1    3    3    0    0  0.17216660217E+02 -0.20641105759E+02 -0.28838731548E+01  0.27033042011E+02  0.00000000000E+00 0.  1.
</event>
<event>
 7    1  0.1789107E-013  0.7246182E+02  0.7816164E-02  0.1226707E+00
        -11   -1    0    0    0    0  0.00000000000E+00  0.00000000000E+00  0.45593999997E+02  0.45594000000E+02  0.51100000000E-03 0.  1.
         11   -1    0    0    0    0 -0.00000000000E+00 -0.00000000000E+00 -0.45593999997E+02  0.45594000000E+02  0.51100000000E-03 0. -1.
    9900012    2    1    2    0    0 -0.14645017583E+02  0.85406823167E+01  0.79529951548E+01  0.72461817090E+02  0.70000321497E+02 0.  0.
        -12    1    1    2    0    0  0.14645017583E+02 -0.85406823167E+01 -0.79529951548E+01  0.18726182910E+02  0.00000000000E+00 0.  1.
         11    1    3    3    0    0 -0.16706120443E+02 -0.21817156242E+01 -0.18167752328E+02  0.24777440712E+02  0.51100000000E-03 0. -1.
        -11    1    3    3    0    0 -0.16082225992E+01 -0.97663933039E+01 -0.43265651824E+01  0.10802221282E+02  0.51100000000E-03 0.  1.
        -12    1    3    3    0    0  0.36693254598E+01  0.20488791245E+02  0.30447312665E+02  0.36882155096E+02  0.00000000000E+00 0.  1.
</event>
<event>
 7    1  0.1789107E-013  0.7246149E+02  0.7816164E-02  0.1226708E+00
        -11   -1    0    0    0    0  0.00000000000E+00  0.00000000000E+00  0.45593999997E+02  0.45594000000E+02  0.51100000000E-03 0.  1.
         11   -1    0    0    0    0 -0.00000000000E+00 -0.00000000000E+00 -0.45593999997E+02  0.45594000000E+02  0.51100000000E-03 0. -1.
    9900012    2    1    2    0    0 -0.17723679924E+02  0.30378761402E+01 -0.52273094787E+01  0.72461487087E+02  0.69999891607E+02 0.  0.
        -12    1    1    2    0    0  0.17723679924E+02 -0.30378761402E+01  0.52273094787E+01  0.18726512913E+02  0.00000000000E+00 0.  1.
         11    1    3    3    0    0 -0.59383838141E+01 -0.13009806994E+02  0.53921144280E+01  0.15283794641E+02  0.51100000000E-03 0. -1.
        -11    1    3    3    0    0 -0.44371722181E+01 -0.85241171306E+01  0.16974218620E+02  0.19505721421E+02  0.51100000000E-03 0.  1.
         12    1    3    3    0    0 -0.73481238918E+01  0.24571800265E+02 -0.27593642527E+02  0.37671971025E+02  0.00000000000E+00 0. -1.
</event>
<event>
 7    1  0.1789107E-013  0.7246123E+02  0.7816164E-02  0.1226709E+00
        -11   -1    0    0    0    0  0.00000000000E+00  0.00000000000E+00  0.45593999997E+02  0.45594000000E+02  0.51100000000E-03 0.  1.
         11   -1    0    0    0    0 -0.00000000000E+00 -0.00000000000E+00 -0.45593999997E+02  0.45594000000E+02  0.51100000000E-03 0. -1.
    9900012    2    1    2    0    0  0.71457127481E+00 -0.98031908811E+01 -0.15939849019E+02  0.72461229048E+02  0.69999555461E+02 0.  0.
        -12    1    1    2    0    0 -0.71457127481E+00  0.98031908811E+01  0.15939849019E+02  0.18726770952E+02  0.00000000000E+00 0.  1.
         11    1    3    3    0    0 -0.10455056072E+01 -0.12796904644E+02 -0.14448559882E+02  0.19329116208E+02  0.51100000000E-03 0. -1.
        -11    1    3    3    0    0 -0.21338309993E+02  0.25543874689E+00 -0.15138343843E+02  0.26164062698E+02  0.51100000000E-03 0.  1.
        -12    1    3    3    0    0  0.23098386875E+02  0.27382750164E+01  0.13647054706E+02  0.26968050142E+02  0.00000000000E+00 0.  1.
</event>
<event>
 7    1  0.1789107E-013  0.7246156E+02  0.7816164E-02  0.1226708E+00
        -11   -1    0    0    0    0  0.00000000000E+00  0.00000000000E+00  0.45593999997E+02  0.45594000000E+02  0.51100000000E-03 0. -1.
         11   -1    0    0    0    0 -0.00000000000E+00 -0.00000000000E+00 -0.45593999997E+02  0.45594000000E+02  0.51100000000E-03 0.  1.
    9900012    2    1    2    0    0  0.61840881519E+01 -0.71247648630E+01  0.16176346286E+02  0.72461564146E+02  0.69999991990E+02 0.  0.
        -12    1    1    2    0    0 -0.61840881519E+01  0.71247648630E+01 -0.16176346286E+02  0.18726435854E+02  0.00000000000E+00 0.  1.
         11    1    3    3    0    0 -0.64689790567E+01 -0.21082014242E+02  0.77950221818E+01  0.23389343420E+02  0.51100000000E-03 0. -1.
        -11    1    3    3    0    0  0.12898445290E+02 -0.52316173481E+01  0.21652118050E+02  0.25740122907E+02  0.51100000000E-03 0.  1.
        -12    1    3    3    0    0 -0.24537808134E+00  0.19188866727E+02 -0.13270793945E+02  0.23332097819E+02  0.00000000000E+00 0.  1.
</event>
<event>
 7    1  0.1789107E-013  0.7246159E+02  0.7816164E-02  0.1226708E+00
        -11   -1    0    0    0    0  0.00000000000E+00  0.00000000000E+00  0.45593999997E+02  0.45594000000E+02  0.51100000000E-03 0. -1.
         11   -1    0    0    0    0 -0.00000000000E+00 -0.00000000000E+00 -0.45593999997E+02  0.45594000000E+02  0.51100000000E-03 0.  1.
    9900012    2    1    2    0    0 -0.14865071069E+02  0.80339445919E+01  0.80724080709E+01  0.72461591490E+02  0.70000027612E+02 0.  0.
        -12    1    1    2    0    0  0.14865071069E+02 -0.80339445919E+01 -0.80724080709E+01  0.18726408510E+02  0.00000000000E+00 0.  1.
         11    1    3    3    0    0 -0.36249535137E+02  0.12132427639E+02  0.17523284532E+02  0.42051041594E+02  0.51100000000E-03 0. -1.
        -11    1    3    3    0    0  0.47686428208E+01  0.40465781920E+01  0.40968408646E+01  0.74765536678E+01  0.51100000000E-03 0.  1.
        -12    1    3    3    0    0  0.16615821247E+02 -0.81450612394E+01 -0.13547717325E+02  0.22933996229E+02  0.00000000000E+00 0.  1.
</event>
<event>
 7    1  0.1789107E-013  0.7246164E+02  0.7816164E-02  0.1226708E+00
        -11   -1    0    0    0    0  0.00000000000E+00  0.00000000000E+00  0.45593999997E+02  0.45594000000E+02  0.51100000000E-03 0.  1.
         11   -1    0    0    0    0 -0.00000000000E+00 -0.00000000000E+00 -0.45593999997E+02  0.45594000000E+02  0.51100000000E-03 0. -1.
    9900012    2    1    2    0    0 -0.65447348868E+01 -0.38494156545E+01 -0.17117973482E+02  0.72461639655E+02  0.70000090355E+02 0.  0.
        -12    1    1    2    0    0  0.65447348868E+01  0.38494156545E+01  0.17117973482E+02  0.18726360345E+02  0.00000000000E+00 0.  1.
         11    1    3    3    0    0 -0.19184475330E+02 -0.13912688405E+02 -0.10301944948E+02  0.25840608784E+02  0.51100000000E-03 0. -1.
        -11    1    3    3    0    0 -0.27197051399E+01  0.17192671455E+02  0.12125803720E+02  0.21213671628E+02  0.51100000000E-03 0.  1.
         12    1    3    3    0    0  0.15359445583E+02 -0.71293987053E+01 -0.18941832255E+02  0.25407359243E+02  0.00000000000E+00 0. -1.
</event>
<event>
 7    1  0.1789107E-013  0.7246153E+02  0.7816164E-02  0.1226708E+00
        -11   -1    0    0    0    0  0.00000000000E+00  0.00000000000E+00  0.45593999997E+02  0.45594000000E+02  0.51100000000E-03 0.  1.
         11   -1    0    0    0    0 -0.00000000000E+00 -0.00000000000E+00 -0.45593999997E+02  0.45594000000E+02  0.51100000000E-03 0. -1.
    9900012    2    1    2    0    0  0.91538686140E+01 -0.14778566056E+02 -0.69628439815E+01  0.72461534194E+02  0.69999952973E+02 0.  0.
        -12    1    1    2    0    0 -0.91538686140E+01  0.14778566056E+02  0.69628439815E+01  0.18726465806E+02  0.00000000000E+00 0.  1.
         11    1    3    3    0    0 -0.16809885593E+02 -0.19416572052E+02  0.82527732883E+01  0.26975614749E+02  0.51100000000E-03 0. -1.
        -11    1    3    3    0    0 -0.42725834470E+01  0.39088825815E+01 -0.14074514413E+02  0.15219273589E+02  0.51100000000E-03 0.  1.
         12    1    3    3    0    0  0.30236337654E+02  0.72912341479E+00 -0.11411028567E+01  0.30266645856E+02  0.00000000000E+00 0. -1.
</event>
<event>
 7    1  0.1789107E-013  0.7246162E+02  0.7816164E-02  0.1226708E+00
        -11   -1    0    0    0    0  0.00000000000E+00  0.00000000000E+00  0.45593999997E+02  0.45594000000E+02  0.51100000000E-03 0.  1.
         11   -1    0    0    0    0 -0.00000000000E+00 -0.00000000000E+00 -0.45593999997E+02  0.45594000000E+02  0.51100000000E-03 0. -1.
    9900012    2    1    2    0    0 -0.82532618909E+01 -0.27612365491E+00 -0.16807286726E+02  0.72461615853E+02  0.70000059349E+02 0.  0.
        -12    1    1    2    0    0  0.82532618909E+01  0.27612365491E+00  0.16807286726E+02  0.18726384147E+02  0.00000000000E+00 0.  1.
         11    1    3    3    0    0 -0.82623006783E+01 -0.15112346794E+02  0.18800863707E+02  0.25497472708E+02  0.51100000000E-03 0. -1.
        -11    1    3    3    0    0 -0.44928799587E+01 -0.45760254936E+01 -0.29907172802E+00  0.64199239716E+01  0.51100000000E-03 0.  1.
        -12    1    3    3    0    0  0.45019187462E+01  0.19412248633E+02 -0.35309078705E+02  0.40544219173E+02  0.00000000000E+00 0.  1.
</event>
<event>
 7    1  0.1789107E-013  0.7246160E+02  0.7816164E-02  0.1226708E+00
        -11   -1    0    0    0    0  0.00000000000E+00  0.00000000000E+00  0.45593999997E+02  0.45594000000E+02  0.51100000000E-03 0. -1.
         11   -1    0    0    0    0 -0.00000000000E+00 -0.00000000000E+00 -0.45593999997E+02  0.45594000000E+02  0.51100000000E-03 0.  1.
    9900012    2    1    2    0    0  0.84121995307E+01 -0.99301162303E+01  0.13464989123E+02  0.72461595076E+02  0.70000032282E+02 0.  0.
        -12    1    1    2    0    0 -0.84121995307E+01  0.99301162303E+01 -0.13464989123E+02  0.18726404924E+02  0.00000000000E+00 0.  1.
         11    1    3    3    0    0  0.18870197213E+02 -0.23872677035E+02  0.84165767949E+01  0.31572580143E+02  0.51100000000E-03 0. -1.
        -11    1    3    3    0    0 -0.72684188818E+00 -0.11793834140E+02 -0.30571103376E+01  0.12205275365E+02  0.51100000000E-03 0.  1.
         12    1    3    3    0    0 -0.97311557940E+01  0.25736394946E+02  0.81055226661E+01  0.28683739567E+02  0.00000000000E+00 0. -1.
</event>
<event>
 7    1  0.1789107E-013  0.7246154E+02  0.7816164E-02  0.1226708E+00
        -11   -1    0    0    0    0  0.00000000000E+00  0.00000000000E+00  0.45593999997E+02  0.45594000000E+02  0.51100000000E-03 0. -1.
         11   -1    0    0    0    0 -0.00000000000E+00 -0.00000000000E+00 -0.45593999997E+02  0.45594000000E+02  0.51100000000E-03 0.  1.
    9900012    2    1    2    0    0 -0.78536887010E+01  0.12687280982E+02  0.11315163794E+02  0.72461535929E+02  0.69999955233E+02 0.  0.
        -12    1    1    2    0    0  0.78536887010E+01 -0.12687280982E+02 -0.11315163794E+02  0.18726464071E+02  0.00000000000E+00 0.  1.
         11    1    3    3    0    0 -0.10909287526E+02  0.24014248305E+02  0.63945588089E+01  0.27140137410E+02  0.51100000000E-03 0. -1.
        -11    1    3    3    0    0  0.68852211310E+01  0.13666758633E+02 -0.76218059848E+01  0.17096154195E+02  0.51100000000E-03 0.  1.
        -12    1    3    3    0    0 -0.38296223060E+01 -0.24993725956E+02  0.12542410970E+02  0.28225244324E+02  0.00000000000E+00 0.  1.
</event>
<event>
 7    1  0.1789107E-013  0.7246186E+02  0.7816164E-02  0.1226707E+00
        -11   -1    0    0    0    0  0.00000000000E+00  0.00000000000E+00  0.45593999997E+02  0.45594000000E+02  0.51100000000E-03 0. -1.
         11   -1    0    0    0    0 -0.00000000000E+00 -0.00000000000E+00 -0.45593999997E+02  0.45594000000E+02  0.51100000000E-03 0.  1.
    9900012    2    1    2    0    0  0.11941827569E+02  0.10306736248E+02  0.10091200134E+02  0.72461858435E+02  0.70000375355E+02 0.  0.
        -12    1    1    2    0    0 -0.11941827569E+02 -0.10306736248E+02 -0.10091200134E+02  0.18726141565E+02  0.00000000000E+00 0.  1.
         11    1    3    3    0    0  0.25147808496E+01 -0.20896816926E+02  0.35482372350E+01  0.21344579361E+02  0.51100000000E-03 0. -1.
        -11    1    3    3    0    0 -0.47739948178E+01 -0.38567398963E+01 -0.84361002674E+01  0.10432317917E+02  0.51100000000E-03 0.  1.
        -12    1    3    3    0    0  0.14201041537E+02  0.35060293070E+02  0.14979063167E+02  0.40684961156E+02  0.00000000000E+00 0.  1.
</event>
<event>
 7    1  0.1789107E-013  0.7246156E+02  0.7816164E-02  0.1226708E+00
        -11   -1    0    0    0    0  0.00000000000E+00  0.00000000000E+00  0.45593999997E+02  0.45594000000E+02  0.51100000000E-03 0.  1.
         11   -1    0    0    0    0 -0.00000000000E+00 -0.00000000000E+00 -0.45593999997E+02  0.45594000000E+02  0.51100000000E-03 0. -1.
    9900012    2    1    2    0    0  0.78654891593E+01  0.11905457320E+02 -0.12127397794E+02  0.72461558508E+02  0.69999984646E+02 0.  0.
        -12    1    1    2    0    0 -0.78654891593E+01 -0.11905457320E+02  0.12127397794E+02  0.18726441492E+02  0.00000000000E+00 0.  1.
         11    1    3    3    0    0  0.20995473174E+02 -0.85723485731E+01 -0.11540232841E+02  0.25445471663E+02  0.51100000000E-03 0. -1.
        -11    1    3    3    0    0  0.14073316151E+02  0.11690605540E+02 -0.19309917066E+01  0.18397206707E+02  0.51100000000E-03 0.  1.
        -12    1    3    3    0    0 -0.27203300166E+02  0.87872003527E+01  0.13438267535E+01  0.28618880137E+02  0.00000000000E+00 0.  1.
</event>
<event>
 7    1  0.1789107E-013  0.7246158E+02  0.7816164E-02  0.1226708E+00
        -11   -1    0    0    0    0  0.00000000000E+00  0.00000000000E+00  0.45593999997E+02  0.45594000000E+02  0.51100000000E-03 0.  1.
         11   -1    0    0    0    0 -0.00000000000E+00 -0.00000000000E+00 -0.45593999997E+02  0.45594000000E+02  0.51100000000E-03 0. -1.
    9900012    2    1    2    0    0 -0.66573634367E+00 -0.12303764163E+02 -0.14101524710E+02  0.72461579717E+02  0.70000012275E+02 0.  0.
        -12    1    1    2    0    0  0.66573634367E+00  0.12303764163E+02  0.14101524710E+02  0.18726420283E+02  0.00000000000E+00 0.  1.
         11    1    3    3    0    0 -0.83860656552E+00 -0.19283660117E+02 -0.22806698425E+02  0.29878224542E+02  0.51100000000E-03 0. -1.
        -11    1    3    3    0    0  0.11326248314E+02 -0.13122638734E+02 -0.15633794264E+01  0.17404933315E+02  0.51100000000E-03 0.  1.
         12    1    3    3    0    0 -0.11153378092E+02  0.20102534688E+02  0.10268553141E+02  0.25178421860E+02  0.00000000000E+00 0. -1.
</event>
<event>
 7    1  0.1789107E-013  0.7246153E+02  0.7816164E-02  0.1226708E+00
        -11   -1    0    0    0    0  0.00000000000E+00  0.00000000000E+00  0.45593999997E+02  0.45594000000E+02  0.51100000000E-03 0.  1.
         11   -1    0    0    0    0 -0.00000000000E+00 -0.00000000000E+00 -0.45593999997E+02  0.45594000000E+02  0.51100000000E-03 0. -1.
    9900012    2    1    2    0    0  0.56226075352E+01  0.40299533446E+01 -0.17401907243E+02  0.72461531696E+02  0.69999949718E+02 0.  0.
        -12    1    1    2    0    0 -0.56226075352E+01 -0.40299533446E+01  0.17401907243E+02  0.18726468304E+02  0.00000000000E+00 0.  1.
         11    1    3    3    0    0  0.32839543125E+01  0.48578203125E+01  0.13401693515E+02  0.14628334268E+02  0.51100000000E-03 0. -1.
        -11    1    3    3    0    0  0.17532901661E+02 -0.10727493691E+02  0.16877948834E+01  0.20623540272E+02  0.51100000000E-03 0.  1.
         12    1    3    3    0    0 -0.15194248438E+02  0.98996267235E+01 -0.32491395642E+02  0.37209657155E+02  0.00000000000E+00 0. -1.
</event>
<event>
 7    1  0.1789107E-013  0.7246156E+02  0.7816164E-02  0.1226708E+00
        -11   -1    0    0    0    0  0.00000000000E+00  0.00000000000E+00  0.45593999997E+02  0.45594000000E+02  0.51100000000E-03 0.  1.
         11   -1    0    0    0    0 -0.00000000000E+00 -0.00000000000E+00 -0.45593999997E+02  0.45594000000E+02  0.51100000000E-03 0. -1.
    9900012    2    1    2    0    0 -0.22317344111E+01 -0.48763708384E+00 -0.18586583970E+02  0.72461560614E+02  0.69999987389E+02 0.  0.
        -12    1    1    2    0    0  0.22317344111E+01  0.48763708384E+00  0.18586583970E+02  0.18726439386E+02  0.00000000000E+00 0.  1.
         11    1    3    3    0    0  0.48273645663E+01  0.39663560519E+01 -0.52319342432E+01  0.81491450578E+01  0.51100000000E-03 0. -1.
        -11    1    3    3    0    0 -0.18489562223E+02 -0.28598935827E+02  0.83145754602E+00  0.34065442366E+02  0.51100000000E-03 0.  1.
         12    1    3    3    0    0  0.11430463246E+02  0.24144942691E+02 -0.14186107273E+02  0.30246973190E+02  0.00000000000E+00 0. -1.
</event>
<event>
 7    1  0.1789107E-013  0.7246156E+02  0.7816164E-02  0.1226708E+00
        -11   -1    0    0    0    0  0.00000000000E+00  0.00000000000E+00  0.45593999997E+02  0.45594000000E+02  0.51100000000E-03 0. -1.
         11   -1    0    0    0    0 -0.00000000000E+00 -0.00000000000E+00 -0.45593999997E+02  0.45594000000E+02  0.51100000000E-03 0.  1.
    9900012    2    1    2    0    0 -0.11958554311E+02  0.49561922084E+01  0.13531762398E+02  0.72461562645E+02  0.69999990036E+02 0.  0.
        -12    1    1    2    0    0  0.11958554311E+02 -0.49561922084E+01 -0.13531762398E+02  0.18726437355E+02  0.00000000000E+00 0.  1.
         11    1    3    3    0    0  0.10047373911E+02  0.38319054393E+01  0.29787640345E+02  0.31669176487E+02  0.51100000000E-03 0. -1.
        -11    1    3    3    0    0 -0.69000133132E+01 -0.12122160552E+02  0.14357329497E+01  0.14022064382E+02  0.51100000000E-03 0.  1.
        -12    1    3    3    0    0 -0.15105914908E+02  0.13246447321E+02 -0.17691610897E+02  0.26770321776E+02  0.00000000000E+00 0.  1.
</event>
<event>
 7    1  0.1789107E-013  0.7246146E+02  0.7816164E-02  0.1226708E+00
        -11   -1    0    0    0    0  0.00000000000E+00  0.00000000000E+00  0.45593999997E+02  0.45594000000E+02  0.51100000000E-03 0. -1.
         11   -1    0    0    0    0 -0.00000000000E+00 -0.00000000000E+00 -0.45593999997E+02  0.45594000000E+02  0.51100000000E-03 0.  1.
    9900012    2    1    2    0    0 -0.13545799032E+02  0.86583388400E+01  0.96035395262E+01  0.72461455356E+02  0.69999850271E+02 0.  0.
        -12    1    1    2    0    0  0.13545799032E+02 -0.86583388400E+01 -0.96035395262E+01  0.18726544644E+02  0.00000000000E+00 0.  1.
         11    1    3    3    0    0  0.24912168810E+02 -0.49367854388E+01  0.15189984876E+02  0.29592628239E+02  0.51100000000E-03 0. -1.
        -11    1    3    3    0    0 -0.58500739847E+01  0.55042985316E+01  0.23072642185E+01  0.83572804421E+01  0.51100000000E-03 0.  1.
        -12    1    3    3    0    0 -0.32607893858E+02  0.80908257472E+01 -0.78937095687E+01  0.34511546674E+02  0.00000000000E+00 0.  1.
</event>
<event>
 7    1  0.1789107E-013  0.7246154E+02  0.7816164E-02  0.1226708E+00
        -11   -1    0    0    0    0  0.00000000000E+00  0.00000000000E+00  0.45593999997E+02  0.45594000000E+02  0.51100000000E-03 0. -1.
         11   -1    0    0    0    0 -0.00000000000E+00 -0.00000000000E+00 -0.45593999997E+02  0.45594000000E+02  0.51100000000E-03 0.  1.
    9900012    2    1    2    0    0 -0.29355867881E+01 -0.65478433935E+01  0.17297063878E+02  0.72461538997E+02  0.69999959230E+02 0.  0.
        -12    1    1    2    0    0  0.29355867881E+01  0.65478433935E+01 -0.17297063878E+02  0.18726461003E+02  0.00000000000E+00 0.  1.
         11    1    3    3    0    0  0.88130624760E+01 -0.19171565073E+02 -0.29367134880E+00  0.21102256294E+02  0.51100000000E-03 0. -1.
        -11    1    3    3    0    0 -0.70646689719E+01 -0.16728098203E+02  0.97892016213E+01  0.20629282242E+02  0.51100000000E-03 0.  1.
        -12    1    3    3    0    0 -0.46839802922E+01  0.29351819883E+02  0.78015336051E+01  0.30730000462E+02  0.00000000000E+00 0.  1.
</event>
<event>
 7    1  0.1789107E-013  0.7246154E+02  0.7816164E-02  0.1226708E+00
        -11   -1    0    0    0    0  0.00000000000E+00  0.00000000000E+00  0.45593999997E+02  0.45594000000E+02  0.51100000000E-03 0. -1.
         11   -1    0    0    0    0 -0.00000000000E+00 -0.00000000000E+00 -0.45593999997E+02  0.45594000000E+02  0.51100000000E-03 0.  1.
    9900012    2    1    2    0    0 -0.10622042894E+02 -0.98089284173E+01 -0.11901155490E+02  0.72461538136E+02  0.69999958108E+02 0.  0.
        -12    1    1    2    0    0  0.10622042894E+02  0.98089284173E+01  0.11901155490E+02  0.18726461864E+02  0.00000000000E+00 0.  1.
         11    1    3    3    0    0 -0.23694799416E+02 -0.73491873158E+01  0.18574451266E+02  0.30991358693E+02  0.51100000000E-03 0. -1.
        -11    1    3    3    0    0  0.20829161749E+01 -0.26158946775E+01  0.40414717937E+01  0.52454684515E+01  0.51100000000E-03 0.  1.
        -12    1    3    3    0    0  0.10989840347E+02  0.15615357601E+00 -0.34517078550E+02  0.36224710992E+02  0.00000000000E+00 0.  1.
</event>
<event>
 7    1  0.1789107E-013  0.7246163E+02  0.7816164E-02  0.1226708E+00
        -11   -1    0    0    0    0  0.00000000000E+00  0.00000000000E+00  0.45593999997E+02  0.45594000000E+02  0.51100000000E-03 0. -1.
         11   -1    0    0    0    0 -0.00000000000E+00 -0.00000000000E+00 -0.45593999997E+02  0.45594000000E+02  0.51100000000E-03 0.  1.
    9900012    2    1    2    0    0 -0.14485692504E+02 -0.34134001280E+01  0.11366185042E+02  0.72461634892E+02  0.70000084150E+02 0.  0.
        -12    1    1    2    0    0  0.14485692504E+02  0.34134001280E+01 -0.11366185042E+02  0.18726365108E+02  0.00000000000E+00 0.  1.
         11    1    3    3    0    0 -0.13627983356E+02 -0.30463838750E+01  0.25753015673E+01  0.14199808572E+02  0.51100000000E-03 0. -1.
        -11    1    3    3    0    0 -0.69422895279E+01 -0.82717519676E+01 -0.22749017865E+02  0.25182038810E+02  0.51100000000E-03 0.  1.
         12    1    3    3    0    0  0.60845803800E+01  0.79047357145E+01  0.31539901340E+02  0.33079787510E+02  0.00000000000E+00 0. -1.
</event>
<event>
 7    1  0.1789107E-013  0.7246157E+02  0.7816164E-02  0.1226708E+00
        -11   -1    0    0    0    0  0.00000000000E+00  0.00000000000E+00  0.45593999997E+02  0.45594000000E+02  0.51100000000E-03 0.  1.
         11   -1    0    0    0    0 -0.00000000000E+00 -0.00000000000E+00 -0.45593999997E+02  0.45594000000E+02  0.51100000000E-03 0. -1.
    9900012    2    1    2    0    0 -0.14554407548E+02 -0.18416912108E+01 -0.11638574033E+02  0.72461574524E+02  0.70000005509E+02 0.  0.
        -12    1    1    2    0    0  0.14554407548E+02  0.18416912108E+01  0.11638574033E+02  0.18726425476E+02  0.00000000000E+00 0.  1.
         11    1    3    3    0    0  0.11837797448E+02 -0.84693378042E+01 -0.15392229517E+02  0.21184519372E+02  0.51100000000E-03 0. -1.
        -11    1    3    3    0    0 -0.14411928899E+02 -0.16776117855E+02 -0.65070420691E+01  0.23053924213E+02  0.51100000000E-03 0.  1.
        -12    1    3    3    0    0 -0.11980276098E+02  0.23403764448E+02  0.10260697553E+02  0.28223130939E+02  0.00000000000E+00 0.  1.
</event>
<event>
 7    1  0.1789107E-013  0.7246157E+02  0.7816164E-02  0.1226708E+00
        -11   -1    0    0    0    0  0.00000000000E+00  0.00000000000E+00  0.45593999997E+02  0.45594000000E+02  0.51100000000E-03 0. -1.
         11   -1    0    0    0    0 -0.00000000000E+00 -0.00000000000E+00 -0.45593999997E+02  0.45594000000E+02  0.51100000000E-03 0.  1.
    9900012    2    1    2    0    0 -0.10584214339E+02  0.15077502425E+02  0.33649125514E+01  0.72461566569E+02  0.69999995147E+02 0.  0.
        -12    1    1    2    0    0  0.10584214339E+02 -0.15077502425E+02 -0.33649125514E+01  0.18726433431E+02  0.00000000000E+00 0.  1.
         11    1    3    3    0    0  0.92547629457E+00  0.19082432574E+02  0.10075094290E+02  0.21598686639E+02  0.51100000000E-03 0. -1.
        -11    1    3    3    0    0  0.18796309699E+02  0.34911445888E+01 -0.39519623112E+01  0.19521971089E+02  0.51100000000E-03 0.  1.
        -12    1    3    3    0    0 -0.30306000332E+02 -0.74960747372E+01 -0.27582194278E+01  0.31340908841E+02  0.00000000000E+00 0.  1.
</event>
<event>
 7    1  0.1789107E-013  0.7246158E+02  0.7816164E-02  0.1226708E+00
        -11   -1    0    0    0    0  0.00000000000E+00  0.00000000000E+00  0.45593999997E+02  0.45594000000E+02  0.51100000000E-03 0. -1.
         11   -1    0    0    0    0 -0.00000000000E+00 -0.00000000000E+00 -0.45593999997E+02  0.45594000000E+02  0.51100000000E-03 0.  1.
    9900012    2    1    2    0    0 -0.17087718383E+02 -0.22843997511E+01  0.73123419702E+01  0.72461576240E+02  0.70000007745E+02 0.  0.
        -12    1    1    2    0    0  0.17087718383E+02  0.22843997511E+01 -0.73123419702E+01  0.18726423760E+02  0.00000000000E+00 0.  1.
         11    1    3    3    0    0 -0.28335164791E+02 -0.12985774816E+02 -0.18118399473E+01  0.31221701996E+02  0.51100000000E-03 0. -1.
        -11    1    3    3    0    0  0.18896394941E+01  0.93196183782E+01 -0.13617650830E+02  0.16609227511E+02  0.51100000000E-03 0.  1.
         12    1    3    3    0    0  0.93578069136E+01  0.13817566867E+01  0.22741832747E+02  0.24630646733E+02  0.00000000000E+00 0. -1.
</event>
<event>
 7    1  0.1789107E-013  0.7246162E+02  0.7816164E-02  0.1226708E+00
        -11   -1    0    0    0    0  0.00000000000E+00  0.00000000000E+00  0.45593999997E+02  0.45594000000E+02  0.51100000000E-03 0. -1.
         11   -1    0    0    0    0 -0.00000000000E+00 -0.00000000000E+00 -0.45593999997E+02  0.45594000000E+02  0.51100000000E-03 0.  1.
    9900012    2    1    2    0    0 -0.22118785830E+01 -0.11735119798E+02 -0.14424691626E+02  0.72461623628E+02  0.70000069476E+02 0.  0.
        -12    1    1    2    0    0  0.22118785830E+01  0.11735119798E+02  0.14424691626E+02  0.18726376372E+02  0.00000000000E+00 0.  1.
         11    1    3    3    0    0  0.16368572213E+01 -0.60403792874E+01 -0.86716851344E+01  0.10694092146E+02  0.51100000000E-03 0. -1.
        -11    1    3    3    0    0 -0.47814670260E+01  0.95345149816E+01 -0.30713568251E+02  0.32512961689E+02  0.51100000000E-03 0.  1.
         12    1    3    3    0    0  0.93273122166E+00 -0.15229255492E+02  0.24960561759E+02  0.29254569792E+02  0.00000000000E+00 0. -1.
</event>
<event>
 7    1  0.1789107E-013  0.7246164E+02  0.7816164E-02  0.1226708E+00
        -11   -1    0    0    0    0  0.00000000000E+00  0.00000000000E+00  0.45593999997E+02  0.45594000000E+02  0.51100000000E-03 0.  1.
         11   -1    0    0    0    0 -0.00000000000E+00 -0.00000000000E+00 -0.45593999997E+02  0.45594000000E+02  0.51100000000E-03 0. -1.
    9900012    2    1    2    0    0  0.51634895411E+01  0.16678861773E+02  0.67698151935E+01  0.72461642852E+02  0.70000094520E+02 0.  0.
        -12    1    1    2    0    0 -0.51634895411E+01 -0.16678861773E+02 -0.67698151935E+01  0.18726357148E+02  0.00000000000E+00 0.  1.
         11    1    3    3    0    0  0.35663376502E+02  0.13109181439E+02 -0.11601233617E+01  0.38014115115E+02  0.51100000000E-03 0. -1.
        -11    1    3    3    0    0  0.72873763734E+00 -0.15833915457E+01  0.11212948750E+01  0.20725563415E+01  0.51100000000E-03 0.  1.
        -12    1    3    3    0    0 -0.31228624598E+02  0.51530718791E+01  0.68086436802E+01  0.32374971395E+02  0.00000000000E+00 0.  1.
</event>
<event>
 7    1  0.1789107E-013  0.7246158E+02  0.7816164E-02  0.1226708E+00
        -11   -1    0    0    0    0  0.00000000000E+00  0.00000000000E+00  0.45593999997E+02  0.45594000000E+02  0.51100000000E-03 0. -1.
         11   -1    0    0    0    0 -0.00000000000E+00 -0.00000000000E+00 -0.45593999997E+02  0.45594000000E+02  0.51100000000E-03 0.  1.
    9900012    2    1    2    0    0 -0.81999651473E+01 -0.16554228232E+02  0.30654120380E+01  0.72461584119E+02  0.70000018010E+02 0.  0.
        -12    1    1    2    0    0  0.81999651473E+01  0.16554228232E+02 -0.30654120380E+01  0.18726415881E+02  0.00000000000E+00 0.  1.
         11    1    3    3    0    0 -0.39466769951E+01  0.45515752999E+01  0.90071003284E+01  0.10836094942E+02  0.51100000000E-03 0. -1.
        -11    1    3    3    0    0 -0.24395197933E+02 -0.10258707001E+02 -0.21384203836E+02  0.34024269654E+02  0.51100000000E-03 0.  1.
         12    1    3    3    0    0  0.20141909781E+02 -0.10847096531E+02  0.15442515546E+02  0.27601219523E+02  0.00000000000E+00 0. -1.
</event>
<event>
 7    1  0.1789107E-013  0.7246156E+02  0.7816164E-02  0.1226708E+00
        -11   -1    0    0    0    0  0.00000000000E+00  0.00000000000E+00  0.45593999997E+02  0.45594000000E+02  0.51100000000E-03 0.  1.
         11   -1    0    0    0    0 -0.00000000000E+00 -0.00000000000E+00 -0.45593999997E+02  0.45594000000E+02  0.51100000000E-03 0. -1.
    9900012    2    1    2    0    0 -0.63249743715E+01  0.60536810615E+01 -0.16553761852E+02  0.72461564497E+02  0.69999992447E+02 0.  0.
        -12    1    1    2    0    0  0.63249743715E+01 -0.60536810615E+01  0.16553761852E+02  0.18726435503E+02  0.00000000000E+00 0.  1.
         11    1    3    3    0    0  0.15320711528E+02  0.76948942636E+01 -0.16964390115E+01  0.17228276322E+02  0.51100000000E-03 0.  1.
        -11    1    3    3    0    0 -0.26841794398E+02 -0.18274454217E+01  0.10847083006E+02  0.29008286631E+02  0.51100000000E-03 0. -1.
         12    1    3    3    0    0  0.51961084983E+01  0.18623221964E+00 -0.25704405847E+02  0.26225001543E+02  0.00000000000E+00 0. -1.
</event>
<event>
 7    1  0.1789107E-013  0.7246163E+02  0.7816164E-02  0.1226708E+00
        -11   -1    0    0    0    0  0.00000000000E+00  0.00000000000E+00  0.45593999997E+02  0.45594000000E+02  0.51100000000E-03 0.  1.
         11   -1    0    0    0    0 -0.00000000000E+00 -0.00000000000E+00 -0.45593999997E+02  0.45594000000E+02  0.51100000000E-03 0. -1.
    9900012    2    1    2    0    0  0.15466868594E+02 -0.51421430171E+01 -0.92201530710E+01  0.72461631384E+02  0.70000079580E+02 0.  0.
        -12    1    1    2    0    0 -0.15466868594E+02  0.51421430171E+01  0.92201530710E+01  0.18726368616E+02  0.00000000000E+00 0.  1.
         11    1    3    3    0    0 -0.93976958253E+01  0.87341483129E+01 -0.73526541502E+01  0.14787276859E+02  0.51100000000E-03 0. -1.
        -11    1    3    3    0    0  0.35774315461E+01  0.16464559079E+02  0.89314286801E+01  0.19069613018E+02  0.51100000000E-03 0.  1.
         12    1    3    3    0    0  0.21287132873E+02 -0.30340850409E+02 -0.10798927601E+02  0.38604741507E+02  0.00000000000E+00 0. -1.
</event>
<event>
 7    1  0.1789107E-013  0.7246159E+02  0.7816164E-02  0.1226708E+00
        -11   -1    0    0    0    0  0.00000000000E+00  0.00000000000E+00  0.45593999997E+02  0.45594000000E+02  0.51100000000E-03 0.  1.
         11   -1    0    0    0    0 -0.00000000000E+00 -0.00000000000E+00 -0.45593999997E+02  0.45594000000E+02  0.51100000000E-03 0. -1.
    9900012    2    1    2    0    0 -0.62259353588E+01  0.14075703418E+02 -0.10667269718E+02  0.72461592415E+02  0.70000028817E+02 0.  0.
        -12    1    1    2    0    0  0.62259353588E+01 -0.14075703418E+02  0.10667269718E+02  0.18726407585E+02  0.00000000000E+00 0.  1.
         11    1    3    3    0    0  0.63448606325E+01 -0.72138365937E+01  0.14928775147E+02  0.17752887723E+02  0.51100000000E-03 0. -1.
        -11    1    3    3    0    0 -0.39374054427E+01 -0.79052204547E+01  0.61204459464E+01  0.10745023541E+02  0.51100000000E-03 0.  1.
         12    1    3    3    0    0 -0.86333905485E+01  0.29194760466E+02 -0.31716490811E+02  0.43963681152E+02  0.00000000000E+00 0. -1.
</event>
<event>
 7    1  0.1789107E-013  0.7246152E+02  0.7816164E-02  0.1226708E+00
        -11   -1    0    0    0    0  0.00000000000E+00  0.00000000000E+00  0.45593999997E+02  0.45594000000E+02  0.51100000000E-03 0. -1.
         11   -1    0    0    0    0 -0.00000000000E+00 -0.00000000000E+00 -0.45593999997E+02  0.45594000000E+02  0.51100000000E-03 0.  1.
    9900012    2    1    2    0    0  0.12760071673E+01  0.18590667958E+02 -0.18546797136E+01  0.72461522321E+02  0.69999937506E+02 0.  0.
        -12    1    1    2    0    0 -0.12760071673E+01 -0.18590667958E+02  0.18546797136E+01  0.18726477679E+02  0.00000000000E+00 0.  1.
         11    1    3    3    0    0  0.48494985999E+00  0.29122681638E+02 -0.11366524229E+00  0.29126940832E+02  0.51100000000E-03 0. -1.
        -11    1    3    3    0    0 -0.15690202822E+02  0.64223979883E+01  0.66978350150E+01  0.18228841287E+02  0.51100000000E-03 0.  1.
         12    1    3    3    0    0  0.16481260129E+02 -0.16954411669E+02 -0.84388494863E+01  0.25105740203E+02  0.00000000000E+00 0. -1.
</event>
<event>
 7    1  0.1789107E-013  0.7246155E+02  0.7816164E-02  0.1226708E+00
        -11   -1    0    0    0    0  0.00000000000E+00  0.00000000000E+00  0.45593999997E+02  0.45594000000E+02  0.51100000000E-03 0.  1.
         11   -1    0    0    0    0 -0.00000000000E+00 -0.00000000000E+00 -0.45593999997E+02  0.45594000000E+02  0.51100000000E-03 0. -1.
    9900012    2    1    2    0    0  0.86764499108E+01  0.12334858608E+02 -0.11101821772E+02  0.72461549013E+02  0.69999972277E+02 0.  0.
        -12    1    1    2    0    0 -0.86764499108E+01 -0.12334858608E+02  0.11101821772E+02  0.18726450987E+02  0.00000000000E+00 0.  1.
         11    1    3    3    0    0  0.19773891762E+01  0.11995185794E+02 -0.25784413122E+01  0.12427506188E+02  0.51100000000E-03 0. -1.
        -11    1    3    3    0    0 -0.59771312409E+01  0.20601825928E+02 -0.23508124261E+02  0.31824412579E+02  0.51100000000E-03 0.  1.
        -12    1    3    3    0    0  0.12676191976E+02 -0.20262153114E+02  0.14984743802E+02  0.28209630246E+02  0.00000000000E+00 0.  1.
</event>
<event>
 7    1  0.1789107E-013  0.7246156E+02  0.7816164E-02  0.1226708E+00
        -11   -1    0    0    0    0  0.00000000000E+00  0.00000000000E+00  0.45593999997E+02  0.45594000000E+02  0.51100000000E-03 0.  1.
         11   -1    0    0    0    0 -0.00000000000E+00 -0.00000000000E+00 -0.45593999997E+02  0.45594000000E+02  0.51100000000E-03 0. -1.
    9900012    2    1    2    0    0  0.97558318023E+00  0.18073155136E+02 -0.48051045617E+01  0.72461555357E+02  0.69999980542E+02 0.  0.
        -12    1    1    2    0    0 -0.97558318023E+00 -0.18073155136E+02  0.48051045617E+01  0.18726444643E+02  0.00000000000E+00 0.  1.
         11    1    3    3    0    0 -0.44173950389E+01  0.73224105135E+01 -0.13375728993E+02  0.15875805523E+02  0.51100000000E-03 0. -1.
        -11    1    3    3    0    0  0.10493384608E+02  0.23265404026E+02 -0.14862909872E+02  0.29534661588E+02  0.51100000000E-03 0.  1.
        -12    1    3    3    0    0 -0.51004063892E+01 -0.12514659403E+02  0.23433534304E+02  0.27051088246E+02  0.00000000000E+00 0.  1.
</event>
<event>
 7    1  0.1789107E-013  0.7246180E+02  0.7816164E-02  0.1226707E+00
        -11   -1    0    0    0    0  0.00000000000E+00  0.00000000000E+00  0.45593999997E+02  0.45594000000E+02  0.51100000000E-03 0. -1.
         11   -1    0    0    0    0 -0.00000000000E+00 -0.00000000000E+00 -0.45593999997E+02  0.45594000000E+02  0.51100000000E-03 0.  1.
    9900012    2    1    2    0    0  0.38130307669E+01 -0.12377339930E+02  0.13525271318E+02  0.72461796124E+02  0.70000294184E+02 0.  0.
        -12    1    1    2    0    0 -0.38130307669E+01  0.12377339930E+02 -0.13525271318E+02  0.18726203876E+02  0.00000000000E+00 0.  1.
         11    1    3    3    0    0 -0.31925665687E+00  0.10161838886E+02  0.99139154552E+01  0.14200373737E+02  0.51100000000E-03 0. -1.
        -11    1    3    3    0    0  0.16476563296E+02 -0.10578659446E+02 -0.20696261853E+02  0.28490707760E+02  0.51100000000E-03 0.  1.
         12    1    3    3    0    0 -0.12344275872E+02 -0.11960519370E+02  0.24307617716E+02  0.29770714627E+02  0.00000000000E+00 0. -1.
</event>
<event>
 7    1  0.1789107E-013  0.7246232E+02  0.7816164E-02  0.1226706E+00
        -11   -1    0    0    0    0  0.00000000000E+00  0.00000000000E+00  0.45593999997E+02  0.45594000000E+02  0.51100000000E-03 0.  1.
         11   -1    0    0    0    0 -0.00000000000E+00 -0.00000000000E+00 -0.45593999997E+02  0.45594000000E+02  0.51100000000E-03 0. -1.
    9900012    2    1    2    0    0  0.61361622323E+01  0.16189391617E+02 -0.71345811684E+01  0.72462318802E+02  0.70000975064E+02 0.  0.
        -12    1    1    2    0    0 -0.61361622323E+01 -0.16189391617E+02  0.71345811684E+01  0.18725681198E+02  0.00000000000E+00 0.  1.
         11    1    3    3    0    0  0.20070667604E+01 -0.10133800374E+02 -0.18150568494E+02  0.20884572390E+02  0.51100000000E-03 0. -1.
        -11    1    3    3    0    0  0.22912880682E+02  0.86505063352E+01  0.70342689748E+01  0.25481607117E+02  0.51100000000E-03 0.  1.
        -12    1    3    3    0    0 -0.18783785210E+02  0.17672685655E+02  0.39817183509E+01  0.26096139295E+02  0.00000000000E+00 0.  1.
</event>
<event>
 7    1  0.1789107E-013  0.7246158E+02  0.7816164E-02  0.1226708E+00
        -11   -1    0    0    0    0  0.00000000000E+00  0.00000000000E+00  0.45593999997E+02  0.45594000000E+02  0.51100000000E-03 0.  1.
         11   -1    0    0    0    0 -0.00000000000E+00 -0.00000000000E+00 -0.45593999997E+02  0.45594000000E+02  0.51100000000E-03 0. -1.
    9900012    2    1    2    0    0  0.38559713558E+01 -0.61707481907E+01 -0.17254919514E+02  0.72461577604E+02  0.70000009522E+02 0.  0.
        -12    1    1    2    0    0 -0.38559713558E+01  0.61707481907E+01  0.17254919514E+02  0.18726422396E+02  0.00000000000E+00 0.  1.
         11    1    3    3    0    0  0.21500151822E+01 -0.57962380050E+01  0.17127687721E+01  0.64150227921E+01  0.51100000000E-03 0.  1.
        -11    1    3    3    0    0 -0.42971350977E+01  0.21547570022E+02  0.13963202907E+02  0.26033328246E+02  0.51100000000E-03 0. -1.
         12    1    3    3    0    0  0.60030912713E+01 -0.21922080208E+02 -0.32930891193E+02  0.40013226566E+02  0.00000000000E+00 0. -1.
</event>
<event>
 7    1  0.1789107E-013  0.7246163E+02  0.7816164E-02  0.1226708E+00
        -11   -1    0    0    0    0  0.00000000000E+00  0.00000000000E+00  0.45593999997E+02  0.45594000000E+02  0.51100000000E-03 0. -1.
         11   -1    0    0    0    0 -0.00000000000E+00 -0.00000000000E+00 -0.45593999997E+02  0.45594000000E+02  0.51100000000E-03 0.  1.
    9900012    2    1    2    0    0 -0.63424251982E+01 -0.98498148929E+01 -0.14609301022E+02  0.72461631234E+02  0.70000079385E+02 0.  0.
        -12    1    1    2    0    0  0.63424251982E+01  0.98498148929E+01  0.14609301022E+02  0.18726368766E+02  0.00000000000E+00 0.  1.
         11    1    3    3    0    0  0.39181150232E+01  0.23335748986E+01  0.31295151295E+01  0.55309187617E+01  0.51100000000E-03 0. -1.
        -11    1    3    3    0    0  0.22894520537E+02  0.95042188546E+01 -0.89019811708E+01  0.26338840439E+02  0.51100000000E-03 0.  1.
         12    1    3    3    0    0 -0.33155060758E+02 -0.21687608646E+02 -0.88368349801E+01  0.40591872033E+02  0.00000000000E+00 0. -1.
</event>
<event>
 7    1  0.1789107E-013  0.7246153E+02  0.7816164E-02  0.1226708E+00
        -11   -1    0    0    0    0  0.00000000000E+00  0.00000000000E+00  0.45593999997E+02  0.45594000000E+02  0.51100000000E-03 0. -1.
         11   -1    0    0    0    0 -0.00000000000E+00 -0.00000000000E+00 -0.45593999997E+02  0.45594000000E+02  0.51100000000E-03 0.  1.
    9900012    2    1    2    0    0 -0.90714035669E+01 -0.23282047986E+01  0.16216340247E+02  0.72461532333E+02  0.69999950549E+02 0.  0.
        -12    1    1    2    0    0  0.90714035669E+01  0.23282047986E+01 -0.16216340247E+02  0.18726467667E+02  0.00000000000E+00 0.  1.
         11    1    3    3    0    0  0.44662959515E+01  0.30988782907E+02  0.25120848449E+01  0.31409601018E+02  0.51100000000E-03 0. -1.
        -11    1    3    3    0    0 -0.78082214113E+01 -0.11948956951E+02  0.12371237400E+02  0.18888975856E+02  0.51100000000E-03 0.  1.
        -12    1    3    3    0    0 -0.57294781071E+01 -0.21368030755E+02  0.13330180019E+01  0.22162955460E+02  0.00000000000E+00 0.  1.
</event>
<event>
 7    1  0.1789107E-013  0.7246157E+02  0.7816164E-02  0.1226708E+00
        -11   -1    0    0    0    0  0.00000000000E+00  0.00000000000E+00  0.45593999997E+02  0.45594000000E+02  0.51100000000E-03 0.  1.
         11   -1    0    0    0    0 -0.00000000000E+00 -0.00000000000E+00 -0.45593999997E+02  0.45594000000E+02  0.51100000000E-03 0. -1.
    9900012    2    1    2    0    0 -0.36419647516E+01  0.14587296634E+02 -0.11163601087E+02  0.72461571628E+02  0.70000001737E+02 0.  0.
        -12    1    1    2    0    0  0.36419647516E+01 -0.14587296634E+02  0.11163601087E+02  0.18726428372E+02  0.00000000000E+00 0.  1.
         11    1    3    3    0    0  0.33824890665E+01  0.10030912982E+02  0.60575485846E+01  0.12196488948E+02  0.51100000000E-03 0. -1.
        -11    1    3    3    0    0 -0.10244018004E+02  0.10287798823E+02 -0.36827563283E+02  0.39585958712E+02  0.51100000000E-03 0.  1.
         12    1    3    3    0    0  0.32195641860E+01 -0.57314151715E+01  0.19606413611E+02  0.20679123969E+02  0.00000000000E+00 0. -1.
</event>
<event>
 7    1  0.1789107E-013  0.7246197E+02  0.7816164E-02  0.1226707E+00
        -11   -1    0    0    0    0  0.00000000000E+00  0.00000000000E+00  0.45593999997E+02  0.45594000000E+02  0.51100000000E-03 0.  1.
         11   -1    0    0    0    0 -0.00000000000E+00 -0.00000000000E+00 -0.45593999997E+02  0.45594000000E+02  0.51100000000E-03 0. -1.
    9900012    2    1    2    0    0 -0.55216177886E+01  0.17742385943E+01 -0.17805279403E+02  0.72461971050E+02  0.70000522057E+02 0.  0.
        -12    1    1    2    0    0  0.55216177886E+01 -0.17742385943E+01  0.17805279403E+02  0.18726028950E+02  0.00000000000E+00 0.  1.
         11    1    3    3    0    0 -0.11945614752E+02 -0.20144796860E+02 -0.69085009019E+01  0.24417983891E+02  0.51100000000E-03 0. -1.
        -11    1    3    3    0    0 -0.10152898456E+02  0.54008749584E+01  0.11059264733E+02  0.15954878065E+02  0.51100000000E-03 0.  1.
         12    1    3    3    0    0  0.16576895419E+02  0.16518160496E+02 -0.21956043235E+02  0.32089109094E+02  0.00000000000E+00 0. -1.
</event>
<event>
 7    1  0.1789107E-013  0.7246161E+02  0.7816164E-02  0.1226708E+00
        -11   -1    0    0    0    0  0.00000000000E+00  0.00000000000E+00  0.45593999997E+02  0.45594000000E+02  0.51100000000E-03 0. -1.
         11   -1    0    0    0    0 -0.00000000000E+00 -0.00000000000E+00 -0.45593999997E+02  0.45594000000E+02  0.51100000000E-03 0.  1.
    9900012    2    1    2    0    0 -0.23355918013E+01 -0.70616635369E+01  0.17185916551E+02  0.72461606630E+02  0.70000047333E+02 0.  0.
        -12    1    1    2    0    0  0.23355918013E+01  0.70616635369E+01 -0.17185916551E+02  0.18726393370E+02  0.00000000000E+00 0.  1.
         11    1    3    3    0    0 -0.25283071860E+02  0.34800348813E+01  0.84401793289E+01  0.26880866668E+02  0.51100000000E-03 0. -1.
        -11    1    3    3    0    0 -0.78452998335E+01 -0.11502871628E+02  0.24983106562E+01  0.14145894866E+02  0.51100000000E-03 0.  1.
         12    1    3    3    0    0  0.30792779893E+02  0.96117321006E+00  0.62474265657E+01  0.31434845095E+02  0.00000000000E+00 0. -1.
</event>
<event>
 7    1  0.1789107E-013  0.7246158E+02  0.7816164E-02  0.1226708E+00
        -11   -1    0    0    0    0  0.00000000000E+00  0.00000000000E+00  0.45593999997E+02  0.45594000000E+02  0.51100000000E-03 0.  1.
         11   -1    0    0    0    0 -0.00000000000E+00 -0.00000000000E+00 -0.45593999997E+02  0.45594000000E+02  0.51100000000E-03 0. -1.
    9900012    2    1    2    0    0  0.45836415080E+01  0.11532000209E+02 -0.14024331273E+02  0.72461583740E+02  0.70000017515E+02 0.  0.
        -12    1    1    2    0    0 -0.45836415080E+01 -0.11532000209E+02  0.14024331273E+02  0.18726416260E+02  0.00000000000E+00 0.  1.
         11    1    3    3    0    0 -0.33879706388E+01 -0.12285852719E+01 -0.13887965770E+02  0.14347939236E+02  0.51100000000E-03 0. -1.
        -11    1    3    3    0    0 -0.17843741487E+01 -0.12267198506E+02  0.20693036907E+02  0.24121980163E+02  0.51100000000E-03 0.  1.
         12    1    3    3    0    0  0.97559862955E+01  0.25027783987E+02 -0.20829402410E+02  0.33991664341E+02  0.00000000000E+00 0. -1.
</event>
<event>
 7    1  0.1789107E-013  0.7246139E+02  0.7816164E-02  0.1226708E+00
        -11   -1    0    0    0    0  0.00000000000E+00  0.00000000000E+00  0.45593999997E+02  0.45594000000E+02  0.51100000000E-03 0. -1.
         11   -1    0    0    0    0 -0.00000000000E+00 -0.00000000000E+00 -0.45593999997E+02  0.45594000000E+02  0.51100000000E-03 0.  1.
    9900012    2    1    2    0    0  0.16123921067E+02  0.73392246288E+01 -0.60696763905E+01  0.72461387381E+02  0.69999761721E+02 0.  0.
        -12    1    1    2    0    0 -0.16123921067E+02 -0.73392246288E+01  0.60696763905E+01  0.18726612619E+02  0.00000000000E+00 0.  1.
         11    1    3    3    0    0  0.10297502805E+02  0.11109590298E+02  0.76682756142E+01  0.16978339488E+02  0.51100000000E-03 0. -1.
        -11    1    3    3    0    0  0.21044283480E+02  0.17177043544E+02 -0.11487940190E+02  0.29493820745E+02  0.51100000000E-03 0.  1.
        -12    1    3    3    0    0 -0.15217865218E+02 -0.20947409213E+02 -0.22500118148E+01  0.25989227147E+02  0.00000000000E+00 0.  1.
</event>
<event>
 7    1  0.1789107E-013  0.7246153E+02  0.7816164E-02  0.1226708E+00
        -11   -1    0    0    0    0  0.00000000000E+00  0.00000000000E+00  0.45593999997E+02  0.45594000000E+02  0.51100000000E-03 0. -1.
         11   -1    0    0    0    0 -0.00000000000E+00 -0.00000000000E+00 -0.45593999997E+02  0.45594000000E+02  0.51100000000E-03 0.  1.
    9900012    2    1    2    0    0  0.17485266126E+02  0.51980277499E+01 -0.42339964263E+01  0.72461528102E+02  0.69999945037E+02 0.  0.
        -12    1    1    2    0    0 -0.17485266126E+02 -0.51980277499E+01  0.42339964263E+01  0.18726471898E+02  0.00000000000E+00 0.  1.
         11    1    3    3    0    0 -0.19109960354E+02 -0.34433473585E+01  0.97895616474E+01  0.21745867268E+02  0.51100000000E-03 0. -1.
        -11    1    3    3    0    0 -0.29780973784E+01  0.25098953212E+01 -0.96813979450E+01  0.10435425480E+02  0.51100000000E-03 0.  1.
         12    1    3    3    0    0  0.39573323858E+02  0.61314797872E+01 -0.43421601287E+01  0.40280235354E+02  0.00000000000E+00 0. -1.
</event>
<event>
 7    1  0.1789107E-013  0.7246157E+02  0.7816164E-02  0.1226708E+00
        -11   -1    0    0    0    0  0.00000000000E+00  0.00000000000E+00  0.45593999997E+02  0.45594000000E+02  0.51100000000E-03 0. -1.
         11   -1    0    0    0    0 -0.00000000000E+00 -0.00000000000E+00 -0.45593999997E+02  0.45594000000E+02  0.51100000000E-03 0.  1.
    9900012    2    1    2    0    0  0.16492475096E+02 -0.10236429005E+01  0.88107711906E+01  0.72461567650E+02  0.69999996555E+02 0.  0.
        -12    1    1    2    0    0 -0.16492475096E+02  0.10236429005E+01 -0.88107711906E+01  0.18726432350E+02  0.00000000000E+00 0.  1.
         11    1    3    3    0    0 -0.12477683336E+02 -0.24424634477E+01 -0.10061492496E+02  0.16213939702E+02  0.51100000000E-03 0. -1.
        -11    1    3    3    0    0  0.32967290851E+02 -0.93554642290E+01  0.13769755377E+00  0.34269314815E+02  0.51100000000E-03 0.  1.
         12    1    3    3    0    0 -0.39971324178E+01  0.10774284776E+02  0.18734566133E+02  0.21978313134E+02  0.00000000000E+00 0. -1.
</event>
<event>
 7    1  0.1789107E-013  0.7246159E+02  0.7816164E-02  0.1226708E+00
        -11   -1    0    0    0    0  0.00000000000E+00  0.00000000000E+00  0.45593999997E+02  0.45594000000E+02  0.51100000000E-03 0.  1.
         11   -1    0    0    0    0 -0.00000000000E+00 -0.00000000000E+00 -0.45593999997E+02  0.45594000000E+02  0.51100000000E-03 0. -1.
    9900012    2    1    2    0    0 -0.15168243916E+02  0.18099277525E+01 -0.10831754546E+02  0.72461591681E+02  0.70000027860E+02 0.  0.
        -12    1    1    2    0    0  0.15168243916E+02 -0.18099277525E+01  0.10831754546E+02  0.18726408319E+02  0.00000000000E+00 0.  1.
         11    1    3    3    0    0 -0.11537557983E+01 -0.13923838024E+02  0.10758798153E+02  0.17633948954E+02  0.51100000000E-03 0. -1.
        -11    1    3    3    0    0 -0.27557635011E+02 -0.21781514125E+01 -0.89368912721E+01  0.29052291077E+02  0.51100000000E-03 0.  1.
         12    1    3    3    0    0  0.13543146893E+02  0.17911917189E+02 -0.12653661427E+02  0.25775351650E+02  0.00000000000E+00 0. -1.
</event>
<event>
 7    1  0.1789107E-013  0.7246154E+02  0.7816164E-02  0.1226708E+00
        -11   -1    0    0    0    0  0.00000000000E+00  0.00000000000E+00  0.45593999997E+02  0.45594000000E+02  0.51100000000E-03 0.  1.
         11   -1    0    0    0    0 -0.00000000000E+00 -0.00000000000E+00 -0.45593999997E+02  0.45594000000E+02  0.51100000000E-03 0. -1.
    9900012    2    1    2    0    0  0.53321108814E+01  0.29900918587E+01 -0.17700517519E+02  0.72461538076E+02  0.69999958029E+02 0.  0.
        -12    1    1    2    0    0 -0.53321108814E+01 -0.29900918587E+01  0.17700517519E+02  0.18726461924E+02  0.00000000000E+00 0.  1.
         11    1    3    3    0    0 -0.20067396581E+02 -0.86010312465E+01 -0.25348059906E+02  0.33454480796E+02  0.51100000000E-03 0. -1.
        -11    1    3    3    0    0 -0.21738836760E+00 -0.44874193447E+01 -0.45509739597E+01  0.63949631993E+01  0.51100000000E-03 0.  1.
        -12    1    3    3    0    0  0.25616895830E+02  0.16078542450E+02  0.12198516347E+02  0.32612094081E+02  0.00000000000E+00 0.  1.
</event>
<event>
 7    1  0.1789107E-013  0.7246159E+02  0.7816164E-02  0.1226708E+00
        -11   -1    0    0    0    0  0.00000000000E+00  0.00000000000E+00  0.45593999997E+02  0.45594000000E+02  0.51100000000E-03 0.  1.
         11   -1    0    0    0    0 -0.00000000000E+00 -0.00000000000E+00 -0.45593999997E+02  0.45594000000E+02  0.51100000000E-03 0. -1.
    9900012    2    1    2    0    0 -0.87416980771E+01  0.10486632939E+02 -0.12817637714E+02  0.72461585708E+02  0.70000020079E+02 0.  0.
        -12    1    1    2    0    0  0.87416980771E+01 -0.10486632939E+02  0.12817637714E+02  0.18726414292E+02  0.00000000000E+00 0.  1.
         11    1    3    3    0    0 -0.76300523530E+00  0.12400832607E+02  0.67818847823E+00  0.12442779681E+02  0.51100000000E-03 0. -1.
        -11    1    3    3    0    0  0.23244418728E+02  0.81978194521E+01 -0.31085228322E+00  0.24649622211E+02  0.51100000000E-03 0.  1.
         12    1    3    3    0    0 -0.31223111570E+02 -0.10112019120E+02 -0.13184973909E+02  0.35369183815E+02  0.00000000000E+00 0. -1.
</event>
<event>
 7    1  0.1789107E-013  0.7246160E+02  0.7816164E-02  0.1226708E+00
        -11   -1    0    0    0    0  0.00000000000E+00  0.00000000000E+00  0.45593999997E+02  0.45594000000E+02  0.51100000000E-03 0.  1.
         11   -1    0    0    0    0 -0.00000000000E+00 -0.00000000000E+00 -0.45593999997E+02  0.45594000000E+02  0.51100000000E-03 0. -1.
    9900012    2    1    2    0    0  0.51895869373E+01 -0.65489273775E+01 -0.16758811340E+02  0.72461600990E+02  0.70000039987E+02 0.  0.
        -12    1    1    2    0    0 -0.51895869373E+01  0.65489273775E+01  0.16758811340E+02  0.18726399010E+02  0.00000000000E+00 0.  1.
         11    1    3    3    0    0 -0.28609940082E+01  0.99737674231E+01  0.11389930977E+01  0.10438325003E+02  0.51100000000E-03 0. -1.
        -11    1    3    3    0    0 -0.16205611126E+02 -0.27305076513E+01 -0.27901005292E+02  0.32381222963E+02  0.51100000000E-03 0.  1.
         12    1    3    3    0    0  0.24256192071E+02 -0.13792187149E+02  0.10003200855E+02  0.29642053024E+02  0.00000000000E+00 0. -1.
</event>
<event>
 7    1  0.1789107E-013  0.7246161E+02  0.7816164E-02  0.1226708E+00
        -11   -1    0    0    0    0  0.00000000000E+00  0.00000000000E+00  0.45593999997E+02  0.45594000000E+02  0.51100000000E-03 0.  1.
         11   -1    0    0    0    0 -0.00000000000E+00 -0.00000000000E+00 -0.45593999997E+02  0.45594000000E+02  0.51100000000E-03 0. -1.
    9900012    2    1    2    0    0 -0.10215445124E+02  0.10734607848E+02  0.11449484163E+02  0.72461606532E+02  0.70000047206E+02 0.  0.
        -12    1    1    2    0    0  0.10215445124E+02 -0.10734607848E+02 -0.11449484163E+02  0.18726393468E+02  0.00000000000E+00 0.  1.
         11    1    3    3    0    0  0.11243758036E+02  0.56356507528E+01 -0.40883173501E+01  0.13224862691E+02  0.51100000000E-03 0. -1.
        -11    1    3    3    0    0 -0.18351355027E+02  0.20260295236E+02 -0.10222535656E+02  0.29184791071E+02  0.51100000000E-03 0.  1.
        -12    1    3    3    0    0 -0.31078481328E+01 -0.15161338140E+02  0.25760337169E+02  0.30051952770E+02  0.00000000000E+00 0.  1.
</event>
<event>
 7    1  0.1789107E-013  0.7246149E+02  0.7816164E-02  0.1226708E+00
        -11   -1    0    0    0    0  0.00000000000E+00  0.00000000000E+00  0.45593999997E+02  0.45594000000E+02  0.51100000000E-03 0.  1.
         11   -1    0    0    0    0 -0.00000000000E+00 -0.00000000000E+00 -0.45593999997E+02  0.45594000000E+02  0.51100000000E-03 0. -1.
    9900012    2    1    2    0    0  0.15955094059E+01 -0.18652439521E+02 -0.47218190528E+00  0.72461491887E+02  0.69999897860E+02 0.  0.
        -12    1    1    2    0    0 -0.15955094059E+01  0.18652439521E+02  0.47218190528E+00  0.18726508113E+02  0.00000000000E+00 0.  1.
         11    1    3    3    0    0 -0.11534413601E+02 -0.24522207321E+02 -0.23216595679E+02  0.35684613830E+02  0.51100000000E-03 0. -1.
        -11    1    3    3    0    0  0.78121645325E+01 -0.95786781224E+01  0.76693112262E+01  0.14546454008E+02  0.51100000000E-03 0.  1.
        -12    1    3    3    0    0  0.53177584746E+01  0.15448445922E+02  0.15075102547E+02  0.22230424049E+02  0.00000000000E+00 0.  1.
</event>
<event>
 7    1  0.1789107E-013  0.7246157E+02  0.7816164E-02  0.1226708E+00
        -11   -1    0    0    0    0  0.00000000000E+00  0.00000000000E+00  0.45593999997E+02  0.45594000000E+02  0.51100000000E-03 0. -1.
         11   -1    0    0    0    0 -0.00000000000E+00 -0.00000000000E+00 -0.45593999997E+02  0.45594000000E+02  0.51100000000E-03 0.  1.
    9900012    2    1    2    0    0 -0.58970136268E+01  0.17737634307E+02  0.11316343522E+01  0.72461573837E+02  0.70000004615E+02 0.  0.
        -12    1    1    2    0    0  0.58970136268E+01 -0.17737634307E+02 -0.11316343522E+01  0.18726426163E+02  0.00000000000E+00 0.  1.
         11    1    3    3    0    0  0.51074932964E+01  0.19257869614E+02  0.30292497500E+02  0.36257239759E+02  0.51100000000E-03 0. -1.
        -11    1    3    3    0    0 -0.23984981013E+01  0.33789162159E+01  0.11635678496E+01  0.43039235981E+01  0.51100000000E-03 0.  1.
        -12    1    3    3    0    0 -0.86060088219E+01 -0.48991515228E+01 -0.30324430997E+02  0.31900410480E+02  0.00000000000E+00 0.  1.
</event>
<event>
 7    1  0.1789107E-013  0.7246157E+02  0.7816164E-02  0.1226708E+00
        -11   -1    0    0    0    0  0.00000000000E+00  0.00000000000E+00  0.45593999997E+02  0.45594000000E+02  0.51100000000E-03 0.  1.
         11   -1    0    0    0    0 -0.00000000000E+00 -0.00000000000E+00 -0.45593999997E+02  0.45594000000E+02  0.51100000000E-03 0. -1.
    9900012    2    1    2    0    0  0.74175696736E+01  0.17177103530E+02  0.77832843495E+00  0.72461574268E+02  0.70000005176E+02 0.  0.
        -12    1    1    2    0    0 -0.74175696736E+01 -0.17177103530E+02 -0.77832843495E+00  0.18726425732E+02  0.00000000000E+00 0.  1.
         11    1    3    3    0    0  0.28942802405E+02  0.20543925264E+01 -0.60746616368E+01  0.29644693521E+02  0.51100000000E-03 0. -1.
        -11    1    3    3    0    0 -0.25328957774E+00  0.39271355103E+01  0.16464537240E+02  0.16928305755E+02  0.51100000000E-03 0.  1.
        -12    1    3    3    0    0 -0.21271943153E+02  0.11195575493E+02 -0.96115471686E+01  0.25888574992E+02  0.00000000000E+00 0.  1.
</event>
<event>
 7    1  0.1789107E-013  0.7246156E+02  0.7816164E-02  0.1226708E+00
        -11   -1    0    0    0    0  0.00000000000E+00  0.00000000000E+00  0.45593999997E+02  0.45594000000E+02  0.51100000000E-03 0. -1.
         11   -1    0    0    0    0 -0.00000000000E+00 -0.00000000000E+00 -0.45593999997E+02  0.45594000000E+02  0.51100000000E-03 0.  1.
    9900012    2    1    2    0    0  0.13297730601E+02 -0.29377449231E+00  0.13181937690E+02  0.72461563504E+02  0.69999991154E+02 0.  0.
        -12    1    1    2    0    0 -0.13297730601E+02  0.29377449231E+00 -0.13181937690E+02  0.18726436496E+02  0.00000000000E+00 0.  1.
         11    1    3    3    0    0 -0.60583339995E+01 -0.29605215367E+01  0.10064390123E+02  0.12114456134E+02  0.51100000000E-03 0. -1.
        -11    1    3    3    0    0  0.10028444236E+02 -0.24765958445E+02 -0.10015305731E+02  0.28534693632E+02  0.51100000000E-03 0.  1.
         12    1    3    3    0    0  0.93276203640E+01  0.27432705489E+02  0.13132853299E+02  0.31812413739E+02  0.00000000000E+00 0. -1.
</event>
<event>
 7    1  0.1789107E-013  0.7246152E+02  0.7816164E-02  0.1226708E+00
        -11   -1    0    0    0    0  0.00000000000E+00  0.00000000000E+00  0.45593999997E+02  0.45594000000E+02  0.51100000000E-03 0.  1.
         11   -1    0    0    0    0 -0.00000000000E+00 -0.00000000000E+00 -0.45593999997E+02  0.45594000000E+02  0.51100000000E-03 0. -1.
    9900012    2    1    2    0    0 -0.45830788801E+01  0.16867073943E+02 -0.67214794670E+01  0.72461519240E+02  0.69999933492E+02 0.  0.
        -12    1    1    2    0    0  0.45830788801E+01 -0.16867073943E+02  0.67214794670E+01  0.18726480760E+02  0.00000000000E+00 0.  1.
         11    1    3    3    0    0  0.15555450787E+02  0.31461706636E+02  0.85744473999E+01  0.36129381147E+02  0.51100000000E-03 0. -1.
        -11    1    3    3    0    0  0.44482617122E+01 -0.28466974298E+01 -0.44799841839E+00  0.53001340890E+01  0.51100000000E-03 0.  1.
        -12    1    3    3    0    0 -0.24586791379E+02 -0.11747935263E+02 -0.14847928449E+02  0.31032004004E+02  0.00000000000E+00 0.  1.
</event>
<event>
 7    1  0.1789107E-013  0.7246138E+02  0.7816164E-02  0.1226709E+00
        -11   -1    0    0    0    0  0.00000000000E+00  0.00000000000E+00  0.45593999997E+02  0.45594000000E+02  0.51100000000E-03 0. -1.
         11   -1    0    0    0    0 -0.00000000000E+00 -0.00000000000E+00 -0.45593999997E+02  0.45594000000E+02  0.51100000000E-03 0.  1.
    9900012    2    1    2    0    0  0.16025930744E+02  0.66496495159E+01  0.70454200759E+01  0.72461381540E+02  0.69999754112E+02 0.  0.
        -12    1    1    2    0    0 -0.16025930744E+02 -0.66496495159E+01 -0.70454200759E+01  0.18726618460E+02  0.00000000000E+00 0.  1.
         11    1    3    3    0    0  0.26299045074E+02  0.79071578163E+01 -0.79459366569E+01  0.28588473659E+02  0.51100000000E-03 0. -1.
        -11    1    3    3    0    0  0.76355477892E+01 -0.80658069888E+01 -0.81892983099E+01  0.13799399969E+02  0.51100000000E-03 0.  1.
         12    1    3    3    0    0 -0.17908662120E+02  0.68082986884E+01  0.23180655043E+02  0.30073507912E+02  0.00000000000E+00 0. -1.
</event>
<event>
 7    1  0.1789107E-013  0.7246166E+02  0.7816164E-02  0.1226708E+00
        -11   -1    0    0    0    0  0.00000000000E+00  0.00000000000E+00  0.45593999997E+02  0.45594000000E+02  0.51100000000E-03 0.  1.
         11   -1    0    0    0    0 -0.00000000000E+00 -0.00000000000E+00 -0.45593999997E+02  0.45594000000E+02  0.51100000000E-03 0. -1.
    9900012    2    1    2    0    0 -0.77401725301E+01  0.13833371675E+02 -0.99701231245E+01  0.72461660320E+02  0.70000117275E+02 0.  0.
        -12    1    1    2    0    0  0.77401725301E+01 -0.13833371675E+02  0.99701231245E+01  0.18726339680E+02  0.00000000000E+00 0.  1.
         11    1    3    3    0    0 -0.34509061222E+01  0.24017051288E+01  0.15486467944E+02  0.16047044283E+02  0.51100000000E-03 0. -1.
        -11    1    3    3    0    0 -0.15977929467E+02  0.54306988830E+01  0.92921569983E+01  0.19264758041E+02  0.51100000000E-03 0.  1.
         12    1    3    3    0    0  0.11688663059E+02  0.60009676627E+01 -0.34748748066E+02  0.37149857997E+02  0.00000000000E+00 0. -1.
</event>
<event>
 7    1  0.1789107E-013  0.7246152E+02  0.7816164E-02  0.1226708E+00
        -11   -1    0    0    0    0  0.00000000000E+00  0.00000000000E+00  0.45593999997E+02  0.45594000000E+02  0.51100000000E-03 0.  1.
         11   -1    0    0    0    0 -0.00000000000E+00 -0.00000000000E+00 -0.45593999997E+02  0.45594000000E+02  0.51100000000E-03 0. -1.
    9900012    2    1    2    0    0  0.84484050561E+01 -0.15380812427E+01 -0.16641505597E+02  0.72461522744E+02  0.69999938057E+02 0.  0.
        -12    1    1    2    0    0 -0.84484050561E+01  0.15380812427E+01  0.16641505597E+02  0.18726477256E+02  0.00000000000E+00 0.  1.
         11    1    3    3    0    0 -0.47067809246E+01 -0.23488996761E+02 -0.15908378040E+02  0.28756968680E+02  0.51100000000E-03 0.  1.
        -11    1    3    3    0    0  0.21298171831E+02  0.14426946112E+01  0.21339066993E+01  0.21453369179E+02  0.51100000000E-03 0. -1.
         12    1    3    3    0    0 -0.81429858502E+01  0.20508220907E+02 -0.28670342562E+01  0.22251184885E+02  0.00000000000E+00 0. -1.
</event>
<event>
 7    1  0.1789107E-013  0.7246129E+02  0.7816164E-02  0.1226709E+00
        -11   -1    0    0    0    0  0.00000000000E+00  0.00000000000E+00  0.45593999997E+02  0.45594000000E+02  0.51100000000E-03 0. -1.
         11   -1    0    0    0    0 -0.00000000000E+00 -0.00000000000E+00 -0.45593999997E+02  0.45594000000E+02  0.51100000000E-03 0.  1.
    9900012    2    1    2    0    0 -0.13761692543E+02 -0.79952444391E+00  0.12675423350E+02  0.72461287046E+02  0.69999631015E+02 0.  0.
        -12    1    1    2    0    0  0.13761692543E+02  0.79952444391E+00 -0.12675423350E+02  0.18726712954E+02  0.00000000000E+00 0.  1.
         11    1    3    3    0    0 -0.93422560886E+01  0.15039432349E+01  0.11680235174E+02  0.15032215008E+02  0.51100000000E-03 0. -1.
        -11    1    3    3    0    0 -0.23450464841E+02 -0.10248391079E+02  0.17509727865E+02  0.31008779260E+02  0.51100000000E-03 0.  1.
         12    1    3    3    0    0  0.19031028387E+02  0.79449233999E+01 -0.16514539690E+02  0.26420292778E+02  0.00000000000E+00 0. -1.
</event>
<event>
 7    1  0.2039169E-013  0.7246165E+02  0.7816164E-02  0.1226708E+00
        -11   -1    0    0    0    0  0.00000000000E+00  0.00000000000E+00  0.45593999997E+02  0.45594000000E+02  0.51100000000E-03 0. -1.
         11   -1    0    0    0    0 -0.00000000000E+00 -0.00000000000E+00 -0.45593999997E+02  0.45594000000E+02  0.51100000000E-03 0.  1.
    9900012    2    1    2    0    0  0.12539218614E+02 -0.79209954411E+01  0.11432492899E+02  0.72461653156E+02  0.70000107943E+02 0.  0.
        -12    1    1    2    0    0 -0.12539218614E+02  0.79209954411E+01 -0.11432492899E+02  0.18726346844E+02  0.00000000000E+00 0.  1.
         11    1    3    3    0    0  0.27135107087E+02 -0.70625002186E+01  0.18387702613E+02  0.33530591310E+02  0.51100000000E-03 0. -1.
        -11    1    3    3    0    0  0.99209804016E+01  0.27808911183E+01 -0.95008174503E+01  0.14015161077E+02  0.51100000000E-03 0.  1.
        -12    1    3    3    0    0 -0.24516868875E+02 -0.36393863408E+01  0.25456077366E+01  0.24915900769E+02  0.00000000000E+00 0.  1.
</event>
<event>
 7    1  0.1789107E-013  0.7246152E+02  0.7816164E-02  0.1226708E+00
        -11   -1    0    0    0    0  0.00000000000E+00  0.00000000000E+00  0.45593999997E+02  0.45594000000E+02  0.51100000000E-03 0. -1.
         11   -1    0    0    0    0 -0.00000000000E+00 -0.00000000000E+00 -0.45593999997E+02  0.45594000000E+02  0.51100000000E-03 0.  1.
    9900012    2    1    2    0    0 -0.13688250498E+02  0.35321063615E+01 -0.12281572587E+02  0.72461521360E+02  0.69999936254E+02 0.  0.
        -12    1    1    2    0    0  0.13688250498E+02 -0.35321063615E+01  0.12281572587E+02  0.18726478640E+02  0.00000000000E+00 0.  1.
         11    1    3    3    0    0 -0.16431635782E+02  0.56775862717E+01  0.30156526912E+01  0.17644483607E+02  0.51100000000E-03 0. -1.
        -11    1    3    3    0    0 -0.15989655594E+02 -0.42100627281E+01 -0.27697143805E+02  0.32257177331E+02  0.51100000000E-03 0.  1.
         12    1    3    3    0    0  0.18733040879E+02  0.20645828180E+01  0.12399918526E+02  0.22559860421E+02  0.00000000000E+00 0. -1.
</event>
<event>
 7    1  0.1789107E-013  0.7246157E+02  0.7816164E-02  0.1226708E+00
        -11   -1    0    0    0    0  0.00000000000E+00  0.00000000000E+00  0.45593999997E+02  0.45594000000E+02  0.51100000000E-03 0. -1.
         11   -1    0    0    0    0 -0.00000000000E+00 -0.00000000000E+00 -0.45593999997E+02  0.45594000000E+02  0.51100000000E-03 0.  1.
    9900012    2    1    2    0    0  0.12273166604E+02  0.10318091517E+02  0.96739650183E+01  0.72461568673E+02  0.69999997888E+02 0.  0.
        -12    1    1    2    0    0 -0.12273166604E+02 -0.10318091517E+02 -0.96739650183E+01  0.18726431327E+02  0.00000000000E+00 0.  1.
         11    1    3    3    0    0 -0.56312692453E+01  0.21954053060E+02  0.16599420708E+02  0.28093280463E+02  0.51100000000E-03 0. -1.
        -11    1    3    3    0    0  0.15780377552E+02 -0.12552630719E+02  0.13206432464E+02  0.24103914876E+02  0.51100000000E-03 0.  1.
        -12    1    3    3    0    0  0.21240582974E+01  0.91666917575E+00 -0.20131888153E+02  0.20264373335E+02  0.00000000000E+00 0.  1.
</event>
<event>
 7    1  0.1789107E-013  0.7246153E+02  0.7816164E-02  0.1226708E+00
        -11   -1    0    0    0    0  0.00000000000E+00  0.00000000000E+00  0.45593999997E+02  0.45594000000E+02  0.51100000000E-03 0.  1.
         11   -1    0    0    0    0 -0.00000000000E+00 -0.00000000000E+00 -0.45593999997E+02  0.45594000000E+02  0.51100000000E-03 0. -1.
    9900012    2    1    2    0    0  0.12709171160E+02 -0.15713608792E+01 -0.13663396832E+02  0.72461531578E+02  0.69999949564E+02 0.  0.
        -12    1    1    2    0    0 -0.12709171160E+02  0.15713608792E+01  0.13663396832E+02  0.18726468422E+02  0.00000000000E+00 0.  1.
         11    1    3    3    0    0  0.54009165127E+01  0.12033416694E+02  0.63294285764E+01  0.14629924226E+02  0.51100000000E-03 0. -1.
        -11    1    3    3    0    0 -0.19421953523E+02 -0.12674744855E+02  0.18974058498E+01  0.23269327128E+02  0.51100000000E-03 0.  1.
         12    1    3    3    0    0  0.26730208170E+02 -0.93003271842E+00 -0.21890231258E+02  0.34562280223E+02  0.00000000000E+00 0. -1.
</event>
<event>
 7    1  0.1789107E-013  0.7246156E+02  0.7816164E-02  0.1226708E+00
        -11   -1    0    0    0    0  0.00000000000E+00  0.00000000000E+00  0.45593999997E+02  0.45594000000E+02  0.51100000000E-03 0.  1.
         11   -1    0    0    0    0 -0.00000000000E+00 -0.00000000000E+00 -0.45593999997E+02  0.45594000000E+02  0.51100000000E-03 0. -1.
    9900012    2    1    2    0    0 -0.97286101683E+01  0.58568717394E+01 -0.14890631625E+02  0.72461555795E+02  0.69999981111E+02 0.  0.
        -12    1    1    2    0    0  0.97286101683E+01 -0.58568717394E+01  0.14890631625E+02  0.18726444205E+02  0.00000000000E+00 0.  1.
         11    1    3    3    0    0 -0.96413638020E+01 -0.51384115646E+01 -0.16174982977E+02  0.19518945769E+02  0.51100000000E-03 0. -1.
        -11    1    3    3    0    0 -0.13969001433E+02 -0.16784460738E+02  0.14787494714E+01  0.21886932712E+02  0.51100000000E-03 0.  1.
         12    1    3    3    0    0  0.13881755067E+02  0.27779744042E+02 -0.19439812017E+00  0.31055677313E+02  0.00000000000E+00 0. -1.
</event>
<event>
 7    1  0.1789107E-013  0.7246155E+02  0.7816164E-02  0.1226708E+00
        -11   -1    0    0    0    0  0.00000000000E+00  0.00000000000E+00  0.45593999997E+02  0.45594000000E+02  0.51100000000E-03 0. -1.
         11   -1    0    0    0    0 -0.00000000000E+00 -0.00000000000E+00 -0.45593999997E+02  0.45594000000E+02  0.51100000000E-03 0.  1.
    9900012    2    1    2    0    0 -0.50298075861E+01  0.67098615334E-01  0.18038195301E+02  0.72461549287E+02  0.69999972634E+02 0.  0.
        -12    1    1    2    0    0  0.50298075861E+01 -0.67098615334E-01 -0.18038195301E+02  0.18726450713E+02  0.00000000000E+00 0.  1.
         11    1    3    3    0    0 -0.75538244180E+01  0.20218042955E+02  0.88899655289E+01  0.23342258066E+02  0.51100000000E-03 0. -1.
        -11    1    3    3    0    0 -0.56500463692E+01 -0.15751506417E+02  0.25391933088E+02  0.30410249005E+02  0.51100000000E-03 0.  1.
         12    1    3    3    0    0  0.81740632011E+01 -0.43994379225E+01 -0.16243703315E+02  0.18709042216E+02  0.00000000000E+00 0. -1.
</event>
<event>
 7    1  0.1789107E-013  0.7246157E+02  0.7816164E-02  0.1226708E+00
        -11   -1    0    0    0    0  0.00000000000E+00  0.00000000000E+00  0.45593999997E+02  0.45594000000E+02  0.51100000000E-03 0. -1.
         11   -1    0    0    0    0 -0.00000000000E+00 -0.00000000000E+00 -0.45593999997E+02  0.45594000000E+02  0.51100000000E-03 0.  1.
    9900012    2    1    2    0    0  0.11892710409E+01  0.18544733007E+02 -0.23146388831E+01  0.72461573724E+02  0.70000004467E+02 0.  0.
        -12    1    1    2    0    0 -0.11892710409E+01 -0.18544733007E+02  0.23146388831E+01  0.18726426276E+02  0.00000000000E+00 0.  1.
         11    1    3    3    0    0 -0.82383181568E+01 -0.77099043453E+01 -0.73932973230E+01  0.13489750058E+02  0.51100000000E-03 0. -1.
        -11    1    3    3    0    0  0.58659093254E+01 -0.12581663555E+02  0.13177638758E+02  0.19140462731E+02  0.51100000000E-03 0.  1.
         12    1    3    3    0    0  0.35616798722E+01  0.38836300908E+02 -0.80989803186E+01  0.39831360935E+02  0.00000000000E+00 0. -1.
</event>
<event>
 7    1  0.1789107E-013  0.7246156E+02  0.7816164E-02  0.1226708E+00
        -11   -1    0    0    0    0  0.00000000000E+00  0.00000000000E+00  0.45593999997E+02  0.45594000000E+02  0.51100000000E-03 0. -1.
         11   -1    0    0    0    0 -0.00000000000E+00 -0.00000000000E+00 -0.45593999997E+02  0.45594000000E+02  0.51100000000E-03 0.  1.
    9900012    2    1    2    0    0  0.82557732599E+01 -0.97889185430E+01  0.13663773187E+02  0.72461563711E+02  0.69999991425E+02 0.  0.
        -12    1    1    2    0    0 -0.82557732599E+01  0.97889185430E+01 -0.13663773187E+02  0.18726436289E+02  0.00000000000E+00 0.  1.
         11    1    3    3    0    0 -0.10484014129E+01 -0.55689960849E+00  0.16226093004E+02  0.16269461489E+02  0.51100000000E-03 0. -1.
        -11    1    3    3    0    0 -0.13625922080E+02  0.16011636285E+02  0.41608243118E+01  0.21432468553E+02  0.51100000000E-03 0.  1.
        -12    1    3    3    0    0  0.22930096752E+02 -0.25243655220E+02 -0.67231441285E+01  0.34759633670E+02  0.00000000000E+00 0.  1.
</event>
<event>
 7    1  0.1789107E-013  0.7246162E+02  0.7816164E-02  0.1226708E+00
        -11   -1    0    0    0    0  0.00000000000E+00  0.00000000000E+00  0.45593999997E+02  0.45594000000E+02  0.51100000000E-03 0. -1.
         11   -1    0    0    0    0 -0.00000000000E+00 -0.00000000000E+00 -0.45593999997E+02  0.45594000000E+02  0.51100000000E-03 0.  1.
    9900012    2    1    2    0    0 -0.77690286893E+00 -0.14183325686E+02  0.12202752189E+02  0.72461615764E+02  0.70000059233E+02 0.  0.
        -12    1    1    2    0    0  0.77690286893E+00  0.14183325686E+02 -0.12202752189E+02  0.18726384236E+02  0.00000000000E+00 0.  1.
         11    1    3    3    0    0 -0.63318823911E+01  0.49185311931E+01 -0.12992067885E+02  0.15266909049E+02  0.51100000000E-03 0. -1.
        -11    1    3    3    0    0 -0.16066982286E+02  0.15688754498E+01 -0.26121357808E+01  0.16353364900E+02  0.51100000000E-03 0.  1.
         12    1    3    3    0    0  0.21621961808E+02 -0.20670732329E+02  0.27806955854E+02  0.40841341816E+02  0.00000000000E+00 0. -1.
</event>
<event>
 7    1  0.1789107E-013  0.7246161E+02  0.7816164E-02  0.1226708E+00
        -11   -1    0    0    0    0  0.00000000000E+00  0.00000000000E+00  0.45593999997E+02  0.45594000000E+02  0.51100000000E-03 0.  1.
         11   -1    0    0    0    0 -0.00000000000E+00 -0.00000000000E+00 -0.45593999997E+02  0.45594000000E+02  0.51100000000E-03 0. -1.
    9900012    2    1    2    0    0  0.16479573871E+02 -0.88938804689E+01  0.19160434381E-01  0.72461606009E+02  0.70000046525E+02 0.  0.
        -12    1    1    2    0    0 -0.16479573871E+02  0.88938804689E+01 -0.19160434381E-01  0.18726393991E+02  0.00000000000E+00 0.  1.
         11    1    3    3    0    0  0.88012867823E+01  0.14175643001E+02  0.42358131229E+01  0.17214924240E+02  0.51100000000E-03 0. -1.
        -11    1    3    3    0    0 -0.12587111795E+01  0.13593144953E+02  0.77005711461E+01  0.15673440585E+02  0.51100000000E-03 0.  1.
         12    1    3    3    0    0  0.89369982683E+01 -0.36662668423E+02 -0.11917223835E+02  0.39573241184E+02  0.00000000000E+00 0. -1.
</event>
<event>
 7    1  0.1789107E-013  0.7246162E+02  0.7816164E-02  0.1226708E+00
        -11   -1    0    0    0    0  0.00000000000E+00  0.00000000000E+00  0.45593999997E+02  0.45594000000E+02  0.51100000000E-03 0. -1.
         11   -1    0    0    0    0 -0.00000000000E+00 -0.00000000000E+00 -0.45593999997E+02  0.45594000000E+02  0.51100000000E-03 0.  1.
    9900012    2    1    2    0    0  0.10961572064E+02 -0.35053460899E+01  0.14772735063E+02  0.72461622492E+02  0.70000067997E+02 0.  0.
        -12    1    1    2    0    0 -0.10961572064E+02  0.35053460899E+01 -0.14772735063E+02  0.18726377508E+02  0.00000000000E+00 0.  1.
         11    1    3    3    0    0  0.12331551892E+02 -0.17789471088E+02  0.26233416942E+02  0.34010654483E+02  0.51100000000E-03 0. -1.
        -11    1    3    3    0    0  0.13641919002E+02  0.78115672189E+01  0.37061534413E+01  0.16151102441E+02  0.51100000000E-03 0.  1.
         12    1    3    3    0    0 -0.15011898830E+02  0.64725577796E+01 -0.15166835320E+02  0.22299865567E+02  0.00000000000E+00 0. -1.
</event>
<event>
 7    1  0.1789107E-013  0.7246158E+02  0.7816164E-02  0.1226708E+00
        -11   -1    0    0    0    0  0.00000000000E+00  0.00000000000E+00  0.45593999997E+02  0.45594000000E+02  0.51100000000E-03 0.  1.
         11   -1    0    0    0    0 -0.00000000000E+00 -0.00000000000E+00 -0.45593999997E+02  0.45594000000E+02  0.51100000000E-03 0. -1.
    9900012    2    1    2    0    0 -0.67924594499E+01 -0.13181095797E+00 -0.17450613971E+02  0.72461579961E+02  0.70000012593E+02 0.  0.
        -12    1    1    2    0    0  0.67924594499E+01  0.13181095797E+00  0.17450613971E+02  0.18726420039E+02  0.00000000000E+00 0.  1.
         11    1    3    3    0    0  0.49330131641E+01 -0.16592665198E+01  0.15264091025E+02  0.16127004041E+02  0.51100000000E-03 0. -1.
        -11    1    3    3    0    0  0.50852308116E+00  0.16391399915E+02  0.21185285812E+01  0.16535560181E+02  0.51100000000E-03 0.  1.
         12    1    3    3    0    0 -0.12233995695E+02 -0.14863944353E+02 -0.34833233577E+02  0.39799015739E+02  0.00000000000E+00 0. -1.
</event>
<event>
 7    1  0.1789107E-013  0.7246170E+02  0.7816164E-02  0.1226708E+00
        -11   -1    0    0    0    0  0.00000000000E+00  0.00000000000E+00  0.45593999997E+02  0.45594000000E+02  0.51100000000E-03 0.  1.
         11   -1    0    0    0    0 -0.00000000000E+00 -0.00000000000E+00 -0.45593999997E+02  0.45594000000E+02  0.51100000000E-03 0. -1.
    9900012    2    1    2    0    0  0.41297387471E+01 -0.17712192074E+02  0.44607008846E+01  0.72461699176E+02  0.70000167892E+02 0.  0.
        -12    1    1    2    0    0 -0.41297387471E+01  0.17712192074E+02 -0.44607008846E+01  0.18726300824E+02  0.00000000000E+00 0.  1.
         11    1    3    3    0    0 -0.88202443582E+01 -0.20733105985E+02 -0.17614683205E+02  0.28599570958E+02  0.51100000000E-03 0. -1.
        -11    1    3    3    0    0  0.19597882673E+01 -0.14325151850E+02  0.10873262985E+01  0.14499414620E+02  0.51100000000E-03 0.  1.
        -12    1    3    3    0    0  0.10990194838E+02  0.17346065761E+02  0.20988057791E+02  0.29362713598E+02  0.00000000000E+00 0.  1.
</event>
<event>
 7    1  0.1789107E-013  0.7246170E+02  0.7816164E-02  0.1226708E+00
        -11   -1    0    0    0    0  0.00000000000E+00  0.00000000000E+00  0.45593999997E+02  0.45594000000E+02  0.51100000000E-03 0. -1.
         11   -1    0    0    0    0 -0.00000000000E+00 -0.00000000000E+00 -0.45593999997E+02  0.45594000000E+02  0.51100000000E-03 0.  1.
    9900012    2    1    2    0    0  0.76428390405E+01  0.38212657691E+01 -0.16663105614E+02  0.72461704334E+02  0.70000174611E+02 0.  0.
        -12    1    1    2    0    0 -0.76428390405E+01 -0.38212657691E+01  0.16663105614E+02  0.18726295666E+02  0.00000000000E+00 0.  1.
         11    1    3    3    0    0 -0.77709999184E+01 -0.36043503545E+01  0.71367467533E+01  0.11149571099E+02  0.51100000000E-03 0. -1.
        -11    1    3    3    0    0 -0.60420756713E+01 -0.16715817009E+02 -0.22917047256E+02  0.29002004619E+02  0.51100000000E-03 0.  1.
         12    1    3    3    0    0  0.21455914630E+02  0.24141433133E+02 -0.88280511037E+00  0.32310128616E+02  0.00000000000E+00 0. -1.
</event>
<event>
 7    1  0.1789107E-013  0.7246144E+02  0.7816164E-02  0.1226708E+00
        -11   -1    0    0    0    0  0.00000000000E+00  0.00000000000E+00  0.45593999997E+02  0.45594000000E+02  0.51100000000E-03 0. -1.
         11   -1    0    0    0    0 -0.00000000000E+00 -0.00000000000E+00 -0.45593999997E+02  0.45594000000E+02  0.51100000000E-03 0.  1.
    9900012    2    1    2    0    0  0.92744745981E+01  0.16218205096E+02  0.12798002672E+01  0.72461442806E+02  0.69999833923E+02 0.  0.
        -12    1    1    2    0    0 -0.92744745981E+01 -0.16218205096E+02 -0.12798002672E+01  0.18726557194E+02  0.00000000000E+00 0.  1.
         11    1    3    3    0    0 -0.11727277675E+02  0.44578649550E+01  0.46768846938E+01  0.13389355934E+02  0.51100000000E-03 0. -1.
        -11    1    3    3    0    0 -0.90034474309E+01  0.13564339047E+01 -0.20909482141E+02  0.22805885693E+02  0.51100000000E-03 0.  1.
         12    1    3    3    0    0  0.30005199704E+02  0.10403906236E+02  0.17512397714E+02  0.36266201179E+02  0.00000000000E+00 0. -1.
</event>
<event>
 7    1  0.2389388E-013  0.7246151E+02  0.7816164E-02  0.1226708E+00
        -11   -1    0    0    0    0  0.00000000000E+00  0.00000000000E+00  0.45593999997E+02  0.45594000000E+02  0.51100000000E-03 0. -1.
         11   -1    0    0    0    0 -0.00000000000E+00 -0.00000000000E+00 -0.45593999997E+02  0.45594000000E+02  0.51100000000E-03 0.  1.
    9900012    2    1    2    0    0 -0.83490799056E+01  0.10204822780E+02  0.13297959479E+02  0.72461514223E+02  0.69999926957E+02 0.  0.
        -12    1    1    2    0    0  0.83490799056E+01 -0.10204822780E+02 -0.13297959479E+02  0.18726485777E+02  0.00000000000E+00 0.  1.
         11    1    3    3    0    0 -0.25069077607E+02 -0.14198962229E+02  0.12458322899E+02  0.31389154022E+02  0.51100000000E-03 0. -1.
        -11    1    3    3    0    0 -0.53687771504E+01  0.14348516260E+02 -0.49900477044E+01  0.16112239550E+02  0.51100000000E-03 0.  1.
        -12    1    3    3    0    0  0.22088774852E+02  0.10055268749E+02  0.58296842841E+01  0.24960120652E+02  0.00000000000E+00 0.  1.
</event>
<event>
 7    1  0.1789107E-013  0.7246177E+02  0.7816164E-02  0.1226707E+00
        -11   -1    0    0    0    0  0.00000000000E+00  0.00000000000E+00  0.45593999997E+02  0.45594000000E+02  0.51100000000E-03 0. -1.
         11   -1    0    0    0    0 -0.00000000000E+00 -0.00000000000E+00 -0.45593999997E+02  0.45594000000E+02  0.51100000000E-03 0.  1.
    9900012    2    1    2    0    0 -0.16956924105E+02 -0.75488434794E+01  0.24797801015E+01  0.72461771807E+02  0.70000262507E+02 0.  0.
        -12    1    1    2    0    0  0.16956924105E+02  0.75488434794E+01 -0.24797801015E+01  0.18726228193E+02  0.00000000000E+00 0.  1.
         11    1    3    3    0    0 -0.73858017115E+01 -0.90101157653E+01 -0.10669749382E+02  0.15797968387E+02  0.51100000000E-03 0. -1.
        -11    1    3    3    0    0 -0.40955262407E+01 -0.26365346081E+02  0.78531603686E+01  0.27813251108E+02  0.51100000000E-03 0.  1.
         12    1    3    3    0    0 -0.54755961531E+01  0.27826618366E+02  0.52963691145E+01  0.28850552313E+02  0.00000000000E+00 0. -1.
</event>
<event>
 7    1  0.1789107E-013  0.7246156E+02  0.7816164E-02  0.1226708E+00
        -11   -1    0    0    0    0  0.00000000000E+00  0.00000000000E+00  0.45593999997E+02  0.45594000000E+02  0.51100000000E-03 0.  1.
         11   -1    0    0    0    0 -0.00000000000E+00 -0.00000000000E+00 -0.45593999997E+02  0.45594000000E+02  0.51100000000E-03 0. -1.
    9900012    2    1    2    0    0  0.12590827193E+02 -0.10605135498E+02 -0.89264616627E+01  0.72461560238E+02  0.69999986900E+02 0.  0.
        -12    1    1    2    0    0 -0.12590827193E+02  0.10605135498E+02  0.89264616627E+01  0.18726439762E+02  0.00000000000E+00 0.  1.
         11    1    3    3    0    0  0.19164378529E+01 -0.28007541595E+02 -0.17290919195E+02  0.32970759881E+02  0.51100000000E-03 0. -1.
        -11    1    3    3    0    0 -0.21503207629E+01 -0.88385284148E+01 -0.47185461494E-01  0.90964658330E+01  0.51100000000E-03 0.  1.
        -12    1    3    3    0    0  0.12824710103E+02  0.26240934512E+02  0.84116429939E+01  0.30394334524E+02  0.00000000000E+00 0.  1.
</event>
<event>
 7    1  0.1789107E-013  0.7246160E+02  0.7816164E-02  0.1226708E+00
        -11   -1    0    0    0    0  0.00000000000E+00  0.00000000000E+00  0.45593999997E+02  0.45594000000E+02  0.51100000000E-03 0.  1.
         11   -1    0    0    0    0 -0.00000000000E+00 -0.00000000000E+00 -0.45593999997E+02  0.45594000000E+02  0.51100000000E-03 0. -1.
    9900012    2    1    2    0    0 -0.91971608404E+00 -0.28296553900E+01 -0.18488519454E+02  0.72461596744E+02  0.70000034456E+02 0.  0.
        -12    1    1    2    0    0  0.91971608404E+00  0.28296553900E+01  0.18488519454E+02  0.18726403256E+02  0.00000000000E+00 0.  1.
         11    1    3    3    0    0  0.69565243540E+01 -0.22689668636E+02 -0.14908286164E+02  0.28026260730E+02  0.51100000000E-03 0. -1.
        -11    1    3    3    0    0 -0.46617586504E+01  0.24339547626E+02 -0.16915870425E+02  0.30004870352E+02  0.51100000000E-03 0.  1.
        -12    1    3    3    0    0 -0.32144817876E+01 -0.44795343801E+01  0.13335637135E+02  0.14430465662E+02  0.00000000000E+00 0.  1.
</event>
<event>
 7    1  0.1789107E-013  0.7246153E+02  0.7816164E-02  0.1226708E+00
        -11   -1    0    0    0    0  0.00000000000E+00  0.00000000000E+00  0.45593999997E+02  0.45594000000E+02  0.51100000000E-03 0.  1.
         11   -1    0    0    0    0 -0.00000000000E+00 -0.00000000000E+00 -0.45593999997E+02  0.45594000000E+02  0.51100000000E-03 0. -1.
    9900012    2    1    2    0    0  0.16886738801E+02  0.71414550197E+01 -0.38103094174E+01  0.72461527161E+02  0.69999943811E+02 0.  0.
        -12    1    1    2    0    0 -0.16886738801E+02 -0.71414550197E+01  0.38103094174E+01  0.18726472839E+02  0.00000000000E+00 0.  1.
         11    1    3    3    0    0  0.28727018549E+02 -0.71457081006E+01 -0.44052956962E+01  0.29928404057E+02  0.51100000000E-03 0. -1.
        -11    1    3    3    0    0  0.12074681168E+02  0.42528488615E+01  0.85633664192E+01  0.15401814615E+02  0.51100000000E-03 0.  1.
         12    1    3    3    0    0 -0.23914960916E+02  0.10034314259E+02 -0.79683801404E+01  0.27131308489E+02  0.00000000000E+00 0. -1.
</event>
<event>
 7    1  0.1789107E-013  0.7246166E+02  0.7816164E-02  0.1226708E+00
        -11   -1    0    0    0    0  0.00000000000E+00  0.00000000000E+00  0.45593999997E+02  0.45594000000E+02  0.51100000000E-03 0.  1.
         11   -1    0    0    0    0 -0.00000000000E+00 -0.00000000000E+00 -0.45593999997E+02  0.45594000000E+02  0.51100000000E-03 0. -1.
    9900012    2    1    2    0    0  0.67504778460E+01 -0.15740360408E+02 -0.75728304310E+01  0.72461664062E+02  0.70000122150E+02 0.  0.
        -12    1    1    2    0    0 -0.67504778460E+01  0.15740360408E+02  0.75728304310E+01  0.18726335938E+02  0.00000000000E+00 0.  1.
         11    1    3    3    0    0  0.12633586898E+02 -0.11468632924E+02  0.76746871353E+00  0.17079990268E+02  0.51100000000E-03 0. -1.
        -11    1    3    3    0    0  0.64318867833E+01 -0.27220069749E+02  0.20900831196E+00  0.27970431700E+02  0.51100000000E-03 0.  1.
        -12    1    3    3    0    0 -0.12314995835E+02  0.22948342266E+02 -0.85493074565E+01  0.27411242094E+02  0.00000000000E+00 0.  1.
</event>
<event>
 7    1  0.1789107E-013  0.7246147E+02  0.7816164E-02  0.1226708E+00
        -11   -1    0    0    0    0  0.00000000000E+00  0.00000000000E+00  0.45593999997E+02  0.45594000000E+02  0.51100000000E-03 0. -1.
         11   -1    0    0    0    0 -0.00000000000E+00 -0.00000000000E+00 -0.45593999997E+02  0.45594000000E+02  0.51100000000E-03 0.  1.
    9900012    2    1    2    0    0 -0.47061393165E+01 -0.17366902512E+02  0.51890132452E+01  0.72461470461E+02  0.69999869948E+02 0.  0.
        -12    1    1    2    0    0  0.47061393165E+01  0.17366902512E+02 -0.51890132452E+01  0.18726529539E+02  0.00000000000E+00 0.  1.
         11    1    3    3    0    0  0.10444035174E+02 -0.35883541825E+02 -0.40911647687E+01  0.37595798622E+02  0.51100000000E-03 0. -1.
        -11    1    3    3    0    0 -0.29150770711E+01 -0.37157132111E+00 -0.66653988775E+01  0.72844548207E+01  0.51100000000E-03 0.  1.
        -12    1    3    3    0    0 -0.12235097419E+02  0.18888210634E+02  0.15945576891E+02  0.27581217018E+02  0.00000000000E+00 0.  1.
</event>
<event>
 7    1  0.1789107E-013  0.7246164E+02  0.7816164E-02  0.1226708E+00
        -11   -1    0    0    0    0  0.00000000000E+00  0.00000000000E+00  0.45593999997E+02  0.45594000000E+02  0.51100000000E-03 0. -1.
         11   -1    0    0    0    0 -0.00000000000E+00 -0.00000000000E+00 -0.45593999997E+02  0.45594000000E+02  0.51100000000E-03 0.  1.
    9900012    2    1    2    0    0  0.11199611294E+02 -0.53834471187E+01 -0.14009421187E+02  0.72461636819E+02  0.70000086660E+02 0.  0.
        -12    1    1    2    0    0 -0.11199611294E+02  0.53834471187E+01  0.14009421187E+02  0.18726363181E+02  0.00000000000E+00 0.  1.
         11    1    3    3    0    0  0.13044560337E+01 -0.11414840295E+02  0.10318752464E+02  0.15442695270E+02  0.51100000000E-03 0. -1.
        -11    1    3    3    0    0  0.61923611411E+01 -0.20959992019E+02 -0.22863266854E+01  0.21974846801E+02  0.51100000000E-03 0.  1.
        -12    1    3    3    0    0  0.37027941188E+01  0.26991385196E+02 -0.22041846966E+02  0.35044094748E+02  0.00000000000E+00 0.  1.
</event>
<event>
 7    1  0.1789107E-013  0.7246157E+02  0.7816164E-02  0.1226708E+00
        -11   -1    0    0    0    0  0.00000000000E+00  0.00000000000E+00  0.45593999997E+02  0.45594000000E+02  0.51100000000E-03 0. -1.
         11   -1    0    0    0    0 -0.00000000000E+00 -0.00000000000E+00 -0.45593999997E+02  0.45594000000E+02  0.51100000000E-03 0.  1.
    9900012    2    1    2    0    0  0.87916141448E+01  0.56996482098E+01  0.15520976998E+02  0.72461569589E+02  0.69999999081E+02 0.  0.
        -12    1    1    2    0    0 -0.87916141448E+01 -0.56996482098E+01 -0.15520976998E+02  0.18726430411E+02  0.00000000000E+00 0.  1.
         11    1    3    3    0    0  0.14660723900E+01 -0.18564306494E+02  0.57199873581E+01  0.19480787959E+02  0.51100000000E-03 0. -1.
        -11    1    3    3    0    0  0.11065793916E+02  0.58195671864E+01 -0.16461531137E+02  0.20671264230E+02  0.51100000000E-03 0.  1.
         12    1    3    3    0    0 -0.37402521614E+01  0.18444387517E+02  0.26262520776E+02  0.32309517400E+02  0.00000000000E+00 0. -1.
</event>
<event>
 7    1  0.1789107E-013  0.7246155E+02  0.7816164E-02  0.1226708E+00
        -11   -1    0    0    0    0  0.00000000000E+00  0.00000000000E+00  0.45593999997E+02  0.45594000000E+02  0.51100000000E-03 0. -1.
         11   -1    0    0    0    0 -0.00000000000E+00 -0.00000000000E+00 -0.45593999997E+02  0.45594000000E+02  0.51100000000E-03 0.  1.
    9900012    2    1    2    0    0 -0.15820088856E+02 -0.66358120725E+01 -0.75080551703E+01  0.72461545298E+02  0.69999967438E+02 0.  0.
        -12    1    1    2    0    0  0.15820088856E+02  0.66358120725E+01  0.75080551703E+01  0.18726454702E+02  0.00000000000E+00 0.  1.
         11    1    3    3    0    0 -0.45614078271E+01  0.16367879842E+02 -0.39050543725E+01  0.17434545643E+02  0.51100000000E-03 0. -1.
        -11    1    3    3    0    0  0.13737997031E+02  0.47208277838E+01  0.71346177964E+01  0.16183990508E+02  0.51100000000E-03 0.  1.
        -12    1    3    3    0    0 -0.24996678060E+02 -0.27724519698E+02 -0.10737618594E+02  0.38843009147E+02  0.00000000000E+00 0.  1.
</event>
<event>
 7    1  0.1789107E-013  0.7246143E+02  0.7816164E-02  0.1226708E+00
        -11   -1    0    0    0    0  0.00000000000E+00  0.00000000000E+00  0.45593999997E+02  0.45594000000E+02  0.51100000000E-03 0. -1.
         11   -1    0    0    0    0 -0.00000000000E+00 -0.00000000000E+00 -0.45593999997E+02  0.45594000000E+02  0.51100000000E-03 0.  1.
    9900012    2    1    2    0    0 -0.14486911927E+02  0.60982554825E+01  0.10179640009E+02  0.72461430431E+02  0.69999817802E+02 0.  0.
        -12    1    1    2    0    0  0.14486911927E+02 -0.60982554825E+01 -0.10179640009E+02  0.18726569569E+02  0.00000000000E+00 0.  1.
         11    1    3    3    0    0 -0.57954222290E-01 -0.14738678619E+01  0.79846799961E+01  0.81197758631E+01  0.51100000000E-03 0. -1.
        -11    1    3    3    0    0 -0.19577320275E+02  0.31953704780E+02 -0.63291310309E+01  0.38004849930E+02  0.51100000000E-03 0.  1.
         12    1    3    3    0    0  0.51483625704E+01 -0.24381581435E+02  0.85240910434E+01  0.26336804639E+02  0.00000000000E+00 0. -1.
</event>
<event>
 7    1  0.1789107E-013  0.7246154E+02  0.7816164E-02  0.1226708E+00
        -11   -1    0    0    0    0  0.00000000000E+00  0.00000000000E+00  0.45593999997E+02  0.45594000000E+02  0.51100000000E-03 0. -1.
         11   -1    0    0    0    0 -0.00000000000E+00 -0.00000000000E+00 -0.45593999997E+02  0.45594000000E+02  0.51100000000E-03 0.  1.
    9900012    2    1    2    0    0 -0.43889511315E+01 -0.38177451403E+01  0.17800063162E+02  0.72461539615E+02  0.69999960034E+02 0.  0.
        -12    1    1    2    0    0  0.43889511315E+01  0.38177451403E+01 -0.17800063162E+02  0.18726460385E+02  0.00000000000E+00 0.  1.
         11    1    3    3    0    0  0.79694556855E+01  0.14540858192E+02  0.14442876798E+02  0.21989667377E+02  0.51100000000E-03 0. -1.
        -11    1    3    3    0    0  0.65763667301E-01  0.50827363079E+01  0.19003430553E+02  0.19671525266E+02  0.51100000000E-03 0.  1.
        -12    1    3    3    0    0 -0.12424170484E+02 -0.23441339640E+02 -0.15646244189E+02  0.30800346972E+02  0.00000000000E+00 0.  1.
</event>
<event>
 7    1  0.1789107E-013  0.7246165E+02  0.7816164E-02  0.1226708E+00
        -11   -1    0    0    0    0  0.00000000000E+00  0.00000000000E+00  0.45593999997E+02  0.45594000000E+02  0.51100000000E-03 0.  1.
         11   -1    0    0    0    0 -0.00000000000E+00 -0.00000000000E+00 -0.45593999997E+02  0.45594000000E+02  0.51100000000E-03 0. -1.
    9900012    2    1    2    0    0 -0.18678879550E+01  0.17082430710E+02  0.74416219428E+01  0.72461650075E+02  0.70000103929E+02 0.  0.
        -12    1    1    2    0    0  0.18678879550E+01 -0.17082430710E+02 -0.74416219428E+01  0.18726349925E+02  0.00000000000E+00 0.  1.
         11    1    3    3    0    0  0.61353801111E+01  0.95024446532E+01  0.20994393568E+02  0.23847513603E+02  0.51100000000E-03 0. -1.
        -11    1    3    3    0    0 -0.11091188237E+02  0.18407665332E+02  0.90839418538E+01  0.23331836605E+02  0.51100000000E-03 0.  1.
         12    1    3    3    0    0  0.30879201712E+01 -0.10827679275E+02 -0.22636713479E+02  0.25282299868E+02  0.00000000000E+00 0. -1.
</event>
<event>
 7    1  0.1789107E-013  0.7246149E+02  0.7816164E-02  0.1226708E+00
        -11   -1    0    0    0    0  0.00000000000E+00  0.00000000000E+00  0.45593999997E+02  0.45594000000E+02  0.51100000000E-03 0.  1.
         11   -1    0    0    0    0 -0.00000000000E+00 -0.00000000000E+00 -0.45593999997E+02  0.45594000000E+02  0.51100000000E-03 0. -1.
    9900012    2    1    2    0    0  0.24519383357E+01 -0.11755067309E+02 -0.14369715451E+02  0.72461485877E+02  0.69999890031E+02 0.  0.
        -12    1    1    2    0    0 -0.24519383357E+01  0.11755067309E+02  0.14369715451E+02  0.18726514123E+02  0.00000000000E+00 0.  1.
         11    1    3    3    0    0  0.29698564210E+01 -0.50227904784E+01  0.14981813046E+00  0.58370298170E+01  0.51100000000E-03 0. -1.
        -11    1    3    3    0    0  0.28570988707E+02  0.11339813267E+02 -0.80103088876E+01  0.31765670296E+02  0.51100000000E-03 0.  1.
         12    1    3    3    0    0 -0.29088906792E+02 -0.18072090098E+02 -0.65092246940E+01  0.34858785764E+02  0.00000000000E+00 0. -1.
</event>
<event>
 7    1  0.1789107E-013  0.7246153E+02  0.7816164E-02  0.1226708E+00
        -11   -1    0    0    0    0  0.00000000000E+00  0.00000000000E+00  0.45593999997E+02  0.45594000000E+02  0.51100000000E-03 0. -1.
         11   -1    0    0    0    0 -0.00000000000E+00 -0.00000000000E+00 -0.45593999997E+02  0.45594000000E+02  0.51100000000E-03 0.  1.
    9900012    2    1    2    0    0  0.53183538853E+01  0.17199229146E+02 -0.51557988746E+01  0.72461531211E+02  0.69999949087E+02 0.  0.
        -12    1    1    2    0    0 -0.53183538853E+01 -0.17199229146E+02  0.51557988746E+01  0.18726468789E+02  0.00000000000E+00 0.  1.
         11    1    3    3    0    0  0.29150521256E+02  0.18717179265E+02  0.81677633181E+01  0.35592106527E+02  0.51100000000E-03 0. -1.
        -11    1    3    3    0    0  0.77324074625E+00  0.79358607560E+01 -0.39034780458E+01  0.88776645749E+01  0.51100000000E-03 0.  1.
        -12    1    3    3    0    0 -0.24605408117E+02 -0.94538108755E+01 -0.94200841469E+01  0.27991760109E+02  0.00000000000E+00 0.  1.
</event>
<event>
 7    1  0.1789107E-013  0.7246156E+02  0.7816164E-02  0.1226708E+00
        -11   -1    0    0    0    0  0.00000000000E+00  0.00000000000E+00  0.45593999997E+02  0.45594000000E+02  0.51100000000E-03 0. -1.
         11   -1    0    0    0    0 -0.00000000000E+00 -0.00000000000E+00 -0.45593999997E+02  0.45594000000E+02  0.51100000000E-03 0.  1.
    9900012    2    1    2    0    0 -0.14766877584E+02 -0.75650833681E+01  0.86826531073E+01  0.72461558135E+02  0.69999984160E+02 0.  0.
        -12    1    1    2    0    0  0.14766877584E+02  0.75650833681E+01 -0.86826531073E+01  0.18726441865E+02  0.00000000000E+00 0.  1.
         11    1    3    3    0    0 -0.34186121597E+01  0.15194595130E+02  0.96611620807E+00  0.15604358720E+02  0.51100000000E-03 0. -1.
        -11    1    3    3    0    0  0.80789893644E+01 -0.11210907557E+02 -0.17953466878E+02  0.22655716511E+02  0.51100000000E-03 0.  1.
         12    1    3    3    0    0 -0.19427254789E+02 -0.11548770941E+02  0.25670003777E+02  0.34201482904E+02  0.00000000000E+00 0. -1.
</event>
<event>
 7    1  0.1789107E-013  0.7246158E+02  0.7816164E-02  0.1226708E+00
        -11   -1    0    0    0    0  0.00000000000E+00  0.00000000000E+00  0.45593999997E+02  0.45594000000E+02  0.51100000000E-03 0. -1.
         11   -1    0    0    0    0 -0.00000000000E+00 -0.00000000000E+00 -0.45593999997E+02  0.45594000000E+02  0.51100000000E-03 0.  1.
    9900012    2    1    2    0    0  0.12298769745E+02 -0.36353446343E+01  0.13645639074E+02  0.72461576594E+02  0.70000008206E+02 0.  0.
        -12    1    1    2    0    0 -0.12298769745E+02  0.36353446343E+01 -0.13645639074E+02  0.18726423406E+02  0.00000000000E+00 0.  1.
         11    1    3    3    0    0  0.19985517591E+02 -0.27572993551E+02  0.25465127662E+01  0.34149313525E+02  0.51100000000E-03 0. -1.
        -11    1    3    3    0    0  0.43384101233E+01 -0.42153786492E+01  0.15633668382E+01  0.62478264769E+01  0.51100000000E-03 0.  1.
        -12    1    3    3    0    0 -0.12025157969E+02  0.28153027565E+02  0.95357594691E+01  0.32064436592E+02  0.00000000000E+00 0.  1.
</event>
<event>
 7    1  0.1789107E-013  0.7246155E+02  0.7816164E-02  0.1226708E+00
        -11   -1    0    0    0    0  0.00000000000E+00  0.00000000000E+00  0.45593999997E+02  0.45594000000E+02  0.51100000000E-03 0.  1.
         11   -1    0    0    0    0 -0.00000000000E+00 -0.00000000000E+00 -0.45593999997E+02  0.45594000000E+02  0.51100000000E-03 0. -1.
    9900012    2    1    2    0    0 -0.10620166772E+02  0.97407276184E+01 -0.11958690322E+02  0.72461548360E+02  0.69999971426E+02 0.  0.
        -12    1    1    2    0    0  0.10620166772E+02 -0.97407276184E+01  0.11958690322E+02  0.18726451640E+02  0.00000000000E+00 0.  1.
         11    1    3    3    0    0  0.19992113415E+01 -0.12795342809E+02  0.10230321959E+02  0.16503852012E+02  0.51100000000E-03 0. -1.
        -11    1    3    3    0    0 -0.19481863043E+02  0.58162657946E+01  0.71047870494E+01  0.21537175643E+02  0.51100000000E-03 0.  1.
         12    1    3    3    0    0  0.68624849292E+01  0.16719804633E+02 -0.29293799330E+02  0.34420520705E+02  0.00000000000E+00 0. -1.
</event>
<event>
 7    1  0.1789107E-013  0.7246143E+02  0.7816164E-02  0.1226708E+00
        -11   -1    0    0    0    0  0.00000000000E+00  0.00000000000E+00  0.45593999997E+02  0.45594000000E+02  0.51100000000E-03 0.  1.
         11   -1    0    0    0    0 -0.00000000000E+00 -0.00000000000E+00 -0.45593999997E+02  0.45594000000E+02  0.51100000000E-03 0. -1.
    9900012    2    1    2    0    0 -0.12067115527E+02  0.23950060663E+01  0.14118540044E+02  0.72461427859E+02  0.69999814451E+02 0.  0.
        -12    1    1    2    0    0  0.12067115527E+02 -0.23950060663E+01 -0.14118540044E+02  0.18726572141E+02  0.00000000000E+00 0.  1.
         11    1    3    3    0    0  0.56928130704E+01 -0.26700351943E+01  0.42559174677E+01  0.75927624976E+01  0.51100000000E-03 0. -1.
        -11    1    3    3    0    0  0.13811448350E+02 -0.18790151736E+02 -0.23960953485E+01  0.23442849251E+02  0.51100000000E-03 0.  1.
         12    1    3    3    0    0 -0.31571376948E+02  0.23855192997E+02  0.12258717925E+02  0.41425816111E+02  0.00000000000E+00 0. -1.
</event>
<event>
 7    1  0.1789107E-013  0.7246159E+02  0.7816164E-02  0.1226708E+00
        -11   -1    0    0    0    0  0.00000000000E+00  0.00000000000E+00  0.45593999997E+02  0.45594000000E+02  0.51100000000E-03 0.  1.
         11   -1    0    0    0    0 -0.00000000000E+00 -0.00000000000E+00 -0.45593999997E+02  0.45594000000E+02  0.51100000000E-03 0. -1.
    9900012    2    1    2    0    0 -0.24878947278E+01  0.15009684387E+02 -0.10917792895E+02  0.72461589579E+02  0.70000025121E+02 0.  0.
        -12    1    1    2    0    0  0.24878947278E+01 -0.15009684387E+02  0.10917792895E+02  0.18726410421E+02  0.00000000000E+00 0.  1.
         11    1    3    3    0    0  0.63450315948E+01  0.12817691671E+02 -0.10332560299E+02  0.17644105200E+02  0.51100000000E-03 0. -1.
        -11    1    3    3    0    0  0.10787422590E+02  0.18075280131E+02  0.14360286913E+02  0.25481406524E+02  0.51100000000E-03 0.  1.
         12    1    3    3    0    0 -0.19620348913E+02 -0.15883287414E+02 -0.14945519508E+02  0.29336077855E+02  0.00000000000E+00 0. -1.
</event>
<event>
 7    1  0.1789107E-013  0.7246152E+02  0.7816164E-02  0.1226708E+00
        -11   -1    0    0    0    0  0.00000000000E+00  0.00000000000E+00  0.45593999997E+02  0.45594000000E+02  0.51100000000E-03 0. -1.
         11   -1    0    0    0    0 -0.00000000000E+00 -0.00000000000E+00 -0.45593999997E+02  0.45594000000E+02  0.51100000000E-03 0.  1.
    9900012    2    1    2    0    0  0.85226160315E+01 -0.96568173985E+01  0.13593822898E+02  0.72461518022E+02  0.69999931905E+02 0.  0.
        -12    1    1    2    0    0 -0.85226160315E+01  0.96568173985E+01 -0.13593822898E+02  0.18726481978E+02  0.00000000000E+00 0.  1.
         11    1    3    3    0    0  0.39527725784E+01  0.14909840111E+02  0.13031859799E+02  0.20192996640E+02  0.51100000000E-03 0. -1.
        -11    1    3    3    0    0 -0.11553134467E+02  0.64167113196E+01 -0.90806496464E+01  0.16034565739E+02  0.51100000000E-03 0.  1.
         12    1    3    3    0    0  0.16122977920E+02 -0.30983368829E+02  0.96426127456E+01  0.36233955644E+02  0.00000000000E+00 0. -1.
</event>
<event>
 7    1  0.1789107E-013  0.7246165E+02  0.7816164E-02  0.1226708E+00
        -11   -1    0    0    0    0  0.00000000000E+00  0.00000000000E+00  0.45593999997E+02  0.45594000000E+02  0.51100000000E-03 0. -1.
         11   -1    0    0    0    0 -0.00000000000E+00 -0.00000000000E+00 -0.45593999997E+02  0.45594000000E+02  0.51100000000E-03 0.  1.
    9900012    2    1    2    0    0 -0.39845091095E+01  0.18220586506E+02  0.16763526714E+01  0.72461648413E+02  0.70000101764E+02 0.  0.
        -12    1    1    2    0    0  0.39845091095E+01 -0.18220586506E+02 -0.16763526714E+01  0.18726351587E+02  0.00000000000E+00 0.  1.
         11    1    3    3    0    0  0.10623295189E+01  0.96362769268E+01 -0.11084110787E+02  0.14725620164E+02  0.51100000000E-03 0. -1.
        -11    1    3    3    0    0  0.19662299276E+02 -0.11581201742E+02 -0.13525904721E+01  0.22859565784E+02  0.51100000000E-03 0.  1.
         12    1    3    3    0    0 -0.24709137904E+02  0.20165511321E+02  0.14113053931E+02  0.34876462465E+02  0.00000000000E+00 0. -1.
</event>
<event>
 7    1  0.1789107E-013  0.7246168E+02  0.7816164E-02  0.1226708E+00
        -11   -1    0    0    0    0  0.00000000000E+00  0.00000000000E+00  0.45593999997E+02  0.45594000000E+02  0.51100000000E-03 0.  1.
         11   -1    0    0    0    0 -0.00000000000E+00 -0.00000000000E+00 -0.45593999997E+02  0.45594000000E+02  0.51100000000E-03 0. -1.
    9900012    2    1    2    0    0  0.17575138859E+02  0.34025142026E+01  0.54965829395E+01  0.72461680745E+02  0.70000143882E+02 0.  0.
        -12    1    1    2    0    0 -0.17575138859E+02 -0.34025142026E+01 -0.54965829395E+01  0.18726319255E+02  0.00000000000E+00 0.  1.
         11    1    3    3    0    0 -0.53268659499E+01 -0.15433701701E+02  0.96332878494E+01  0.18957185553E+02  0.51100000000E-03 0. -1.
        -11    1    3    3    0    0 -0.11762374518E+02  0.92921364367E+01 -0.85880096961E+01  0.17275739193E+02  0.51100000000E-03 0.  1.
        -12    1    3    3    0    0  0.34664379327E+02  0.95440794666E+01  0.44513047861E+01  0.36228756000E+02  0.00000000000E+00 0.  1.
</event>
<event>
 7    1  0.1789107E-013  0.7246160E+02  0.7816164E-02  0.1226708E+00
        -11   -1    0    0    0    0  0.00000000000E+00  0.00000000000E+00  0.45593999997E+02  0.45594000000E+02  0.51100000000E-03 0.  1.
         11   -1    0    0    0    0 -0.00000000000E+00 -0.00000000000E+00 -0.45593999997E+02  0.45594000000E+02  0.51100000000E-03 0. -1.
    9900012    2    1    2    0    0 -0.33118937052E+01 -0.27568617546E+00 -0.18429144879E+02  0.72461600886E+02  0.70000039852E+02 0.  0.
        -12    1    1    2    0    0  0.33118937052E+01  0.27568617546E+00  0.18429144879E+02  0.18726399114E+02  0.00000000000E+00 0.  1.
         11    1    3    3    0    0 -0.19013625950E+01 -0.12949857118E+02 -0.23887508623E+02  0.27238337827E+02  0.51100000000E-03 0. -1.
        -11    1    3    3    0    0 -0.18584411175E+02  0.13019585748E+02 -0.72884762947E+01  0.23832998945E+02  0.51100000000E-03 0.  1.
        -12    1    3    3    0    0  0.17173880065E+02 -0.34541480508E+00  0.12746840039E+02  0.21390264114E+02  0.00000000000E+00 0.  1.
</event>
<event>
 7    1  0.1789107E-013  0.7246156E+02  0.7816164E-02  0.1226708E+00
        -11   -1    0    0    0    0  0.00000000000E+00  0.00000000000E+00  0.45593999997E+02  0.45594000000E+02  0.51100000000E-03 0.  1.
         11   -1    0    0    0    0 -0.00000000000E+00 -0.00000000000E+00 -0.45593999997E+02  0.45594000000E+02  0.51100000000E-03 0. -1.
    9900012    2    1    2    0    0 -0.16259627844E+01 -0.11610674070E+02 -0.14602329077E+02  0.72461560888E+02  0.69999987747E+02 0.  0.
        -12    1    1    2    0    0  0.16259627844E+01  0.11610674070E+02  0.14602329077E+02  0.18726439112E+02  0.00000000000E+00 0.  1.
         11    1    3    3    0    0 -0.10500639054E+02 -0.28195280451E+02  0.30090194078E+01  0.30237252823E+02  0.51100000000E-03 0. -1.
        -11    1    3    3    0    0 -0.65638682445E+01  0.17417418488E+01 -0.19573665764E+02  0.20718263023E+02  0.51100000000E-03 0.  1.
        -12    1    3    3    0    0  0.15438544514E+02  0.14842864532E+02  0.19623172796E+01  0.21506045042E+02  0.00000000000E+00 0.  1.
</event>
<event>
 7    1  0.1789107E-013  0.7246158E+02  0.7816164E-02  0.1226708E+00
        -11   -1    0    0    0    0  0.00000000000E+00  0.00000000000E+00  0.45593999997E+02  0.45594000000E+02  0.51100000000E-03 0. -1.
         11   -1    0    0    0    0 -0.00000000000E+00 -0.00000000000E+00 -0.45593999997E+02  0.45594000000E+02  0.51100000000E-03 0.  1.
    9900012    2    1    2    0    0  0.97907319565E+01  0.13491445016E+02  0.85323740031E+01  0.72461576770E+02  0.70000008436E+02 0.  0.
        -12    1    1    2    0    0 -0.97907319565E+01 -0.13491445016E+02 -0.85323740031E+01  0.18726423230E+02  0.00000000000E+00 0.  1.
         11    1    3    3    0    0  0.34957245675E+00  0.63876607926E+01 -0.47660841521E+01  0.79774663717E+01  0.51100000000E-03 0. -1.
        -11    1    3    3    0    0 -0.12502114665E+02  0.58811730113E+01 -0.20167935183E+02  0.24446608699E+02  0.51100000000E-03 0.  1.
         12    1    3    3    0    0  0.21943274165E+02  0.12226112120E+01  0.33466393338E+02  0.40037501699E+02  0.00000000000E+00 0. -1.
</event>
<event>
 7    1  0.1789107E-013  0.7246156E+02  0.7816164E-02  0.1226708E+00
        -11   -1    0    0    0    0  0.00000000000E+00  0.00000000000E+00  0.45593999997E+02  0.45594000000E+02  0.51100000000E-03 0. -1.
         11   -1    0    0    0    0 -0.00000000000E+00 -0.00000000000E+00 -0.45593999997E+02  0.45594000000E+02  0.51100000000E-03 0.  1.
    9900012    2    1    2    0    0 -0.20121529483E+01  0.17863483887E+02 -0.52465761631E+01  0.72461564741E+02  0.69999992766E+02 0.  0.
        -12    1    1    2    0    0  0.20121529483E+01 -0.17863483887E+02  0.52465761631E+01  0.18726435259E+02  0.00000000000E+00 0.  1.
         11    1    3    3    0    0 -0.78008358332E+01  0.31975188180E+01 -0.44427828013E+01  0.95297159227E+01  0.51100000000E-03 0. -1.
        -11    1    3    3    0    0  0.16604911629E+02  0.84089412091E+00 -0.26815404706E+02  0.31551483688E+02  0.51100000000E-03 0.  1.
         12    1    3    3    0    0 -0.10816228744E+02  0.13825070948E+02  0.26011611344E+02  0.31380365130E+02  0.00000000000E+00 0. -1.
</event>
<event>
 7    1  0.1789107E-013  0.7246157E+02  0.7816164E-02  0.1226708E+00
        -11   -1    0    0    0    0  0.00000000000E+00  0.00000000000E+00  0.45593999997E+02  0.45594000000E+02  0.51100000000E-03 0.  1.
         11   -1    0    0    0    0 -0.00000000000E+00 -0.00000000000E+00 -0.45593999997E+02  0.45594000000E+02  0.51100000000E-03 0. -1.
    9900012    2    1    2    0    0  0.16743924997E+02  0.22764386011E+00 -0.83826121722E+01  0.72461573944E+02  0.70000004754E+02 0.  0.
        -12    1    1    2    0    0 -0.16743924997E+02 -0.22764386011E+00  0.83826121722E+01  0.18726426056E+02  0.00000000000E+00 0.  1.
         11    1    3    3    0    0  0.51387315881E+01 -0.43829558346E+00  0.48011831104E+01  0.70462773770E+01  0.51100000000E-03 0. -1.
        -11    1    3    3    0    0 -0.24923693030E+02  0.62293015621E+01 -0.12229947162E+02  0.28452878238E+02  0.51100000000E-03 0.  1.
         12    1    3    3    0    0  0.36528886438E+02 -0.55633621185E+01 -0.95384812097E+00  0.36962418329E+02  0.00000000000E+00 0. -1.
</event>
<event>
 7    1  0.1789107E-013  0.7246159E+02  0.7816164E-02  0.1226708E+00
        -11   -1    0    0    0    0  0.00000000000E+00  0.00000000000E+00  0.45593999997E+02  0.45594000000E+02  0.51100000000E-03 0.  1.
         11   -1    0    0    0    0 -0.00000000000E+00 -0.00000000000E+00 -0.45593999997E+02  0.45594000000E+02  0.51100000000E-03 0. -1.
    9900012    2    1    2    0    0  0.71316223728E+01  0.16324759595E+02 -0.57723899546E+01  0.72461593530E+02  0.70000030268E+02 0.  0.
        -12    1    1    2    0    0 -0.71316223728E+01 -0.16324759595E+02  0.57723899546E+01  0.18726406470E+02  0.00000000000E+00 0.  1.
         11    1    3    3    0    0 -0.15483059170E+02  0.26438979970E+01 -0.25984393100E+02  0.30362872113E+02  0.51100000000E-03 0. -1.
        -11    1    3    3    0    0  0.16194190362E+02  0.43109923435E+01 -0.22690838427E+01  0.16911096895E+02  0.51100000000E-03 0.  1.
        -12    1    3    3    0    0  0.64204911812E+01  0.93698692547E+01  0.22481086988E+02  0.25187624521E+02  0.00000000000E+00 0.  1.
</event>
<event>
 7    1  0.1789107E-013  0.7246110E+02  0.7816164E-02  0.1226709E+00
        -11   -1    0    0    0    0  0.00000000000E+00  0.00000000000E+00  0.45593999997E+02  0.45594000000E+02  0.51100000000E-03 0.  1.
         11   -1    0    0    0    0 -0.00000000000E+00 -0.00000000000E+00 -0.45593999997E+02  0.45594000000E+02  0.51100000000E-03 0. -1.
    9900012    2    1    2    0    0  0.15074774609E+02 -0.65541991836E+01 -0.89716464739E+01  0.72461099645E+02  0.69999386889E+02 0.  0.
        -12    1    1    2    0    0 -0.15074774609E+02  0.65541991836E+01  0.89716464739E+01  0.18726900355E+02  0.00000000000E+00 0.  1.
         11    1    3    3    0    0 -0.31057130438E+01 -0.10344392507E+02 -0.12061654392E+02  0.16190596554E+02  0.51100000000E-03 0. -1.
        -11    1    3    3    0    0 -0.75245754274E+01 -0.58187903737E+01  0.21305813089E+02  0.23332707268E+02  0.51100000000E-03 0.  1.
         12    1    3    3    0    0  0.25705063080E+02  0.96089836974E+01 -0.18215805171E+02  0.32937795823E+02  0.00000000000E+00 0. -1.
</event>
<event>
 7    1  0.1789107E-013  0.7246190E+02  0.7816164E-02  0.1226707E+00
        -11   -1    0    0    0    0  0.00000000000E+00  0.00000000000E+00  0.45593999997E+02  0.45594000000E+02  0.51100000000E-03 0.  1.
         11   -1    0    0    0    0 -0.00000000000E+00 -0.00000000000E+00 -0.45593999997E+02  0.45594000000E+02  0.51100000000E-03 0. -1.
    9900012    2    1    2    0    0 -0.18171754022E+02  0.21452041709E+01  0.39815134929E+01  0.72461895363E+02  0.70000423461E+02 0.  0.
        -12    1    1    2    0    0  0.18171754022E+02 -0.21452041709E+01 -0.39815134929E+01  0.18726104637E+02  0.00000000000E+00 0.  1.
         11    1    3    3    0    0 -0.16605838894E+02  0.46325375970E+01  0.21916655333E+02  0.27884656556E+02  0.51100000000E-03 0. -1.
        -11    1    3    3    0    0  0.67053474728E+01 -0.10660502310E+02  0.88395299138E+01  0.15386529290E+02  0.51100000000E-03 0.  1.
        -12    1    3    3    0    0 -0.82712626007E+01  0.81731688834E+01 -0.26774671754E+02  0.29190709518E+02  0.00000000000E+00 0.  1.
</event>
<event>
 7    1  0.1789107E-013  0.7246154E+02  0.7816164E-02  0.1226708E+00
        -11   -1    0    0    0    0  0.00000000000E+00  0.00000000000E+00  0.45593999997E+02  0.45594000000E+02  0.51100000000E-03 0.  1.
         11   -1    0    0    0    0 -0.00000000000E+00 -0.00000000000E+00 -0.45593999997E+02  0.45594000000E+02  0.51100000000E-03 0. -1.
    9900012    2    1    2    0    0 -0.34544265271E+01 -0.18402849844E+02  0.28670594275E+00  0.72461544241E+02  0.69999966061E+02 0.  0.
        -12    1    1    2    0    0  0.34544265271E+01  0.18402849844E+02 -0.28670594275E+00  0.18726455759E+02  0.00000000000E+00 0.  1.
         11    1    3    3    0    0 -0.29249479012E+01 -0.10687976645E+02  0.67742835537E+00  0.11101669894E+02  0.51100000000E-03 0. -1.
        -11    1    3    3    0    0 -0.13642446911E+02  0.19300215874E+02 -0.14971423060E+02  0.27977816198E+02  0.51100000000E-03 0.  1.
         12    1    3    3    0    0  0.13112968286E+02 -0.27015089073E+02  0.14580700647E+02  0.33382058149E+02  0.00000000000E+00 0. -1.
</event>
<event>
 7    1  0.1789107E-013  0.7246155E+02  0.7816164E-02  0.1226708E+00
        -11   -1    0    0    0    0  0.00000000000E+00  0.00000000000E+00  0.45593999997E+02  0.45594000000E+02  0.51100000000E-03 0. -1.
         11   -1    0    0    0    0 -0.00000000000E+00 -0.00000000000E+00 -0.45593999997E+02  0.45594000000E+02  0.51100000000E-03 0.  1.
    9900012    2    1    2    0    0  0.12121050634E+02 -0.12107660765E+02  0.75607225742E+01  0.72461552299E+02  0.69999976557E+02 0.  0.
        -12    1    1    2    0    0 -0.12121050634E+02  0.12107660765E+02 -0.75607225742E+01  0.18726447701E+02  0.00000000000E+00 0.  1.
         11    1    3    3    0    0 -0.29309317571E+01  0.75601859830E+01  0.50319634774E+00  0.81240371668E+01  0.51100000000E-03 0. -1.
        -11    1    3    3    0    0 -0.21208818618E+02 -0.16646390709E+02  0.73669077077E+01  0.27949734171E+02  0.51100000000E-03 0.  1.
         12    1    3    3    0    0  0.36260801008E+02 -0.30214560398E+01 -0.30938148128E+00  0.36387780961E+02  0.00000000000E+00 0. -1.
</event>
<event>
 7    1  0.1789107E-013  0.7246157E+02  0.7816164E-02  0.1226708E+00
        -11   -1    0    0    0    0  0.00000000000E+00  0.00000000000E+00  0.45593999997E+02  0.45594000000E+02  0.51100000000E-03 0.  1.
         11   -1    0    0    0    0 -0.00000000000E+00 -0.00000000000E+00 -0.45593999997E+02  0.45594000000E+02  0.51100000000E-03 0. -1.
    9900012    2    1    2    0    0 -0.55291903301E+01 -0.17884920207E+02 -0.48673955891E+00  0.72461568628E+02  0.69999997829E+02 0.  0.
        -12    1    1    2    0    0  0.55291903301E+01  0.17884920207E+02  0.48673955891E+00  0.18726431372E+02  0.00000000000E+00 0.  1.
         11    1    3    3    0    0  0.35153056574E+01  0.20813854921E+02  0.91639428248E+01  0.23011992067E+02  0.51100000000E-03 0. -1.
        -11    1    3    3    0    0  0.22573352909E+00 -0.29893533313E+01  0.80060820168E+01  0.85489495546E+01  0.51100000000E-03 0.  1.
         12    1    3    3    0    0 -0.92702295166E+01 -0.35709421797E+02 -0.17656764400E+02  0.40900627006E+02  0.00000000000E+00 0. -1.
</event>
<event>
 7    1  0.1789107E-013  0.7246152E+02  0.7816164E-02  0.1226708E+00
        -11   -1    0    0    0    0  0.00000000000E+00  0.00000000000E+00  0.45593999997E+02  0.45594000000E+02  0.51100000000E-03 0.  1.
         11   -1    0    0    0    0 -0.00000000000E+00 -0.00000000000E+00 -0.45593999997E+02  0.45594000000E+02  0.51100000000E-03 0. -1.
    9900012    2    1    2    0    0 -0.16682610305E+01 -0.11156271876E+02 -0.14947766840E+02  0.72461515265E+02  0.69999928313E+02 0.  0.
        -12    1    1    2    0    0  0.16682610305E+01  0.11156271876E+02  0.14947766840E+02  0.18726484735E+02  0.00000000000E+00 0.  1.
         11    1    3    3    0    0  0.75547957632E+00  0.73250113095E+01 -0.71242792143E+01  0.10246067278E+02  0.51100000000E-03 0. -1.
        -11    1    3    3    0    0  0.57603621892E+01  0.17782796901E+02  0.97640423678E+01  0.21089005709E+02  0.51100000000E-03 0.  1.
         12    1    3    3    0    0 -0.81841027960E+01 -0.36264080087E+02 -0.17587529994E+02  0.41126442278E+02  0.00000000000E+00 0. -1.
</event>
<event>
 7    1  0.1789107E-013  0.7246157E+02  0.7816164E-02  0.1226708E+00
        -11   -1    0    0    0    0  0.00000000000E+00  0.00000000000E+00  0.45593999997E+02  0.45594000000E+02  0.51100000000E-03 0. -1.
         11   -1    0    0    0    0 -0.00000000000E+00 -0.00000000000E+00 -0.45593999997E+02  0.45594000000E+02  0.51100000000E-03 0.  1.
    9900012    2    1    2    0    0  0.94228657406E+00 -0.35887589165E+01  0.18355169852E+02  0.72461565346E+02  0.69999993554E+02 0.  0.
        -12    1    1    2    0    0 -0.94228657406E+00  0.35887589165E+01 -0.18355169852E+02  0.18726434654E+02  0.00000000000E+00 0.  1.
         11    1    3    3    0    0  0.91417190372E+01  0.13353264736E+02 -0.55396887810E+01  0.17104644343E+02  0.51100000000E-03 0. -1.
        -11    1    3    3    0    0 -0.12163828335E+02 -0.25927782908E+02 -0.93567646478E+00  0.28654565727E+02  0.51100000000E-03 0.  1.
         12    1    3    3    0    0  0.39643958722E+01  0.89857592555E+01  0.24830535098E+02  0.26702355276E+02  0.00000000000E+00 0. -1.
</event>
<event>
 7    1  0.1789107E-013  0.7246113E+02  0.7816164E-02  0.1226709E+00
        -11   -1    0    0    0    0  0.00000000000E+00  0.00000000000E+00  0.45593999997E+02  0.45594000000E+02  0.51100000000E-03 0. -1.
         11   -1    0    0    0    0 -0.00000000000E+00 -0.00000000000E+00 -0.45593999997E+02  0.45594000000E+02  0.51100000000E-03 0.  1.
    9900012    2    1    2    0    0  0.12821347882E+02 -0.13645055180E+02  0.34805200800E+00  0.72461130732E+02  0.69999427387E+02 0.  0.
        -12    1    1    2    0    0 -0.12821347882E+02  0.13645055180E+02 -0.34805200800E+00  0.18726869268E+02  0.00000000000E+00 0.  1.
         11    1    3    3    0    0  0.19153391111E+02 -0.30979719157E+02  0.16156678896E+02  0.39845120947E+02  0.51100000000E-03 0. -1.
        -11    1    3    3    0    0  0.80111451562E+01  0.55337988102E+01 -0.73892964779E+01  0.12223055211E+02  0.51100000000E-03 0.  1.
        -12    1    3    3    0    0 -0.14343188385E+02  0.11800865166E+02 -0.84193304102E+01  0.20392954575E+02  0.00000000000E+00 0.  1.
</event>
<event>
 7    1  0.2958842E-013  0.7246174E+02  0.7816164E-02  0.1226708E+00
        -11   -1    0    0    0    0  0.00000000000E+00  0.00000000000E+00  0.45593999997E+02  0.45594000000E+02  0.51100000000E-03 0. -1.
         11   -1    0    0    0    0 -0.00000000000E+00 -0.00000000000E+00 -0.45593999997E+02  0.45594000000E+02  0.51100000000E-03 0.  1.
    9900012    2    1    2    0    0 -0.41162266683E+01 -0.17263010987E+02  0.59764529655E+01  0.72461738751E+02  0.70000219446E+02 0.  0.
        -12    1    1    2    0    0  0.41162266683E+01  0.17263010987E+02 -0.59764529655E+01  0.18726261249E+02  0.00000000000E+00 0.  1.
         11    1    3    3    0    0 -0.17235895950E+02 -0.41370180627E+01  0.27141871897E+02  0.32417159623E+02  0.51100000000E-03 0. -1.
        -11    1    3    3    0    0 -0.80887703539E+01  0.15038325571E+01 -0.52974286069E+01  0.97853190191E+01  0.51100000000E-03 0.  1.
        -12    1    3    3    0    0  0.21208439636E+02 -0.14629825481E+02 -0.15867990325E+02  0.30259260109E+02  0.00000000000E+00 0.  1.
</event>
<event>
 7    1  0.1789107E-013  0.7246160E+02  0.7816164E-02  0.1226708E+00
        -11   -1    0    0    0    0  0.00000000000E+00  0.00000000000E+00  0.45593999997E+02  0.45594000000E+02  0.51100000000E-03 0.  1.
         11   -1    0    0    0    0 -0.00000000000E+00 -0.00000000000E+00 -0.45593999997E+02  0.45594000000E+02  0.51100000000E-03 0. -1.
    9900012    2    1    2    0    0  0.15582656881E+02 -0.26879170869E+01 -0.10031646238E+02  0.72461600987E+02  0.70000039983E+02 0.  0.
        -12    1    1    2    0    0 -0.15582656881E+02  0.26879170869E+01  0.10031646238E+02  0.18726399013E+02  0.00000000000E+00 0.  1.
         11    1    3    3    0    0 -0.69352184996E+01 -0.36545734660E+01 -0.23098300159E+02  0.24392306847E+02  0.51100000000E-03 0. -1.
        -11    1    3    3    0    0  0.81927994832E+01  0.17334498592E+02 -0.49766825521E+01  0.19808436947E+02  0.51100000000E-03 0.  1.
        -12    1    3    3    0    0  0.14325075898E+02 -0.16367842213E+02  0.18043336473E+02  0.28260857192E+02  0.00000000000E+00 0.  1.
</event>
<event>
 7    1  0.1789107E-013  0.7246159E+02  0.7816164E-02  0.1226708E+00
        -11   -1    0    0    0    0  0.00000000000E+00  0.00000000000E+00  0.45593999997E+02  0.45594000000E+02  0.51100000000E-03 0. -1.
         11   -1    0    0    0    0 -0.00000000000E+00 -0.00000000000E+00 -0.45593999997E+02  0.45594000000E+02  0.51100000000E-03 0.  1.
    9900012    2    1    2    0    0 -0.18608712068E+02 -0.42200303976E-01  0.20958319917E+01  0.72461589307E+02  0.70000024767E+02 0.  0.
        -12    1    1    2    0    0  0.18608712068E+02  0.42200303976E-01 -0.20958319917E+01  0.18726410693E+02  0.00000000000E+00 0.  1.
         11    1    3    3    0    0 -0.32491045881E+02  0.13142626155E+02 -0.58562323922E+01  0.35534379730E+02  0.51100000000E-03 0. -1.
        -11    1    3    3    0    0  0.13687059948E+00  0.59260206293E+00 -0.10257157147E+02  0.10275173175E+02  0.51100000000E-03 0.  1.
        -12    1    3    3    0    0  0.13745463213E+02 -0.13777428522E+02  0.18209221531E+02  0.26652036402E+02  0.00000000000E+00 0.  1.
</event>
<event>
 7    1  0.1789107E-013  0.7246158E+02  0.7816164E-02  0.1226708E+00
        -11   -1    0    0    0    0  0.00000000000E+00  0.00000000000E+00  0.45593999997E+02  0.45594000000E+02  0.51100000000E-03 0. -1.
         11   -1    0    0    0    0 -0.00000000000E+00 -0.00000000000E+00 -0.45593999997E+02  0.45594000000E+02  0.51100000000E-03 0.  1.
    9900012    2    1    2    0    0  0.44726217243E+01 -0.16056393972E+02  0.85361955956E+01  0.72461581023E+02  0.70000013976E+02 0.  0.
        -12    1    1    2    0    0 -0.44726217243E+01  0.16056393972E+02 -0.85361955956E+01  0.18726418977E+02  0.00000000000E+00 0.  1.
         11    1    3    3    0    0 -0.21092528868E+02 -0.86780950017E+01 -0.11870500028E+02  0.25712115395E+02  0.51100000000E-03 0.  1.
        -11    1    3    3    0    0  0.99852414387E+01 -0.13675398312E+02  0.24187012703E+02  0.29525127423E+02  0.51100000000E-03 0. -1.
        -12    1    3    3    0    0  0.15579909154E+02  0.62970993426E+01 -0.37803170793E+01  0.17224338205E+02  0.00000000000E+00 0.  1.
</event>
<event>
 7    1  0.1789107E-013  0.7246137E+02  0.7816164E-02  0.1226709E+00
        -11   -1    0    0    0    0  0.00000000000E+00  0.00000000000E+00  0.45593999997E+02  0.45594000000E+02  0.51100000000E-03 0. -1.
         11   -1    0    0    0    0 -0.00000000000E+00 -0.00000000000E+00 -0.45593999997E+02  0.45594000000E+02  0.51100000000E-03 0.  1.
    9900012    2    1    2    0    0 -0.11411240492E+02 -0.14587460707E+02 -0.27705891215E+01  0.72461372340E+02  0.69999742127E+02 0.  0.
        -12    1    1    2    0    0  0.11411240492E+02  0.14587460707E+02  0.27705891215E+01  0.18726627660E+02  0.00000000000E+00 0.  1.
         11    1    3    3    0    0 -0.13237930996E+02 -0.83938078103E+00 -0.38848590532E+01  0.13821704210E+02  0.51100000000E-03 0. -1.
        -11    1    3    3    0    0 -0.14315841922E+02  0.17107521856E+02 -0.59940227403E+01  0.23098461916E+02  0.51100000000E-03 0.  1.
        -12    1    3    3    0    0  0.16142532426E+02 -0.30855601782E+02  0.71082926720E+01  0.35541206214E+02  0.00000000000E+00 0.  1.
</event>
<event>
 7    1  0.1789107E-013  0.7246156E+02  0.7816164E-02  0.1226708E+00
        -11   -1    0    0    0    0  0.00000000000E+00  0.00000000000E+00  0.45593999997E+02  0.45594000000E+02  0.51100000000E-03 0. -1.
         11   -1    0    0    0    0 -0.00000000000E+00 -0.00000000000E+00 -0.45593999997E+02  0.45594000000E+02  0.51100000000E-03 0.  1.
    9900012    2    1    2    0    0 -0.14114581230E+02 -0.12263392423E+02 -0.10330404054E+01  0.72461564955E+02  0.69999993044E+02 0.  0.
        -12    1    1    2    0    0  0.14114581230E+02  0.12263392423E+02  0.10330404054E+01  0.18726435045E+02  0.00000000000E+00 0.  1.
         11    1    3    3    0    0 -0.56449241285E+01  0.10965155365E+02  0.47785616483E+01  0.13226278852E+02  0.51100000000E-03 0. -1.
        -11    1    3    3    0    0  0.17728181495E+02 -0.12085904998E+01 -0.15594223831E+02  0.23641677759E+02  0.51100000000E-03 0.  1.
         12    1    3    3    0    0 -0.26197838597E+02 -0.22019957287E+02  0.97826217776E+01  0.35593608344E+02  0.00000000000E+00 0. -1.
</event>
<event>
 7    1  0.1789107E-013  0.7246158E+02  0.7816164E-02  0.1226708E+00
        -11   -1    0    0    0    0  0.00000000000E+00  0.00000000000E+00  0.45593999997E+02  0.45594000000E+02  0.51100000000E-03 0. -1.
         11   -1    0    0    0    0 -0.00000000000E+00 -0.00000000000E+00 -0.45593999997E+02  0.45594000000E+02  0.51100000000E-03 0.  1.
    9900012    2    1    2    0    0 -0.59282835752E+01 -0.79929518227E+01  0.15863381642E+02  0.72461582774E+02  0.70000016258E+02 0.  0.
        -12    1    1    2    0    0  0.59282835752E+01  0.79929518227E+01 -0.15863381642E+02  0.18726417226E+02  0.00000000000E+00 0.  1.
         11    1    3    3    0    0  0.12230772610E+02 -0.19786183538E+02  0.26343177253E+02  0.35143247512E+02  0.51100000000E-03 0. -1.
        -11    1    3    3    0    0 -0.19595590246E+02 -0.39624546865E+01 -0.61054827473E+01  0.20903710773E+02  0.51100000000E-03 0.  1.
        -12    1    3    3    0    0  0.14365340608E+01  0.15755686402E+02 -0.43743128640E+01  0.16414624490E+02  0.00000000000E+00 0.  1.
</event>
<event>
 7    1  0.1789107E-013  0.7246192E+02  0.7816164E-02  0.1226707E+00
        -11   -1    0    0    0    0  0.00000000000E+00  0.00000000000E+00  0.45593999997E+02  0.45594000000E+02  0.51100000000E-03 0.  1.
         11   -1    0    0    0    0 -0.00000000000E+00 -0.00000000000E+00 -0.45593999997E+02  0.45594000000E+02  0.51100000000E-03 0. -1.
    9900012    2    1    2    0    0  0.86659735688E+00  0.17880553835E+02 -0.54955479013E+01  0.72461915434E+02  0.70000449607E+02 0.  0.
        -12    1    1    2    0    0 -0.86659735688E+00 -0.17880553835E+02  0.54955479013E+01  0.18726084566E+02  0.00000000000E+00 0.  1.
         11    1    3    3    0    0  0.86745678064E+01  0.86448825003E+01 -0.40847665960E+01  0.12909974379E+02  0.51100000000E-03 0. -1.
        -11    1    3    3    0    0  0.48106858754E+01  0.32578503852E+02 -0.21979615958E+01  0.33005039725E+02  0.51100000000E-03 0.  1.
        -12    1    3    3    0    0 -0.12618656325E+02 -0.23342832517E+02  0.78718029050E+00  0.26546901329E+02  0.00000000000E+00 0.  1.
</event>
<event>
 7    1  0.1789107E-013  0.7246156E+02  0.7816164E-02  0.1226708E+00
        -11   -1    0    0    0    0  0.00000000000E+00  0.00000000000E+00  0.45593999997E+02  0.45594000000E+02  0.51100000000E-03 0.  1.
         11   -1    0    0    0    0 -0.00000000000E+00 -0.00000000000E+00 -0.45593999997E+02  0.45594000000E+02  0.51100000000E-03 0. -1.
    9900012    2    1    2    0    0 -0.11147500505E+02 -0.14510639003E+02 -0.39817252797E+01  0.72461560190E+02  0.69999986837E+02 0.  0.
        -12    1    1    2    0    0  0.11147500505E+02  0.14510639003E+02  0.39817252797E+01  0.18726439810E+02  0.00000000000E+00 0.  1.
         11    1    3    3    0    0 -0.15076516167E+02  0.18804045632E+02 -0.10529788440E+02  0.26301519286E+02  0.51100000000E-03 0. -1.
        -11    1    3    3    0    0  0.77977956777E+01 -0.23043251072E+02 -0.10000668163E+02  0.26302288900E+02  0.51100000000E-03 0.  1.
        -12    1    3    3    0    0 -0.38687800153E+01 -0.10271433563E+02  0.16548731324E+02  0.19857752004E+02  0.00000000000E+00 0.  1.
</event>
<event>
 7    1  0.1789107E-013  0.7246155E+02  0.7816164E-02  0.1226708E+00
        -11   -1    0    0    0    0  0.00000000000E+00  0.00000000000E+00  0.45593999997E+02  0.45594000000E+02  0.51100000000E-03 0.  1.
         11   -1    0    0    0    0 -0.00000000000E+00 -0.00000000000E+00 -0.45593999997E+02  0.45594000000E+02  0.51100000000E-03 0. -1.
    9900012    2    1    2    0    0  0.15612438799E+02 -0.22133858551E+00 -0.10338399917E+02  0.72461554826E+02  0.69999979850E+02 0.  0.
        -12    1    1    2    0    0 -0.15612438799E+02  0.22133858551E+00  0.10338399917E+02  0.18726445174E+02  0.00000000000E+00 0.  1.
         11    1    3    3    0    0  0.89824768937E+01  0.82706178173E+01  0.11110730695E+02  0.16508674903E+02  0.51100000000E-03 0. -1.
        -11    1    3    3    0    0 -0.97229381894E+01  0.66939342724E+01  0.11287961989E+02  0.16332861636E+02  0.51100000000E-03 0.  1.
         12    1    3    3    0    0  0.16352900094E+02 -0.15185890675E+02 -0.32737092601E+02  0.39620018287E+02  0.00000000000E+00 0. -1.
</event>
<event>
 7    1  0.1789107E-013  0.7246169E+02  0.7816164E-02  0.1226708E+00
        -11   -1    0    0    0    0  0.00000000000E+00  0.00000000000E+00  0.45593999997E+02  0.45594000000E+02  0.51100000000E-03 0. -1.
         11   -1    0    0    0    0 -0.00000000000E+00 -0.00000000000E+00 -0.45593999997E+02  0.45594000000E+02  0.51100000000E-03 0.  1.
    9900012    2    1    2    0    0 -0.58715129725E-02 -0.17835372706E+02 -0.57073910640E+01  0.72461685178E+02  0.70000149657E+02 0.  0.
        -12    1    1    2    0    0  0.58715129725E-02  0.17835372706E+02  0.57073910640E+01  0.18726314822E+02  0.00000000000E+00 0.  1.
         11    1    3    3    0    0 -0.18370567286E+02 -0.26308022162E+02 -0.33425003791E+01  0.32260844402E+02  0.51100000000E-03 0. -1.
        -11    1    3    3    0    0  0.18850207551E+01 -0.12350703714E+02  0.35629099912E+01  0.12991824866E+02  0.51100000000E-03 0.  1.
        -12    1    3    3    0    0  0.16479675018E+02  0.20823353170E+02 -0.59278006762E+01  0.27209015910E+02  0.00000000000E+00 0.  1.
</event>
<event>
 7    1  0.1789107E-013  0.7246139E+02  0.7816164E-02  0.1226708E+00
        -11   -1    0    0    0    0  0.00000000000E+00  0.00000000000E+00  0.45593999997E+02  0.45594000000E+02  0.51100000000E-03 0.  1.
         11   -1    0    0    0    0 -0.00000000000E+00 -0.00000000000E+00 -0.45593999997E+02  0.45594000000E+02  0.51100000000E-03 0. -1.
    9900012    2    1    2    0    0  0.99382821025E+01  0.13044649989E+02 -0.90417713896E+01  0.72461388605E+02  0.69999763315E+02 0.  0.
        -12    1    1    2    0    0 -0.99382821025E+01 -0.13044649989E+02  0.90417713896E+01  0.18726611395E+02  0.00000000000E+00 0.  1.
         11    1    3    3    0    0 -0.67818230793E+01  0.16058659337E+02  0.65642684533E+01  0.18626950491E+02  0.51100000000E-03 0. -1.
        -11    1    3    3    0    0  0.19397476581E+01  0.85589507915E+01  0.15320762951E+02  0.17656274728E+02  0.51100000000E-03 0.  1.
         12    1    3    3    0    0  0.14780357524E+02 -0.11572960140E+02 -0.30926802794E+02  0.36178163386E+02  0.00000000000E+00 0. -1.
</event>
<event>
 7    1  0.1789107E-013  0.7246197E+02  0.7816164E-02  0.1226707E+00
        -11   -1    0    0    0    0  0.00000000000E+00  0.00000000000E+00  0.45593999997E+02  0.45594000000E+02  0.51100000000E-03 0. -1.
         11   -1    0    0    0    0 -0.00000000000E+00 -0.00000000000E+00 -0.45593999997E+02  0.45594000000E+02  0.51100000000E-03 0.  1.
    9900012    2    1    2    0    0 -0.32904815057E+01 -0.96539651672E+01  0.15704713996E+02  0.72461965885E+02  0.70000515329E+02 0.  0.
        -12    1    1    2    0    0  0.32904815057E+01  0.96539651672E+01 -0.15704713996E+02  0.18726034115E+02  0.00000000000E+00 0.  1.
         11    1    3    3    0    0 -0.71375101120E+01  0.21183590005E+02  0.39475145051E+01  0.22699590461E+02  0.51100000000E-03 0. -1.
        -11    1    3    3    0    0 -0.31962137450E+01 -0.57811642814E+01  0.21099181860E+02  0.22109118439E+02  0.51100000000E-03 0.  1.
        -12    1    3    3    0    0  0.70432423514E+01 -0.25056390890E+02 -0.93419823692E+01  0.27653256985E+02  0.00000000000E+00 0.  1.
</event>
<event>
 7    1  0.1789107E-013  0.7246155E+02  0.7816164E-02  0.1226708E+00
        -11   -1    0    0    0    0  0.00000000000E+00  0.00000000000E+00  0.45593999997E+02  0.45594000000E+02  0.51100000000E-03 0. -1.
         11   -1    0    0    0    0 -0.00000000000E+00 -0.00000000000E+00 -0.45593999997E+02  0.45594000000E+02  0.51100000000E-03 0.  1.
    9900012    2    1    2    0    0 -0.12789348366E+02 -0.84147235571E+01  0.10784474542E+02  0.72461550915E+02  0.69999974755E+02 0.  0.
        -12    1    1    2    0    0  0.12789348366E+02  0.84147235571E+01 -0.10784474542E+02  0.18726449085E+02  0.00000000000E+00 0.  1.
         11    1    3    3    0    0 -0.40785574495E+01 -0.91156263254E+01  0.89054818055E+01  0.13380466383E+02  0.51100000000E-03 0. -1.
        -11    1    3    3    0    0 -0.31444167993E+02 -0.11409530896E+01 -0.10449266287E+02  0.33154556866E+02  0.51100000000E-03 0.  1.
        -12    1    3    3    0    0  0.22733377077E+02  0.18418558578E+01  0.12328259024E+02  0.25926527667E+02  0.00000000000E+00 0.  1.
</event>
<event>
 7    1  0.1789107E-013  0.7246161E+02  0.7816164E-02  0.1226708E+00
        -11   -1    0    0    0    0  0.00000000000E+00  0.00000000000E+00  0.45593999997E+02  0.45594000000E+02  0.51100000000E-03 0. -1.
         11   -1    0    0    0    0 -0.00000000000E+00 -0.00000000000E+00 -0.45593999997E+02  0.45594000000E+02  0.51100000000E-03 0.  1.
    9900012    2    1    2    0    0  0.12053473364E+02 -0.98530036759E+01  0.10407190701E+02  0.72461614341E+02  0.70000057379E+02 0.  0.
        -12    1    1    2    0    0 -0.12053473364E+02  0.98530036759E+01 -0.10407190701E+02  0.18726385659E+02  0.00000000000E+00 0.  1.
         11    1    3    3    0    0  0.55554739487E+01  0.20109661109E+02  0.41227497018E+01  0.21266377832E+02  0.51100000000E-03 0. -1.
        -11    1    3    3    0    0  0.16460930699E+02  0.74443278832E+00  0.90405594920E+01  0.18794896537E+02  0.51100000000E-03 0.  1.
         12    1    3    3    0    0 -0.99629312835E+01 -0.30707097574E+02 -0.27561184927E+01  0.32400339972E+02  0.00000000000E+00 0. -1.
</event>
<event>
 7    1  0.1789107E-013  0.7246157E+02  0.7816164E-02  0.1226708E+00
        -11   -1    0    0    0    0  0.00000000000E+00  0.00000000000E+00  0.45593999997E+02  0.45594000000E+02  0.51100000000E-03 0. -1.
         11   -1    0    0    0    0 -0.00000000000E+00 -0.00000000000E+00 -0.45593999997E+02  0.45594000000E+02  0.51100000000E-03 0.  1.
    9900012    2    1    2    0    0  0.60299284197E+01 -0.17233978008E+02  0.41604394082E+01  0.72461567057E+02  0.69999995782E+02 0.  0.
        -12    1    1    2    0    0 -0.60299284197E+01  0.17233978008E+02 -0.41604394082E+01  0.18726432943E+02  0.00000000000E+00 0.  1.
         11    1    3    3    0    0  0.86987232470E+01  0.10364241873E+02  0.99076053443E+01  0.16770388775E+02  0.51100000000E-03 0. -1.
        -11    1    3    3    0    0 -0.17369130024E+02  0.57444722712E+01 -0.59925634886E+01  0.19250881977E+02  0.51100000000E-03 0.  1.
         12    1    3    3    0    0  0.14700335196E+02 -0.33342692152E+02  0.24539755257E+00  0.36440296305E+02  0.00000000000E+00 0. -1.
</event>
<event>
 7    1  0.1789107E-013  0.7246205E+02  0.7816164E-02  0.1226707E+00
        -11   -1    0    0    0    0  0.00000000000E+00  0.00000000000E+00  0.45593999997E+02  0.45594000000E+02  0.51100000000E-03 0.  1.
         11   -1    0    0    0    0 -0.00000000000E+00 -0.00000000000E+00 -0.45593999997E+02  0.45594000000E+02  0.51100000000E-03 0. -1.
    9900012    2    1    2    0    0 -0.29151483642E+00 -0.18569022181E+02 -0.24015946773E+01  0.72462049486E+02  0.70000624233E+02 0.  0.
        -12    1    1    2    0    0  0.29151483642E+00  0.18569022181E+02  0.24015946773E+01  0.18725950514E+02  0.00000000000E+00 0.  1.
         11    1    3    3    0    0 -0.99216840733E+00  0.99643719618E+00 -0.12359420542E+02  0.12439154378E+02  0.51100000000E-03 0. -1.
        -11    1    3    3    0    0 -0.24944334449E+02 -0.19045287333E+02 -0.25467201667E+01  0.31486958801E+02  0.51100000000E-03 0.  1.
         12    1    3    3    0    0  0.25644988019E+02 -0.52017204444E+00  0.12504546032E+02  0.28535936307E+02  0.00000000000E+00 0. -1.
</event>
<event>
 7    1  0.1789107E-013  0.7246167E+02  0.7816164E-02  0.1226708E+00
        -11   -1    0    0    0    0  0.00000000000E+00  0.00000000000E+00  0.45593999997E+02  0.45594000000E+02  0.51100000000E-03 0. -1.
         11   -1    0    0    0    0 -0.00000000000E+00 -0.00000000000E+00 -0.45593999997E+02  0.45594000000E+02  0.51100000000E-03 0.  1.
    9900012    2    1    2    0    0  0.50338582072E+01 -0.74882123989E+01  0.16409213470E+02  0.72461672541E+02  0.70000133195E+02 0.  0.
        -12    1    1    2    0    0 -0.50338582072E+01  0.74882123989E+01 -0.16409213470E+02  0.18726327459E+02  0.00000000000E+00 0.  1.
         11    1    3    3    0    0  0.20614484329E+02  0.97200034125E+01 -0.89700117575E+01  0.24492785502E+02  0.51100000000E-03 0. -1.
        -11    1    3    3    0    0  0.55960026297E+01  0.66002417262E+01  0.73801705200E+01  0.11373009867E+02  0.51100000000E-03 0.  1.
        -12    1    3    3    0    0 -0.21176628751E+02 -0.23808457538E+02  0.17999054708E+02  0.36595877172E+02  0.00000000000E+00 0.  1.
</event>
<event>
 7    1  0.1789107E-013  0.7246156E+02  0.7816164E-02  0.1226708E+00
        -11   -1    0    0    0    0  0.00000000000E+00  0.00000000000E+00  0.45593999997E+02  0.45594000000E+02  0.51100000000E-03 0.  1.
         11   -1    0    0    0    0 -0.00000000000E+00 -0.00000000000E+00 -0.45593999997E+02  0.45594000000E+02  0.51100000000E-03 0. -1.
    9900012    2    1    2    0    0 -0.65242467146E+01 -0.25232393049E+00  0.17551359512E+02  0.72461556577E+02  0.69999982131E+02 0.  0.
        -12    1    1    2    0    0  0.65242467146E+01  0.25232393049E+00 -0.17551359512E+02  0.18726443423E+02  0.00000000000E+00 0.  1.
         11    1    3    3    0    0  0.17689514380E+02  0.10841204724E+02 -0.18073002432E+01  0.20825872690E+02  0.51100000000E-03 0. -1.
        -11    1    3    3    0    0  0.94937194826E+01 -0.88726453769E+01  0.62763136258E+00  0.13009552913E+02  0.51100000000E-03 0.  1.
        -12    1    3    3    0    0 -0.33707480577E+02 -0.22208832776E+01  0.18731028392E+02  0.38626130974E+02  0.00000000000E+00 0.  1.
</event>
<event>
 7    1  0.1789107E-013  0.7246157E+02  0.7816164E-02  0.1226708E+00
        -11   -1    0    0    0    0  0.00000000000E+00  0.00000000000E+00  0.45593999997E+02  0.45594000000E+02  0.51100000000E-03 0. -1.
         11   -1    0    0    0    0 -0.00000000000E+00 -0.00000000000E+00 -0.45593999997E+02  0.45594000000E+02  0.51100000000E-03 0.  1.
    9900012    2    1    2    0    0 -0.87753094666E+01 -0.13912896234E+02  0.89500989189E+01  0.72461574593E+02  0.70000005600E+02 0.  0.
        -12    1    1    2    0    0  0.87753094666E+01  0.13912896234E+02 -0.89500989189E+01  0.18726425407E+02  0.00000000000E+00 0.  1.
         11    1    3    3    0    0 -0.32192075033E+01 -0.25907446425E+01  0.92227470124E+01  0.10106152456E+02  0.51100000000E-03 0. -1.
        -11    1    3    3    0    0  0.92891735792E+01  0.14491027518E+02  0.19958307731E+02  0.26355505536E+02  0.51100000000E-03 0.  1.
         12    1    3    3    0    0 -0.14845275543E+02 -0.25813179109E+02 -0.20230955825E+02  0.35999916601E+02  0.00000000000E+00 0. -1.
</event>
<event>
 7    1  0.1789107E-013  0.7246158E+02  0.7816164E-02  0.1226708E+00
        -11   -1    0    0    0    0  0.00000000000E+00  0.00000000000E+00  0.45593999997E+02  0.45594000000E+02  0.51100000000E-03 0.  1.
         11   -1    0    0    0    0 -0.00000000000E+00 -0.00000000000E+00 -0.45593999997E+02  0.45594000000E+02  0.51100000000E-03 0. -1.
    9900012    2    1    2    0    0 -0.18310395713E+02 -0.35336904422E+01 -0.17091605753E+01  0.72461580450E+02  0.70000013230E+02 0.  0.
        -12    1    1    2    0    0  0.18310395713E+02  0.35336904422E+01  0.17091605753E+01  0.18726419550E+02  0.00000000000E+00 0.  1.
         11    1    3    3    0    0 -0.12808245979E+02 -0.16340080529E+02 -0.52280066303E+01  0.21409844706E+02  0.51100000000E-03 0. -1.
        -11    1    3    3    0    0 -0.13861447714E+02 -0.14743145092E+02  0.82916451568E+01  0.21868960643E+02  0.51100000000E-03 0.  1.
         12    1    3    3    0    0  0.83592979808E+01  0.27549535179E+02 -0.47727991018E+01  0.29182775101E+02  0.00000000000E+00 0. -1.
</event>
<event>
 7    1  0.1789107E-013  0.7246154E+02  0.7816164E-02  0.1226708E+00
        -11   -1    0    0    0    0  0.00000000000E+00  0.00000000000E+00  0.45593999997E+02  0.45594000000E+02  0.51100000000E-03 0.  1.
         11   -1    0    0    0    0 -0.00000000000E+00 -0.00000000000E+00 -0.45593999997E+02  0.45594000000E+02  0.51100000000E-03 0. -1.
    9900012    2    1    2    0    0  0.19049779030E+01  0.27381664386E+01 -0.18426990918E+02  0.72461535023E+02  0.69999954052E+02 0.  0.
        -12    1    1    2    0    0 -0.19049779030E+01 -0.27381664386E+01  0.18426990918E+02  0.18726464977E+02  0.00000000000E+00 0.  1.
         11    1    3    3    0    0  0.24517999995E+01 -0.40211686777E+01 -0.23316940482E+02  0.23787829545E+02  0.51100000000E-03 0. -1.
        -11    1    3    3    0    0 -0.88821485919E+01  0.25937009928E+02  0.12162894331E+01  0.27442674940E+02  0.51100000000E-03 0.  1.
         12    1    3    3    0    0  0.83353264954E+01 -0.19177674811E+02  0.36736601306E+01  0.21231030538E+02  0.00000000000E+00 0. -1.
</event>
<event>
 7    1  0.1971052E-013  0.7246158E+02  0.7816164E-02  0.1226708E+00
        -11   -1    0    0    0    0  0.00000000000E+00  0.00000000000E+00  0.45593999997E+02  0.45594000000E+02  0.51100000000E-03 0. -1.
         11   -1    0    0    0    0 -0.00000000000E+00 -0.00000000000E+00 -0.45593999997E+02  0.45594000000E+02  0.51100000000E-03 0.  1.
    9900012    2    1    2    0    0 -0.31403700406E+01  0.10336575354E+02  0.15296141870E+02  0.72461583627E+02  0.70000017369E+02 0.  0.
        -12    1    1    2    0    0  0.31403700406E+01 -0.10336575354E+02 -0.15296141870E+02  0.18726416373E+02  0.00000000000E+00 0.  1.
         11    1    3    3    0    0 -0.70966367638E+01  0.99696616688E+01  0.22466137361E+02  0.25582879731E+02  0.51100000000E-03 0. -1.
        -11    1    3    3    0    0  0.10734426699E+02 -0.16320724792E+02  0.10042839605E+02  0.21964803707E+02  0.51100000000E-03 0.  1.
        -12    1    3    3    0    0 -0.67781599757E+01  0.16687638478E+02 -0.17212835095E+02  0.24913900189E+02  0.00000000000E+00 0.  1.
</event>
<event>
 7    1  0.2219851E-013  0.7246165E+02  0.7816164E-02  0.1226708E+00
        -11   -1    0    0    0    0  0.00000000000E+00  0.00000000000E+00  0.45593999997E+02  0.45594000000E+02  0.51100000000E-03 0. -1.
         11   -1    0    0    0    0 -0.00000000000E+00 -0.00000000000E+00 -0.45593999997E+02  0.45594000000E+02  0.51100000000E-03 0.  1.
    9900012    2    1    2    0    0  0.11481616787E+02 -0.43460961792E+01  0.14140721424E+02  0.72461652827E+02  0.70000107515E+02 0.  0.
        -12    1    1    2    0    0 -0.11481616787E+02  0.43460961792E+01 -0.14140721424E+02  0.18726347173E+02  0.00000000000E+00 0.  1.
         11    1    3    3    0    0 -0.82657315328E+01 -0.18597451474E+02  0.19488641605E+02  0.28177911047E+02  0.51100000000E-03 0. -1.
        -11    1    3    3    0    0  0.68066355760E+01 -0.12086297805E+02 -0.55439179847E+01  0.14938002188E+02  0.51100000000E-03 0.  1.
        -12    1    3    3    0    0  0.12940712744E+02  0.26337653099E+02  0.19599780364E+00  0.29345739593E+02  0.00000000000E+00 0.  1.
</event>
<event>
 7    1  0.1789107E-013  0.7246147E+02  0.7816164E-02  0.1226708E+00
        -11   -1    0    0    0    0  0.00000000000E+00  0.00000000000E+00  0.45593999997E+02  0.45594000000E+02  0.51100000000E-03 0.  1.
         11   -1    0    0    0    0 -0.00000000000E+00 -0.00000000000E+00 -0.45593999997E+02  0.45594000000E+02  0.51100000000E-03 0. -1.
    9900012    2    1    2    0    0  0.41911426674E+01  0.12249317700E+02 -0.13530396742E+02  0.72461465431E+02  0.69999863396E+02 0.  0.
        -12    1    1    2    0    0 -0.41911426674E+01 -0.12249317700E+02  0.13530396742E+02  0.18726534569E+02  0.00000000000E+00 0.  1.
         11    1    3    3    0    0  0.15237735378E+02 -0.76276853500E+01 -0.77467693938E+01  0.18718509544E+02  0.51100000000E-03 0. -1.
        -11    1    3    3    0    0  0.85222710171E+01  0.29604007313E+02  0.11163244109E+01  0.30826490763E+02  0.51100000000E-03 0.  1.
         12    1    3    3    0    0 -0.19568863728E+02 -0.97270042637E+01 -0.68999517586E+01  0.22916465125E+02  0.00000000000E+00 0. -1.
</event>
<event>
 7    1  0.1789107E-013  0.7246154E+02  0.7816164E-02  0.1226708E+00
        -11   -1    0    0    0    0  0.00000000000E+00  0.00000000000E+00  0.45593999997E+02  0.45594000000E+02  0.51100000000E-03 0. -1.
         11   -1    0    0    0    0 -0.00000000000E+00 -0.00000000000E+00 -0.45593999997E+02  0.45594000000E+02  0.51100000000E-03 0.  1.
    9900012    2    1    2    0    0 -0.66572345313E+01  0.35677721124E+01  0.17135704216E+02  0.72461544691E+02  0.69999966647E+02 0.  0.
        -12    1    1    2    0    0  0.66572345313E+01 -0.35677721124E+01 -0.17135704216E+02  0.18726455309E+02  0.00000000000E+00 0.  1.
         11    1    3    3    0    0 -0.24418464869E+02  0.44861053561E+01  0.24919258206E+02  0.35176071379E+02  0.51100000000E-03 0. -1.
        -11    1    3    3    0    0  0.79077069608E+01  0.79329050969E+01  0.10065281354E+02  0.15058974123E+02  0.51100000000E-03 0.  1.
        -12    1    3    3    0    0  0.98535233773E+01 -0.88512383406E+01 -0.17848835343E+02  0.22226499189E+02  0.00000000000E+00 0.  1.
</event>
<event>
 7    1  0.1789107E-013  0.7246103E+02  0.7816164E-02  0.1226709E+00
        -11   -1    0    0    0    0  0.00000000000E+00  0.00000000000E+00  0.45593999997E+02  0.45594000000E+02  0.51100000000E-03 0.  1.
         11   -1    0    0    0    0 -0.00000000000E+00 -0.00000000000E+00 -0.45593999997E+02  0.45594000000E+02  0.51100000000E-03 0. -1.
    9900012    2    1    2    0    0  0.16391210495E+02 -0.86442656460E+01  0.27026129252E+01  0.72461034772E+02  0.69999302379E+02 0.  0.
        -12    1    1    2    0    0 -0.16391210495E+02  0.86442656460E+01 -0.27026129252E+01  0.18726965228E+02  0.00000000000E+00 0.  1.
         11    1    3    3    0    0 -0.27692773575E+01  0.58239429326E+01 -0.12597472080E+02  0.14152155717E+02  0.51100000000E-03 0. -1.
        -11    1    3    3    0    0 -0.90450227715E+01  0.13049150718E+02  0.94365016812E+01  0.18469984723E+02  0.51100000000E-03 0.  1.
         12    1    3    3    0    0  0.28205510624E+02 -0.27517359297E+02  0.58635833241E+01  0.39838894332E+02  0.00000000000E+00 0. -1.
</event>
<event>
 7    1  0.1789107E-013  0.7246156E+02  0.7816164E-02  0.1226708E+00
        -11   -1    0    0    0    0  0.00000000000E+00  0.00000000000E+00  0.45593999997E+02  0.45594000000E+02  0.51100000000E-03 0.  1.
         11   -1    0    0    0    0 -0.00000000000E+00 -0.00000000000E+00 -0.45593999997E+02  0.45594000000E+02  0.51100000000E-03 0. -1.
    9900012    2    1    2    0    0 -0.23301434817E+01  0.14513283544E+02 -0.11602354915E+02  0.72461558601E+02  0.69999984767E+02 0.  0.
        -12    1    1    2    0    0  0.23301434817E+01 -0.14513283544E+02  0.11602354915E+02  0.18726441399E+02  0.00000000000E+00 0.  1.
         11    1    3    3    0    0 -0.13236331549E+02  0.21675761089E+02 -0.16647989392E+02  0.30367657841E+02  0.51100000000E-03 0. -1.
        -11    1    3    3    0    0 -0.10349579807E+02  0.90147135355E+01  0.68146728244E+01  0.15323792881E+02  0.51100000000E-03 0.  1.
        -12    1    3    3    0    0  0.21255767874E+02 -0.16177191080E+02 -0.17690383473E+01  0.26770107879E+02  0.00000000000E+00 0.  1.
</event>
<event>
 7    1  0.1789107E-013  0.7246158E+02  0.7816164E-02  0.1226708E+00
        -11   -1    0    0    0    0  0.00000000000E+00  0.00000000000E+00  0.45593999997E+02  0.45594000000E+02  0.51100000000E-03 0. -1.
         11   -1    0    0    0    0 -0.00000000000E+00 -0.00000000000E+00 -0.45593999997E+02  0.45594000000E+02  0.51100000000E-03 0.  1.
    9900012    2    1    2    0    0  0.68863610340E+01  0.65210542187E+01 -0.16147223576E+02  0.72461576273E+02  0.70000007788E+02 0.  0.
        -12    1    1    2    0    0 -0.68863610340E+01 -0.65210542187E+01  0.16147223576E+02  0.18726423727E+02  0.00000000000E+00 0.  1.
         11    1    3    3    0    0 -0.17679740825E+02 -0.88042602279E+01 -0.12653556505E+02  0.23456357907E+02  0.51100000000E-03 0. -1.
        -11    1    3    3    0    0 -0.38023155053E+01 -0.10003734759E+02  0.80616922560E+00  0.10732298049E+02  0.51100000000E-03 0.  1.
         12    1    3    3    0    0  0.28368417364E+02  0.25329049205E+02 -0.42998362965E+01  0.38272920317E+02  0.00000000000E+00 0. -1.
</event>
<event>
 7    1  0.1789107E-013  0.7246161E+02  0.7816164E-02  0.1226708E+00
        -11   -1    0    0    0    0  0.00000000000E+00  0.00000000000E+00  0.45593999997E+02  0.45594000000E+02  0.51100000000E-03 0.  1.
         11   -1    0    0    0    0 -0.00000000000E+00 -0.00000000000E+00 -0.45593999997E+02  0.45594000000E+02  0.51100000000E-03 0. -1.
    9900012    2    1    2    0    0 -0.14231302676E+02 -0.92637655016E+01 -0.78949589184E+01  0.72461609439E+02  0.70000050993E+02 0.  0.
        -12    1    1    2    0    0  0.14231302676E+02  0.92637655016E+01  0.78949589184E+01  0.18726390561E+02  0.00000000000E+00 0.  1.
         11    1    3    3    0    0  0.18176843665E+02 -0.93777979167E+01 -0.15376678840E+02  0.25588727827E+02  0.51100000000E-03 0. -1.
        -11    1    3    3    0    0  0.27940624767E+01 -0.88888389192E+01  0.46877869920E+01  0.10430416559E+02  0.51100000000E-03 0.  1.
        -12    1    3    3    0    0 -0.35202208818E+02  0.90028713344E+01  0.27939329293E+01  0.36442465053E+02  0.00000000000E+00 0.  1.
</event>
<event>
 7    1  0.1789107E-013  0.7246155E+02  0.7816164E-02  0.1226708E+00
        -11   -1    0    0    0    0  0.00000000000E+00  0.00000000000E+00  0.45593999997E+02  0.45594000000E+02  0.51100000000E-03 0.  1.
         11   -1    0    0    0    0 -0.00000000000E+00 -0.00000000000E+00 -0.45593999997E+02  0.45594000000E+02  0.51100000000E-03 0. -1.
    9900012    2    1    2    0    0 -0.57741200342E+01 -0.93180407351E+01 -0.15182670588E+02  0.72461552619E+02  0.69999976975E+02 0.  0.
        -12    1    1    2    0    0  0.57741200342E+01  0.93180407351E+01  0.15182670588E+02  0.18726447381E+02  0.00000000000E+00 0.  1.
         11    1    3    3    0    0 -0.25681261421E+01  0.18472268601E+02 -0.10547179494E+02  0.21425754939E+02  0.51100000000E-03 0. -1.
        -11    1    3    3    0    0  0.68880061132E+00  0.99577378868E+01  0.59733265712E+01  0.11632352328E+02  0.51100000000E-03 0.  1.
         12    1    3    3    0    0 -0.38947945034E+01 -0.37748047223E+02 -0.10608817666E+02  0.39403445352E+02  0.00000000000E+00 0. -1.
</event>
<event>
 7    1  0.1789107E-013  0.7246183E+02  0.7816164E-02  0.1226707E+00
        -11   -1    0    0    0    0  0.00000000000E+00  0.00000000000E+00  0.45593999997E+02  0.45594000000E+02  0.51100000000E-03 0.  1.
         11   -1    0    0    0    0 -0.00000000000E+00 -0.00000000000E+00 -0.45593999997E+02  0.45594000000E+02  0.51100000000E-03 0. -1.
    9900012    2    1    2    0    0 -0.15482381858E+02 -0.43176931608E+01 -0.96084769956E+01  0.72461829745E+02  0.70000337982E+02 0.  0.
        -12    1    1    2    0    0  0.15482381858E+02  0.43176931608E+01  0.96084769956E+01  0.18726170255E+02  0.00000000000E+00 0.  1.
         11    1    3    3    0    0 -0.25667128102E+02  0.59562178927E+01 -0.30988695571E+02  0.40676495056E+02  0.51100000000E-03 0. -1.
        -11    1    3    3    0    0  0.19122663206E+01 -0.62455115928E+00 -0.33915043677E+01  0.39432383606E+01  0.51100000000E-03 0.  1.
        -12    1    3    3    0    0  0.82724799228E+01 -0.96493598942E+01  0.24771722943E+02  0.27842096329E+02  0.00000000000E+00 0.  1.
</event>
<event>
 7    1  0.1789107E-013  0.7246159E+02  0.7816164E-02  0.1226708E+00
        -11   -1    0    0    0    0  0.00000000000E+00  0.00000000000E+00  0.45593999997E+02  0.45594000000E+02  0.51100000000E-03 0.  1.
         11   -1    0    0    0    0 -0.00000000000E+00 -0.00000000000E+00 -0.45593999997E+02  0.45594000000E+02  0.51100000000E-03 0. -1.
    9900012    2    1    2    0    0  0.16722155992E+02 -0.44017284691E+01 -0.71883625343E+01  0.72461594300E+02  0.70000031272E+02 0.  0.
        -12    1    1    2    0    0 -0.16722155992E+02  0.44017284691E+01  0.71883625343E+01  0.18726405700E+02  0.00000000000E+00 0.  1.
         11    1    3    3    0    0 -0.27501909744E+01 -0.12559190904E+02 -0.29417438377E+02  0.32104244384E+02  0.51100000000E-03 0. -1.
        -11    1    3    3    0    0  0.72098468299E+01 -0.79461054901E+01  0.61742783238E+00  0.10747264822E+02  0.51100000000E-03 0.  1.
        -12    1    3    3    0    0  0.12262500136E+02  0.16103567925E+02  0.21611648010E+02  0.29610085093E+02  0.00000000000E+00 0.  1.
</event>
<event>
 7    1  0.1789107E-013  0.7246158E+02  0.7816164E-02  0.1226708E+00
        -11   -1    0    0    0    0  0.00000000000E+00  0.00000000000E+00  0.45593999997E+02  0.45594000000E+02  0.51100000000E-03 0. -1.
         11   -1    0    0    0    0 -0.00000000000E+00 -0.00000000000E+00 -0.45593999997E+02  0.45594000000E+02  0.51100000000E-03 0.  1.
    9900012    2    1    2    0    0 -0.28285088970E+01  0.18045018324E+02  0.41298581300E+01  0.72461578103E+02  0.70000010172E+02 0.  0.
        -12    1    1    2    0    0  0.28285088970E+01 -0.18045018324E+02 -0.41298581300E+01  0.18726421897E+02  0.00000000000E+00 0.  1.
         11    1    3    3    0    0 -0.24093289371E+01  0.12263396927E+02  0.33307548730E+01  0.12934051895E+02  0.51100000000E-03 0. -1.
        -11    1    3    3    0    0  0.12076520126E+02  0.16710942397E+02 -0.22757942382E+02  0.30708661252E+02  0.51100000000E-03 0.  1.
         12    1    3    3    0    0 -0.12495700085E+02 -0.10929321000E+02  0.23557045639E+02  0.28818864957E+02  0.00000000000E+00 0. -1.
</event>
<event>
 7    1  0.1789107E-013  0.7246158E+02  0.7816164E-02  0.1226708E+00
        -11   -1    0    0    0    0  0.00000000000E+00  0.00000000000E+00  0.45593999997E+02  0.45594000000E+02  0.51100000000E-03 0. -1.
         11   -1    0    0    0    0 -0.00000000000E+00 -0.00000000000E+00 -0.45593999997E+02  0.45594000000E+02  0.51100000000E-03 0.  1.
    9900012    2    1    2    0    0  0.35712386410E+01  0.10602845881E+02  0.15016815267E+02  0.72461579440E+02  0.70000011914E+02 0.  0.
        -12    1    1    2    0    0 -0.35712386410E+01 -0.10602845881E+02 -0.15016815267E+02  0.18726420560E+02  0.00000000000E+00 0.  1.
         11    1    3    3    0    0 -0.86422718451E+01  0.52020394328E+00 -0.10093145537E+02  0.13297784097E+02  0.51100000000E-03 0. -1.
        -11    1    3    3    0    0  0.12499979462E+02  0.21038622878E+02 -0.68206846952E+01  0.25404623184E+02  0.51100000000E-03 0.  1.
         12    1    3    3    0    0 -0.28646897559E+00 -0.10955980941E+02  0.31930645500E+02  0.33759172159E+02  0.00000000000E+00 0. -1.
</event>
<event>
 7    1  0.1789107E-013  0.7246155E+02  0.7816164E-02  0.1226708E+00
        -11   -1    0    0    0    0  0.00000000000E+00  0.00000000000E+00  0.45593999997E+02  0.45594000000E+02  0.51100000000E-03 0.  1.
         11   -1    0    0    0    0 -0.00000000000E+00 -0.00000000000E+00 -0.45593999997E+02  0.45594000000E+02  0.51100000000E-03 0. -1.
    9900012    2    1    2    0    0  0.67270053972E+01 -0.15347083134E+02  0.83602837443E+01  0.72461550613E+02  0.69999974362E+02 0.  0.
        -12    1    1    2    0    0 -0.67270053972E+01  0.15347083134E+02 -0.83602837443E+01  0.18726449387E+02  0.00000000000E+00 0.  1.
         11    1    3    3    0    0  0.10746225001E+02 -0.41170781907E+01  0.10251944863E+02  0.15412139966E+02  0.51100000000E-03 0. -1.
        -11    1    3    3    0    0  0.58141551958E+01  0.68282957831E+01  0.23045021349E+02  0.24728587367E+02  0.51100000000E-03 0.  1.
         12    1    3    3    0    0 -0.98333747993E+01 -0.18058300727E+02 -0.24936682467E+02  0.32320823281E+02  0.00000000000E+00 0. -1.
</event>
<event>
 7    1  0.1789107E-013  0.7246154E+02  0.7816164E-02  0.1226708E+00
        -11   -1    0    0    0    0  0.00000000000E+00  0.00000000000E+00  0.45593999997E+02  0.45594000000E+02  0.51100000000E-03 0.  1.
         11   -1    0    0    0    0 -0.00000000000E+00 -0.00000000000E+00 -0.45593999997E+02  0.45594000000E+02  0.51100000000E-03 0. -1.
    9900012    2    1    2    0    0  0.94542764942E+01 -0.69445068833E+01  0.14596946516E+02  0.72461538309E+02  0.69999958333E+02 0.  0.
        -12    1    1    2    0    0 -0.94542764942E+01  0.69445068833E+01 -0.14596946516E+02  0.18726461691E+02  0.00000000000E+00 0.  1.
         11    1    3    3    0    0 -0.61559096454E+01  0.42552202380E+00  0.22789452818E+01  0.65779848293E+01  0.51100000000E-03 0. -1.
        -11    1    3    3    0    0 -0.13364996838E+02 -0.26721663547E+02  0.58706001888E+01  0.30448881589E+02  0.51100000000E-03 0.  1.
         12    1    3    3    0    0  0.28975182978E+02  0.19351634639E+02  0.64474010449E+01  0.35434671891E+02  0.00000000000E+00 0. -1.
</event>
<event>
 7    1  0.1789107E-013  0.7246147E+02  0.7816164E-02  0.1226708E+00
        -11   -1    0    0    0    0  0.00000000000E+00  0.00000000000E+00  0.45593999997E+02  0.45594000000E+02  0.51100000000E-03 0. -1.
         11   -1    0    0    0    0 -0.00000000000E+00 -0.00000000000E+00 -0.45593999997E+02  0.45594000000E+02  0.51100000000E-03 0.  1.
    9900012    2    1    2    0    0  0.10123861909E+01 -0.22904065128E+01  0.18558343510E+02  0.72461467976E+02  0.69999866712E+02 0.  0.
        -12    1    1    2    0    0 -0.10123861909E+01  0.22904065128E+01 -0.18558343510E+02  0.18726532024E+02  0.00000000000E+00 0.  1.
         11    1    3    3    0    0  0.10058057971E+02  0.16364409793E+02  0.17331099707E+02  0.25871324963E+02  0.51100000000E-03 0. -1.
        -11    1    3    3    0    0  0.53061086386E+01  0.10746966655E+02  0.62044095582E+01  0.13496176473E+02  0.51100000000E-03 0.  1.
        -12    1    3    3    0    0 -0.14351780418E+02 -0.29401782960E+02 -0.49771657552E+01  0.33093966540E+02  0.00000000000E+00 0.  1.
</event>
<event>
 7    1  0.1789107E-013  0.7246153E+02  0.7816164E-02  0.1226708E+00
        -11   -1    0    0    0    0  0.00000000000E+00  0.00000000000E+00  0.45593999997E+02  0.45594000000E+02  0.51100000000E-03 0. -1.
         11   -1    0    0    0    0 -0.00000000000E+00 -0.00000000000E+00 -0.45593999997E+02  0.45594000000E+02  0.51100000000E-03 0.  1.
    9900012    2    1    2    0    0 -0.10328833225E+02  0.15500362769E+02 -0.19325444755E+01  0.72461527564E+02  0.69999944335E+02 0.  0.
        -12    1    1    2    0    0  0.10328833225E+02 -0.15500362769E+02  0.19325444755E+01  0.18726472436E+02  0.00000000000E+00 0.  1.
         11    1    3    3    0    0  0.20577543414E+01  0.27281792472E+02  0.10581928791E+02  0.29334412737E+02  0.51100000000E-03 0. -1.
        -11    1    3    3    0    0  0.44675827742E+01  0.61262102727E+01 -0.16552256461E+02  0.18206233613E+02  0.51100000000E-03 0.  1.
        -12    1    3    3    0    0 -0.16854170341E+02 -0.17907639976E+02  0.40377831941E+01  0.24920881214E+02  0.00000000000E+00 0.  1.
</event>
<event>
 7    1  0.1789107E-013  0.7246141E+02  0.7816164E-02  0.1226708E+00
        -11   -1    0    0    0    0  0.00000000000E+00  0.00000000000E+00  0.45593999997E+02  0.45594000000E+02  0.51100000000E-03 0.  1.
         11   -1    0    0    0    0 -0.00000000000E+00 -0.00000000000E+00 -0.45593999997E+02  0.45594000000E+02  0.51100000000E-03 0. -1.
    9900012    2    1    2    0    0 -0.48812369515E+01  0.17476374881E+02 -0.46297876376E+01  0.72461412305E+02  0.69999794189E+02 0.  0.
        -12    1    1    2    0    0  0.48812369515E+01 -0.17476374881E+02  0.46297876376E+01  0.18726587695E+02  0.00000000000E+00 0.  1.
         11    1    3    3    0    0 -0.10401168264E+02 -0.15041603788E+02 -0.15305184757E+02  0.23847071654E+02  0.51100000000E-03 0. -1.
        -11    1    3    3    0    0  0.11627388344E+02 -0.24690032048E+01  0.19949174525E+01  0.12052876521E+02  0.51100000000E-03 0.  1.
        -12    1    3    3    0    0 -0.61074570321E+01  0.34986981874E+02  0.86804796669E+01  0.36561464129E+02  0.00000000000E+00 0.  1.
</event>
<event>
 7    1  0.1789107E-013  0.7246156E+02  0.7816164E-02  0.1226708E+00
        -11   -1    0    0    0    0  0.00000000000E+00  0.00000000000E+00  0.45593999997E+02  0.45594000000E+02  0.51100000000E-03 0.  1.
         11   -1    0    0    0    0 -0.00000000000E+00 -0.00000000000E+00 -0.45593999997E+02  0.45594000000E+02  0.51100000000E-03 0. -1.
    9900012    2    1    2    0    0 -0.10853763350E+02 -0.92385427763E+01 -0.12145981337E+02  0.72461555754E+02  0.69999981058E+02 0.  0.
        -12    1    1    2    0    0  0.10853763350E+02  0.92385427763E+01  0.12145981337E+02  0.18726444246E+02  0.00000000000E+00 0.  1.
         11    1    3    3    0    0  0.27614150453E+01  0.11768274312E+02  0.10611237085E+02  0.16084652501E+02  0.51100000000E-03 0. -1.
        -11    1    3    3    0    0 -0.15528395506E+02 -0.47303697427E+01  0.10477876715E+02  0.19320801371E+02  0.51100000000E-03 0.  1.
         12    1    3    3    0    0  0.19132171114E+01 -0.16276447345E+02 -0.33235095137E+02  0.37056101882E+02  0.00000000000E+00 0. -1.
</event>
<event>
 7    1  0.1789107E-013  0.7246156E+02  0.7816164E-02  0.1226708E+00
        -11   -1    0    0    0    0  0.00000000000E+00  0.00000000000E+00  0.45593999997E+02  0.45594000000E+02  0.51100000000E-03 0.  1.
         11   -1    0    0    0    0 -0.00000000000E+00 -0.00000000000E+00 -0.45593999997E+02  0.45594000000E+02  0.51100000000E-03 0. -1.
    9900012    2    1    2    0    0  0.40442894162E+01 -0.13200464097E+02 -0.12651911803E+02  0.72461564100E+02  0.69999991931E+02 0.  0.
        -12    1    1    2    0    0 -0.40442894162E+01  0.13200464097E+02  0.12651911803E+02  0.18726435900E+02  0.00000000000E+00 0.  1.
         11    1    3    3    0    0 -0.29493876098E+01  0.98871743044E+00 -0.65470371053E+01  0.72484580808E+01  0.51100000000E-03 0. -1.
        -11    1    3    3    0    0 -0.10055423082E+02 -0.35796025708E+02 -0.61688781832E+01  0.37689813586E+02  0.51100000000E-03 0.  1.
         12    1    3    3    0    0  0.17049100107E+02  0.21606844180E+02  0.64003485967E-01  0.27523292433E+02  0.00000000000E+00 0. -1.
</event>
<event>
 7    1  0.1789107E-013  0.7246159E+02  0.7816164E-02  0.1226708E+00
        -11   -1    0    0    0    0  0.00000000000E+00  0.00000000000E+00  0.45593999997E+02  0.45594000000E+02  0.51100000000E-03 0.  1.
         11   -1    0    0    0    0 -0.00000000000E+00 -0.00000000000E+00 -0.45593999997E+02  0.45594000000E+02  0.51100000000E-03 0. -1.
    9900012    2    1    2    0    0 -0.80380123655E+01 -0.70605951160E+01 -0.15369348420E+02  0.72461587716E+02  0.70000022694E+02 0.  0.
        -12    1    1    2    0    0  0.80380123655E+01  0.70605951160E+01  0.15369348420E+02  0.18726412284E+02  0.00000000000E+00 0.  1.
         11    1    3    3    0    0 -0.12337954185E+02 -0.22638753804E+02 -0.29047197546E+02  0.38839129404E+02  0.51100000000E-03 0. -1.
        -11    1    3    3    0    0 -0.10921624672E+02  0.50992026116E+01  0.36325512471E+01  0.12588851480E+02  0.51100000000E-03 0.  1.
        -12    1    3    3    0    0  0.15221566491E+02  0.10478956077E+02  0.10045297879E+02  0.21033606832E+02  0.00000000000E+00 0.  1.
</event>
<event>
 7    1  0.1789107E-013  0.7246150E+02  0.7816164E-02  0.1226708E+00
        -11   -1    0    0    0    0  0.00000000000E+00  0.00000000000E+00  0.45593999997E+02  0.45594000000E+02  0.51100000000E-03 0.  1.
         11   -1    0    0    0    0 -0.00000000000E+00 -0.00000000000E+00 -0.45593999997E+02  0.45594000000E+02  0.51100000000E-03 0. -1.
    9900012    2    1    2    0    0 -0.15519405675E+02  0.10476043256E+02  0.28705194014E+00  0.72461499162E+02  0.69999907337E+02 0.  0.
        -12    1    1    2    0    0  0.15519405675E+02 -0.10476043256E+02 -0.28705194014E+00  0.18726500838E+02  0.00000000000E+00 0.  1.
         11    1    3    3    0    0 -0.21850497867E+02 -0.19404097261E+01  0.76457638507E+01  0.23230737226E+02  0.51100000000E-03 0. -1.
        -11    1    3    3    0    0 -0.61481726600E+01 -0.11406166004E+02 -0.16361111611E+02  0.20870712095E+02  0.51100000000E-03 0.  1.
        -12    1    3    3    0    0  0.12479264852E+02  0.23822618986E+02  0.90023997001E+01  0.28360049841E+02  0.00000000000E+00 0.  1.
</event>
<event>
 7    1  0.1789107E-013  0.7246166E+02  0.7816164E-02  0.1226708E+00
        -11   -1    0    0    0    0  0.00000000000E+00  0.00000000000E+00  0.45593999997E+02  0.45594000000E+02  0.51100000000E-03 0.  1.
         11   -1    0    0    0    0 -0.00000000000E+00 -0.00000000000E+00 -0.45593999997E+02  0.45594000000E+02  0.51100000000E-03 0. -1.
    9900012    2    1    2    0    0  0.27091090522E+01 -0.11414980793E+02 -0.14595709196E+02  0.72461660654E+02  0.70000117711E+02 0.  0.
        -12    1    1    2    0    0 -0.27091090522E+01  0.11414980793E+02  0.14595709196E+02  0.18726339346E+02  0.00000000000E+00 0.  1.
         11    1    3    3    0    0  0.23761303283E+02  0.34656752137E+01 -0.99721364894E+01  0.26001037379E+02  0.51100000000E-03 0. -1.
        -11    1    3    3    0    0 -0.14951400391E+02  0.94621025442E+01  0.67112380693E+01  0.18923965623E+02  0.51100000000E-03 0.  1.
         12    1    3    3    0    0 -0.61007938398E+01 -0.24342758551E+02 -0.11334810776E+02  0.27536657652E+02  0.00000000000E+00 0. -1.
</event>
<event>
 7    1  0.1789107E-013  0.7246163E+02  0.7816164E-02  0.1226708E+00
        -11   -1    0    0    0    0  0.00000000000E+00  0.00000000000E+00  0.45593999997E+02  0.45594000000E+02  0.51100000000E-03 0.  1.
         11   -1    0    0    0    0 -0.00000000000E+00 -0.00000000000E+00 -0.45593999997E+02  0.45594000000E+02  0.51100000000E-03 0. -1.
    9900012    2    1    2    0    0 -0.26968707243E+01 -0.12137654385E+02  0.14002892143E+02  0.72461634788E+02  0.70000084015E+02 0.  0.
        -12    1    1    2    0    0  0.26968707243E+01  0.12137654385E+02 -0.14002892143E+02  0.18726365212E+02  0.00000000000E+00 0.  1.
         11    1    3    3    0    0 -0.11858406437E+02  0.17035297745E+01  0.11952837543E+02  0.16923183581E+02  0.51100000000E-03 0. -1.
        -11    1    3    3    0    0 -0.65612739708E+01  0.13280072203E+02  0.15487592268E+02  0.21430729067E+02  0.51100000000E-03 0.  1.
        -12    1    3    3    0    0  0.15722809684E+02 -0.27121256362E+02 -0.13437537668E+02  0.34107722140E+02  0.00000000000E+00 0.  1.
</event>
<event>
 7    1  0.1789107E-013  0.7246157E+02  0.7816164E-02  0.1226708E+00
        -11   -1    0    0    0    0  0.00000000000E+00  0.00000000000E+00  0.45593999997E+02  0.45594000000E+02  0.51100000000E-03 0.  1.
         11   -1    0    0    0    0 -0.00000000000E+00 -0.00000000000E+00 -0.45593999997E+02  0.45594000000E+02  0.51100000000E-03 0. -1.
    9900012    2    1    2    0    0 -0.90558993431E+01 -0.15966766190E+02 -0.37057122871E+01  0.72461568439E+02  0.69999997583E+02 0.  0.
        -12    1    1    2    0    0  0.90558993431E+01  0.15966766190E+02  0.37057122871E+01  0.18726431561E+02  0.00000000000E+00 0.  1.
         11    1    3    3    0    0 -0.82878079335E+01 -0.27935006139E+02 -0.24280673067E+01  0.29239491094E+02  0.51100000000E-03 0. -1.
        -11    1    3    3    0    0 -0.74846446592E+01 -0.12670247359E+02 -0.80880412069E+01  0.16792006570E+02  0.51100000000E-03 0.  1.
        -12    1    3    3    0    0  0.67165532496E+01  0.24638487308E+02  0.68103962265E+01  0.26430070775E+02  0.00000000000E+00 0.  1.
</event>
<event>
 7    1  0.1789107E-013  0.7246155E+02  0.7816164E-02  0.1226708E+00
        -11   -1    0    0    0    0  0.00000000000E+00  0.00000000000E+00  0.45593999997E+02  0.45594000000E+02  0.51100000000E-03 0.  1.
         11   -1    0    0    0    0 -0.00000000000E+00 -0.00000000000E+00 -0.45593999997E+02  0.45594000000E+02  0.51100000000E-03 0. -1.
    9900012    2    1    2    0    0 -0.16666551046E+01  0.16488174232E+02 -0.87202263506E+01  0.72461548752E+02  0.69999971937E+02 0.  0.
        -12    1    1    2    0    0  0.16666551046E+01 -0.16488174232E+02  0.87202263506E+01  0.18726451248E+02  0.00000000000E+00 0.  1.
         11    1    3    3    0    0 -0.58216122134E+01  0.24665927663E+02 -0.10964183524E+02  0.27613628462E+02  0.51100000000E-03 0. -1.
        -11    1    3    3    0    0  0.95551442972E+01  0.16201413474E+02 -0.37245092418E+01  0.19174424384E+02  0.51100000000E-03 0.  1.
         12    1    3    3    0    0 -0.54001871884E+01 -0.24379166905E+02  0.59684664149E+01  0.25673495905E+02  0.00000000000E+00 0. -1.
</event>
<event>
 7    1  0.1789107E-013  0.7246185E+02  0.7816164E-02  0.1226707E+00
        -11   -1    0    0    0    0  0.00000000000E+00  0.00000000000E+00  0.45593999997E+02  0.45594000000E+02  0.51100000000E-03 0.  1.
         11   -1    0    0    0    0 -0.00000000000E+00 -0.00000000000E+00 -0.45593999997E+02  0.45594000000E+02  0.51100000000E-03 0. -1.
    9900012    2    1    2    0    0 -0.18877108140E+01 -0.17710776260E+02 -0.57821831085E+01  0.72461850119E+02  0.70000364523E+02 0.  0.
        -12    1    1    2    0    0  0.18877108140E+01  0.17710776260E+02  0.57821831085E+01  0.18726149881E+02  0.00000000000E+00 0.  1.
         11    1    3    3    0    0 -0.29883172975E+02 -0.13085454582E+02  0.38312259306E+01  0.32846787378E+02  0.51100000000E-03 0. -1.
        -11    1    3    3    0    0  0.26005359326E+01 -0.11208028422E+02 -0.64512434075E+01  0.13190952582E+02  0.51100000000E-03 0.  1.
        -12    1    3    3    0    0  0.25394926229E+02  0.65827067431E+01 -0.31621656316E+01  0.26424110159E+02  0.00000000000E+00 0.  1.
</event>
<event>
 7    1  0.1789107E-013  0.7246161E+02  0.7816164E-02  0.1226708E+00
        -11   -1    0    0    0    0  0.00000000000E+00  0.00000000000E+00  0.45593999997E+02  0.45594000000E+02  0.51100000000E-03 0.  1.
         11   -1    0    0    0    0 -0.00000000000E+00 -0.00000000000E+00 -0.45593999997E+02  0.45594000000E+02  0.51100000000E-03 0. -1.
    9900012    2    1    2    0    0  0.53933587415E+01  0.17883256702E+02 -0.13335498592E+01  0.72461613696E+02  0.70000056539E+02 0.  0.
        -12    1    1    2    0    0 -0.53933587415E+01 -0.17883256702E+02  0.13335498592E+01  0.18726386304E+02  0.00000000000E+00 0.  1.
         11    1    3    3    0    0  0.40281813854E+00  0.41612181785E+02  0.12025951985E+01  0.41631504547E+02  0.51100000000E-03 0. -1.
        -11    1    3    3    0    0  0.64829406639E+01 -0.36533782310E+01 -0.69930692280E+01  0.10211694749E+02  0.51100000000E-03 0.  1.
        -12    1    3    3    0    0 -0.14924000610E+01 -0.20075546852E+02  0.44569241703E+01  0.20618414401E+02  0.00000000000E+00 0.  1.
</event>
<event>
 7    1  0.1789107E-013  0.7246156E+02  0.7816164E-02  0.1226708E+00
        -11   -1    0    0    0    0  0.00000000000E+00  0.00000000000E+00  0.45593999997E+02  0.45594000000E+02  0.51100000000E-03 0.  1.
         11   -1    0    0    0    0 -0.00000000000E+00 -0.00000000000E+00 -0.45593999997E+02  0.45594000000E+02  0.51100000000E-03 0. -1.
    9900012    2    1    2    0    0  0.72043927270E+01  0.11902545103E+02 -0.12534174097E+02  0.72461564814E+02  0.69999992861E+02 0.  0.
        -12    1    1    2    0    0 -0.72043927270E+01 -0.11902545103E+02  0.12534174097E+02  0.18726435186E+02  0.00000000000E+00 0.  1.
         11    1    3    3    0    0  0.79350049281E+01  0.91128038009E+01 -0.52512535785E+01  0.13175096232E+02  0.51100000000E-03 0. -1.
        -11    1    3    3    0    0 -0.48138889713E-02  0.28292894434E+02  0.81816055619E+01  0.29452106350E+02  0.51100000000E-03 0.  1.
         12    1    3    3    0    0 -0.72579831212E+00 -0.25503153132E+02 -0.15464526081E+02  0.29834362232E+02  0.00000000000E+00 0. -1.
</event>
<event>
 7    1  0.1789107E-013  0.7246148E+02  0.7816164E-02  0.1226708E+00
        -11   -1    0    0    0    0  0.00000000000E+00  0.00000000000E+00  0.45593999997E+02  0.45594000000E+02  0.51100000000E-03 0.  1.
         11   -1    0    0    0    0 -0.00000000000E+00 -0.00000000000E+00 -0.45593999997E+02  0.45594000000E+02  0.51100000000E-03 0. -1.
    9900012    2    1    2    0    0  0.49184224746E+01  0.92925319533E+01 -0.15496469644E+02  0.72461478669E+02  0.69999880641E+02 0.  0.
        -12    1    1    2    0    0 -0.49184224746E+01 -0.92925319533E+01  0.15496469644E+02  0.18726521331E+02  0.00000000000E+00 0.  1.
         11    1    3    3    0    0 -0.15794707282E+02 -0.22154868873E+02 -0.28401914182E+01  0.27356492474E+02  0.51100000000E-03 0. -1.
        -11    1    3    3    0    0  0.85319622679E+01 -0.82647641659E+00 -0.43971185883E+01  0.96339034429E+01  0.51100000000E-03 0.  1.
        -12    1    3    3    0    0  0.12181167489E+02  0.32273877243E+02 -0.82591596374E+01  0.35471082752E+02  0.00000000000E+00 0.  1.
</event>
<event>
 7    1  0.1789107E-013  0.7246168E+02  0.7816164E-02  0.1226708E+00
        -11   -1    0    0    0    0  0.00000000000E+00  0.00000000000E+00  0.45593999997E+02  0.45594000000E+02  0.51100000000E-03 0.  1.
         11   -1    0    0    0    0 -0.00000000000E+00 -0.00000000000E+00 -0.45593999997E+02  0.45594000000E+02  0.51100000000E-03 0. -1.
    9900012    2    1    2    0    0  0.94030907517E+01 -0.14777938962E+02  0.66234051482E+01  0.72461679181E+02  0.70000141845E+02 0.  0.
        -12    1    1    2    0    0 -0.94030907517E+01  0.14777938962E+02 -0.66234051482E+01  0.18726320819E+02  0.00000000000E+00 0.  1.
         11    1    3    3    0    0  0.85489440657E+01 -0.15681319497E+02 -0.12735406678E+02  0.21935788323E+02  0.51100000000E-03 0. -1.
        -11    1    3    3    0    0 -0.94063641122E+01  0.78092101857E+01 -0.11806705747E+02  0.16995933349E+02  0.51100000000E-03 0.  1.
        -12    1    3    3    0    0  0.10260510798E+02 -0.69058296506E+01  0.31165517573E+02  0.33529957510E+02  0.00000000000E+00 0.  1.
</event>
<event>
 7    1  0.1789107E-013  0.7246157E+02  0.7816164E-02  0.1226708E+00
        -11   -1    0    0    0    0  0.00000000000E+00  0.00000000000E+00  0.45593999997E+02  0.45594000000E+02  0.51100000000E-03 0.  1.
         11   -1    0    0    0    0 -0.00000000000E+00 -0.00000000000E+00 -0.45593999997E+02  0.45594000000E+02  0.51100000000E-03 0. -1.
    9900012    2    1    2    0    0  0.78723263559E+01 -0.10791941078E+02 -0.13124014347E+02  0.72461567690E+02  0.69999996607E+02 0.  0.
        -12    1    1    2    0    0 -0.78723263559E+01  0.10791941078E+02  0.13124014347E+02  0.18726432310E+02  0.00000000000E+00 0.  1.
         11    1    3    3    0    0 -0.46718819113E+00  0.11276120471E+02 -0.24735174299E+01  0.11553676749E+02  0.51100000000E-03 0. -1.
        -11    1    3    3    0    0 -0.64163678907E+01  0.90029605759E+00  0.19314151622E+02  0.20371960216E+02  0.51100000000E-03 0.  1.
         12    1    3    3    0    0  0.14755882438E+02 -0.22968357606E+02 -0.29964648539E+02  0.40535930725E+02  0.00000000000E+00 0. -1.
</event>
<event>
 7    1  0.1802583E-013  0.7246185E+02  0.7816164E-02  0.1226707E+00
        -11   -1    0    0    0    0  0.00000000000E+00  0.00000000000E+00  0.45593999997E+02  0.45594000000E+02  0.51100000000E-03 0. -1.
         11   -1    0    0    0    0 -0.00000000000E+00 -0.00000000000E+00 -0.45593999997E+02  0.45594000000E+02  0.51100000000E-03 0.  1.
    9900012    2    1    2    0    0  0.10111041502E+02  0.13010866863E+01  0.15708042839E+02  0.72461852594E+02  0.70000367747E+02 0.  0.
        -12    1    1    2    0    0 -0.10111041502E+02 -0.13010866863E+01 -0.15708042839E+02  0.18726147406E+02  0.00000000000E+00 0.  1.
         11    1    3    3    0    0 -0.15201441866E+02  0.13051524150E+02  0.23344859850E+02  0.30763754633E+02  0.51100000000E-03 0. -1.
        -11    1    3    3    0    0 -0.33920337390E+01  0.58058448430E+01 -0.40745304652E+01  0.78622850368E+01  0.51100000000E-03 0.  1.
        -12    1    3    3    0    0  0.28704517107E+02 -0.17556282307E+02 -0.35622865451E+01  0.33835812924E+02  0.00000000000E+00 0.  1.
</event>
<event>
 7    1  0.1789107E-013  0.7246157E+02  0.7816164E-02  0.1226708E+00
        -11   -1    0    0    0    0  0.00000000000E+00  0.00000000000E+00  0.45593999997E+02  0.45594000000E+02  0.51100000000E-03 0.  1.
         11   -1    0    0    0    0 -0.00000000000E+00 -0.00000000000E+00 -0.45593999997E+02  0.45594000000E+02  0.51100000000E-03 0. -1.
    9900012    2    1    2    0    0 -0.17734603989E+02 -0.58627342177E+01  0.13384252813E+01  0.72461569123E+02  0.69999998474E+02 0.  0.
        -12    1    1    2    0    0  0.17734603989E+02  0.58627342177E+01 -0.13384252813E+01  0.18726430877E+02  0.00000000000E+00 0.  1.
         11    1    3    3    0    0 -0.18928512635E+02 -0.15691755820E+02  0.11343717231E+02  0.27077660759E+02  0.51100000000E-03 0. -1.
        -11    1    3    3    0    0  0.18269134171E+01  0.11076908111E+02  0.15887275056E+02  0.19453560469E+02  0.51100000000E-03 0.  1.
         12    1    3    3    0    0 -0.63300477144E+00 -0.12478865093E+01 -0.25892567006E+02  0.25930347895E+02  0.00000000000E+00 0. -1.
</event>
<event>
 7    1  0.1789107E-013  0.7246153E+02  0.7816164E-02  0.1226708E+00
        -11   -1    0    0    0    0  0.00000000000E+00  0.00000000000E+00  0.45593999997E+02  0.45594000000E+02  0.51100000000E-03 0. -1.
         11   -1    0    0    0    0 -0.00000000000E+00 -0.00000000000E+00 -0.45593999997E+02  0.45594000000E+02  0.51100000000E-03 0.  1.
    9900012    2    1    2    0    0 -0.12825088476E+02  0.11743922435E+02  0.69482430724E+01  0.72461529687E+02  0.69999947102E+02 0.  0.
        -12    1    1    2    0    0  0.12825088476E+02 -0.11743922435E+02 -0.69482430724E+01  0.18726470313E+02  0.00000000000E+00 0.  1.
         11    1    3    3    0    0 -0.21465232790E+01  0.30883978420E+01  0.15707069348E+02  0.16151092569E+02  0.51100000000E-03 0. -1.
        -11    1    3    3    0    0 -0.19938220911E+02 -0.17482346613E+02 -0.10513481152E+02  0.28525398899E+02  0.51100000000E-03 0.  1.
         12    1    3    3    0    0  0.92596557132E+01  0.26137871206E+02  0.17546548772E+01  0.27785038219E+02  0.00000000000E+00 0. -1.
</event>
<event>
 7    1  0.1789107E-013  0.7246158E+02  0.7816164E-02  0.1226708E+00
        -11   -1    0    0    0    0  0.00000000000E+00  0.00000000000E+00  0.45593999997E+02  0.45594000000E+02  0.51100000000E-03 0. -1.
         11   -1    0    0    0    0 -0.00000000000E+00 -0.00000000000E+00 -0.45593999997E+02  0.45594000000E+02  0.51100000000E-03 0.  1.
    9900012    2    1    2    0    0  0.18600967390E+01 -0.66031647459E+01  0.17424608489E+02  0.72461582149E+02  0.70000015443E+02 0.  0.
        -12    1    1    2    0    0 -0.18600967390E+01  0.66031647459E+01 -0.17424608489E+02  0.18726417851E+02  0.00000000000E+00 0.  1.
         11    1    3    3    0    0  0.10024584855E+02  0.14956853644E+01  0.14886078687E+02  0.18009017607E+02  0.51100000000E-03 0. -1.
        -11    1    3    3    0    0  0.21825379036E+02  0.55724910635E-01  0.72941562661E+01  0.23012061864E+02  0.51100000000E-03 0.  1.
         12    1    3    3    0    0 -0.29989867153E+02 -0.81545750209E+01 -0.47556264635E+01  0.31440502678E+02  0.00000000000E+00 0. -1.
</event>
<event>
 7    1  0.1789107E-013  0.7246160E+02  0.7816164E-02  0.1226708E+00
        -11   -1    0    0    0    0  0.00000000000E+00  0.00000000000E+00  0.45593999997E+02  0.45594000000E+02  0.51100000000E-03 0.  1.
         11   -1    0    0    0    0 -0.00000000000E+00 -0.00000000000E+00 -0.45593999997E+02  0.45594000000E+02  0.51100000000E-03 0. -1.
    9900012    2    1    2    0    0  0.17579729081E+02  0.58802728737E+01  0.26558900312E+01  0.72461595233E+02  0.70000032487E+02 0.  0.
        -12    1    1    2    0    0 -0.17579729081E+02 -0.58802728737E+01 -0.26558900312E+01  0.18726404767E+02  0.00000000000E+00 0.  1.
         11    1    3    3    0    0 -0.14439591872E+01 -0.21226213090E+02 -0.49742711142E+01  0.21849039193E+02  0.51100000000E-03 0. -1.
        -11    1    3    3    0    0  0.66577136505E+01 -0.71172715463E+01 -0.63479673340E+01  0.11630881087E+02  0.51100000000E-03 0.  1.
        -12    1    3    3    0    0  0.12365974618E+02  0.34223757510E+02  0.13978128479E+02  0.38981674953E+02  0.00000000000E+00 0.  1.
</event>
<event>
 7    1  0.1789107E-013  0.7246125E+02  0.7816164E-02  0.1226709E+00
        -11   -1    0    0    0    0  0.00000000000E+00  0.00000000000E+00  0.45593999997E+02  0.45594000000E+02  0.51100000000E-03 0.  1.
         11   -1    0    0    0    0 -0.00000000000E+00 -0.00000000000E+00 -0.45593999997E+02  0.45594000000E+02  0.51100000000E-03 0. -1.
    9900012    2    1    2    0    0  0.13507430549E+02 -0.85946558397E+01 -0.97145379738E+01  0.72461253430E+02  0.69999587225E+02 0.  0.
        -12    1    1    2    0    0 -0.13507430549E+02  0.85946558397E+01  0.97145379738E+01  0.18726746570E+02  0.00000000000E+00 0.  1.
         11    1    3    3    0    0  0.13350922024E+01 -0.49549918020E+01 -0.92227608972E+01  0.10554322990E+02  0.51100000000E-03 0. -1.
        -11    1    3    3    0    0  0.45233269447E+01 -0.28728942452E+02 -0.14141183791E+02  0.32338610055E+02  0.51100000000E-03 0.  1.
        -12    1    3    3    0    0  0.76490114020E+01  0.25089278414E+02  0.13649406714E+02  0.29568320385E+02  0.00000000000E+00 0.  1.
</event>
<event>
 7    1  0.1789107E-013  0.7246180E+02  0.7816164E-02  0.1226707E+00
        -11   -1    0    0    0    0  0.00000000000E+00  0.00000000000E+00  0.45593999997E+02  0.45594000000E+02  0.51100000000E-03 0.  1.
         11   -1    0    0    0    0 -0.00000000000E+00 -0.00000000000E+00 -0.45593999997E+02  0.45594000000E+02  0.51100000000E-03 0. -1.
    9900012    2    1    2    0    0 -0.69219285114E+01 -0.17311956603E+02  0.17474432797E+01  0.72461801941E+02  0.70000301762E+02 0.  0.
        -12    1    1    2    0    0  0.69219285114E+01  0.17311956603E+02 -0.17474432797E+01  0.18726198059E+02  0.00000000000E+00 0.  1.
         11    1    3    3    0    0  0.20749156116E+02 -0.96137356727E+01 -0.21673376735E+01  0.22970606129E+02  0.51100000000E-03 0. -1.
        -11    1    3    3    0    0  0.78757874723E+01 -0.22888772789E+01  0.10096119683E+02  0.13007637004E+02  0.51100000000E-03 0.  1.
        -12    1    3    3    0    0 -0.35546872099E+02 -0.54093436511E+01 -0.61813387301E+01  0.36483558808E+02  0.00000000000E+00 0.  1.
</event>
<event>
 7    1  0.1789107E-013  0.7246160E+02  0.7816164E-02  0.1226708E+00
        -11   -1    0    0    0    0  0.00000000000E+00  0.00000000000E+00  0.45593999997E+02  0.45594000000E+02  0.51100000000E-03 0. -1.
         11   -1    0    0    0    0 -0.00000000000E+00 -0.00000000000E+00 -0.45593999997E+02  0.45594000000E+02  0.51100000000E-03 0.  1.
    9900012    2    1    2    0    0 -0.87589688056E+01 -0.83156420661E+01  0.14311134342E+02  0.72461601423E+02  0.70000040550E+02 0.  0.
        -12    1    1    2    0    0  0.87589688056E+01  0.83156420661E+01 -0.14311134342E+02  0.18726398577E+02  0.00000000000E+00 0.  1.
         11    1    3    3    0    0  0.84668334560E-01  0.22820878404E+01 -0.22151154267E+01  0.31814823986E+01  0.51100000000E-03 0. -1.
        -11    1    3    3    0    0  0.12466933496E+02  0.21299020590E+02  0.18538581114E+02  0.30866676188E+02  0.51100000000E-03 0.  1.
         12    1    3    3    0    0 -0.21310570636E+02 -0.31896750496E+02 -0.20123313453E+01  0.38413442836E+02  0.00000000000E+00 0. -1.
</event>
<event>
 7    1  0.1789107E-013  0.7246158E+02  0.7816164E-02  0.1226708E+00
        -11   -1    0    0    0    0  0.00000000000E+00  0.00000000000E+00  0.45593999997E+02  0.45594000000E+02  0.51100000000E-03 0. -1.
         11   -1    0    0    0    0 -0.00000000000E+00 -0.00000000000E+00 -0.45593999997E+02  0.45594000000E+02  0.51100000000E-03 0.  1.
    9900012    2    1    2    0    0 -0.77935209101E+01 -0.81441319581E+01  0.14953698926E+02  0.72461575752E+02  0.70000007110E+02 0.  0.
        -12    1    1    2    0    0  0.77935209101E+01  0.81441319581E+01 -0.14953698926E+02  0.18726424248E+02  0.00000000000E+00 0.  1.
         11    1    3    3    0    0 -0.13220040541E+02 -0.15754814453E+02  0.61619014141E+01  0.21469808561E+02  0.51100000000E-03 0. -1.
        -11    1    3    3    0    0 -0.18265212950E+02 -0.32330490262E+01  0.15403046879E+02  0.24110671154E+02  0.51100000000E-03 0.  1.
        -12    1    3    3    0    0  0.23691732581E+02  0.10843731521E+02 -0.66112493665E+01  0.26881096037E+02  0.00000000000E+00 0.  1.
</event>
<event>
 7    1  0.1789107E-013  0.7246157E+02  0.7816164E-02  0.1226708E+00
        -11   -1    0    0    0    0  0.00000000000E+00  0.00000000000E+00  0.45593999997E+02  0.45594000000E+02  0.51100000000E-03 0. -1.
         11   -1    0    0    0    0 -0.00000000000E+00 -0.00000000000E+00 -0.45593999997E+02  0.45594000000E+02  0.51100000000E-03 0.  1.
    9900012    2    1    2    0    0 -0.87728167182E+01 -0.11868904102E+02 -0.11525877109E+02  0.72461573729E+02  0.70000004475E+02 0.  0.
        -12    1    1    2    0    0  0.87728167182E+01  0.11868904102E+02  0.11525877109E+02  0.18726426271E+02  0.00000000000E+00 0.  1.
         11    1    3    3    0    0 -0.31102111217E+02 -0.21127005324E+02  0.93827572025E+01  0.38752132962E+02  0.51100000000E-03 0. -1.
        -11    1    3    3    0    0  0.18834621604E+01 -0.43146147993E+00  0.10337372901E+01  0.21913926541E+01  0.51100000000E-03 0.  1.
        -12    1    3    3    0    0  0.20445832338E+02  0.96895627023E+01 -0.21942371601E+02  0.31518048113E+02  0.00000000000E+00 0.  1.
</event>
<event>
 7    1  0.1789107E-013  0.7246158E+02  0.7816164E-02  0.1226708E+00
        -11   -1    0    0    0    0  0.00000000000E+00  0.00000000000E+00  0.45593999997E+02  0.45594000000E+02  0.51100000000E-03 0. -1.
         11   -1    0    0    0    0 -0.00000000000E+00 -0.00000000000E+00 -0.45593999997E+02  0.45594000000E+02  0.51100000000E-03 0.  1.
    9900012    2    1    2    0    0 -0.64815478632E+00 -0.18708706580E+02  0.49312469803E+00  0.72461575395E+02  0.70000006645E+02 0.  0.
        -12    1    1    2    0    0  0.64815478632E+00  0.18708706580E+02 -0.49312469803E+00  0.18726424605E+02  0.00000000000E+00 0.  1.
         11    1    3    3    0    0  0.74508319458E+01 -0.25545954020E+01 -0.17172310828E+01  0.80616212517E+01  0.51100000000E-03 0. -1.
        -11    1    3    3    0    0 -0.16966071235E+02  0.71221501657E+01 -0.22667721902E+02  0.29195859511E+02  0.51100000000E-03 0.  1.
         12    1    3    3    0    0  0.88670845029E+01 -0.23276261343E+02  0.24878077682E+02  0.35204094632E+02  0.00000000000E+00 0. -1.
</event>
<event>
 7    1  0.1789107E-013  0.7246158E+02  0.7816164E-02  0.1226708E+00
        -11   -1    0    0    0    0  0.00000000000E+00  0.00000000000E+00  0.45593999997E+02  0.45594000000E+02  0.51100000000E-03 0.  1.
         11   -1    0    0    0    0 -0.00000000000E+00 -0.00000000000E+00 -0.45593999997E+02  0.45594000000E+02  0.51100000000E-03 0. -1.
    9900012    2    1    2    0    0  0.13096760203E+02 -0.11062003929E+02 -0.75356414227E+01  0.72461576145E+02  0.70000007622E+02 0.  0.
        -12    1    1    2    0    0 -0.13096760203E+02  0.11062003929E+02  0.75356414227E+01  0.18726423855E+02  0.00000000000E+00 0.  1.
         11    1    3    3    0    0 -0.48956912750E+01  0.11021409708E+02 -0.21079498535E+01  0.12242659754E+02  0.51100000000E-03 0.  1.
        -11    1    3    3    0    0 -0.11458040434E+01 -0.14567816853E+02  0.21711184752E+02  0.26170779475E+02  0.51100000000E-03 0. -1.
         12    1    3    3    0    0  0.19138255522E+02 -0.75155967841E+01 -0.27138876321E+02  0.34048136915E+02  0.00000000000E+00 0. -1.
</event>
<event>
 7    1  0.1789107E-013  0.7246161E+02  0.7816164E-02  0.1226708E+00
        -11   -1    0    0    0    0  0.00000000000E+00  0.00000000000E+00  0.45593999997E+02  0.45594000000E+02  0.51100000000E-03 0.  1.
         11   -1    0    0    0    0 -0.00000000000E+00 -0.00000000000E+00 -0.45593999997E+02  0.45594000000E+02  0.51100000000E-03 0. -1.
    9900012    2    1    2    0    0  0.92085772770E+01  0.69071110146E+01 -0.14770628143E+02  0.72461613969E+02  0.70000056895E+02 0.  0.
        -12    1    1    2    0    0 -0.92085772770E+01 -0.69071110146E+01  0.14770628143E+02  0.18726386031E+02  0.00000000000E+00 0.  1.
         11    1    3    3    0    0 -0.47856874207E+01  0.12112077614E+02 -0.38023789559E+02  0.40192210700E+02  0.51100000000E-03 0. -1.
        -11    1    3    3    0    0  0.83108753001E+00 -0.18034932863E+01 -0.24730798212E+01  0.31716586480E+01  0.51100000000E-03 0.  1.
        -12    1    3    3    0    0  0.13163177168E+02 -0.34014733130E+01  0.25726241238E+02  0.29097744622E+02  0.00000000000E+00 0.  1.
</event>
<event>
 7    1  0.1789107E-013  0.7246157E+02  0.7816164E-02  0.1226708E+00
        -11   -1    0    0    0    0  0.00000000000E+00  0.00000000000E+00  0.45593999997E+02  0.45594000000E+02  0.51100000000E-03 0. -1.
         11   -1    0    0    0    0 -0.00000000000E+00 -0.00000000000E+00 -0.45593999997E+02  0.45594000000E+02  0.51100000000E-03 0.  1.
    9900012    2    1    2    0    0  0.55193352024E+01  0.17102434563E+02  0.52652363848E+01  0.72461573666E+02  0.70000004392E+02 0.  0.
        -12    1    1    2    0    0 -0.55193352024E+01 -0.17102434563E+02 -0.52652363848E+01  0.18726426334E+02  0.00000000000E+00 0.  1.
         11    1    3    3    0    0 -0.85657391560E+00  0.18381759921E+02  0.25115121090E+02  0.31135062619E+02  0.51100000000E-03 0. -1.
        -11    1    3    3    0    0 -0.64799642399E+01  0.68192156384E+01  0.61312333780E+01  0.11228698120E+02  0.51100000000E-03 0.  1.
        -12    1    3    3    0    0  0.12855873358E+02 -0.80985409961E+01 -0.25981118084E+02  0.30097812926E+02  0.00000000000E+00 0.  1.
</event>
<event>
 7    1  0.1789107E-013  0.7246155E+02  0.7816164E-02  0.1226708E+00
        -11   -1    0    0    0    0  0.00000000000E+00  0.00000000000E+00  0.45593999997E+02  0.45594000000E+02  0.51100000000E-03 0.  1.
         11   -1    0    0    0    0 -0.00000000000E+00 -0.00000000000E+00 -0.45593999997E+02  0.45594000000E+02  0.51100000000E-03 0. -1.
    9900012    2    1    2    0    0 -0.47851038907E+01 -0.13607728174E+02 -0.11942038060E+02  0.72461554573E+02  0.69999979520E+02 0.  0.
        -12    1    1    2    0    0  0.47851038907E+01  0.13607728174E+02  0.11942038060E+02  0.18726445427E+02  0.00000000000E+00 0.  1.
         11    1    3    3    0    0  0.41131205999E+01 -0.38304343702E+01 -0.85284116003E+01  0.10213901959E+02  0.51100000000E-03 0. -1.
        -11    1    3    3    0    0  0.16912176331E+02 -0.19747726811E+02  0.14025092974E+02  0.29541456559E+02  0.51100000000E-03 0.  1.
         12    1    3    3    0    0 -0.25810400822E+02  0.99704330070E+01 -0.17438719433E+02  0.32706196055E+02  0.00000000000E+00 0. -1.
</event>
<event>
 7    1  0.1789107E-013  0.7246160E+02  0.7816164E-02  0.1226708E+00
        -11   -1    0    0    0    0  0.00000000000E+00  0.00000000000E+00  0.45593999997E+02  0.45594000000E+02  0.51100000000E-03 0. -1.
         11   -1    0    0    0    0 -0.00000000000E+00 -0.00000000000E+00 -0.45593999997E+02  0.45594000000E+02  0.51100000000E-03 0.  1.
    9900012    2    1    2    0    0  0.69502952339E+01  0.12999081089E+02  0.11549693856E+02  0.72461597751E+02  0.70000035768E+02 0.  0.
        -12    1    1    2    0    0 -0.69502952339E+01 -0.12999081089E+02 -0.11549693856E+02  0.18726402249E+02  0.00000000000E+00 0.  1.
         11    1    3    3    0    0  0.14438834720E+02  0.18835457256E+02  0.69489911852E+01  0.24729392974E+02  0.51100000000E-03 0. -1.
        -11    1    3    3    0    0  0.14159849776E+02  0.24517365232E+01  0.16330178175E+02  0.21752863654E+02  0.51100000000E-03 0.  1.
        -12    1    3    3    0    0 -0.21648389262E+02 -0.82881126902E+01 -0.11729475504E+02  0.25979341123E+02  0.00000000000E+00 0.  1.
</event>
<event>
 7    1  0.1789107E-013  0.7246157E+02  0.7816164E-02  0.1226708E+00
        -11   -1    0    0    0    0  0.00000000000E+00  0.00000000000E+00  0.45593999997E+02  0.45594000000E+02  0.51100000000E-03 0. -1.
         11   -1    0    0    0    0 -0.00000000000E+00 -0.00000000000E+00 -0.45593999997E+02  0.45594000000E+02  0.51100000000E-03 0.  1.
    9900012    2    1    2    0    0  0.18018972713E+02  0.43548196946E+01  0.26516475924E+01  0.72461573028E+02  0.70000003561E+02 0.  0.
        -12    1    1    2    0    0 -0.18018972713E+02 -0.43548196946E+01 -0.26516475924E+01  0.18726426972E+02  0.00000000000E+00 0.  1.
         11    1    3    3    0    0  0.85892838876E+00 -0.16575729577E+02 -0.35643337921E+01  0.16976367239E+02  0.51100000000E-03 0. -1.
        -11    1    3    3    0    0  0.14790009076E+02  0.10274429950E+02 -0.20104476731E+02  0.26990706996E+02  0.51100000000E-03 0.  1.
         12    1    3    3    0    0  0.23700352477E+01  0.10656119321E+02  0.26320458115E+02  0.28494498793E+02  0.00000000000E+00 0. -1.
</event>
<event>
 7    1  0.1789107E-013  0.7246157E+02  0.7816164E-02  0.1226708E+00
        -11   -1    0    0    0    0  0.00000000000E+00  0.00000000000E+00  0.45593999997E+02  0.45594000000E+02  0.51100000000E-03 0. -1.
         11   -1    0    0    0    0 -0.00000000000E+00 -0.00000000000E+00 -0.45593999997E+02  0.45594000000E+02  0.51100000000E-03 0.  1.
    9900012    2    1    2    0    0  0.10145366036E+02  0.13466394011E+02  0.81490572705E+01  0.72461565367E+02  0.69999993581E+02 0.  0.
        -12    1    1    2    0    0 -0.10145366036E+02 -0.13466394011E+02 -0.81490572705E+01  0.18726434633E+02  0.00000000000E+00 0.  1.
         11    1    3    3    0    0 -0.16302298031E+02 -0.79769086521E+00  0.74282931366E+01  0.17932673281E+02  0.51100000000E-03 0. -1.
        -11    1    3    3    0    0  0.68249019380E+00  0.25093300331E+02 -0.59441002854E+01  0.25796740934E+02  0.51100000000E-03 0.  1.
        -12    1    3    3    0    0  0.25765173874E+02 -0.10829215455E+02  0.66648644193E+01  0.28732151152E+02  0.00000000000E+00 0.  1.
</event>
<event>
 7    1  0.1789107E-013  0.7246162E+02  0.7816164E-02  0.1226708E+00
        -11   -1    0    0    0    0  0.00000000000E+00  0.00000000000E+00  0.45593999997E+02  0.45594000000E+02  0.51100000000E-03 0.  1.
         11   -1    0    0    0    0 -0.00000000000E+00 -0.00000000000E+00 -0.45593999997E+02  0.45594000000E+02  0.51100000000E-03 0. -1.
    9900012    2    1    2    0    0 -0.84759767160E-01  0.97438852673E+01 -0.15991462303E+02  0.72461618851E+02  0.70000063255E+02 0.  0.
        -12    1    1    2    0    0  0.84759767160E-01 -0.97438852673E+01  0.15991462303E+02  0.18726381149E+02  0.00000000000E+00 0.  1.
         11    1    3    3    0    0  0.30760133173E+01  0.10766212361E+01 -0.54297173733E+00  0.33039052321E+01  0.51100000000E-03 0. -1.
        -11    1    3    3    0    0  0.12928266058E+02 -0.26054775923E+02 -0.80660771072E+01  0.30183654713E+02  0.51100000000E-03 0.  1.
        -12    1    3    3    0    0 -0.16089039142E+02  0.34722039955E+02 -0.73824134590E+01  0.38974058906E+02  0.00000000000E+00 0.  1.
</event>
<event>
 7    1  0.1789107E-013  0.7246161E+02  0.7816164E-02  0.1226708E+00
        -11   -1    0    0    0    0  0.00000000000E+00  0.00000000000E+00  0.45593999997E+02  0.45594000000E+02  0.51100000000E-03 0.  1.
         11   -1    0    0    0    0 -0.00000000000E+00 -0.00000000000E+00 -0.45593999997E+02  0.45594000000E+02  0.51100000000E-03 0. -1.
    9900012    2    1    2    0    0  0.78691357036E+01  0.14623821095E+02  0.86543840674E+01  0.72461606761E+02  0.70000047505E+02 0.  0.
        -12    1    1    2    0    0 -0.78691357036E+01 -0.14623821095E+02 -0.86543840674E+01  0.18726393239E+02  0.00000000000E+00 0.  1.
         11    1    3    3    0    0 -0.19658612560E+01  0.90226569888E+01  0.69303046110E+01  0.11545651644E+02  0.51100000000E-03 0. -1.
        -11    1    3    3    0    0  0.12433208473E+02  0.32017635488E+02  0.11125064274E+01  0.34364972370E+02  0.51100000000E-03 0.  1.
         12    1    3    3    0    0 -0.25982115131E+01 -0.26416471382E+02  0.61157302895E+00  0.26550982748E+02  0.00000000000E+00 0. -1.
</event>
<event>
 7    1  0.1789107E-013  0.7246155E+02  0.7816164E-02  0.1226708E+00
        -11   -1    0    0    0    0  0.00000000000E+00  0.00000000000E+00  0.45593999997E+02  0.45594000000E+02  0.51100000000E-03 0. -1.
         11   -1    0    0    0    0 -0.00000000000E+00 -0.00000000000E+00 -0.45593999997E+02  0.45594000000E+02  0.51100000000E-03 0.  1.
    9900012    2    1    2    0    0  0.14983492227E+01  0.42183715517E+01  0.18183511263E+02  0.72461553706E+02  0.69999978391E+02 0.  0.
        -12    1    1    2    0    0 -0.14983492227E+01 -0.42183715517E+01 -0.18183511263E+02  0.18726446294E+02  0.00000000000E+00 0.  1.
         11    1    3    3    0    0 -0.49576194691E+01 -0.11569395656E+01  0.32805648287E+00  0.51013842510E+01  0.51100000000E-03 0. -1.
        -11    1    3    3    0    0 -0.24737066098E+02  0.11748797615E+02  0.22166342811E+02  0.35232136444E+02  0.51100000000E-03 0.  1.
         12    1    3    3    0    0  0.31193034790E+02 -0.63734864979E+01 -0.43108880305E+01  0.32128033011E+02  0.00000000000E+00 0. -1.
</event>
<event>
 7    1  0.1789107E-013  0.7246165E+02  0.7816164E-02  0.1226708E+00
        -11   -1    0    0    0    0  0.00000000000E+00  0.00000000000E+00  0.45593999997E+02  0.45594000000E+02  0.51100000000E-03 0.  1.
         11   -1    0    0    0    0 -0.00000000000E+00 -0.00000000000E+00 -0.45593999997E+02  0.45594000000E+02  0.51100000000E-03 0. -1.
    9900012    2    1    2    0    0  0.80141613101E+00 -0.65031834168E+01  0.17542595655E+02  0.72461646252E+02  0.70000098950E+02 0.  0.
        -12    1    1    2    0    0 -0.80141613101E+00  0.65031834168E+01 -0.17542595655E+02  0.18726353748E+02  0.00000000000E+00 0.  1.
         11    1    3    3    0    0  0.71723505379E+01 -0.23551848458E+01 -0.61642216501E+01  0.97461344496E+01  0.51100000000E-03 0. -1.
        -11    1    3    3    0    0  0.14965752062E+02 -0.24064881614E+02  0.15929824281E+02  0.32509253509E+02  0.51100000000E-03 0.  1.
         12    1    3    3    0    0 -0.21336686469E+02  0.19916883043E+02  0.77769930243E+01  0.30206258294E+02  0.00000000000E+00 0. -1.
</event>
<event>
 7    1  0.1789107E-013  0.7246161E+02  0.7816164E-02  0.1226708E+00
        -11   -1    0    0    0    0  0.00000000000E+00  0.00000000000E+00  0.45593999997E+02  0.45594000000E+02  0.51100000000E-03 0.  1.
         11   -1    0    0    0    0 -0.00000000000E+00 -0.00000000000E+00 -0.45593999997E+02  0.45594000000E+02  0.51100000000E-03 0. -1.
    9900012    2    1    2    0    0  0.21292047716E+01  0.12414449911E+02 -0.13857323935E+02  0.72461614706E+02  0.70000057854E+02 0.  0.
        -12    1    1    2    0    0 -0.21292047716E+01 -0.12414449911E+02  0.13857323935E+02  0.18726385294E+02  0.00000000000E+00 0.  1.
         11    1    3    3    0    0  0.10752732576E+02  0.10276860743E+01 -0.40199636764E+01  0.11525515378E+02  0.51100000000E-03 0. -1.
        -11    1    3    3    0    0  0.19106437111E+02  0.22984033502E+02 -0.73306876581E+01  0.30774351608E+02  0.51100000000E-03 0.  1.
         12    1    3    3    0    0 -0.27729964916E+02 -0.11597269666E+02 -0.25066726008E+01  0.30161747719E+02  0.00000000000E+00 0. -1.
</event>
<event>
 7    1  0.1789107E-013  0.7246144E+02  0.7816164E-02  0.1226708E+00
        -11   -1    0    0    0    0  0.00000000000E+00  0.00000000000E+00  0.45593999997E+02  0.45594000000E+02  0.51100000000E-03 0. -1.
         11   -1    0    0    0    0 -0.00000000000E+00 -0.00000000000E+00 -0.45593999997E+02  0.45594000000E+02  0.51100000000E-03 0.  1.
    9900012    2    1    2    0    0 -0.88928840288E+01 -0.78504327541E+01  0.14490387162E+02  0.72461441296E+02  0.69999831956E+02 0.  0.
        -12    1    1    2    0    0  0.88928840288E+01  0.78504327541E+01 -0.14490387162E+02  0.18726558704E+02  0.00000000000E+00 0.  1.
         11    1    3    3    0    0  0.35872528130E+01  0.34339295784E+01  0.12892283727E+02  0.13815615623E+02  0.51100000000E-03 0. -1.
        -11    1    3    3    0    0 -0.41360877570E+01  0.22827582590E+02 -0.22976799659E+01  0.23312766510E+02  0.51100000000E-03 0.  1.
         12    1    3    3    0    0 -0.83440490848E+01 -0.34111944923E+02  0.38957834011E+01  0.35333059164E+02  0.00000000000E+00 0. -1.
</event>
<event>
 7    1  0.1789107E-013  0.7246155E+02  0.7816164E-02  0.1226708E+00
        -11   -1    0    0    0    0  0.00000000000E+00  0.00000000000E+00  0.45593999997E+02  0.45594000000E+02  0.51100000000E-03 0.  1.
         11   -1    0    0    0    0 -0.00000000000E+00 -0.00000000000E+00 -0.45593999997E+02  0.45594000000E+02  0.51100000000E-03 0. -1.
    9900012    2    1    2    0    0  0.15573580913E+02 -0.70996584590E+01  0.75985733726E+01  0.72461551058E+02  0.69999974941E+02 0.  0.
        -12    1    1    2    0    0 -0.15573580913E+02  0.70996584590E+01 -0.75985733726E+01  0.18726448942E+02  0.00000000000E+00 0.  1.
         11    1    3    3    0    0  0.24612763641E+02 -0.39963432719E+01 -0.92285690608E+01  0.26588068391E+02  0.51100000000E-03 0. -1.
        -11    1    3    3    0    0 -0.99145795518E+01  0.16322905689E+02 -0.14938322284E+01  0.19156400309E+02  0.51100000000E-03 0.  1.
        -12    1    3    3    0    0  0.87539682336E+00 -0.19426220876E+02  0.18320974662E+02  0.26717082357E+02  0.00000000000E+00 0.  1.
</event>
<event>
 7    1  0.1789107E-013  0.7246161E+02  0.7816164E-02  0.1226708E+00
        -11   -1    0    0    0    0  0.00000000000E+00  0.00000000000E+00  0.45593999997E+02  0.45594000000E+02  0.51100000000E-03 0.  1.
         11   -1    0    0    0    0 -0.00000000000E+00 -0.00000000000E+00 -0.45593999997E+02  0.45594000000E+02  0.51100000000E-03 0. -1.
    9900012    2    1    2    0    0 -0.13080573152E+02  0.11998720046E+02 -0.59671725569E+01  0.72461606192E+02  0.70000046763E+02 0.  0.
        -12    1    1    2    0    0  0.13080573152E+02 -0.11998720046E+02  0.59671725569E+01  0.18726393808E+02  0.00000000000E+00 0.  1.
         11    1    3    3    0    0 -0.64458244239E+00  0.44830059766E+01  0.16350642784E+01  0.48152117884E+01  0.51100000000E-03 0. -1.
        -11    1    3    3    0    0 -0.15101101045E+02 -0.48229233522E+01  0.26724326524E+02  0.31072390813E+02  0.51100000000E-03 0.  1.
         12    1    3    3    0    0  0.26651103354E+01  0.12338637422E+02 -0.34326563360E+02  0.36574003590E+02  0.00000000000E+00 0. -1.
</event>
<event>
 7    1  0.1789107E-013  0.7246139E+02  0.7816164E-02  0.1226709E+00
        -11   -1    0    0    0    0  0.00000000000E+00  0.00000000000E+00  0.45593999997E+02  0.45594000000E+02  0.51100000000E-03 0.  1.
         11   -1    0    0    0    0 -0.00000000000E+00 -0.00000000000E+00 -0.45593999997E+02  0.45594000000E+02  0.51100000000E-03 0. -1.
    9900012    2    1    2    0    0  0.12991401210E+02 -0.74636965169E+01 -0.11234000147E+02  0.72461387108E+02  0.69999761366E+02 0.  0.
        -12    1    1    2    0    0 -0.12991401210E+02  0.74636965169E+01  0.11234000147E+02  0.18726612892E+02  0.00000000000E+00 0.  1.
         11    1    3    3    0    0  0.22613524740E+02  0.11418072220E+02 -0.13566132779E+02  0.28736454778E+02  0.51100000000E-03 0. -1.
        -11    1    3    3    0    0  0.45363914681E+01 -0.33479972489E+01 -0.15290279846E+02  0.16296643555E+02  0.51100000000E-03 0.  1.
        -12    1    3    3    0    0 -0.14158514998E+02 -0.15533771488E+02  0.17622412478E+02  0.27428288775E+02  0.00000000000E+00 0.  1.
</event>
<event>
 7    1  0.1789107E-013  0.7246158E+02  0.7816164E-02  0.1226708E+00
        -11   -1    0    0    0    0  0.00000000000E+00  0.00000000000E+00  0.45593999997E+02  0.45594000000E+02  0.51100000000E-03 0. -1.
         11   -1    0    0    0    0 -0.00000000000E+00 -0.00000000000E+00 -0.45593999997E+02  0.45594000000E+02  0.51100000000E-03 0.  1.
    9900012    2    1    2    0    0 -0.37255942810E+01 -0.62335160448E+01  0.17260997625E+02  0.72461579786E+02  0.70000012365E+02 0.  0.
        -12    1    1    2    0    0  0.37255942810E+01  0.62335160448E+01 -0.17260997625E+02  0.18726420214E+02  0.00000000000E+00 0.  1.
         11    1    3    3    0    0  0.11203157772E+02  0.10114624696E+02  0.28281938328E+02  0.32057517256E+02  0.51100000000E-03 0. -1.
        -11    1    3    3    0    0  0.89037573987E+01 -0.77617688580E+01  0.19052980467E+01  0.11964619197E+02  0.51100000000E-03 0.  1.
         12    1    3    3    0    0 -0.23832509452E+02 -0.85863718824E+01 -0.12926238750E+02  0.28439443333E+02  0.00000000000E+00 0. -1.
</event>
<event>
 7    1  0.1789107E-013  0.7246158E+02  0.7816164E-02  0.1226708E+00
        -11   -1    0    0    0    0  0.00000000000E+00  0.00000000000E+00  0.45593999997E+02  0.45594000000E+02  0.51100000000E-03 0. -1.
         11   -1    0    0    0    0 -0.00000000000E+00 -0.00000000000E+00 -0.45593999997E+02  0.45594000000E+02  0.51100000000E-03 0.  1.
    9900012    2    1    2    0    0 -0.15663440143E+02 -0.74105617901E+01 -0.71006262258E+01  0.72461583473E+02  0.70000017167E+02 0.  0.
        -12    1    1    2    0    0  0.15663440143E+02  0.74105617901E+01  0.71006262258E+01  0.18726416527E+02  0.00000000000E+00 0.  1.
         11    1    3    3    0    0 -0.94929778427E+01 -0.12278784616E+01 -0.20794026732E+02  0.22891392746E+02  0.51100000000E-03 0. -1.
        -11    1    3    3    0    0  0.34707435176E+01 -0.13137657363E+02 -0.13952878350E+02  0.19476316799E+02  0.51100000000E-03 0.  1.
         12    1    3    3    0    0 -0.96412058178E+01  0.69549740340E+01  0.27646278856E+02  0.30093873928E+02  0.00000000000E+00 0. -1.
</event>
<event>
 7    1  0.1789107E-013  0.7246157E+02  0.7816164E-02  0.1226708E+00
        -11   -1    0    0    0    0  0.00000000000E+00  0.00000000000E+00  0.45593999997E+02  0.45594000000E+02  0.51100000000E-03 0. -1.
         11   -1    0    0    0    0 -0.00000000000E+00 -0.00000000000E+00 -0.45593999997E+02  0.45594000000E+02  0.51100000000E-03 0.  1.
    9900012    2    1    2    0    0  0.94018558137E+01 -0.10352185670E+02 -0.12454582367E+02  0.72461567803E+02  0.69999996755E+02 0.  0.
        -12    1    1    2    0    0 -0.94018558137E+01  0.10352185670E+02  0.12454582367E+02  0.18726432197E+02  0.00000000000E+00 0.  1.
         11    1    3    3    0    0 -0.47126072144E+01 -0.24126184915E+02  0.17734583210E+02  0.30311662891E+02  0.51100000000E-03 0. -1.
        -11    1    3    3    0    0  0.18451625324E+01 -0.55500698600E+01 -0.28891604180E+01  0.65234307234E+01  0.51100000000E-03 0.  1.
        -12    1    3    3    0    0  0.12269300496E+02  0.19324069106E+02 -0.27300005159E+02  0.35626474189E+02  0.00000000000E+00 0.  1.
</event>
<event>
 7    1  0.1789107E-013  0.7246157E+02  0.7816164E-02  0.1226708E+00
        -11   -1    0    0    0    0  0.00000000000E+00  0.00000000000E+00  0.45593999997E+02  0.45594000000E+02  0.51100000000E-03 0.  1.
         11   -1    0    0    0    0 -0.00000000000E+00 -0.00000000000E+00 -0.45593999997E+02  0.45594000000E+02  0.51100000000E-03 0. -1.
    9900012    2    1    2    0    0  0.63169299466E+01  0.39945583775E+01 -0.17170291878E+02  0.72461574186E+02  0.70000005070E+02 0.  0.
        -12    1    1    2    0    0 -0.63169299466E+01 -0.39945583775E+01  0.17170291878E+02  0.18726425814E+02  0.00000000000E+00 0.  1.
         11    1    3    3    0    0  0.74971370789E+01  0.24284613178E+02 -0.13432902613E+01  0.25451010404E+02  0.51100000000E-03 0. -1.
        -11    1    3    3    0    0 -0.11052049739E+02  0.58720001920E+01 -0.14304586271E+02  0.19006561455E+02  0.51100000000E-03 0.  1.
        -12    1    3    3    0    0  0.98718426068E+01 -0.26162054992E+02 -0.15224153458E+01  0.28004002328E+02  0.00000000000E+00 0.  1.
</event>
<event>
 7    1  0.1789107E-013  0.7246159E+02  0.7816164E-02  0.1226708E+00
        -11   -1    0    0    0    0  0.00000000000E+00  0.00000000000E+00  0.45593999997E+02  0.45594000000E+02  0.51100000000E-03 0.  1.
         11   -1    0    0    0    0 -0.00000000000E+00 -0.00000000000E+00 -0.45593999997E+02  0.45594000000E+02  0.51100000000E-03 0. -1.
    9900012    2    1    2    0    0  0.11204901057E+02 -0.25969624738E+01 -0.14777837120E+02  0.72461588391E+02  0.70000023575E+02 0.  0.
        -12    1    1    2    0    0 -0.11204901057E+02  0.25969624738E+01  0.14777837120E+02  0.18726411609E+02  0.00000000000E+00 0.  1.
         11    1    3    3    0    0  0.15374563826E+01 -0.31549282131E+02  0.59281124625E+00  0.31592283876E+02  0.51100000000E-03 0. -1.
        -11    1    3    3    0    0  0.30918608857E+01 -0.16195068204E+01  0.29991696791E+01  0.46018936432E+01  0.51100000000E-03 0.  1.
        -12    1    3    3    0    0  0.65755837889E+01  0.30571826477E+02 -0.18369818045E+02  0.36267410872E+02  0.00000000000E+00 0.  1.
</event>
<event>
 7    1  0.1789107E-013  0.7246165E+02  0.7816164E-02  0.1226708E+00
        -11   -1    0    0    0    0  0.00000000000E+00  0.00000000000E+00  0.45593999997E+02  0.45594000000E+02  0.51100000000E-03 0. -1.
         11   -1    0    0    0    0 -0.00000000000E+00 -0.00000000000E+00 -0.45593999997E+02  0.45594000000E+02  0.51100000000E-03 0.  1.
    9900012    2    1    2    0    0  0.95647650831E+01  0.15542212405E+02 -0.41989195677E+01  0.72461654305E+02  0.70000109440E+02 0.  0.
        -12    1    1    2    0    0 -0.95647650831E+01 -0.15542212405E+02  0.41989195677E+01  0.18726345695E+02  0.00000000000E+00 0.  1.
         11    1    3    3    0    0 -0.88264175255E+01 -0.13046268563E+02 -0.99053385177E+01  0.18607162630E+02  0.51100000000E-03 0. -1.
        -11    1    3    3    0    0  0.30715833593E+01  0.41690642094E+01 -0.16610163681E+02  0.17398656801E+02  0.51100000000E-03 0.  1.
         12    1    3    3    0    0  0.15319599249E+02  0.24419416758E+02  0.22316582631E+02  0.36455834873E+02  0.00000000000E+00 0. -1.
</event>
<event>
 7    1  0.1789107E-013  0.7246156E+02  0.7816164E-02  0.1226708E+00
        -11   -1    0    0    0    0  0.00000000000E+00  0.00000000000E+00  0.45593999997E+02  0.45594000000E+02  0.51100000000E-03 0. -1.
         11   -1    0    0    0    0 -0.00000000000E+00 -0.00000000000E+00 -0.45593999997E+02  0.45594000000E+02  0.51100000000E-03 0.  1.
    9900012    2    1    2    0    0 -0.11663362815E+02  0.13111014234E+02  0.65381119350E+01  0.72461557891E+02  0.69999983842E+02 0.  0.
        -12    1    1    2    0    0  0.11663362815E+02 -0.13111014234E+02 -0.65381119350E+01  0.18726442109E+02  0.00000000000E+00 0.  1.
         11    1    3    3    0    0  0.65863243098E+01  0.11362574701E+02 -0.13391626589E+02  0.18756956968E+02  0.51100000000E-03 0.  1.
        -11    1    3    3    0    0  0.10709476793E+02  0.65153259655E+01  0.20864661988E+02  0.24340839874E+02  0.51100000000E-03 0. -1.
        -12    1    3    3    0    0 -0.28959163918E+02 -0.47668864323E+01 -0.93492346464E+00  0.29363761049E+02  0.00000000000E+00 0.  1.
</event>
<event>
 7    1  0.1789107E-013  0.7246158E+02  0.7816164E-02  0.1226708E+00
        -11   -1    0    0    0    0  0.00000000000E+00  0.00000000000E+00  0.45593999997E+02  0.45594000000E+02  0.51100000000E-03 0.  1.
         11   -1    0    0    0    0 -0.00000000000E+00 -0.00000000000E+00 -0.45593999997E+02  0.45594000000E+02  0.51100000000E-03 0. -1.
    9900012    2    1    2    0    0 -0.14958265101E+00  0.11799863641E+00 -0.18725453221E+02  0.72461577571E+02  0.70000009479E+02 0.  0.
        -12    1    1    2    0    0  0.14958265101E+00 -0.11799863641E+00  0.18725453221E+02  0.18726422429E+02  0.00000000000E+00 0.  1.
         11    1    3    3    0    0  0.57979988369E+01 -0.37184279421E+00 -0.22336407615E+01  0.62244846283E+01  0.51100000000E-03 0. -1.
        -11    1    3    3    0    0  0.15149011760E+02 -0.26118721668E+02 -0.77138955434E+01  0.31163831016E+02  0.51100000000E-03 0.  1.
        -12    1    3    3    0    0 -0.21096593248E+02  0.26608563098E+02 -0.87779169165E+01  0.35073261927E+02  0.00000000000E+00 0.  1.
</event>
<event>
 7    1  0.1789107E-013  0.7246157E+02  0.7816164E-02  0.1226708E+00
        -11   -1    0    0    0    0  0.00000000000E+00  0.00000000000E+00  0.45593999997E+02  0.45594000000E+02  0.51100000000E-03 0.  1.
         11   -1    0    0    0    0 -0.00000000000E+00 -0.00000000000E+00 -0.45593999997E+02  0.45594000000E+02  0.51100000000E-03 0. -1.
    9900012    2    1    2    0    0  0.15625315741E+01  0.58189097688E+00 -0.18652056103E+02  0.72461566840E+02  0.69999995500E+02 0.  0.
        -12    1    1    2    0    0 -0.15625315741E+01 -0.58189097688E+00  0.18652056103E+02  0.18726433160E+02  0.00000000000E+00 0.  1.
         11    1    3    3    0    0 -0.14875435675E+01 -0.15962768366E+02 -0.18682321792E+02  0.24618121528E+02  0.51100000000E-03 0. -1.
        -11    1    3    3    0    0  0.31842691347E+01 -0.15454704284E+02  0.11777931783E+01  0.15823231385E+02  0.51100000000E-03 0.  1.
         12    1    3    3    0    0 -0.13419399311E+00  0.31999363627E+02 -0.11475274886E+01  0.32020213927E+02  0.00000000000E+00 0. -1.
</event>
<event>
 7    1  0.1789107E-013  0.7246153E+02  0.7816164E-02  0.1226708E+00
        -11   -1    0    0    0    0  0.00000000000E+00  0.00000000000E+00  0.45593999997E+02  0.45594000000E+02  0.51100000000E-03 0. -1.
         11   -1    0    0    0    0 -0.00000000000E+00 -0.00000000000E+00 -0.45593999997E+02  0.45594000000E+02  0.51100000000E-03 0.  1.
    9900012    2    1    2    0    0  0.10153500874E+02  0.14947277142E+02  0.49159049811E+01  0.72461526874E+02  0.69999943437E+02 0.  0.
        -12    1    1    2    0    0 -0.10153500874E+02 -0.14947277142E+02 -0.49159049811E+01  0.18726473126E+02  0.00000000000E+00 0.  1.
         11    1    3    3    0    0  0.72036169712E+01  0.24883250330E+02  0.59616727657E+01  0.26582132851E+02  0.51100000000E-03 0. -1.
        -11    1    3    3    0    0  0.98419515550E+01  0.38978780300E+01 -0.19268581646E+02  0.21984897145E+02  0.51100000000E-03 0.  1.
        -12    1    3    3    0    0 -0.68920676526E+01 -0.13833851218E+02  0.18222813862E+02  0.23894496879E+02  0.00000000000E+00 0.  1.
</event>
<event>
 7    1  0.1789107E-013  0.7246158E+02  0.7816164E-02  0.1226708E+00
        -11   -1    0    0    0    0  0.00000000000E+00  0.00000000000E+00  0.45593999997E+02  0.45594000000E+02  0.51100000000E-03 0. -1.
         11   -1    0    0    0    0 -0.00000000000E+00 -0.00000000000E+00 -0.45593999997E+02  0.45594000000E+02  0.51100000000E-03 0.  1.
    9900012    2    1    2    0    0 -0.18369443326E+02  0.35152604759E+01  0.94096669796E+00  0.72461576886E+02  0.70000008587E+02 0.  0.
        -12    1    1    2    0    0  0.18369443326E+02 -0.35152604759E+01 -0.94096669796E+00  0.18726423114E+02  0.00000000000E+00 0.  1.
         11    1    3    3    0    0 -0.34544313975E+02 -0.63875460181E+01  0.16648906642E+02  0.38875396651E+02  0.51100000000E-03 0. -1.
        -11    1    3    3    0    0 -0.58193292433E+01  0.32811244278E+01 -0.28528674944E+01  0.72642428067E+01  0.51100000000E-03 0.  1.
         12    1    3    3    0    0  0.21994199892E+02  0.66216820662E+01 -0.12855072450E+02  0.26321937428E+02  0.00000000000E+00 0. -1.
</event>
<event>
 7    1  0.1789107E-013  0.7246156E+02  0.7816164E-02  0.1226708E+00
        -11   -1    0    0    0    0  0.00000000000E+00  0.00000000000E+00  0.45593999997E+02  0.45594000000E+02  0.51100000000E-03 0.  1.
         11   -1    0    0    0    0 -0.00000000000E+00 -0.00000000000E+00 -0.45593999997E+02  0.45594000000E+02  0.51100000000E-03 0. -1.
    9900012    2    1    2    0    0 -0.84257129175E+01  0.99024983284E+01 -0.13476925234E+02  0.72461558131E+02  0.69999984155E+02 0.  0.
        -12    1    1    2    0    0  0.84257129175E+01 -0.99024983284E+01  0.13476925234E+02  0.18726441869E+02  0.00000000000E+00 0.  1.
         11    1    3    3    0    0  0.10685261389E+02  0.29555035956E+02 -0.31845745736E+01  0.31588233201E+02  0.51100000000E-03 0. -1.
        -11    1    3    3    0    0 -0.21200520755E+02 -0.41449963698E+01  0.92273081303E+00  0.21621621299E+02  0.51100000000E-03 0.  1.
        -12    1    3    3    0    0  0.20895464488E+01 -0.15507541258E+02 -0.11215081474E+02  0.19251703631E+02  0.00000000000E+00 0.  1.
</event>
<event>
 7    1  0.1789107E-013  0.7246156E+02  0.7816164E-02  0.1226708E+00
        -11   -1    0    0    0    0  0.00000000000E+00  0.00000000000E+00  0.45593999997E+02  0.45594000000E+02  0.51100000000E-03 0. -1.
         11   -1    0    0    0    0 -0.00000000000E+00 -0.00000000000E+00 -0.45593999997E+02  0.45594000000E+02  0.51100000000E-03 0.  1.
    9900012    2    1    2    0    0 -0.26805851273E+01  0.16581097612E+02  0.82801664725E+01  0.72461561699E+02  0.69999988803E+02 0.  0.
        -12    1    1    2    0    0  0.26805851273E+01 -0.16581097612E+02 -0.82801664725E+01  0.18726438301E+02  0.00000000000E+00 0.  1.
         11    1    3    3    0    0  0.77895949254E+01 -0.86274913875E+00  0.13752891905E+02  0.15829218591E+02  0.51100000000E-03 0. -1.
        -11    1    3    3    0    0  0.16564686800E+02  0.23412647510E+02 -0.29834115315E+01  0.28834730046E+02  0.51100000000E-03 0.  1.
         12    1    3    3    0    0 -0.27034866853E+02 -0.59688007593E+01 -0.24893139010E+01  0.27797613062E+02  0.00000000000E+00 0. -1.
</event>
<event>
 7    1  0.1789107E-013  0.7246156E+02  0.7816164E-02  0.1226708E+00
        -11   -1    0    0    0    0  0.00000000000E+00  0.00000000000E+00  0.45593999997E+02  0.45594000000E+02  0.51100000000E-03 0. -1.
         11   -1    0    0    0    0 -0.00000000000E+00 -0.00000000000E+00 -0.45593999997E+02  0.45594000000E+02  0.51100000000E-03 0.  1.
    9900012    2    1    2    0    0  0.40695230507E+01 -0.17457749093E+02  0.54171612601E+01  0.72461557269E+02  0.69999983032E+02 0.  0.
        -12    1    1    2    0    0 -0.40695230507E+01  0.17457749093E+02 -0.54171612601E+01  0.18726442731E+02  0.00000000000E+00 0.  1.
         11    1    3    3    0    0  0.31460316081E+02 -0.80974495816E+00  0.69043894650E+01  0.32219214282E+02  0.51100000000E-03 0. -1.
        -11    1    3    3    0    0  0.30875410496E+01 -0.47135135830E+00 -0.46400825515E+01  0.55933396269E+01  0.51100000000E-03 0.  1.
        -12    1    3    3    0    0 -0.30478334080E+02 -0.16176652777E+02  0.31528543466E+01  0.34649003360E+02  0.00000000000E+00 0.  1.
</event>
<event>
 7    1  0.1789107E-013  0.7246160E+02  0.7816164E-02  0.1226708E+00
        -11   -1    0    0    0    0  0.00000000000E+00  0.00000000000E+00  0.45593999997E+02  0.45594000000E+02  0.51100000000E-03 0. -1.
         11   -1    0    0    0    0 -0.00000000000E+00 -0.00000000000E+00 -0.45593999997E+02  0.45594000000E+02  0.51100000000E-03 0.  1.
    9900012    2    1    2    0    0  0.58291998517E+01 -0.16169071463E+02  0.74336768527E+01  0.72461601669E+02  0.70000040871E+02 0.  0.
        -12    1    1    2    0    0 -0.58291998517E+01  0.16169071463E+02 -0.74336768527E+01  0.18726398331E+02  0.00000000000E+00 0.  1.
         11    1    3    3    0    0 -0.20892654974E+00 -0.19783345399E+02  0.17868054513E+02  0.26658803008E+02  0.51100000000E-03 0. -1.
        -11    1    3    3    0    0 -0.13379249348E+02  0.14864867348E+02  0.20816328970E+01  0.20107257152E+02  0.51100000000E-03 0.  1.
        -12    1    3    3    0    0  0.19417375750E+02 -0.11250593412E+02 -0.12516010558E+02  0.25695541508E+02  0.00000000000E+00 0.  1.
</event>
<event>
 7    1  0.1789107E-013  0.7246155E+02  0.7816164E-02  0.1226708E+00
        -11   -1    0    0    0    0  0.00000000000E+00  0.00000000000E+00  0.45593999997E+02  0.45594000000E+02  0.51100000000E-03 0. -1.
         11   -1    0    0    0    0 -0.00000000000E+00 -0.00000000000E+00 -0.45593999997E+02  0.45594000000E+02  0.51100000000E-03 0.  1.
    9900012    2    1    2    0    0 -0.94455639610E+01 -0.96543732218E-01  0.16169476609E+02  0.72461548840E+02  0.69999972052E+02 0.  0.
        -12    1    1    2    0    0  0.94455639610E+01  0.96543732218E-01 -0.16169476609E+02  0.18726451160E+02  0.00000000000E+00 0.  1.
         11    1    3    3    0    0 -0.26265892638E+02 -0.10351523045E+02 -0.59478133310E+01  0.28851821937E+02  0.51100000000E-03 0. -1.
        -11    1    3    3    0    0 -0.32285937570E+00 -0.24942607989E+01 -0.70327438809E+01  0.74689398086E+01  0.51100000000E-03 0.  1.
        -12    1    3    3    0    0  0.17143188052E+02  0.12749240111E+02  0.29150033821E+02  0.36140787094E+02  0.00000000000E+00 0.  1.
</event>
<event>
 7    1  0.1789107E-013  0.7246158E+02  0.7816164E-02  0.1226708E+00
        -11   -1    0    0    0    0  0.00000000000E+00  0.00000000000E+00  0.45593999997E+02  0.45594000000E+02  0.51100000000E-03 0. -1.
         11   -1    0    0    0    0 -0.00000000000E+00 -0.00000000000E+00 -0.45593999997E+02  0.45594000000E+02  0.51100000000E-03 0.  1.
    9900012    2    1    2    0    0 -0.57976298853E+00 -0.13827966699E+02  0.12614681830E+02  0.72461575199E+02  0.70000006389E+02 0.  0.
        -12    1    1    2    0    0  0.57976298853E+00  0.13827966699E+02 -0.12614681830E+02  0.18726424801E+02  0.00000000000E+00 0.  1.
         11    1    3    3    0    0  0.12810138907E+02  0.79729463874E+01  0.23448201130E+01  0.15269764718E+02  0.51100000000E-03 0. -1.
        -11    1    3    3    0    0 -0.13538981488E+01 -0.30995853370E+02 -0.93518699963E+01  0.32404219464E+02  0.51100000000E-03 0.  1.
         12    1    3    3    0    0 -0.12036003746E+02  0.91949402841E+01  0.19621731714E+02  0.24787591018E+02  0.00000000000E+00 0. -1.
</event>
<event>
 7    1  0.1789107E-013  0.7246146E+02  0.7816164E-02  0.1226708E+00
        -11   -1    0    0    0    0  0.00000000000E+00  0.00000000000E+00  0.45593999997E+02  0.45594000000E+02  0.51100000000E-03 0.  1.
         11   -1    0    0    0    0 -0.00000000000E+00 -0.00000000000E+00 -0.45593999997E+02  0.45594000000E+02  0.51100000000E-03 0. -1.
    9900012    2    1    2    0    0 -0.11556096286E+02  0.88605822596E+01 -0.11774121343E+02  0.72461462339E+02  0.69999859368E+02 0.  0.
        -12    1    1    2    0    0  0.11556096286E+02 -0.88605822596E+01  0.11774121343E+02  0.18726537661E+02  0.00000000000E+00 0.  1.
         11    1    3    3    0    0  0.24122442814E+02  0.18153647007E+02 -0.13866978909E+02  0.33222586463E+02  0.51100000000E-03 0. -1.
        -11    1    3    3    0    0 -0.24886104405E+01 -0.49447693257E+00  0.41245154602E+01  0.48424495252E+01  0.51100000000E-03 0.  1.
        -12    1    3    3    0    0 -0.33189928659E+02 -0.87985878147E+01 -0.20316578943E+01  0.34396426351E+02  0.00000000000E+00 0.  1.
</event>
<event>
 7    1  0.1789107E-013  0.7246156E+02  0.7816164E-02  0.1226708E+00
        -11   -1    0    0    0    0  0.00000000000E+00  0.00000000000E+00  0.45593999997E+02  0.45594000000E+02  0.51100000000E-03 0.  1.
         11   -1    0    0    0    0 -0.00000000000E+00 -0.00000000000E+00 -0.45593999997E+02  0.45594000000E+02  0.51100000000E-03 0. -1.
    9900012    2    1    2    0    0  0.95071365152E+01 -0.10789937856E+02 -0.11994637685E+02  0.72461555147E+02  0.69999980267E+02 0.  0.
        -12    1    1    2    0    0 -0.95071365152E+01  0.10789937856E+02  0.11994637685E+02  0.18726444853E+02  0.00000000000E+00 0.  1.
         11    1    3    3    0    0  0.39385301388E+01 -0.95392510048E+01 -0.24920767542E+01  0.10616957012E+02  0.51100000000E-03 0. -1.
        -11    1    3    3    0    0 -0.56772073329E+01  0.22561678477E+02  0.13483220657E+02  0.26889724029E+02  0.51100000000E-03 0.  1.
         12    1    3    3    0    0  0.11245813709E+02 -0.23812365329E+02 -0.22985781587E+02  0.34954874105E+02  0.00000000000E+00 0. -1.
</event>
<event>
 7    1  0.2482012E-013  0.7246156E+02  0.7816164E-02  0.1226708E+00
        -11   -1    0    0    0    0  0.00000000000E+00  0.00000000000E+00  0.45593999997E+02  0.45594000000E+02  0.51100000000E-03 0. -1.
         11   -1    0    0    0    0 -0.00000000000E+00 -0.00000000000E+00 -0.45593999997E+02  0.45594000000E+02  0.51100000000E-03 0.  1.
    9900012    2    1    2    0    0  0.13754645899E+02  0.44179981863E+01  0.11915135212E+02  0.72461563101E+02  0.69999990630E+02 0.  0.
        -12    1    1    2    0    0 -0.13754645899E+02 -0.44179981863E+01 -0.11915135212E+02  0.18726436899E+02  0.00000000000E+00 0.  1.
         11    1    3    3    0    0  0.13384877198E+02  0.11517830589E+02  0.24036242397E+02  0.29825430557E+02  0.51100000000E-03 0. -1.
        -11    1    3    3    0    0  0.19737915713E+02  0.12156575955E+01 -0.51408467659E+01  0.20432607416E+02  0.51100000000E-03 0.  1.
        -12    1    3    3    0    0 -0.19368147012E+02 -0.83154899980E+01 -0.69802604186E+01  0.22203525128E+02  0.00000000000E+00 0.  1.
</event>
<event>
 7    1  0.1789107E-013  0.7246154E+02  0.7816164E-02  0.1226708E+00
        -11   -1    0    0    0    0  0.00000000000E+00  0.00000000000E+00  0.45593999997E+02  0.45594000000E+02  0.51100000000E-03 0.  1.
         11   -1    0    0    0    0 -0.00000000000E+00 -0.00000000000E+00 -0.45593999997E+02  0.45594000000E+02  0.51100000000E-03 0. -1.
    9900012    2    1    2    0    0  0.17264676446E+02  0.25053391929E+01 -0.68069385587E+01  0.72461543053E+02  0.69999964513E+02 0.  0.
        -12    1    1    2    0    0 -0.17264676446E+02 -0.25053391929E+01  0.68069385587E+01  0.18726456947E+02  0.00000000000E+00 0.  1.
         11    1    3    3    0    0  0.98112846112E+01 -0.23795050648E+02 -0.24850995158E+02  0.35777614533E+02  0.51100000000E-03 0. -1.
        -11    1    3    3    0    0  0.39093161463E+01  0.17735460265E+01  0.95782018942E+01  0.10496197884E+02  0.51100000000E-03 0.  1.
        -12    1    3    3    0    0  0.35440756884E+01  0.24526843814E+02  0.84658547051E+01  0.26187730636E+02  0.00000000000E+00 0.  1.
</event>
<event>
 7    1  0.1789107E-013  0.7246160E+02  0.7816164E-02  0.1226708E+00
        -11   -1    0    0    0    0  0.00000000000E+00  0.00000000000E+00  0.45593999997E+02  0.45594000000E+02  0.51100000000E-03 0.  1.
         11   -1    0    0    0    0 -0.00000000000E+00 -0.00000000000E+00 -0.45593999997E+02  0.45594000000E+02  0.51100000000E-03 0. -1.
    9900012    2    1    2    0    0  0.11567929276E+02 -0.10609310739E+02 -0.10212911273E+02  0.72461601020E+02  0.70000040026E+02 0.  0.
        -12    1    1    2    0    0 -0.11567929276E+02  0.10609310739E+02  0.10212911273E+02  0.18726398980E+02  0.00000000000E+00 0.  1.
         11    1    3    3    0    0  0.18625197535E+01  0.10534113170E+02 -0.23061118250E+02  0.25421480982E+02  0.51100000000E-03 0. -1.
        -11    1    3    3    0    0 -0.14478431968E+02 -0.91054655412E+01 -0.52082513259E-01  0.17103719122E+02  0.51100000000E-03 0.  1.
        -12    1    3    3    0    0  0.24183841490E+02 -0.12037958368E+02  0.12900289490E+02  0.29936400916E+02  0.00000000000E+00 0.  1.
</event>
<event>
 7    1  0.1789107E-013  0.7246154E+02  0.7816164E-02  0.1226708E+00
        -11   -1    0    0    0    0  0.00000000000E+00  0.00000000000E+00  0.45593999997E+02  0.45594000000E+02  0.51100000000E-03 0. -1.
         11   -1    0    0    0    0 -0.00000000000E+00 -0.00000000000E+00 -0.45593999997E+02  0.45594000000E+02  0.51100000000E-03 0.  1.
    9900012    2    1    2    0    0  0.75078961350E+01 -0.17037930168E+02 -0.20051411494E+01  0.72461543854E+02  0.69999965556E+02 0.  0.
        -12    1    1    2    0    0 -0.75078961350E+01  0.17037930168E+02  0.20051411494E+01  0.18726456146E+02  0.00000000000E+00 0.  1.
         11    1    3    3    0    0  0.26552480615E+01  0.13164369015E+02  0.97316944591E+00  0.13464695053E+02  0.51100000000E-03 0. -1.
        -11    1    3    3    0    0 -0.87609571326E+00 -0.17884655952E+01 -0.23435035460E+02  0.23519503400E+02  0.51100000000E-03 0.  1.
         12    1    3    3    0    0  0.57287437868E+01 -0.28413833588E+02  0.20456724865E+02  0.35477345401E+02  0.00000000000E+00 0. -1.
</event>
<event>
 7    1  0.1789107E-013  0.7246150E+02  0.7816164E-02  0.1226708E+00
        -11   -1    0    0    0    0  0.00000000000E+00  0.00000000000E+00  0.45593999997E+02  0.45594000000E+02  0.51100000000E-03 0.  1.
         11   -1    0    0    0    0 -0.00000000000E+00 -0.00000000000E+00 -0.45593999997E+02  0.45594000000E+02  0.51100000000E-03 0. -1.
    9900012    2    1    2    0    0  0.15114231847E+02  0.23162703718E+01 -0.10810944452E+02  0.72461504527E+02  0.69999914326E+02 0.  0.
        -12    1    1    2    0    0 -0.15114231847E+02 -0.23162703718E+01  0.10810944452E+02  0.18726495473E+02  0.00000000000E+00 0.  1.
         11    1    3    3    0    0  0.16694153898E+02 -0.86464082233E+01  0.12743070059E+02  0.22712132976E+02  0.51100000000E-03 0. -1.
        -11    1    3    3    0    0 -0.15905837813E+02 -0.18223420659E+00  0.43233583914E+01  0.16483941091E+02  0.51100000000E-03 0.  1.
         12    1    3    3    0    0  0.14325915761E+02  0.11144912802E+02 -0.27877372903E+02  0.33265430460E+02  0.00000000000E+00 0. -1.
</event>
<event>
 7    1  0.1789107E-013  0.7246169E+02  0.7816164E-02  0.1226708E+00
        -11   -1    0    0    0    0  0.00000000000E+00  0.00000000000E+00  0.45593999997E+02  0.45594000000E+02  0.51100000000E-03 0.  1.
         11   -1    0    0    0    0 -0.00000000000E+00 -0.00000000000E+00 -0.45593999997E+02  0.45594000000E+02  0.51100000000E-03 0. -1.
    9900012    2    1    2    0    0 -0.14494863918E+02  0.44606043846E+01 -0.10985297075E+02  0.72461686340E+02  0.70000151171E+02 0.  0.
        -12    1    1    2    0    0  0.14494863918E+02 -0.44606043846E+01  0.10985297075E+02  0.18726313660E+02  0.00000000000E+00 0.  1.
         11    1    3    3    0    0  0.66325380144E+01  0.11722273802E+02 -0.14153743008E+02  0.19537929906E+02  0.51100000000E-03 0. -1.
        -11    1    3    3    0    0  0.15262952299E+02  0.85605810124E+00  0.32984408160E+01  0.15638742290E+02  0.51100000000E-03 0.  1.
        -12    1    3    3    0    0 -0.36390354230E+02 -0.81177275190E+01 -0.12999488287E+00  0.37285014145E+02  0.00000000000E+00 0.  1.
</event>
<event>
 7    1  0.1789107E-013  0.7246155E+02  0.7816164E-02  0.1226708E+00
        -11   -1    0    0    0    0  0.00000000000E+00  0.00000000000E+00  0.45593999997E+02  0.45594000000E+02  0.51100000000E-03 0.  1.
         11   -1    0    0    0    0 -0.00000000000E+00 -0.00000000000E+00 -0.45593999997E+02  0.45594000000E+02  0.51100000000E-03 0. -1.
    9900012    2    1    2    0    0  0.14848568973E+02  0.83203315662E+01 -0.78084481583E+01  0.72461553980E+02  0.69999978747E+02 0.  0.
        -12    1    1    2    0    0 -0.14848568973E+02 -0.83203315662E+01  0.78084481583E+01  0.18726446020E+02  0.00000000000E+00 0.  1.
         11    1    3    3    0    0  0.10655089104E+02  0.10609463034E+02 -0.15429474939E+02  0.21544380401E+02  0.51100000000E-03 0. -1.
        -11    1    3    3    0    0  0.25466361347E+02 -0.10313977066E+02  0.23359350481E+01  0.27574812347E+02  0.51100000000E-03 0.  1.
         12    1    3    3    0    0 -0.21272881478E+02  0.80248455988E+01  0.52850917330E+01  0.23342361232E+02  0.00000000000E+00 0. -1.
</event>
<event>
 7    1  0.1789107E-013  0.7246150E+02  0.7816164E-02  0.1226708E+00
        -11   -1    0    0    0    0  0.00000000000E+00  0.00000000000E+00  0.45593999997E+02  0.45594000000E+02  0.51100000000E-03 0.  1.
         11   -1    0    0    0    0 -0.00000000000E+00 -0.00000000000E+00 -0.45593999997E+02  0.45594000000E+02  0.51100000000E-03 0. -1.
    9900012    2    1    2    0    0 -0.35359563189E+01 -0.15372515098E+02 -0.10092792706E+02  0.72461503474E+02  0.69999912954E+02 0.  0.
        -12    1    1    2    0    0  0.35359563189E+01  0.15372515098E+02  0.10092792706E+02  0.18726496526E+02  0.00000000000E+00 0.  1.
         11    1    3    3    0    0 -0.79511217087E+01 -0.70002457445E+01 -0.52747508072E+01  0.11834135932E+02  0.51100000000E-03 0. -1.
        -11    1    3    3    0    0 -0.39747942417E+01 -0.30602412128E+02  0.10219967997E+02  0.32507758512E+02  0.51100000000E-03 0.  1.
         12    1    3    3    0    0  0.83899596315E+01  0.22230142775E+02 -0.15038009896E+02  0.28119609031E+02  0.00000000000E+00 0. -1.
</event>
<event>
 7    1  0.1789107E-013  0.7246152E+02  0.7816164E-02  0.1226708E+00
        -11   -1    0    0    0    0  0.00000000000E+00  0.00000000000E+00  0.45593999997E+02  0.45594000000E+02  0.51100000000E-03 0. -1.
         11   -1    0    0    0    0 -0.00000000000E+00 -0.00000000000E+00 -0.45593999997E+02  0.45594000000E+02  0.51100000000E-03 0.  1.
    9900012    2    1    2    0    0 -0.90388955597E+01  0.14378007424E+02  0.78900155240E+01  0.72461519407E+02  0.69999933710E+02 0.  0.
        -12    1    1    2    0    0  0.90388955597E+01 -0.14378007424E+02 -0.78900155240E+01  0.18726480593E+02  0.00000000000E+00 0.  1.
         11    1    3    3    0    0  0.36938369905E+01  0.67962058756E+01 -0.10522117186E+02  0.13059394946E+02  0.51100000000E-03 0. -1.
        -11    1    3    3    0    0 -0.12219381961E+02 -0.16966780659E+01 -0.18000607060E+02  0.21822324962E+02  0.51100000000E-03 0.  1.
         12    1    3    3    0    0 -0.51335058920E+00  0.92784796144E+01  0.36412739770E+02  0.37579799499E+02  0.00000000000E+00 0. -1.
</event>
<event>
 7    1  0.1789107E-013  0.7246142E+02  0.7816164E-02  0.1226708E+00
        -11   -1    0    0    0    0  0.00000000000E+00  0.00000000000E+00  0.45593999997E+02  0.45594000000E+02  0.51100000000E-03 0. -1.
         11   -1    0    0    0    0 -0.00000000000E+00 -0.00000000000E+00 -0.45593999997E+02  0.45594000000E+02  0.51100000000E-03 0.  1.
    9900012    2    1    2    0    0 -0.11620966876E+02  0.13670400336E+02  0.53626422359E+01  0.72461424012E+02  0.69999809440E+02 0.  0.
        -12    1    1    2    0    0  0.11620966876E+02 -0.13670400336E+02 -0.53626422359E+01  0.18726575988E+02  0.00000000000E+00 0.  1.
         11    1    3    3    0    0 -0.38350049654E+01 -0.10670569370E+02 -0.17381196552E+02  0.20752693984E+02  0.51100000000E-03 0.  1.
        -11    1    3    3    0    0 -0.23203011958E+02  0.96797570617E+01  0.13108184013E+02  0.28353164710E+02  0.51100000000E-03 0. -1.
         12    1    3    3    0    0  0.15417050048E+02  0.14661212645E+02  0.96356547750E+01  0.23355565318E+02  0.00000000000E+00 0. -1.
</event>
<event>
 7    1  0.1789107E-013  0.7246154E+02  0.7816164E-02  0.1226708E+00
        -11   -1    0    0    0    0  0.00000000000E+00  0.00000000000E+00  0.45593999997E+02  0.45594000000E+02  0.51100000000E-03 0.  1.
         11   -1    0    0    0    0 -0.00000000000E+00 -0.00000000000E+00 -0.45593999997E+02  0.45594000000E+02  0.51100000000E-03 0. -1.
    9900012    2    1    2    0    0 -0.38900566413E+01 -0.91023704484E+01 -0.15896367386E+02  0.72461543193E+02  0.69999964696E+02 0.  0.
        -12    1    1    2    0    0  0.38900566413E+01  0.91023704484E+01  0.15896367386E+02  0.18726456807E+02  0.00000000000E+00 0.  1.
         11    1    3    3    0    0  0.30131554115E+01 -0.19171355543E+02 -0.15742923101E+02  0.24989189801E+02  0.51100000000E-03 0. -1.
        -11    1    3    3    0    0  0.20699805865E+01 -0.86285710434E+01  0.17898351400E+02  0.19977188015E+02  0.51100000000E-03 0.  1.
        -12    1    3    3    0    0 -0.89731926393E+01  0.18697556138E+02 -0.18051795685E+02  0.27495165378E+02  0.00000000000E+00 0.  1.
</event>
<event>
 7    1  0.1789107E-013  0.7246158E+02  0.7816164E-02  0.1226708E+00
        -11   -1    0    0    0    0  0.00000000000E+00  0.00000000000E+00  0.45593999997E+02  0.45594000000E+02  0.51100000000E-03 0.  1.
         11   -1    0    0    0    0 -0.00000000000E+00 -0.00000000000E+00 -0.45593999997E+02  0.45594000000E+02  0.51100000000E-03 0. -1.
    9900012    2    1    2    0    0 -0.70216740208E+01 -0.17132480765E+02  0.28023031411E+01  0.72461582667E+02  0.70000016118E+02 0.  0.
        -12    1    1    2    0    0  0.70216740208E+01  0.17132480765E+02 -0.28023031411E+01  0.18726417333E+02  0.00000000000E+00 0.  1.
         11    1    3    3    0    0 -0.25078630176E+02  0.60953933709E+00 -0.93565011319E+01  0.26774117042E+02  0.51100000000E-03 0. -1.
        -11    1    3    3    0    0  0.14275489971E+02 -0.17637373276E+02 -0.88391070637E+01  0.24351516666E+02  0.51100000000E-03 0.  1.
        -12    1    3    3    0    0  0.37814661841E+01 -0.10464682619E+00  0.20997911337E+02  0.21335948959E+02  0.00000000000E+00 0.  1.
</event>
<event>
 7    1  0.1789107E-013  0.7246152E+02  0.7816164E-02  0.1226708E+00
        -11   -1    0    0    0    0  0.00000000000E+00  0.00000000000E+00  0.45593999997E+02  0.45594000000E+02  0.51100000000E-03 0.  1.
         11   -1    0    0    0    0 -0.00000000000E+00 -0.00000000000E+00 -0.45593999997E+02  0.45594000000E+02  0.51100000000E-03 0. -1.
    9900012    2    1    2    0    0  0.19043533947E+01 -0.18228364556E+02 -0.38446265525E+01  0.72461521698E+02  0.69999936695E+02 0.  0.
        -12    1    1    2    0    0 -0.19043533947E+01  0.18228364556E+02  0.38446265525E+01  0.18726478302E+02  0.00000000000E+00 0.  1.
         11    1    3    3    0    0  0.77676633135E+01 -0.92062074081E+01  0.35855689524E+00  0.12050701702E+02  0.51100000000E-03 0. -1.
        -11    1    3    3    0    0  0.19110224182E+02  0.87816884954E+00  0.17459904281E+02  0.25900195107E+02  0.51100000000E-03 0.  1.
         12    1    3    3    0    0 -0.24973534101E+02 -0.99003259979E+01 -0.21663087728E+02  0.34510624890E+02  0.00000000000E+00 0. -1.
</event>
<event>
 7    1  0.1789107E-013  0.7246150E+02  0.7816164E-02  0.1226708E+00
        -11   -1    0    0    0    0  0.00000000000E+00  0.00000000000E+00  0.45593999997E+02  0.45594000000E+02  0.51100000000E-03 0.  1.
         11   -1    0    0    0    0 -0.00000000000E+00 -0.00000000000E+00 -0.45593999997E+02  0.45594000000E+02  0.51100000000E-03 0. -1.
    9900012    2    1    2    0    0  0.12558517953E+02  0.13660541070E+02  0.25209026449E+01  0.72461502579E+02  0.69999911789E+02 0.  0.
        -12    1    1    2    0    0 -0.12558517953E+02 -0.13660541070E+02 -0.25209026449E+01  0.18726497421E+02  0.00000000000E+00 0.  1.
         11    1    3    3    0    0  0.91338155482E+00  0.14367180577E+02  0.17579181297E+02  0.22721746388E+02  0.51100000000E-03 0. -1.
        -11    1    3    3    0    0 -0.17827743011E+02  0.11177481377E+01 -0.62534232645E+01  0.18925725469E+02  0.51100000000E-03 0.  1.
         12    1    3    3    0    0  0.29472879409E+02 -0.18243876443E+01 -0.88048553875E+01  0.30814030722E+02  0.00000000000E+00 0. -1.
</event>
<event>
 7    1  0.1789107E-013  0.7246177E+02  0.7816164E-02  0.1226707E+00
        -11   -1    0    0    0    0  0.00000000000E+00  0.00000000000E+00  0.45593999997E+02  0.45594000000E+02  0.51100000000E-03 0.  1.
         11   -1    0    0    0    0 -0.00000000000E+00 -0.00000000000E+00 -0.45593999997E+02  0.45594000000E+02  0.51100000000E-03 0. -1.
    9900012    2    1    2    0    0  0.16776786744E+02  0.82790813130E+01  0.81725168307E+00  0.72461770771E+02  0.70000261157E+02 0.  0.
        -12    1    1    2    0    0 -0.16776786744E+02 -0.82790813130E+01 -0.81725168307E+00  0.18726229229E+02  0.00000000000E+00 0.  1.
         11    1    3    3    0    0  0.20951274116E+02  0.19261296315E+02  0.31225422464E+01  0.28630467917E+02  0.51100000000E-03 0. -1.
        -11    1    3    3    0    0  0.17671032744E+02 -0.50073051147E+01  0.65699744441E+01  0.19506487823E+02  0.51100000000E-03 0.  1.
         12    1    3    3    0    0 -0.21845520116E+02 -0.59749098875E+01 -0.88752650075E+01  0.24324815030E+02  0.00000000000E+00 0. -1.
</event>
<event>
 7    1  0.1789107E-013  0.7246152E+02  0.7816164E-02  0.1226708E+00
        -11   -1    0    0    0    0  0.00000000000E+00  0.00000000000E+00  0.45593999997E+02  0.45594000000E+02  0.51100000000E-03 0. -1.
         11   -1    0    0    0    0 -0.00000000000E+00 -0.00000000000E+00 -0.45593999997E+02  0.45594000000E+02  0.51100000000E-03 0.  1.
    9900012    2    1    2    0    0 -0.84017697859E+00 -0.13446927540E+02  0.13005966532E+02  0.72461523475E+02  0.69999939009E+02 0.  0.
        -12    1    1    2    0    0  0.84017697859E+00  0.13446927540E+02 -0.13005966532E+02  0.18726476525E+02  0.00000000000E+00 0.  1.
         11    1    3    3    0    0 -0.12255039282E+02 -0.16196714693E+02 -0.94275628169E+01  0.22391929250E+02  0.51100000000E-03 0. -1.
        -11    1    3    3    0    0 -0.55441826152E+01  0.10895294342E+02 -0.77704474868E+01  0.14485346184E+02  0.51100000000E-03 0.  1.
         12    1    3    3    0    0  0.16959044918E+02 -0.81455071892E+01  0.30203976835E+02  0.35584248040E+02  0.00000000000E+00 0. -1.
</event>
<event>
 7    1  0.1789107E-013  0.7246105E+02  0.7816164E-02  0.1226709E+00
        -11   -1    0    0    0    0  0.00000000000E+00  0.00000000000E+00  0.45593999997E+02  0.45594000000E+02  0.51100000000E-03 0.  1.
         11   -1    0    0    0    0 -0.00000000000E+00 -0.00000000000E+00 -0.45593999997E+02  0.45594000000E+02  0.51100000000E-03 0. -1.
    9900012    2    1    2    0    0  0.74573241370E+01 -0.44735884100E+01 -0.16585355456E+02  0.72461049043E+02  0.69999320969E+02 0.  0.
        -12    1    1    2    0    0 -0.74573241370E+01  0.44735884100E+01  0.16585355456E+02  0.18726950957E+02  0.00000000000E+00 0.  1.
         11    1    3    3    0    0  0.66612188818E+01 -0.10295335395E+02 -0.93008087527E+01  0.15390607902E+02  0.51100000000E-03 0. -1.
        -11    1    3    3    0    0  0.13752083035E+02 -0.14585593279E+02  0.14331538209E+02  0.24642489866E+02  0.51100000000E-03 0.  1.
         12    1    3    3    0    0 -0.12955977779E+02  0.20407340264E+02 -0.21616084913E+02  0.32427951274E+02  0.00000000000E+00 0. -1.
</event>
<event>
 7    1  0.1789107E-013  0.7246164E+02  0.7816164E-02  0.1226708E+00
        -11   -1    0    0    0    0  0.00000000000E+00  0.00000000000E+00  0.45593999997E+02  0.45594000000E+02  0.51100000000E-03 0.  1.
         11   -1    0    0    0    0 -0.00000000000E+00 -0.00000000000E+00 -0.45593999997E+02  0.45594000000E+02  0.51100000000E-03 0. -1.
    9900012    2    1    2    0    0 -0.23874938894E+01 -0.13840257963E+02  0.12386431527E+02  0.72461640142E+02  0.70000090989E+02 0.  0.
        -12    1    1    2    0    0  0.23874938894E+01  0.13840257963E+02 -0.12386431527E+02  0.18726359858E+02  0.00000000000E+00 0.  1.
         11    1    3    3    0    0 -0.23102804608E+02 -0.11461268652E+02 -0.22209367410E+01  0.25884992180E+02  0.51100000000E-03 0. -1.
        -11    1    3    3    0    0 -0.70510952100E+01 -0.12745473408E+02  0.55135261225E+01  0.15574466495E+02  0.51100000000E-03 0.  1.
        -12    1    3    3    0    0  0.27766405929E+02  0.10366484096E+02  0.90938421456E+01  0.31002181467E+02  0.00000000000E+00 0.  1.
</event>
<event>
 7    1  0.1789107E-013  0.7246155E+02  0.7816164E-02  0.1226708E+00
        -11   -1    0    0    0    0  0.00000000000E+00  0.00000000000E+00  0.45593999997E+02  0.45594000000E+02  0.51100000000E-03 0.  1.
         11   -1    0    0    0    0 -0.00000000000E+00 -0.00000000000E+00 -0.45593999997E+02  0.45594000000E+02  0.51100000000E-03 0. -1.
    9900012    2    1    2    0    0 -0.31478681394E+01  0.15228005838E+02 -0.10434500468E+02  0.72461547168E+02  0.69999969874E+02 0.  0.
        -12    1    1    2    0    0  0.31478681394E+01 -0.15228005838E+02  0.10434500468E+02  0.18726452832E+02  0.00000000000E+00 0.  1.
         11    1    3    3    0    0  0.45224996360E+01  0.15496362616E+02 -0.28482462751E+02  0.32738981992E+02  0.51100000000E-03 0. -1.
        -11    1    3    3    0    0 -0.18814863787E+02  0.84988473864E+01  0.14109242782E+02  0.25006004046E+02  0.51100000000E-03 0.  1.
         12    1    3    3    0    0  0.11144496011E+02 -0.87672041644E+01  0.39387194997E+01  0.14716561130E+02  0.00000000000E+00 0. -1.
</event>
<event>
 7    1  0.1789107E-013  0.7246154E+02  0.7816164E-02  0.1226708E+00
        -11   -1    0    0    0    0  0.00000000000E+00  0.00000000000E+00  0.45593999997E+02  0.45594000000E+02  0.51100000000E-03 0.  1.
         11   -1    0    0    0    0 -0.00000000000E+00 -0.00000000000E+00 -0.45593999997E+02  0.45594000000E+02  0.51100000000E-03 0. -1.
    9900012    2    1    2    0    0 -0.18406005273E+02  0.31335707870E+01 -0.14421748587E+01  0.72461543733E+02  0.69999965399E+02 0.  0.
        -12    1    1    2    0    0  0.18406005273E+02 -0.31335707870E+01  0.14421748587E+01  0.18726456267E+02  0.00000000000E+00 0.  1.
         11    1    3    3    0    0 -0.20373284812E+02 -0.46855072071E+01  0.66117389823E+01  0.21925779449E+02  0.51100000000E-03 0.  1.
        -11    1    3    3    0    0  0.22698266211E+02 -0.44362416486E+01 -0.12122203222E+02  0.26112053541E+02  0.51100000000E-03 0. -1.
         12    1    3    3    0    0 -0.20730986672E+02  0.12255319643E+02  0.40682893807E+01  0.24423710742E+02  0.00000000000E+00 0. -1.
</event>
<event>
 7    1  0.1789107E-013  0.7246156E+02  0.7816164E-02  0.1226708E+00
        -11   -1    0    0    0    0  0.00000000000E+00  0.00000000000E+00  0.45593999997E+02  0.45594000000E+02  0.51100000000E-03 0. -1.
         11   -1    0    0    0    0 -0.00000000000E+00 -0.00000000000E+00 -0.45593999997E+02  0.45594000000E+02  0.51100000000E-03 0.  1.
    9900012    2    1    2    0    0 -0.10164123758E+02 -0.13305630265E+02  0.83863264189E+01  0.72461556683E+02  0.69999982268E+02 0.  0.
        -12    1    1    2    0    0  0.10164123758E+02  0.13305630265E+02 -0.83863264189E+01  0.18726443317E+02  0.00000000000E+00 0.  1.
         11    1    3    3    0    0 -0.87267671813E+01  0.61061398350E+01  0.20491267871E+02  0.23094013691E+02  0.51100000000E-03 0. -1.
        -11    1    3    3    0    0  0.12383047656E+02 -0.22141034582E+01  0.11509531477E+02  0.17050262122E+02  0.51100000000E-03 0.  1.
         12    1    3    3    0    0 -0.13820404232E+02 -0.17197666642E+02 -0.23614472929E+02  0.32317280869E+02  0.00000000000E+00 0. -1.
</event>
<event>
 7    1  0.1789107E-013  0.7246157E+02  0.7816164E-02  0.1226708E+00
        -11   -1    0    0    0    0  0.00000000000E+00  0.00000000000E+00  0.45593999997E+02  0.45594000000E+02  0.51100000000E-03 0.  1.
         11   -1    0    0    0    0 -0.00000000000E+00 -0.00000000000E+00 -0.45593999997E+02  0.45594000000E+02  0.51100000000E-03 0. -1.
    9900012    2    1    2    0    0 -0.10915444341E+02  0.15189170126E+02  0.90621088237E+00  0.72461573955E+02  0.70000004768E+02 0.  0.
        -12    1    1    2    0    0  0.10915444341E+02 -0.15189170126E+02 -0.90621088237E+00  0.18726426045E+02  0.00000000000E+00 0.  1.
         11    1    3    3    0    0 -0.40699422310E+00  0.61006850250E+01  0.13959715861E+01  0.62715818580E+01  0.51100000000E-03 0. -1.
        -11    1    3    3    0    0 -0.92609684528E+01  0.18008508604E+02  0.28991529513E+02  0.35363550481E+02  0.51100000000E-03 0.  1.
         12    1    3    3    0    0 -0.12474816653E+01 -0.89200235036E+01 -0.29481290217E+02  0.30826441616E+02  0.00000000000E+00 0. -1.
</event>
<event>
 7    1  0.1789107E-013  0.7246159E+02  0.7816164E-02  0.1226708E+00
        -11   -1    0    0    0    0  0.00000000000E+00  0.00000000000E+00  0.45593999997E+02  0.45594000000E+02  0.51100000000E-03 0. -1.
         11   -1    0    0    0    0 -0.00000000000E+00 -0.00000000000E+00 -0.45593999997E+02  0.45594000000E+02  0.51100000000E-03 0.  1.
    9900012    2    1    2    0    0  0.12875079431E+02 -0.93264402255E+01  0.98958628743E+01  0.72461594588E+02  0.70000031647E+02 0.  0.
        -12    1    1    2    0    0 -0.12875079431E+02  0.93264402255E+01 -0.98958628743E+01  0.18726405412E+02  0.00000000000E+00 0.  1.
         11    1    3    3    0    0  0.28442547798E+02 -0.48730512557E+01 -0.30241685255E+01  0.29015009035E+02  0.51100000000E-03 0. -1.
        -11    1    3    3    0    0  0.29281529161E+01 -0.12453585263E+02  0.18540377899E+02  0.22525795842E+02  0.51100000000E-03 0.  1.
        -12    1    3    3    0    0 -0.18495621283E+02  0.80001962932E+01 -0.56203464994E+01  0.20920789711E+02  0.00000000000E+00 0.  1.
</event>
<event>
 7    1  0.2053643E-013  0.7246160E+02  0.7816164E-02  0.1226708E+00
        -11   -1    0    0    0    0  0.00000000000E+00  0.00000000000E+00  0.45593999997E+02  0.45594000000E+02  0.51100000000E-03 0. -1.
         11   -1    0    0    0    0 -0.00000000000E+00 -0.00000000000E+00 -0.45593999997E+02  0.45594000000E+02  0.51100000000E-03 0.  1.
    9900012    2    1    2    0    0  0.90299517211E+01 -0.61898096506E+01  0.15192897570E+02  0.72461603973E+02  0.70000043872E+02 0.  0.
        -12    1    1    2    0    0 -0.90299517211E+01  0.61898096506E+01 -0.15192897570E+02  0.18726396027E+02  0.00000000000E+00 0.  1.
         11    1    3    3    0    0  0.74742163640E+00  0.46758457265E+01  0.26237030665E+02  0.26660906788E+02  0.51100000000E-03 0. -1.
        -11    1    3    3    0    0 -0.75991985671E+01  0.45695719370E+01  0.11284516996E+02  0.14351624669E+02  0.51100000000E-03 0.  1.
        -12    1    3    3    0    0  0.15881728652E+02 -0.15435227314E+02 -0.22328650091E+02  0.31449072516E+02  0.00000000000E+00 0.  1.
</event>
<event>
 7    1  0.1789107E-013  0.7246154E+02  0.7816164E-02  0.1226708E+00
        -11   -1    0    0    0    0  0.00000000000E+00  0.00000000000E+00  0.45593999997E+02  0.45594000000E+02  0.51100000000E-03 0. -1.
         11   -1    0    0    0    0 -0.00000000000E+00 -0.00000000000E+00 -0.45593999997E+02  0.45594000000E+02  0.51100000000E-03 0.  1.
    9900012    2    1    2    0    0  0.89757270695E+01 -0.48777932227E+00  0.16427989426E+02  0.72461536328E+02  0.69999955752E+02 0.  0.
        -12    1    1    2    0    0 -0.89757270695E+01  0.48777932227E+00 -0.16427989426E+02  0.18726463672E+02  0.00000000000E+00 0.  1.
         11    1    3    3    0    0  0.22400231736E+02  0.70172192831E+01  0.95393113810E+01  0.25337920400E+02  0.51100000000E-03 0. -1.
        -11    1    3    3    0    0  0.11046079275E+02 -0.49037540147E+01 -0.11282320046E+02  0.16533403058E+02  0.51100000000E-03 0.  1.
         12    1    3    3    0    0 -0.24470583942E+02 -0.26012445906E+01  0.18170998090E+02  0.30590212871E+02  0.00000000000E+00 0. -1.
</event>
<event>
 7    1  0.1789107E-013  0.7246146E+02  0.7816164E-02  0.1226708E+00
        -11   -1    0    0    0    0  0.00000000000E+00  0.00000000000E+00  0.45593999997E+02  0.45594000000E+02  0.51100000000E-03 0.  1.
         11   -1    0    0    0    0 -0.00000000000E+00 -0.00000000000E+00 -0.45593999997E+02  0.45594000000E+02  0.51100000000E-03 0. -1.
    9900012    2    1    2    0    0  0.75423834340E+01  0.77742218368E+01 -0.15276029275E+02  0.72461464190E+02  0.69999861779E+02 0.  0.
        -12    1    1    2    0    0 -0.75423834340E+01 -0.77742218368E+01  0.15276029275E+02  0.18726535810E+02  0.00000000000E+00 0.  1.
         11    1    3    3    0    0  0.74297792583E+01 -0.12070767338E+02  0.21552152924E+01  0.14337014932E+02  0.51100000000E-03 0. -1.
        -11    1    3    3    0    0 -0.23685260551E+02  0.20359349025E+01 -0.15413749094E+02  0.28332318290E+02  0.51100000000E-03 0.  1.
         12    1    3    3    0    0  0.23797864726E+02  0.17809054272E+02 -0.20174954734E+01  0.29792130968E+02  0.00000000000E+00 0. -1.
</event>
<event>
 7    1  0.1789107E-013  0.7246157E+02  0.7816164E-02  0.1226708E+00
        -11   -1    0    0    0    0  0.00000000000E+00  0.00000000000E+00  0.45593999997E+02  0.45594000000E+02  0.51100000000E-03 0.  1.
         11   -1    0    0    0    0 -0.00000000000E+00 -0.00000000000E+00 -0.45593999997E+02  0.45594000000E+02  0.51100000000E-03 0. -1.
    9900012    2    1    2    0    0  0.40723248808E+01  0.75651857062E+01 -0.16639209267E+02  0.72461570823E+02  0.70000000688E+02 0.  0.
        -12    1    1    2    0    0 -0.40723248808E+01 -0.75651857062E+01  0.16639209267E+02  0.18726429177E+02  0.00000000000E+00 0.  1.
         11    1    3    3    0    0 -0.23088725369E+01 -0.29581638271E+00 -0.15254975309E-01  0.23277956738E+01  0.51100000000E-03 0. -1.
        -11    1    3    3    0    0 -0.39603069109E+01  0.14290573360E+02  0.23730043508E+02  0.27982485289E+02  0.51100000000E-03 0.  1.
         12    1    3    3    0    0  0.10341504329E+02 -0.64295712713E+01 -0.40353997799E+02  0.42151289860E+02  0.00000000000E+00 0. -1.
</event>
<event>
 7    1  0.1789107E-013  0.7246160E+02  0.7816164E-02  0.1226708E+00
        -11   -1    0    0    0    0  0.00000000000E+00  0.00000000000E+00  0.45593999997E+02  0.45594000000E+02  0.51100000000E-03 0. -1.
         11   -1    0    0    0    0 -0.00000000000E+00 -0.00000000000E+00 -0.45593999997E+02  0.45594000000E+02  0.51100000000E-03 0.  1.
    9900012    2    1    2    0    0 -0.79003213812E+01  0.15356027298E+02 -0.72426092903E+01  0.72461600409E+02  0.70000039230E+02 0.  0.
        -12    1    1    2    0    0  0.79003213812E+01 -0.15356027298E+02  0.72426092903E+01  0.18726399591E+02  0.00000000000E+00 0.  1.
         11    1    3    3    0    0 -0.48496194659E+01 -0.27228640892E+01 -0.16506502484E+02  0.17418307103E+02  0.51100000000E-03 0. -1.
        -11    1    3    3    0    0  0.70710075544E+01 -0.22232094656E+00 -0.18775115379E+02  0.20063736745E+02  0.51100000000E-03 0.  1.
         12    1    3    3    0    0 -0.10121709470E+02  0.18301212334E+02  0.28039008573E+02  0.34979556561E+02  0.00000000000E+00 0. -1.
</event>
<event>
 7    1  0.1789107E-013  0.7246152E+02  0.7816164E-02  0.1226708E+00
        -11   -1    0    0    0    0  0.00000000000E+00  0.00000000000E+00  0.45593999997E+02  0.45594000000E+02  0.51100000000E-03 0.  1.
         11   -1    0    0    0    0 -0.00000000000E+00 -0.00000000000E+00 -0.45593999997E+02  0.45594000000E+02  0.51100000000E-03 0. -1.
    9900012    2    1    2    0    0  0.11393210093E+02  0.49939905132E+00 -0.14853493768E+02  0.72461523750E+02  0.69999939367E+02 0.  0.
        -12    1    1    2    0    0 -0.11393210093E+02 -0.49939905132E+00  0.14853493768E+02  0.18726476250E+02  0.00000000000E+00 0.  1.
         11    1    3    3    0    0  0.10315326066E+02  0.29836314593E+00  0.32488284869E+01  0.10818958324E+02  0.51100000000E-03 0. -1.
        -11    1    3    3    0    0  0.11146813376E+02  0.24478670439E+02  0.41368195303E+01  0.27213416379E+02  0.51100000000E-03 0.  1.
        -12    1    3    3    0    0 -0.10068929349E+02 -0.24277634534E+02 -0.22239141785E+02  0.34429149047E+02  0.00000000000E+00 0.  1.
</event>
<event>
 7    1  0.1789107E-013  0.7246158E+02  0.7816164E-02  0.1226708E+00
        -11   -1    0    0    0    0  0.00000000000E+00  0.00000000000E+00  0.45593999997E+02  0.45594000000E+02  0.51100000000E-03 0. -1.
         11   -1    0    0    0    0 -0.00000000000E+00 -0.00000000000E+00 -0.45593999997E+02  0.45594000000E+02  0.51100000000E-03 0.  1.
    9900012    2    1    2    0    0 -0.18276137595E+02  0.32401570361E+01 -0.24825022624E+01  0.72461584420E+02  0.70000018401E+02 0.  0.
        -12    1    1    2    0    0  0.18276137595E+02 -0.32401570361E+01  0.24825022624E+01  0.18726415580E+02  0.00000000000E+00 0.  1.
         11    1    3    3    0    0 -0.18484549410E+02  0.30633985416E+01 -0.44242905002E+01  0.19251943388E+02  0.51100000000E-03 0. -1.
        -11    1    3    3    0    0 -0.13139888009E+02  0.22287496450E+02 -0.52492680221E+01  0.26399696398E+02  0.51100000000E-03 0.  1.
        -12    1    3    3    0    0  0.13348299824E+02 -0.22110737956E+02  0.71910562599E+01  0.26809944634E+02  0.00000000000E+00 0.  1.
</event>
<event>
 7    1  0.1789107E-013  0.7246148E+02  0.7816164E-02  0.1226708E+00
        -11   -1    0    0    0    0  0.00000000000E+00  0.00000000000E+00  0.45593999997E+02  0.45594000000E+02  0.51100000000E-03 0.  1.
         11   -1    0    0    0    0 -0.00000000000E+00 -0.00000000000E+00 -0.45593999997E+02  0.45594000000E+02  0.51100000000E-03 0. -1.
    9900012    2    1    2    0    0 -0.12715270516E+02  0.73227349094E+01 -0.11635383005E+02  0.72461476336E+02  0.69999877602E+02 0.  0.
        -12    1    1    2    0    0  0.12715270516E+02 -0.73227349094E+01  0.11635383005E+02  0.18726523664E+02  0.00000000000E+00 0.  1.
         11    1    3    3    0    0 -0.23374115476E+02 -0.66048951957E+01  0.12521997241E+02  0.27327172009E+02  0.51100000000E-03 0. -1.
        -11    1    3    3    0    0  0.86462398952E+01  0.13456329576E+02  0.43312703500E+01  0.16570762598E+02  0.51100000000E-03 0.  1.
        -12    1    3    3    0    0  0.20126050651E+01  0.47130052888E+00 -0.28488650596E+02  0.28563541729E+02  0.00000000000E+00 0.  1.
</event>
<event>
 7    1  0.1789107E-013  0.7246165E+02  0.7816164E-02  0.1226708E+00
        -11   -1    0    0    0    0  0.00000000000E+00  0.00000000000E+00  0.45593999997E+02  0.45594000000E+02  0.51100000000E-03 0.  1.
         11   -1    0    0    0    0 -0.00000000000E+00 -0.00000000000E+00 -0.45593999997E+02  0.45594000000E+02  0.51100000000E-03 0. -1.
    9900012    2    1    2    0    0  0.10766837812E+02 -0.15114810385E+02 -0.25087634040E+01  0.72461650028E+02  0.70000103868E+02 0.  0.
        -12    1    1    2    0    0 -0.10766837812E+02  0.15114810385E+02  0.25087634040E+01  0.18726349972E+02  0.00000000000E+00 0.  1.
         11    1    3    3    0    0  0.15124390760E+02 -0.15433433880E+02 -0.95014093135E+01  0.23605398882E+02  0.51100000000E-03 0. -1.
        -11    1    3    3    0    0  0.13462849898E+02 -0.17887803476E+01  0.21737160549E+02  0.25631079015E+02  0.51100000000E-03 0.  1.
         12    1    3    3    0    0 -0.17820402846E+02  0.21074038423E+01 -0.14744514639E+02  0.23225172131E+02  0.00000000000E+00 0. -1.
</event>
<event>
 7    1  0.1789107E-013  0.7246153E+02  0.7816164E-02  0.1226708E+00
        -11   -1    0    0    0    0  0.00000000000E+00  0.00000000000E+00  0.45593999997E+02  0.45594000000E+02  0.51100000000E-03 0.  1.
         11   -1    0    0    0    0 -0.00000000000E+00 -0.00000000000E+00 -0.45593999997E+02  0.45594000000E+02  0.51100000000E-03 0. -1.
    9900012    2    1    2    0    0  0.70188862281E+01 -0.92775999349E+01 -0.14674536053E+02  0.72461531224E+02  0.69999949104E+02 0.  0.
        -12    1    1    2    0    0 -0.70188862281E+01  0.92775999349E+01  0.14674536053E+02  0.18726468776E+02  0.00000000000E+00 0.  1.
         11    1    3    3    0    0 -0.86404725456E+01 -0.17554843552E+02 -0.24699764524E+02  0.31510453277E+02  0.51100000000E-03 0. -1.
        -11    1    3    3    0    0  0.59590332120E+01  0.17279311348E+02 -0.68378968073E+01  0.19515161042E+02  0.51100000000E-03 0.  1.
         12    1    3    3    0    0  0.97003255617E+01 -0.90020677305E+01  0.16863125278E+02  0.21435916905E+02  0.00000000000E+00 0. -1.
</event>
<event>
 7    1  0.1789107E-013  0.7246153E+02  0.7816164E-02  0.1226708E+00
        -11   -1    0    0    0    0  0.00000000000E+00  0.00000000000E+00  0.45593999997E+02  0.45594000000E+02  0.51100000000E-03 0. -1.
         11   -1    0    0    0    0 -0.00000000000E+00 -0.00000000000E+00 -0.45593999997E+02  0.45594000000E+02  0.51100000000E-03 0.  1.
    9900012    2    1    2    0    0 -0.14819801986E+02  0.58204875246E-01  0.11447737754E+02  0.72461531609E+02  0.69999949605E+02 0.  0.
        -12    1    1    2    0    0  0.14819801986E+02 -0.58204875246E-01 -0.11447737754E+02  0.18726468391E+02  0.00000000000E+00 0.  1.
         11    1    3    3    0    0 -0.22711253034E+02 -0.57107071252E+01  0.60522728598E+01  0.24187666222E+02  0.51100000000E-03 0. -1.
        -11    1    3    3    0    0 -0.17676557400E+02 -0.34238653570E+01 -0.57578735607E+01  0.18903350066E+02  0.51100000000E-03 0.  1.
        -12    1    3    3    0    0  0.25568008448E+02  0.91927773575E+01  0.11153338455E+02  0.29370515321E+02  0.00000000000E+00 0.  1.
</event>
<event>
 7    1  0.1789107E-013  0.7246158E+02  0.7816164E-02  0.1226708E+00
        -11   -1    0    0    0    0  0.00000000000E+00  0.00000000000E+00  0.45593999997E+02  0.45594000000E+02  0.51100000000E-03 0.  1.
         11   -1    0    0    0    0 -0.00000000000E+00 -0.00000000000E+00 -0.45593999997E+02  0.45594000000E+02  0.51100000000E-03 0. -1.
    9900012    2    1    2    0    0 -0.62291496466E+01 -0.16674252778E+02 -0.58177285226E+01  0.72461575456E+02  0.70000006725E+02 0.  0.
        -12    1    1    2    0    0  0.62291496466E+01  0.16674252778E+02  0.58177285226E+01  0.18726424544E+02  0.00000000000E+00 0.  1.
         11    1    3    3    0    0 -0.20410159428E+02  0.11509572333E+02 -0.89030450761E+01  0.25066094133E+02  0.51100000000E-03 0. -1.
        -11    1    3    3    0    0  0.13499195171E+02  0.45768179172E+01  0.32829749556E+01  0.14627147957E+02  0.51100000000E-03 0.  1.
         12    1    3    3    0    0  0.68181461037E+00 -0.32760643029E+02 -0.19765840211E+00  0.32768333367E+02  0.00000000000E+00 0. -1.
</event>
<event>
 7    1  0.1789107E-013  0.7246154E+02  0.7816164E-02  0.1226708E+00
        -11   -1    0    0    0    0  0.00000000000E+00  0.00000000000E+00  0.45593999997E+02  0.45594000000E+02  0.51100000000E-03 0.  1.
         11   -1    0    0    0    0 -0.00000000000E+00 -0.00000000000E+00 -0.45593999997E+02  0.45594000000E+02  0.51100000000E-03 0. -1.
    9900012    2    1    2    0    0 -0.13832584382E+02 -0.68586257110E+01  0.10597123300E+02  0.72461543860E+02  0.69999965564E+02 0.  0.
        -12    1    1    2    0    0  0.13832584382E+02  0.68586257110E+01 -0.10597123300E+02  0.18726456140E+02  0.00000000000E+00 0.  1.
         11    1    3    3    0    0 -0.24665450165E+02  0.17747580652E+01 -0.13179466568E+02  0.28022000951E+02  0.51100000000E-03 0. -1.
        -11    1    3    3    0    0 -0.27441027849E+01  0.56328495483E+01  0.23938307918E+02  0.24744730356E+02  0.51100000000E-03 0.  1.
        -12    1    3    3    0    0  0.13576968568E+02 -0.14266233325E+02 -0.16171805016E+00  0.19694812553E+02  0.00000000000E+00 0.  1.
</event>
<event>
 7    1  0.1789107E-013  0.7246165E+02  0.7816164E-02  0.1226708E+00
        -11   -1    0    0    0    0  0.00000000000E+00  0.00000000000E+00  0.45593999997E+02  0.45594000000E+02  0.51100000000E-03 0.  1.
         11   -1    0    0    0    0 -0.00000000000E+00 -0.00000000000E+00 -0.45593999997E+02  0.45594000000E+02  0.51100000000E-03 0. -1.
    9900012    2    1    2    0    0 -0.11736472667E+02 -0.10479552770E+02 -0.10154320178E+02  0.72461653981E+02  0.70000109018E+02 0.  0.
        -12    1    1    2    0    0  0.11736472667E+02  0.10479552770E+02  0.10154320178E+02  0.18726346019E+02  0.00000000000E+00 0.  1.
         11    1    3    3    0    0 -0.12600774688E+02 -0.63947013944E+00 -0.85322069872E+01  0.15231119497E+02  0.51100000000E-03 0. -1.
        -11    1    3    3    0    0  0.14298851381E+02 -0.37240260334E+01 -0.25317260530E+02  0.29313635082E+02  0.51100000000E-03 0.  1.
         12    1    3    3    0    0 -0.13434549360E+02 -0.61160565969E+01  0.23695147339E+02  0.27916899402E+02  0.00000000000E+00 0. -1.
</event>
<event>
 7    1  0.1789107E-013  0.7246158E+02  0.7816164E-02  0.1226708E+00
        -11   -1    0    0    0    0  0.00000000000E+00  0.00000000000E+00  0.45593999997E+02  0.45594000000E+02  0.51100000000E-03 0.  1.
         11   -1    0    0    0    0 -0.00000000000E+00 -0.00000000000E+00 -0.45593999997E+02  0.45594000000E+02  0.51100000000E-03 0. -1.
    9900012    2    1    2    0    0 -0.72166969842E+00  0.21119504403E+01 -0.18592941827E+02  0.72461584764E+02  0.70000018849E+02 0.  0.
        -12    1    1    2    0    0  0.72166969842E+00 -0.21119504403E+01  0.18592941827E+02  0.18726415236E+02  0.00000000000E+00 0.  1.
         11    1    3    3    0    0  0.14045794355E+02  0.12848159897E+02 -0.44782867248E+01  0.19555423904E+02  0.51100000000E-03 0. -1.
        -11    1    3    3    0    0  0.10248802648E+02  0.37037225504E+01 -0.20597753886E+02  0.23302853513E+02  0.51100000000E-03 0.  1.
        -12    1    3    3    0    0 -0.25016266701E+02 -0.14439932007E+02  0.64830987837E+01  0.29603307347E+02  0.00000000000E+00 0.  1.
</event>
<event>
 7    1  0.1789107E-013  0.7246156E+02  0.7816164E-02  0.1226708E+00
        -11   -1    0    0    0    0  0.00000000000E+00  0.00000000000E+00  0.45593999997E+02  0.45594000000E+02  0.51100000000E-03 0.  1.
         11   -1    0    0    0    0 -0.00000000000E+00 -0.00000000000E+00 -0.45593999997E+02  0.45594000000E+02  0.51100000000E-03 0. -1.
    9900012    2    1    2    0    0  0.38958278222E+01 -0.11806088301E+02 -0.14004226932E+02  0.72461559672E+02  0.69999986163E+02 0.  0.
        -12    1    1    2    0    0 -0.38958278222E+01  0.11806088301E+02  0.14004226932E+02  0.18726440328E+02  0.00000000000E+00 0.  1.
         11    1    3    3    0    0  0.11742108421E+02 -0.30254325201E+01 -0.38153187157E+02  0.40033686347E+02  0.51100000000E-03 0. -1.
        -11    1    3    3    0    0 -0.36590188879E+01 -0.12372620174E+02  0.75790335678E+01  0.14963686019E+02  0.51100000000E-03 0.  1.
        -12    1    3    3    0    0 -0.41872617107E+01  0.35919643930E+01  0.16569926657E+02  0.17464187306E+02  0.00000000000E+00 0.  1.
</event>
<event>
 7    1  0.1789107E-013  0.7246144E+02  0.7816164E-02  0.1226708E+00
        -11   -1    0    0    0    0  0.00000000000E+00  0.00000000000E+00  0.45593999997E+02  0.45594000000E+02  0.51100000000E-03 0.  1.
         11   -1    0    0    0    0 -0.00000000000E+00 -0.00000000000E+00 -0.45593999997E+02  0.45594000000E+02  0.51100000000E-03 0. -1.
    9900012    2    1    2    0    0  0.95846060172E+01  0.66685077436E+01 -0.14640709779E+02  0.72461439962E+02  0.69999830218E+02 0.  0.
        -12    1    1    2    0    0 -0.95846060172E+01 -0.66685077436E+01  0.14640709779E+02  0.18726560038E+02  0.00000000000E+00 0.  1.
         11    1    3    3    0    0  0.12068913160E+02  0.14408088743E+02 -0.36100460262E+02  0.40700060412E+02  0.51100000000E-03 0. -1.
        -11    1    3    3    0    0  0.83973952089E+01 -0.89641933425E+00  0.24136467846E+01  0.87832513900E+01  0.51100000000E-03 0.  1.
        -12    1    3    3    0    0 -0.10881702352E+02 -0.68431616652E+01  0.19046103699E+02  0.22978128160E+02  0.00000000000E+00 0.  1.
</event>
<event>
 7    1  0.1789107E-013  0.7246155E+02  0.7816164E-02  0.1226708E+00
        -11   -1    0    0    0    0  0.00000000000E+00  0.00000000000E+00  0.45593999997E+02  0.45594000000E+02  0.51100000000E-03 0.  1.
         11   -1    0    0    0    0 -0.00000000000E+00 -0.00000000000E+00 -0.45593999997E+02  0.45594000000E+02  0.51100000000E-03 0. -1.
    9900012    2    1    2    0    0  0.18177707566E+02 -0.13168832453E+00 -0.44981630254E+01  0.72461551731E+02  0.69999975818E+02 0.  0.
        -12    1    1    2    0    0 -0.18177707566E+02  0.13168832453E+00  0.44981630254E+01  0.18726448269E+02  0.00000000000E+00 0.  1.
         11    1    3    3    0    0  0.11566271889E+02  0.20509983902E+02 -0.20264628238E+02  0.31065949897E+02  0.51100000000E-03 0. -1.
        -11    1    3    3    0    0 -0.24390291919E+01  0.44095018128E+01 -0.53909114144E+01  0.73793289515E+01  0.51100000000E-03 0.  1.
        -12    1    3    3    0    0  0.90504648690E+01 -0.25051174040E+02  0.21157376627E+02  0.34016272883E+02  0.00000000000E+00 0.  1.
</event>
<event>
 7    1  0.1789107E-013  0.7246168E+02  0.7816164E-02  0.1226708E+00
        -11   -1    0    0    0    0  0.00000000000E+00  0.00000000000E+00  0.45593999997E+02  0.45594000000E+02  0.51100000000E-03 0.  1.
         11   -1    0    0    0    0 -0.00000000000E+00 -0.00000000000E+00 -0.45593999997E+02  0.45594000000E+02  0.51100000000E-03 0. -1.
    9900012    2    1    2    0    0  0.16162568546E+02  0.94248298276E+01 -0.78675521539E+00  0.72461681006E+02  0.70000144223E+02 0.  0.
        -12    1    1    2    0    0 -0.16162568546E+02 -0.94248298276E+01  0.78675521539E+00  0.18726318994E+02  0.00000000000E+00 0.  1.
         11    1    3    3    0    0  0.27004052389E+01 -0.20780621901E+01 -0.96620821674E+01  0.10245309316E+02  0.51100000000E-03 0. -1.
        -11    1    3    3    0    0  0.88570272431E+01  0.34644352550E+02 -0.28430496592E+01  0.35871451418E+02  0.51100000000E-03 0.  1.
         12    1    3    3    0    0  0.46051360642E+01 -0.23141460532E+02  0.11718376611E+02  0.26344920272E+02  0.00000000000E+00 0. -1.
</event>
<event>
 7    1  0.1789107E-013  0.7246156E+02  0.7816164E-02  0.1226708E+00
        -11   -1    0    0    0    0  0.00000000000E+00  0.00000000000E+00  0.45593999997E+02  0.45594000000E+02  0.51100000000E-03 0.  1.
         11   -1    0    0    0    0 -0.00000000000E+00 -0.00000000000E+00 -0.45593999997E+02  0.45594000000E+02  0.51100000000E-03 0. -1.
    9900012    2    1    2    0    0 -0.60991563274E+01 -0.15211097077E+02 -0.90610320338E+01  0.72461561906E+02  0.69999989072E+02 0.  0.
        -12    1    1    2    0    0  0.60991563274E+01  0.15211097077E+02  0.90610320338E+01  0.18726438094E+02  0.00000000000E+00 0.  1.
         11    1    3    3    0    0 -0.97789623112E+01 -0.97197164461E+01 -0.30634085071E+02  0.33593870871E+02  0.51100000000E-03 0. -1.
        -11    1    3    3    0    0 -0.12964031128E+02  0.25281733009E+01  0.52456884385E+01  0.14211791259E+02  0.51100000000E-03 0.  1.
        -12    1    3    3    0    0  0.16643837112E+02 -0.80195539316E+01  0.16327364599E+02  0.24655899777E+02  0.00000000000E+00 0.  1.
</event>
<event>
 7    1  0.1789107E-013  0.7246156E+02  0.7816164E-02  0.1226708E+00
        -11   -1    0    0    0    0  0.00000000000E+00  0.00000000000E+00  0.45593999997E+02  0.45594000000E+02  0.51100000000E-03 0.  1.
         11   -1    0    0    0    0 -0.00000000000E+00 -0.00000000000E+00 -0.45593999997E+02  0.45594000000E+02  0.51100000000E-03 0. -1.
    9900012    2    1    2    0    0  0.98108350984E+01 -0.15705141172E+02  0.27884762367E+01  0.72461560288E+02  0.69999986965E+02 0.  0.
        -12    1    1    2    0    0 -0.98108350984E+01  0.15705141172E+02 -0.27884762367E+01  0.18726439712E+02  0.00000000000E+00 0.  1.
         11    1    3    3    0    0  0.29374898784E+02  0.10044786716E+02  0.24095836089E+01  0.31138216265E+02  0.51100000000E-03 0. -1.
        -11    1    3    3    0    0  0.17296186450E+01  0.32964968031E+01  0.35814067659E+01  0.51657474303E+01  0.51100000000E-03 0.  1.
        -12    1    3    3    0    0 -0.21293682331E+02 -0.29046424691E+02 -0.32025141380E+01  0.36157596593E+02  0.00000000000E+00 0.  1.
</event>
<event>
 7    1  0.1789107E-013  0.7246097E+02  0.7816164E-02  0.1226710E+00
        -11   -1    0    0    0    0  0.00000000000E+00  0.00000000000E+00  0.45593999997E+02  0.45594000000E+02  0.51100000000E-03 0.  1.
         11   -1    0    0    0    0 -0.00000000000E+00 -0.00000000000E+00 -0.45593999997E+02  0.45594000000E+02  0.51100000000E-03 0. -1.
    9900012    2    1    2    0    0 -0.79168481219E+01  0.12126507407E+02 -0.11873205664E+02  0.72460969300E+02  0.69999217090E+02 0.  0.
        -12    1    1    2    0    0  0.79168481219E+01 -0.12126507407E+02  0.11873205664E+02  0.18727030700E+02  0.00000000000E+00 0.  1.
         11    1    3    3    0    0  0.39887008882E+01  0.35193680039E+01  0.16395439263E+02  0.17236766368E+02  0.51100000000E-03 0. -1.
        -11    1    3    3    0    0 -0.25355467984E+02  0.56892073074E+01 -0.26216667360E+01  0.26117809503E+02  0.51100000000E-03 0.  1.
         12    1    3    3    0    0  0.13449918974E+02  0.29179320954E+01 -0.25646978192E+02  0.29106393430E+02  0.00000000000E+00 0. -1.
</event>
<event>
 7    1  0.1789107E-013  0.7246156E+02  0.7816164E-02  0.1226708E+00
        -11   -1    0    0    0    0  0.00000000000E+00  0.00000000000E+00  0.45593999997E+02  0.45594000000E+02  0.51100000000E-03 0.  1.
         11   -1    0    0    0    0 -0.00000000000E+00 -0.00000000000E+00 -0.45593999997E+02  0.45594000000E+02  0.51100000000E-03 0. -1.
    9900012    2    1    2    0    0 -0.34722920608E+00  0.47421997190E+01 -0.18112720154E+02  0.72461557261E+02  0.69999983022E+02 0.  0.
        -12    1    1    2    0    0  0.34722920608E+00 -0.47421997190E+01  0.18112720154E+02  0.18726442739E+02  0.00000000000E+00 0.  1.
         11    1    3    3    0    0  0.86742969627E+01  0.92298987735E+01  0.11691638493E+02  0.17237426434E+02  0.51100000000E-03 0. -1.
        -11    1    3    3    0    0  0.15648689900E+02 -0.64774266941E+01 -0.60591424569E+00  0.16947143845E+02  0.51100000000E-03 0.  1.
         12    1    3    3    0    0 -0.24670216069E+02  0.19897276395E+01 -0.29198444401E+02  0.38276986982E+02  0.00000000000E+00 0. -1.
</event>
<event>
 7    1  0.1789107E-013  0.7246158E+02  0.7816164E-02  0.1226708E+00
        -11   -1    0    0    0    0  0.00000000000E+00  0.00000000000E+00  0.45593999997E+02  0.45594000000E+02  0.51100000000E-03 0. -1.
         11   -1    0    0    0    0 -0.00000000000E+00 -0.00000000000E+00 -0.45593999997E+02  0.45594000000E+02  0.51100000000E-03 0.  1.
    9900012    2    1    2    0    0  0.17301182832E+02  0.53085953550E+01  0.48131878877E+01  0.72461577767E+02  0.70000009734E+02 0.  0.
        -12    1    1    2    0    0 -0.17301182832E+02 -0.53085953550E+01 -0.48131878877E+01  0.18726422233E+02  0.00000000000E+00 0.  1.
         11    1    3    3    0    0  0.11386958923E+02  0.28107764921E+02  0.18558291065E+02  0.35554457525E+02  0.51100000000E-03 0. -1.
        -11    1    3    3    0    0 -0.43126735316E+01  0.25596480299E+01  0.19483579271E+01  0.53802462676E+01  0.51100000000E-03 0.  1.
        -12    1    3    3    0    0  0.10226897440E+02 -0.25358817596E+02 -0.15693461105E+02  0.31526873974E+02  0.00000000000E+00 0.  1.
</event>
<event>
 7    1  0.1789107E-013  0.7246180E+02  0.7816164E-02  0.1226707E+00
        -11   -1    0    0    0    0  0.00000000000E+00  0.00000000000E+00  0.45593999997E+02  0.45594000000E+02  0.51100000000E-03 0.  1.
         11   -1    0    0    0    0 -0.00000000000E+00 -0.00000000000E+00 -0.45593999997E+02  0.45594000000E+02  0.51100000000E-03 0. -1.
    9900012    2    1    2    0    0  0.12668012518E+02  0.13728366313E+02  0.13129527910E+01  0.72461803701E+02  0.70000304055E+02 0.  0.
        -12    1    1    2    0    0 -0.12668012518E+02 -0.13728366313E+02 -0.13129527910E+01  0.18726196299E+02  0.00000000000E+00 0.  1.
         11    1    3    3    0    0  0.44939055181E+01 -0.90491696476E+01 -0.23462989703E+01  0.10372452807E+02  0.51100000000E-03 0. -1.
        -11    1    3    3    0    0 -0.18305433467E+02  0.16651863546E+02  0.18708404187E+02  0.31022215290E+02  0.51100000000E-03 0.  1.
         12    1    3    3    0    0  0.26479540468E+02  0.61256724151E+01 -0.15049152426E+02  0.31067135604E+02  0.00000000000E+00 0. -1.
</event>
<event>
 7    1  0.1789107E-013  0.7246159E+02  0.7816164E-02  0.1226708E+00
        -11   -1    0    0    0    0  0.00000000000E+00  0.00000000000E+00  0.45593999997E+02  0.45594000000E+02  0.51100000000E-03 0.  1.
         11   -1    0    0    0    0 -0.00000000000E+00 -0.00000000000E+00 -0.45593999997E+02  0.45594000000E+02  0.51100000000E-03 0. -1.
    9900012    2    1    2    0    0  0.44482539128E+01 -0.17463173162E+02  0.50920662233E+01  0.72461587685E+02  0.70000022654E+02 0.  0.
        -12    1    1    2    0    0 -0.44482539128E+01  0.17463173162E+02 -0.50920662233E+01  0.18726412315E+02  0.00000000000E+00 0.  1.
         11    1    3    3    0    0  0.21325558447E+02 -0.36900732225E+01 -0.20660247435E+01  0.21740849615E+02  0.51100000000E-03 0. -1.
        -11    1    3    3    0    0  0.30173382901E+01 -0.22966779189E+02 -0.75074330006E+01  0.24350335258E+02  0.51100000000E-03 0.  1.
        -12    1    3    3    0    0 -0.19894642824E+02  0.91936792489E+01  0.14665523967E+02  0.26370402812E+02  0.00000000000E+00 0.  1.
</event>
<event>
 7    1  0.1789107E-013  0.7246187E+02  0.7816164E-02  0.1226707E+00
        -11   -1    0    0    0    0  0.00000000000E+00  0.00000000000E+00  0.45593999997E+02  0.45594000000E+02  0.51100000000E-03 0. -1.
         11   -1    0    0    0    0 -0.00000000000E+00 -0.00000000000E+00 -0.45593999997E+02  0.45594000000E+02  0.51100000000E-03 0.  1.
    9900012    2    1    2    0    0  0.71295791528E+01  0.17284970121E+02 -0.10328504379E+01  0.72461871969E+02  0.70000392987E+02 0.  0.
        -12    1    1    2    0    0 -0.71295791528E+01 -0.17284970121E+02  0.10328504379E+01  0.18726128031E+02  0.00000000000E+00 0.  1.
         11    1    3    3    0    0  0.18494359527E+02  0.23915071882E+02 -0.38146042024E+01  0.30471678702E+02  0.51100000000E-03 0. -1.
        -11    1    3    3    0    0  0.11084729811E+02 -0.14344588957E+02  0.20119046570E+01  0.18239688263E+02  0.51100000000E-03 0.  1.
        -12    1    3    3    0    0 -0.22449510186E+02  0.77144871965E+01  0.76984910753E+00  0.23750505004E+02  0.00000000000E+00 0.  1.
</event>
<event>
 7    1  0.1789107E-013  0.7246154E+02  0.7816164E-02  0.1226708E+00
        -11   -1    0    0    0    0  0.00000000000E+00  0.00000000000E+00  0.45593999997E+02  0.45594000000E+02  0.51100000000E-03 0.  1.
         11   -1    0    0    0    0 -0.00000000000E+00 -0.00000000000E+00 -0.45593999997E+02  0.45594000000E+02  0.51100000000E-03 0. -1.
    9900012    2    1    2    0    0  0.36079363723E+01  0.18135163920E+02 -0.29629333070E+01  0.72461538801E+02  0.69999958974E+02 0.  0.
        -12    1    1    2    0    0 -0.36079363723E+01 -0.18135163920E+02  0.29629333070E+01  0.18726461199E+02  0.00000000000E+00 0.  1.
         11    1    3    3    0    0 -0.16389518500E+02 -0.27521495094E+01 -0.13732046842E+02  0.21558287369E+02  0.51100000000E-03 0. -1.
        -11    1    3    3    0    0  0.91823841432E+01 -0.83102165880E+01 -0.78136052362E+01  0.14643370696E+02  0.51100000000E-03 0.  1.
        -12    1    3    3    0    0  0.10815070729E+02  0.29197530017E+02  0.18582718771E+02  0.36259880735E+02  0.00000000000E+00 0.  1.
</event>
<event>
 7    1  0.1789107E-013  0.7246159E+02  0.7816164E-02  0.1226708E+00
        -11   -1    0    0    0    0  0.00000000000E+00  0.00000000000E+00  0.45593999997E+02  0.45594000000E+02  0.51100000000E-03 0.  1.
         11   -1    0    0    0    0 -0.00000000000E+00 -0.00000000000E+00 -0.45593999997E+02  0.45594000000E+02  0.51100000000E-03 0. -1.
    9900012    2    1    2    0    0 -0.49441692812E+01  0.58123332966E+01 -0.17101179148E+02  0.72461592003E+02  0.70000028279E+02 0.  0.
        -12    1    1    2    0    0  0.49441692812E+01 -0.58123332966E+01  0.17101179148E+02  0.18726407997E+02  0.00000000000E+00 0.  1.
         11    1    3    3    0    0 -0.10957320190E+02  0.36008631322E+01 -0.23511565980E+02  0.26188219033E+02  0.51100000000E-03 0. -1.
        -11    1    3    3    0    0 -0.16933459037E+02 -0.82417890748E+01  0.90979857226E+01  0.20915125306E+02  0.51100000000E-03 0.  1.
         12    1    3    3    0    0  0.22946609946E+02  0.10453259239E+02 -0.26875988909E+01  0.25358247663E+02  0.00000000000E+00 0. -1.
</event>
<event>
 7    1  0.1789107E-013  0.7246142E+02  0.7816164E-02  0.1226708E+00
        -11   -1    0    0    0    0  0.00000000000E+00  0.00000000000E+00  0.45593999997E+02  0.45594000000E+02  0.51100000000E-03 0. -1.
         11   -1    0    0    0    0 -0.00000000000E+00 -0.00000000000E+00 -0.45593999997E+02  0.45594000000E+02  0.51100000000E-03 0.  1.
    9900012    2    1    2    0    0 -0.33068572183E-01  0.72508503384E+01  0.17265825650E+02  0.72461423710E+02  0.69999809046E+02 0.  0.
        -12    1    1    2    0    0  0.33068572183E-01 -0.72508503384E+01 -0.17265825650E+02  0.18726576290E+02  0.00000000000E+00 0.  1.
         11    1    3    3    0    0  0.57845399877E+01  0.12547062007E+02  0.95945254305E+01  0.16820956762E+02  0.51100000000E-03 0. -1.
        -11    1    3    3    0    0 -0.38105772411E+01  0.99275314390E+01 -0.20761419063E+02  0.23326227753E+02  0.51100000000E-03 0.  1.
         12    1    3    3    0    0 -0.20070313188E+01 -0.15223743108E+02  0.28432719283E+02  0.32314239195E+02  0.00000000000E+00 0. -1.
</event>
<event>
 7    1  0.1789107E-013  0.7246161E+02  0.7816164E-02  0.1226708E+00
        -11   -1    0    0    0    0  0.00000000000E+00  0.00000000000E+00  0.45593999997E+02  0.45594000000E+02  0.51100000000E-03 0.  1.
         11   -1    0    0    0    0 -0.00000000000E+00 -0.00000000000E+00 -0.45593999997E+02  0.45594000000E+02  0.51100000000E-03 0. -1.
    9900012    2    1    2    0    0 -0.72294401784E+00  0.14778697291E+01 -0.18653981137E+02  0.72461607949E+02  0.70000049052E+02 0.  0.
        -12    1    1    2    0    0  0.72294401784E+00 -0.14778697291E+01  0.18653981137E+02  0.18726392051E+02  0.00000000000E+00 0.  1.
         11    1    3    3    0    0 -0.12095625978E+02 -0.66313812825E+00 -0.17979017935E+02  0.21679229832E+02  0.51100000000E-03 0. -1.
        -11    1    3    3    0    0 -0.93703278428E+01 -0.17742762628E+02  0.66342088089E+01  0.21133418946E+02  0.51100000000E-03 0.  1.
        -12    1    3    3    0    0  0.20743009803E+02  0.19883770485E+02 -0.73091720117E+01  0.29648959171E+02  0.00000000000E+00 0.  1.
</event>
<event>
 7    1  0.1789107E-013  0.7246157E+02  0.7816164E-02  0.1226708E+00
        -11   -1    0    0    0    0  0.00000000000E+00  0.00000000000E+00  0.45593999997E+02  0.45594000000E+02  0.51100000000E-03 0. -1.
         11   -1    0    0    0    0 -0.00000000000E+00 -0.00000000000E+00 -0.45593999997E+02  0.45594000000E+02  0.51100000000E-03 0.  1.
    9900012    2    1    2    0    0 -0.92660427029E+01 -0.14930862199E+02  0.64721834998E+01  0.72461565405E+02  0.69999993631E+02 0.  0.
        -12    1    1    2    0    0  0.92660427029E+01  0.14930862199E+02 -0.64721834998E+01  0.18726434595E+02  0.00000000000E+00 0.  1.
         11    1    3    3    0    0  0.17102200122E+00  0.77424321811E+01  0.78301204556E+01  0.11012960148E+02  0.51100000000E-03 0. -1.
        -11    1    3    3    0    0  0.22196290129E+00 -0.24634929220E+02  0.23907184906E+02  0.34329032838E+02  0.51100000000E-03 0.  1.
        -12    1    3    3    0    0 -0.96590276054E+01  0.19616348405E+01 -0.25265121862E+02  0.27119572420E+02  0.00000000000E+00 0.  1.
</event>
<event>
 7    1  0.1789107E-013  0.7246206E+02  0.7816164E-02  0.1226707E+00
        -11   -1    0    0    0    0  0.00000000000E+00  0.00000000000E+00  0.45593999997E+02  0.45594000000E+02  0.51100000000E-03 0.  1.
         11   -1    0    0    0    0 -0.00000000000E+00 -0.00000000000E+00 -0.45593999997E+02  0.45594000000E+02  0.51100000000E-03 0. -1.
    9900012    2    1    2    0    0 -0.39517957195E+01  0.12129964426E+02 -0.13707957919E+02  0.72462059792E+02  0.70000637658E+02 0.  0.
        -12    1    1    2    0    0  0.39517957195E+01 -0.12129964426E+02  0.13707957919E+02  0.18725940208E+02  0.00000000000E+00 0.  1.
         11    1    3    3    0    0 -0.54323243282E+01  0.26029371870E+02  0.52963313429E+01  0.27112533513E+02  0.51100000000E-03 0. -1.
        -11    1    3    3    0    0  0.11065178786E+02  0.95982527562E+00 -0.24444378185E+02  0.26849340239E+02  0.51100000000E-03 0.  1.
        -12    1    3    3    0    0 -0.95846501774E+01 -0.14859232719E+02  0.54400889236E+01  0.18500186040E+02  0.00000000000E+00 0.  1.
</event>
<event>
 7    1  0.1789107E-013  0.7246154E+02  0.7816164E-02  0.1226708E+00
        -11   -1    0    0    0    0  0.00000000000E+00  0.00000000000E+00  0.45593999997E+02  0.45594000000E+02  0.51100000000E-03 0. -1.
         11   -1    0    0    0    0 -0.00000000000E+00 -0.00000000000E+00 -0.45593999997E+02  0.45594000000E+02  0.51100000000E-03 0.  1.
    9900012    2    1    2    0    0 -0.12734161540E+02  0.24323478602E+01  0.13513149121E+02  0.72461537830E+02  0.69999957709E+02 0.  0.
        -12    1    1    2    0    0  0.12734161540E+02 -0.24323478602E+01 -0.13513149121E+02  0.18726462170E+02  0.00000000000E+00 0.  1.
         11    1    3    3    0    0  0.14639343571E+02 -0.94601997102E+00  0.21849461899E+02  0.26317376760E+02  0.51100000000E-03 0. -1.
        -11    1    3    3    0    0  0.46747401109E+01 -0.95501944959E+01 -0.37921757583E+01  0.11288932955E+02  0.51100000000E-03 0.  1.
        -12    1    3    3    0    0 -0.32048245222E+02  0.12928562327E+02 -0.45441370202E+01  0.34855228115E+02  0.00000000000E+00 0.  1.
</event>
<event>
 7    1  0.1789107E-013  0.7246158E+02  0.7816164E-02  0.1226708E+00
        -11   -1    0    0    0    0  0.00000000000E+00  0.00000000000E+00  0.45593999997E+02  0.45594000000E+02  0.51100000000E-03 0.  1.
         11   -1    0    0    0    0 -0.00000000000E+00 -0.00000000000E+00 -0.45593999997E+02  0.45594000000E+02  0.51100000000E-03 0. -1.
    9900012    2    1    2    0    0 -0.10929288980E+02 -0.14897616546E+02 -0.30480494918E+01  0.72461576368E+02  0.70000007912E+02 0.  0.
        -12    1    1    2    0    0  0.10929288980E+02  0.14897616546E+02  0.30480494918E+01  0.18726423632E+02  0.00000000000E+00 0.  1.
         11    1    3    3    0    0  0.69953406096E+01  0.23405317427E+02 -0.20452412377E+01  0.24513806030E+02  0.51100000000E-03 0. -1.
        -11    1    3    3    0    0 -0.98628723654E+01 -0.25306659733E+01 -0.44588470487E+01  0.11115837298E+02  0.51100000000E-03 0.  1.
        -12    1    3    3    0    0 -0.80617572241E+01 -0.35772267999E+02  0.34560387947E+01  0.36831933040E+02  0.00000000000E+00 0.  1.
</event>
<event>
 7    1  0.1789107E-013  0.7246159E+02  0.7816164E-02  0.1226708E+00
        -11   -1    0    0    0    0  0.00000000000E+00  0.00000000000E+00  0.45593999997E+02  0.45594000000E+02  0.51100000000E-03 0. -1.
         11   -1    0    0    0    0 -0.00000000000E+00 -0.00000000000E+00 -0.45593999997E+02  0.45594000000E+02  0.51100000000E-03 0.  1.
    9900012    2    1    2    0    0  0.98241165812E+01 -0.13937540010E+02  0.77401732318E+01  0.72461586307E+02  0.70000020860E+02 0.  0.
        -12    1    1    2    0    0 -0.98241165812E+01  0.13937540010E+02 -0.77401732318E+01  0.18726413693E+02  0.00000000000E+00 0.  1.
         11    1    3    3    0    0 -0.19771074493E+02  0.55399144327E+01  0.75465010614E+01  0.21875459242E+02  0.51100000000E-03 0. -1.
        -11    1    3    3    0    0  0.76138520437E+01  0.85420553825E+01  0.82085822389E+01  0.14082552174E+02  0.51100000000E-03 0.  1.
         12    1    3    3    0    0  0.21981339030E+02 -0.28019509825E+02 -0.80149100684E+01  0.36503574891E+02  0.00000000000E+00 0. -1.
</event>
<event>
 7    1  0.1789107E-013  0.7246160E+02  0.7816164E-02  0.1226708E+00
        -11   -1    0    0    0    0  0.00000000000E+00  0.00000000000E+00  0.45593999997E+02  0.45594000000E+02  0.51100000000E-03 0.  1.
         11   -1    0    0    0    0 -0.00000000000E+00 -0.00000000000E+00 -0.45593999997E+02  0.45594000000E+02  0.51100000000E-03 0. -1.
    9900012    2    1    2    0    0 -0.10112362224E+02 -0.62520079711E+01 -0.14468260121E+02  0.72461600870E+02  0.70000039831E+02 0.  0.
        -12    1    1    2    0    0  0.10112362224E+02  0.62520079711E+01  0.14468260121E+02  0.18726399130E+02  0.00000000000E+00 0.  1.
         11    1    3    3    0    0 -0.20636277127E+02 -0.16602897642E+02 -0.26884136986E+01  0.26622165807E+02  0.51100000000E-03 0. -1.
        -11    1    3    3    0    0 -0.84474598869E+01  0.20935530075E+02 -0.60439284703E+01  0.23370602681E+02  0.51100000000E-03 0.  1.
         12    1    3    3    0    0  0.18971374790E+02 -0.10584640404E+02 -0.57359179523E+01  0.22468832383E+02  0.00000000000E+00 0. -1.
</event>
<event>
 7    1  0.1789107E-013  0.7246156E+02  0.7816164E-02  0.1226708E+00
        -11   -1    0    0    0    0  0.00000000000E+00  0.00000000000E+00  0.45593999997E+02  0.45594000000E+02  0.51100000000E-03 0. -1.
         11   -1    0    0    0    0 -0.00000000000E+00 -0.00000000000E+00 -0.45593999997E+02  0.45594000000E+02  0.51100000000E-03 0.  1.
    9900012    2    1    2    0    0  0.13231075540E+02 -0.12290798864E+02  0.49552475811E+01  0.72461559461E+02  0.69999985888E+02 0.  0.
        -12    1    1    2    0    0 -0.13231075540E+02  0.12290798864E+02 -0.49552475811E+01  0.18726440539E+02  0.00000000000E+00 0.  1.
         11    1    3    3    0    0  0.20775672856E+02  0.17553942464E+02 -0.17100661593E+00  0.27199241205E+02  0.51100000000E-03 0. -1.
        -11    1    3    3    0    0 -0.69562217141E+01 -0.88418128617E+01 -0.13226826033E+02  0.17364204629E+02  0.51100000000E-03 0.  1.
        -12    1    3    3    0    0 -0.58837560184E+00 -0.21002928466E+02  0.18353080230E+02  0.27898113627E+02  0.00000000000E+00 0.  1.
</event>
<event>
 7    1  0.1789107E-013  0.7246159E+02  0.7816164E-02  0.1226708E+00
        -11   -1    0    0    0    0  0.00000000000E+00  0.00000000000E+00  0.45593999997E+02  0.45594000000E+02  0.51100000000E-03 0.  1.
         11   -1    0    0    0    0 -0.00000000000E+00 -0.00000000000E+00 -0.45593999997E+02  0.45594000000E+02  0.51100000000E-03 0. -1.
    9900012    2    1    2    0    0 -0.15831192994E+02 -0.46758310719E+01 -0.88424111828E+01  0.72461593422E+02  0.70000030128E+02 0.  0.
        -12    1    1    2    0    0  0.15831192994E+02  0.46758310719E+01  0.88424111828E+01  0.18726406578E+02  0.00000000000E+00 0.  1.
         11    1    3    3    0    0 -0.92392373276E+01  0.16756495032E+00  0.13360368866E+02  0.16244723479E+02  0.51100000000E-03 0. -1.
        -11    1    3    3    0    0  0.14752626801E+02 -0.19826057372E+02 -0.15906837016E+02  0.29389454105E+02  0.51100000000E-03 0.  1.
         12    1    3    3    0    0 -0.21344582467E+02  0.14982661350E+02 -0.62959430332E+01  0.26827415837E+02  0.00000000000E+00 0. -1.
</event>
<event>
 7    1  0.1968787E-013  0.7246158E+02  0.7816164E-02  0.1226708E+00
        -11   -1    0    0    0    0  0.00000000000E+00  0.00000000000E+00  0.45593999997E+02  0.45594000000E+02  0.51100000000E-03 0. -1.
         11   -1    0    0    0    0 -0.00000000000E+00 -0.00000000000E+00 -0.45593999997E+02  0.45594000000E+02  0.51100000000E-03 0.  1.
    9900012    2    1    2    0    0 -0.16387306822E+02 -0.38201507307E+01  0.82183547339E+01  0.72461582002E+02  0.70000015252E+02 0.  0.
        -12    1    1    2    0    0  0.16387306822E+02  0.38201507307E+01 -0.82183547339E+01  0.18726417998E+02  0.00000000000E+00 0.  1.
         11    1    3    3    0    0 -0.64838268342E+01 -0.14195981315E+02  0.21958651620E+02  0.26939715610E+02  0.51100000000E-03 0. -1.
        -11    1    3    3    0    0 -0.40482417598E+01  0.11254571861E+02  0.13273240332E+02  0.17867080296E+02  0.51100000000E-03 0.  1.
        -12    1    3    3    0    0 -0.58552382281E+01 -0.87874127707E+00 -0.27013537219E+02  0.27654786096E+02  0.00000000000E+00 0.  1.
</event>
<event>
 7    1  0.1789107E-013  0.7246156E+02  0.7816164E-02  0.1226708E+00
        -11   -1    0    0    0    0  0.00000000000E+00  0.00000000000E+00  0.45593999997E+02  0.45594000000E+02  0.51100000000E-03 0. -1.
         11   -1    0    0    0    0 -0.00000000000E+00 -0.00000000000E+00 -0.45593999997E+02  0.45594000000E+02  0.51100000000E-03 0.  1.
    9900012    2    1    2    0    0  0.42383776692E+01  0.18107569396E+02  0.21980763807E+01  0.72461562686E+02  0.69999990089E+02 0.  0.
        -12    1    1    2    0    0 -0.42383776692E+01 -0.18107569396E+02 -0.21980763807E+01  0.18726437314E+02  0.00000000000E+00 0.  1.
         11    1    3    3    0    0  0.75113423735E+00 -0.76537342210E+01 -0.72778027228E+01  0.10588213395E+02  0.51100000000E-03 0. -1.
        -11    1    3    3    0    0  0.27116704033E+02  0.51337509070E+01  0.12625628454E+02  0.30349259136E+02  0.51100000000E-03 0.  1.
         12    1    3    3    0    0 -0.23629460602E+02  0.20627552710E+02 -0.31497493500E+01  0.31524090155E+02  0.00000000000E+00 0. -1.
</event>
<event>
 7    1  0.1789107E-013  0.7246152E+02  0.7816164E-02  0.1226708E+00
        -11   -1    0    0    0    0  0.00000000000E+00  0.00000000000E+00  0.45593999997E+02  0.45594000000E+02  0.51100000000E-03 0.  1.
         11   -1    0    0    0    0 -0.00000000000E+00 -0.00000000000E+00 -0.45593999997E+02  0.45594000000E+02  0.51100000000E-03 0. -1.
    9900012    2    1    2    0    0 -0.13740359183E+02  0.72429537380E+01 -0.10460550580E+02  0.72461522281E+02  0.69999937454E+02 0.  0.
        -12    1    1    2    0    0  0.13740359183E+02 -0.72429537380E+01  0.10460550580E+02  0.18726477719E+02  0.00000000000E+00 0.  1.
         11    1    3    3    0    0 -0.73257244917E+01  0.23304556237E+02 -0.25241673082E+02  0.35127064224E+02  0.51100000000E-03 0. -1.
        -11    1    3    3    0    0  0.74202038418E+01 -0.16727660834E+02  0.18625041024E+01  0.18394101876E+02  0.51100000000E-03 0.  1.
        -12    1    3    3    0    0 -0.13834838533E+02  0.66605833427E+00  0.12918618399E+02  0.18940356181E+02  0.00000000000E+00 0.  1.
</event>
<event>
 7    1  0.1789107E-013  0.7246161E+02  0.7816164E-02  0.1226708E+00
        -11   -1    0    0    0    0  0.00000000000E+00  0.00000000000E+00  0.45593999997E+02  0.45594000000E+02  0.51100000000E-03 0.  1.
         11   -1    0    0    0    0 -0.00000000000E+00 -0.00000000000E+00 -0.45593999997E+02  0.45594000000E+02  0.51100000000E-03 0. -1.
    9900012    2    1    2    0    0 -0.85759788738E+01  0.12496467615E+02 -0.10998572207E+02  0.72461609342E+02  0.70000050867E+02 0.  0.
        -12    1    1    2    0    0  0.85759788738E+01 -0.12496467615E+02  0.10998572207E+02  0.18726390658E+02  0.00000000000E+00 0.  1.
         11    1    3    3    0    0  0.13137316819E+02 -0.99377165278E-02 -0.80583992135E+01  0.15411910657E+02  0.51100000000E-03 0. -1.
        -11    1    3    3    0    0  0.10682183573E+02  0.18427524030E+02 -0.97427633471E+01  0.23422299751E+02  0.51100000000E-03 0.  1.
         12    1    3    3    0    0 -0.32395479266E+02 -0.59211186982E+01  0.68025903542E+01  0.33627398933E+02  0.00000000000E+00 0. -1.
</event>
<event>
 7    1  0.1789107E-013  0.7246153E+02  0.7816164E-02  0.1226708E+00
        -11   -1    0    0    0    0  0.00000000000E+00  0.00000000000E+00  0.45593999997E+02  0.45594000000E+02  0.51100000000E-03 0. -1.
         11   -1    0    0    0    0 -0.00000000000E+00 -0.00000000000E+00 -0.45593999997E+02  0.45594000000E+02  0.51100000000E-03 0.  1.
    9900012    2    1    2    0    0 -0.18241286716E+02  0.36936336596E+01 -0.20719778594E+01  0.72461533091E+02  0.69999951535E+02 0.  0.
        -12    1    1    2    0    0  0.18241286716E+02 -0.36936336596E+01  0.20719778594E+01  0.18726466909E+02  0.00000000000E+00 0.  1.
         11    1    3    3    0    0  0.94622215717E+01 -0.18645693884E+02  0.71662808217E+01  0.22103192497E+02  0.51100000000E-03 0. -1.
        -11    1    3    3    0    0 -0.42034930617E+01 -0.91294336635E+01 -0.18042571671E+00  0.10052286637E+02  0.51100000000E-03 0.  1.
         12    1    3    3    0    0 -0.23500015226E+02  0.31468761207E+02 -0.90578329644E+01  0.40306053956E+02  0.00000000000E+00 0. -1.
</event>
<event>
 7    1  0.1789107E-013  0.7246155E+02  0.7816164E-02  0.1226708E+00
        -11   -1    0    0    0    0  0.00000000000E+00  0.00000000000E+00  0.45593999997E+02  0.45594000000E+02  0.51100000000E-03 0.  1.
         11   -1    0    0    0    0 -0.00000000000E+00 -0.00000000000E+00 -0.45593999997E+02  0.45594000000E+02  0.51100000000E-03 0. -1.
    9900012    2    1    2    0    0 -0.73220639860E+01 -0.17154452377E+02 -0.16709244155E+01  0.72461552238E+02  0.69999976478E+02 0.  0.
        -12    1    1    2    0    0  0.73220639860E+01  0.17154452377E+02  0.16709244155E+01  0.18726447762E+02  0.00000000000E+00 0.  1.
         11    1    3    3    0    0 -0.19909323488E+02 -0.57109883184E+01 -0.34844697362E+01  0.21003287336E+02  0.51100000000E-03 0. -1.
        -11    1    3    3    0    0 -0.15427006370E+02 -0.15126085205E+02  0.70405752678E+01  0.22723571012E+02  0.51100000000E-03 0.  1.
        -12    1    3    3    0    0  0.28014265872E+02  0.36826211465E+01 -0.52270299472E+01  0.28734693890E+02  0.00000000000E+00 0.  1.
</event>
<event>
 7    1  0.1789107E-013  0.7246159E+02  0.7816164E-02  0.1226708E+00
        -11   -1    0    0    0    0  0.00000000000E+00  0.00000000000E+00  0.45593999997E+02  0.45594000000E+02  0.51100000000E-03 0.  1.
         11   -1    0    0    0    0 -0.00000000000E+00 -0.00000000000E+00 -0.45593999997E+02  0.45594000000E+02  0.51100000000E-03 0. -1.
    9900012    2    1    2    0    0  0.11649688304E+02 -0.14397443179E+02 -0.27707065562E+01  0.72461590240E+02  0.70000025983E+02 0.  0.
        -12    1    1    2    0    0 -0.11649688304E+02  0.14397443179E+02  0.27707065562E+01  0.18726409760E+02  0.00000000000E+00 0.  1.
         11    1    3    3    0    0  0.41950848229E+01 -0.41350370049E+01 -0.21770343980E+02  0.22553162637E+02  0.51100000000E-03 0. -1.
        -11    1    3    3    0    0 -0.48060338354E+01  0.10228366215E+02 -0.80136711659E+01  0.13854109949E+02  0.51100000000E-03 0.  1.
        -12    1    3    3    0    0  0.12260637317E+02 -0.20490772389E+02  0.27013308589E+02  0.36054317654E+02  0.00000000000E+00 0.  1.
</event>
<event>
 7    1  0.1789107E-013  0.7246156E+02  0.7816164E-02  0.1226708E+00
        -11   -1    0    0    0    0  0.00000000000E+00  0.00000000000E+00  0.45593999997E+02  0.45594000000E+02  0.51100000000E-03 0. -1.
         11   -1    0    0    0    0 -0.00000000000E+00 -0.00000000000E+00 -0.45593999997E+02  0.45594000000E+02  0.51100000000E-03 0.  1.
    9900012    2    1    2    0    0 -0.13186295242E+02  0.12456558537E+02  0.46513691430E+01  0.72461562334E+02  0.69999989630E+02 0.  0.
        -12    1    1    2    0    0  0.13186295242E+02 -0.12456558537E+02 -0.46513691430E+01  0.18726437666E+02  0.00000000000E+00 0.  1.
         11    1    3    3    0    0  0.87441973036E+01 -0.20097778775E+02  0.10532822105E+02  0.24317114136E+02  0.51100000000E-03 0. -1.
        -11    1    3    3    0    0 -0.13522819403E+02  0.57064740985E+00  0.30811903847E+01  0.13881138913E+02  0.51100000000E-03 0.  1.
        -12    1    3    3    0    0 -0.84076731417E+01  0.31983689901E+02 -0.89626433463E+01  0.34263309284E+02  0.00000000000E+00 0.  1.
</event>
<event>
 7    1  0.1789107E-013  0.7246153E+02  0.7816164E-02  0.1226708E+00
        -11   -1    0    0    0    0  0.00000000000E+00  0.00000000000E+00  0.45593999997E+02  0.45594000000E+02  0.51100000000E-03 0. -1.
         11   -1    0    0    0    0 -0.00000000000E+00 -0.00000000000E+00 -0.45593999997E+02  0.45594000000E+02  0.51100000000E-03 0.  1.
    9900012    2    1    2    0    0  0.17857760280E+02  0.39254783368E+01  0.40461941195E+01  0.72461530252E+02  0.69999947837E+02 0.  0.
        -12    1    1    2    0    0 -0.17857760280E+02 -0.39254783368E+01 -0.40461941195E+01  0.18726469748E+02  0.00000000000E+00 0.  1.
         11    1    3    3    0    0  0.28641514156E+01 -0.25621656503E-01 -0.13633507307E+01  0.31721830460E+01  0.51100000000E-03 0. -1.
        -11    1    3    3    0    0  0.13566892928E+02  0.30888664323E+02 -0.13509303474E+02  0.36341043573E+02  0.51100000000E-03 0.  1.
         12    1    3    3    0    0  0.14267159362E+01 -0.26937564330E+02  0.18918848324E+02  0.32948303633E+02  0.00000000000E+00 0. -1.
</event>
<event>
 7    1  0.1789107E-013  0.7246161E+02  0.7816164E-02  0.1226708E+00
        -11   -1    0    0    0    0  0.00000000000E+00  0.00000000000E+00  0.45593999997E+02  0.45594000000E+02  0.51100000000E-03 0. -1.
         11   -1    0    0    0    0 -0.00000000000E+00 -0.00000000000E+00 -0.45593999997E+02  0.45594000000E+02  0.51100000000E-03 0.  1.
    9900012    2    1    2    0    0  0.31796196884E+01  0.15964304584E+01  0.18385295764E+02  0.72461610281E+02  0.70000052091E+02 0.  0.
        -12    1    1    2    0    0 -0.31796196884E+01 -0.15964304584E+01 -0.18385295764E+02  0.18726389719E+02  0.00000000000E+00 0.  1.
         11    1    3    3    0    0 -0.17999959859E+00 -0.10112950982E+01  0.60757447928E+01  0.61619633787E+01  0.51100000000E-03 0. -1.
        -11    1    3    3    0    0  0.20585145354E+02 -0.17151199480E+02  0.25470216359E+02  0.36968145402E+02  0.51100000000E-03 0.  1.
         12    1    3    3    0    0 -0.17225526067E+02  0.19758925036E+02 -0.13160665388E+02  0.29331501501E+02  0.00000000000E+00 0. -1.
</event>
<event>
 7    1  0.1789107E-013  0.7246077E+02  0.7816164E-02  0.1226710E+00
        -11   -1    0    0    0    0  0.00000000000E+00  0.00000000000E+00  0.45593999997E+02  0.45594000000E+02  0.51100000000E-03 0.  1.
         11   -1    0    0    0    0 -0.00000000000E+00 -0.00000000000E+00 -0.45593999997E+02  0.45594000000E+02  0.51100000000E-03 0. -1.
    9900012    2    1    2    0    0 -0.10275283921E+02 -0.76487258279E+01 -0.13661068955E+02  0.72460766583E+02  0.69998953009E+02 0.  0.
        -12    1    1    2    0    0  0.10275283921E+02  0.76487258279E+01  0.13661068955E+02  0.18727233417E+02  0.00000000000E+00 0.  1.
         11    1    3    3    0    0  0.20226497008E+02  0.11088043873E+02 -0.86971584640E+01  0.24651500233E+02  0.51100000000E-03 0. -1.
        -11    1    3    3    0    0  0.44946750741E+00  0.48962829972E+01  0.56072601478E+01  0.74576789188E+01  0.51100000000E-03 0.  1.
         12    1    3    3    0    0 -0.30951248436E+02 -0.23633052698E+02 -0.10571170639E+02  0.40351587432E+02  0.00000000000E+00 0. -1.
</event>
<event>
 7    1  0.1789107E-013  0.7246154E+02  0.7816164E-02  0.1226708E+00
        -11   -1    0    0    0    0  0.00000000000E+00  0.00000000000E+00  0.45593999997E+02  0.45594000000E+02  0.51100000000E-03 0.  1.
         11   -1    0    0    0    0 -0.00000000000E+00 -0.00000000000E+00 -0.45593999997E+02  0.45594000000E+02  0.51100000000E-03 0. -1.
    9900012    2    1    2    0    0  0.86343452011E+01  0.26034784757E+01 -0.16411892879E+02  0.72461541576E+02  0.69999962589E+02 0.  0.
        -12    1    1    2    0    0 -0.86343452011E+01 -0.26034784757E+01  0.16411892879E+02  0.18726458424E+02  0.00000000000E+00 0.  1.
         11    1    3    3    0    0  0.15443251857E+02  0.13762942309E+02 -0.36010835937E+02  0.41529422270E+02  0.51100000000E-03 0. -1.
        -11    1    3    3    0    0 -0.66415123513E+01 -0.51927450238E+00 -0.19138511076E+01  0.69312451006E+01  0.51100000000E-03 0.  1.
        -12    1    3    3    0    0 -0.16739430483E+00 -0.10640189331E+02  0.21512794165E+02  0.24000874206E+02  0.00000000000E+00 0.  1.
</event>
<event>
 7    1  0.1789107E-013  0.7246156E+02  0.7816164E-02  0.1226708E+00
        -11   -1    0    0    0    0  0.00000000000E+00  0.00000000000E+00  0.45593999997E+02  0.45594000000E+02  0.51100000000E-03 0.  1.
         11   -1    0    0    0    0 -0.00000000000E+00 -0.00000000000E+00 -0.45593999997E+02  0.45594000000E+02  0.51100000000E-03 0. -1.
    9900012    2    1    2    0    0  0.36237037434E+01  0.18354263959E+02 -0.81817580003E+00  0.72461557574E+02  0.69999983430E+02 0.  0.
        -12    1    1    2    0    0 -0.36237037434E+01 -0.18354263959E+02  0.81817580003E+00  0.18726442426E+02  0.00000000000E+00 0.  1.
         11    1    3    3    0    0  0.25759722821E+02  0.25967999943E+02  0.12674254035E+02  0.38710942335E+02  0.51100000000E-03 0. -1.
        -11    1    3    3    0    0  0.22399464836E+01 -0.43141350432E+01  0.13197244101E+01  0.50369429419E+01  0.51100000000E-03 0.  1.
         12    1    3    3    0    0 -0.24375965561E+02 -0.32996009413E+01 -0.14812154246E+02  0.28713672297E+02  0.00000000000E+00 0. -1.
</event>
<event>
 7    1  0.1789107E-013  0.7246156E+02  0.7816164E-02  0.1226708E+00
        -11   -1    0    0    0    0  0.00000000000E+00  0.00000000000E+00  0.45593999997E+02  0.45594000000E+02  0.51100000000E-03 0. -1.
         11   -1    0    0    0    0 -0.00000000000E+00 -0.00000000000E+00 -0.45593999997E+02  0.45594000000E+02  0.51100000000E-03 0.  1.
    9900012    2    1    2    0    0 -0.75904265228E+01 -0.15923324217E+02  0.62859172609E+01  0.72461559208E+02  0.69999985558E+02 0.  0.
        -12    1    1    2    0    0  0.75904265228E+01  0.15923324217E+02 -0.62859172609E+01  0.18726440792E+02  0.00000000000E+00 0.  1.
         11    1    3    3    0    0  0.52781176001E+01  0.46120533292E+00 -0.27550302254E+02  0.28055131266E+02  0.51100000000E-03 0. -1.
        -11    1    3    3    0    0  0.25797507387E+01 -0.40484970903E+01 -0.45769797237E+00  0.48223365974E+01  0.51100000000E-03 0.  1.
         12    1    3    3    0    0 -0.15448294862E+02 -0.12336032460E+02  0.34293917488E+02  0.39584091345E+02  0.00000000000E+00 0. -1.
</event>
<event>
 7    1  0.1789107E-013  0.7246211E+02  0.7816164E-02  0.1226707E+00
        -11   -1    0    0    0    0  0.00000000000E+00  0.00000000000E+00  0.45593999997E+02  0.45594000000E+02  0.51100000000E-03 0.  1.
         11   -1    0    0    0    0 -0.00000000000E+00 -0.00000000000E+00 -0.45593999997E+02  0.45594000000E+02  0.51100000000E-03 0. -1.
    9900012    2    1    2    0    0  0.13194171426E+02 -0.13115162820E+02  0.21366553745E+01  0.72462110125E+02  0.70000703226E+02 0.  0.
        -12    1    1    2    0    0 -0.13194171426E+02  0.13115162820E+02 -0.21366553745E+01  0.18725889875E+02  0.00000000000E+00 0.  1.
         11    1    3    3    0    0 -0.47934252726E+01 -0.31013812262E+01 -0.17961161860E+02  0.18846719263E+02  0.51100000000E-03 0. -1.
        -11    1    3    3    0    0 -0.11409606172E+02 -0.12637108444E+02  0.16797901324E+02  0.23917464581E+02  0.51100000000E-03 0.  1.
         12    1    3    3    0    0  0.29397202871E+02  0.26233268506E+01  0.32999159105E+01  0.29697926281E+02  0.00000000000E+00 0. -1.
</event>
<event>
 7    1  0.1789107E-013  0.7246155E+02  0.7816164E-02  0.1226708E+00
        -11   -1    0    0    0    0  0.00000000000E+00  0.00000000000E+00  0.45593999997E+02  0.45594000000E+02  0.51100000000E-03 0.  1.
         11   -1    0    0    0    0 -0.00000000000E+00 -0.00000000000E+00 -0.45593999997E+02  0.45594000000E+02  0.51100000000E-03 0. -1.
    9900012    2    1    2    0    0 -0.23507563347E-01  0.18726407549E+02  0.33164137990E-01  0.72461548330E+02  0.69999971387E+02 0.  0.
        -12    1    1    2    0    0  0.23507563347E-01 -0.18726407549E+02 -0.33164137990E-01  0.18726451670E+02  0.00000000000E+00 0.  1.
         11    1    3    3    0    0 -0.22131713200E+02 -0.11910665880E+02  0.12759262550E+01  0.25165545473E+02  0.51100000000E-03 0. -1.
        -11    1    3    3    0    0  0.90021414363E+01 -0.42835421165E+01 -0.68445702413E+00  0.99927856567E+01  0.51100000000E-03 0.  1.
        -12    1    3    3    0    0  0.13106064200E+02  0.34920615546E+02 -0.55830509290E+00  0.37303217200E+02  0.00000000000E+00 0.  1.
</event>
<event>
 7    1  0.1789107E-013  0.7246159E+02  0.7816164E-02  0.1226708E+00
        -11   -1    0    0    0    0  0.00000000000E+00  0.00000000000E+00  0.45593999997E+02  0.45594000000E+02  0.51100000000E-03 0.  1.
         11   -1    0    0    0    0 -0.00000000000E+00 -0.00000000000E+00 -0.45593999997E+02  0.45594000000E+02  0.51100000000E-03 0. -1.
    9900012    2    1    2    0    0 -0.15438434341E+02  0.53201993565E+01 -0.91667133597E+01  0.72461590576E+02  0.70000026421E+02 0.  0.
        -12    1    1    2    0    0  0.15438434341E+02 -0.53201993565E+01  0.91667133597E+01  0.18726409424E+02  0.00000000000E+00 0.  1.
         11    1    3    3    0    0  0.77011780455E+01  0.24629137080E+02  0.10997952363E+02  0.28050980251E+02  0.51100000000E-03 0. -1.
        -11    1    3    3    0    0  0.39881307803E+01  0.21151430337E+00 -0.78233683788E+01  0.87837929435E+01  0.51100000000E-03 0.  1.
        -12    1    3    3    0    0 -0.27127743167E+02 -0.19520452027E+02 -0.12341297344E+02  0.35626817382E+02  0.00000000000E+00 0.  1.
</event>
<event>
 7    1  0.1789107E-013  0.7246159E+02  0.7816164E-02  0.1226708E+00
        -11   -1    0    0    0    0  0.00000000000E+00  0.00000000000E+00  0.45593999997E+02  0.45594000000E+02  0.51100000000E-03 0. -1.
         11   -1    0    0    0    0 -0.00000000000E+00 -0.00000000000E+00 -0.45593999997E+02  0.45594000000E+02  0.51100000000E-03 0.  1.
    9900012    2    1    2    0    0  0.15772639732E+02  0.92154955571E+01  0.41203132393E+01  0.72461588073E+02  0.70000023160E+02 0.  0.
        -12    1    1    2    0    0 -0.15772639732E+02 -0.92154955571E+01 -0.41203132393E+01  0.18726411927E+02  0.00000000000E+00 0.  1.
         11    1    3    3    0    0  0.15270837956E+02  0.45771238533E+01  0.65412514130E+01  0.17231846243E+02  0.51100000000E-03 0. -1.
        -11    1    3    3    0    0 -0.48160010883E+01  0.29307992414E+02  0.12528932150E+01  0.29727462513E+02  0.51100000000E-03 0.  1.
        -12    1    3    3    0    0  0.53178028640E+01 -0.24669620710E+02 -0.36738313887E+01  0.25502279317E+02  0.00000000000E+00 0.  1.
</event>
<event>
 7    1  0.1789107E-013  0.7246158E+02  0.7816164E-02  0.1226708E+00
        -11   -1    0    0    0    0  0.00000000000E+00  0.00000000000E+00  0.45593999997E+02  0.45594000000E+02  0.51100000000E-03 0. -1.
         11   -1    0    0    0    0 -0.00000000000E+00 -0.00000000000E+00 -0.45593999997E+02  0.45594000000E+02  0.51100000000E-03 0.  1.
    9900012    2    1    2    0    0 -0.11395221349E+02  0.14855703500E+02 -0.36863163998E+00  0.72461577882E+02  0.70000009884E+02 0.  0.
        -12    1    1    2    0    0  0.11395221349E+02 -0.14855703500E+02  0.36863163998E+00  0.18726422118E+02  0.00000000000E+00 0.  1.
         11    1    3    3    0    0  0.68552247926E+01 -0.33668031777E+01  0.17660528556E+01  0.78389038484E+01  0.51100000000E-03 0. -1.
        -11    1    3    3    0    0 -0.60432683669E+01  0.37323449401E+02  0.97236305799E+01  0.39039850917E+02  0.51100000000E-03 0.  1.
         12    1    3    3    0    0 -0.12207177775E+02 -0.19100942723E+02 -0.11858315075E+02  0.25582823116E+02  0.00000000000E+00 0. -1.
</event>
<event>
 7    1  0.1789107E-013  0.7246158E+02  0.7816164E-02  0.1226708E+00
        -11   -1    0    0    0    0  0.00000000000E+00  0.00000000000E+00  0.45593999997E+02  0.45594000000E+02  0.51100000000E-03 0.  1.
         11   -1    0    0    0    0 -0.00000000000E+00 -0.00000000000E+00 -0.45593999997E+02  0.45594000000E+02  0.51100000000E-03 0. -1.
    9900012    2    1    2    0    0 -0.14742543358E+02 -0.11510847539E+02  0.91459856894E+00  0.72461583198E+02  0.70000016809E+02 0.  0.
        -12    1    1    2    0    0  0.14742543358E+02  0.11510847539E+02 -0.91459856894E+00  0.18726416802E+02  0.00000000000E+00 0.  1.
         11    1    3    3    0    0 -0.31671379631E+02 -0.10856165568E-01 -0.75315660127E+01  0.32554583279E+02  0.51100000000E-03 0. -1.
        -11    1    3    3    0    0 -0.83556996933E+01  0.20447681473E+00 -0.41476836105E+01  0.93307452932E+01  0.51100000000E-03 0.  1.
        -12    1    3    3    0    0  0.25284535967E+02 -0.11704468188E+02  0.12593848192E+02  0.30576254625E+02  0.00000000000E+00 0.  1.
</event>
<event>
 7    1  0.1789107E-013  0.7246146E+02  0.7816164E-02  0.1226708E+00
        -11   -1    0    0    0    0  0.00000000000E+00  0.00000000000E+00  0.45593999997E+02  0.45594000000E+02  0.51100000000E-03 0. -1.
         11   -1    0    0    0    0 -0.00000000000E+00 -0.00000000000E+00 -0.45593999997E+02  0.45594000000E+02  0.51100000000E-03 0.  1.
    9900012    2    1    2    0    0 -0.11463089915E+02  0.13730764958E+02 -0.55450097410E+01  0.72461455477E+02  0.69999850429E+02 0.  0.
        -12    1    1    2    0    0  0.11463089915E+02 -0.13730764958E+02  0.55450097410E+01  0.18726544523E+02  0.00000000000E+00 0.  1.
         11    1    3    3    0    0  0.95054843516E+00  0.17265877136E+02 -0.16537391679E+02  0.23926959259E+02  0.51100000000E-03 0. -1.
        -11    1    3    3    0    0 -0.21916359500E+02  0.11182792802E+02 -0.46596528867E+01  0.25041845657E+02  0.51100000000E-03 0.  1.
         12    1    3    3    0    0  0.95027211497E+01 -0.14717904980E+02  0.15652034825E+02  0.23492650562E+02  0.00000000000E+00 0. -1.
</event>
<event>
 7    1  0.1789107E-013  0.7246149E+02  0.7816164E-02  0.1226708E+00
        -11   -1    0    0    0    0  0.00000000000E+00  0.00000000000E+00  0.45593999997E+02  0.45594000000E+02  0.51100000000E-03 0.  1.
         11   -1    0    0    0    0 -0.00000000000E+00 -0.00000000000E+00 -0.45593999997E+02  0.45594000000E+02  0.51100000000E-03 0. -1.
    9900012    2    1    2    0    0 -0.78085897831E+01 -0.90056940046E+01 -0.14443190197E+02  0.72461485589E+02  0.69999889656E+02 0.  0.
        -12    1    1    2    0    0  0.78085897831E+01  0.90056940046E+01  0.14443190197E+02  0.18726514411E+02  0.00000000000E+00 0.  1.
         11    1    3    3    0    0 -0.12744996749E+01 -0.76672544239E+01  0.60812742006E+00  0.77962144046E+01  0.51100000000E-03 0. -1.
        -11    1    3    3    0    0 -0.24075873600E+02 -0.19003339322E+02  0.69407993688E+01  0.31447564152E+02  0.51100000000E-03 0.  1.
         12    1    3    3    0    0  0.17541783492E+02  0.17664899741E+02 -0.21992116986E+02  0.33217707032E+02  0.00000000000E+00 0. -1.
</event>
<event>
 7    1  0.1789107E-013  0.7246158E+02  0.7816164E-02  0.1226708E+00
        -11   -1    0    0    0    0  0.00000000000E+00  0.00000000000E+00  0.45593999997E+02  0.45594000000E+02  0.51100000000E-03 0. -1.
         11   -1    0    0    0    0 -0.00000000000E+00 -0.00000000000E+00 -0.45593999997E+02  0.45594000000E+02  0.51100000000E-03 0.  1.
    9900012    2    1    2    0    0  0.81096701105E+00 -0.18648198138E+02 -0.15052246332E+01  0.72461583833E+02  0.70000017636E+02 0.  0.
        -12    1    1    2    0    0 -0.81096701105E+00  0.18648198138E+02  0.15052246332E+01  0.18726416167E+02  0.00000000000E+00 0.  1.
         11    1    3    3    0    0 -0.65755446328E+00 -0.65820193300E+01  0.12997186848E+01  0.67412628827E+01  0.51100000000E-03 0. -1.
        -11    1    3    3    0    0  0.28683476800E+02 -0.13112937605E+02 -0.16103312365E+02  0.35411970340E+02  0.51100000000E-03 0.  1.
         12    1    3    3    0    0 -0.27214955326E+02  0.10467587974E+01  0.13298369047E+02  0.30308350610E+02  0.00000000000E+00 0. -1.
</event>
<event>
 7    1  0.1789107E-013  0.7246172E+02  0.7816164E-02  0.1226708E+00
        -11   -1    0    0    0    0  0.00000000000E+00  0.00000000000E+00  0.45593999997E+02  0.45594000000E+02  0.51100000000E-03 0.  1.
         11   -1    0    0    0    0 -0.00000000000E+00 -0.00000000000E+00 -0.45593999997E+02  0.45594000000E+02  0.51100000000E-03 0. -1.
    9900012    2    1    2    0    0  0.10851816514E+02 -0.12241213354E+02 -0.91139660459E+01  0.72461718919E+02  0.70000193611E+02 0.  0.
        -12    1    1    2    0    0 -0.10851816514E+02  0.12241213354E+02  0.91139660459E+01  0.18726281081E+02  0.00000000000E+00 0.  1.
         11    1    3    3    0    0 -0.26655077465E+00 -0.59793038174E+01 -0.46095657388E+01  0.75545496238E+01  0.51100000000E-03 0. -1.
        -11    1    3    3    0    0  0.30177867312E+02 -0.10189045474E+02 -0.22022698273E+02  0.38723630546E+02  0.51100000000E-03 0.  1.
         12    1    3    3    0    0 -0.19059500023E+02  0.39271359366E+01  0.17518297966E+02  0.26183538749E+02  0.00000000000E+00 0. -1.
</event>
<event>
 7    1  0.1789107E-013  0.7246134E+02  0.7816164E-02  0.1226709E+00
        -11   -1    0    0    0    0  0.00000000000E+00  0.00000000000E+00  0.45593999997E+02  0.45594000000E+02  0.51100000000E-03 0. -1.
         11   -1    0    0    0    0 -0.00000000000E+00 -0.00000000000E+00 -0.45593999997E+02  0.45594000000E+02  0.51100000000E-03 0.  1.
    9900012    2    1    2    0    0 -0.79880634424E+01 -0.78835520533E+01  0.14990938682E+02  0.72461340044E+02  0.69999700056E+02 0.  0.
        -12    1    1    2    0    0  0.79880634424E+01  0.78835520533E+01 -0.14990938682E+02  0.18726659956E+02  0.00000000000E+00 0.  1.
         11    1    3    3    0    0  0.97189969152E+01  0.13951158188E+02  0.99447923214E+01  0.19697528028E+02  0.51100000000E-03 0. -1.
        -11    1    3    3    0    0 -0.82875389109E+01  0.13421366359E+02  0.39201122306E+01  0.16253727459E+02  0.51100000000E-03 0.  1.
         12    1    3    3    0    0 -0.94195214468E+01 -0.35256076600E+02  0.11260341301E+01  0.36510084558E+02  0.00000000000E+00 0. -1.
</event>
<event>
 7    1  0.1789107E-013  0.7246155E+02  0.7816164E-02  0.1226708E+00
        -11   -1    0    0    0    0  0.00000000000E+00  0.00000000000E+00  0.45593999997E+02  0.45594000000E+02  0.51100000000E-03 0.  1.
         11   -1    0    0    0    0 -0.00000000000E+00 -0.00000000000E+00 -0.45593999997E+02  0.45594000000E+02  0.51100000000E-03 0. -1.
    9900012    2    1    2    0    0  0.11317434574E+02 -0.12285830263E+02  0.84648645486E+01  0.72461551260E+02  0.69999975204E+02 0.  0.
        -12    1    1    2    0    0 -0.11317434574E+02  0.12285830263E+02 -0.84648645486E+01  0.18726448740E+02  0.00000000000E+00 0.  1.
         11    1    3    3    0    0 -0.54092140225E+01  0.14894476014E+02  0.61408906978E+01  0.16994574160E+02  0.51100000000E-03 0.  1.
        -11    1    3    3    0    0 -0.64021432210E+01  0.88310988332E+01 -0.50793926686E+01  0.12032288833E+02  0.51100000000E-03 0. -1.
        -12    1    3    3    0    0  0.23128791818E+02 -0.36011405110E+02  0.74033665195E+01  0.43434688266E+02  0.00000000000E+00 0.  1.
</event>
<event>
 7    1  0.1789107E-013  0.7246154E+02  0.7816164E-02  0.1226708E+00
        -11   -1    0    0    0    0  0.00000000000E+00  0.00000000000E+00  0.45593999997E+02  0.45594000000E+02  0.51100000000E-03 0. -1.
         11   -1    0    0    0    0 -0.00000000000E+00 -0.00000000000E+00 -0.45593999997E+02  0.45594000000E+02  0.51100000000E-03 0.  1.
    9900012    2    1    2    0    0 -0.37139583909E+01 -0.13005214959E+02  0.12951878740E+02  0.72461541019E+02  0.69999961864E+02 0.  0.
        -12    1    1    2    0    0  0.37139583909E+01  0.13005214959E+02 -0.12951878740E+02  0.18726458981E+02  0.00000000000E+00 0.  1.
         11    1    3    3    0    0  0.13058491655E+02  0.22399129473E+02 -0.28651344446E+00  0.25929274878E+02  0.51100000000E-03 0. -1.
        -11    1    3    3    0    0 -0.14470101165E+01 -0.10310989060E+02 -0.53903226706E+01  0.11724585811E+02  0.51100000000E-03 0.  1.
        -12    1    3    3    0    0 -0.15325439929E+02 -0.25093355372E+02  0.18628714855E+02  0.34807680331E+02  0.00000000000E+00 0.  1.
</event>
<event>
 7    1  0.1789107E-013  0.7246158E+02  0.7816164E-02  0.1226708E+00
        -11   -1    0    0    0    0  0.00000000000E+00  0.00000000000E+00  0.45593999997E+02  0.45594000000E+02  0.51100000000E-03 0. -1.
         11   -1    0    0    0    0 -0.00000000000E+00 -0.00000000000E+00 -0.45593999997E+02  0.45594000000E+02  0.51100000000E-03 0.  1.
    9900012    2    1    2    0    0 -0.80006364938E+01 -0.16726502744E+02 -0.26253721837E+01  0.72461583967E+02  0.70000017811E+02 0.  0.
        -12    1    1    2    0    0  0.80006364938E+01  0.16726502744E+02  0.26253721837E+01  0.18726416033E+02  0.00000000000E+00 0.  1.
         11    1    3    3    0    0  0.49047084862E+01 -0.18081274045E+02  0.21870444509E+02  0.28797655802E+02  0.51100000000E-03 0. -1.
        -11    1    3    3    0    0  0.91308447445E+01  0.87124170813E+01 -0.11332486642E+02  0.16961833359E+02  0.51100000000E-03 0.  1.
        -12    1    3    3    0    0 -0.22036189725E+02 -0.73576457796E+01 -0.13163330051E+02  0.26702094806E+02  0.00000000000E+00 0.  1.
</event>
<event>
 7    1  0.1789107E-013  0.7246170E+02  0.7816164E-02  0.1226708E+00
        -11   -1    0    0    0    0  0.00000000000E+00  0.00000000000E+00  0.45593999997E+02  0.45594000000E+02  0.51100000000E-03 0.  1.
         11   -1    0    0    0    0 -0.00000000000E+00 -0.00000000000E+00 -0.45593999997E+02  0.45594000000E+02  0.51100000000E-03 0. -1.
    9900012    2    1    2    0    0  0.17960812565E+01 -0.40955870214E+01 -0.18184457841E+02  0.72461701703E+02  0.70000171184E+02 0.  0.
        -12    1    1    2    0    0 -0.17960812565E+01  0.40955870214E+01  0.18184457841E+02  0.18726298297E+02  0.00000000000E+00 0.  1.
         11    1    3    3    0    0 -0.18440144012E+02 -0.28687618244E+02 -0.11567033607E+02  0.36011312368E+02  0.51100000000E-03 0. -1.
        -11    1    3    3    0    0 -0.26859639443E+01  0.33961485136E+01  0.69513339508E+00  0.43853663170E+01  0.51100000000E-03 0.  1.
        -12    1    3    3    0    0  0.22922189213E+02  0.21195882709E+02 -0.73125576286E+01  0.32065023019E+02  0.00000000000E+00 0.  1.
</event>
<event>
 7    1  0.1789107E-013  0.7246150E+02  0.7816164E-02  0.1226708E+00
        -11   -1    0    0    0    0  0.00000000000E+00  0.00000000000E+00  0.45593999997E+02  0.45594000000E+02  0.51100000000E-03 0.  1.
         11   -1    0    0    0    0 -0.00000000000E+00 -0.00000000000E+00 -0.45593999997E+02  0.45594000000E+02  0.51100000000E-03 0. -1.
    9900012    2    1    2    0    0  0.87958218798E+01  0.12006213068E+02 -0.11365121647E+02  0.72461504737E+02  0.69999914599E+02 0.  0.
        -12    1    1    2    0    0 -0.87958218798E+01 -0.12006213068E+02  0.11365121647E+02  0.18726495263E+02  0.00000000000E+00 0.  1.
         11    1    3    3    0    0  0.45118854414E+00  0.18298593041E+02 -0.90103394232E+01  0.20401673833E+02  0.51100000000E-03 0. -1.
        -11    1    3    3    0    0  0.26684135799E+02  0.71171769725E+01  0.52306547432E+01  0.28107953691E+02  0.51100000000E-03 0.  1.
         12    1    3    3    0    0 -0.18339502463E+02 -0.13409556945E+02 -0.75854369674E+01  0.23951877214E+02  0.00000000000E+00 0. -1.
</event>
<event>
 7    1  0.1789107E-013  0.7246157E+02  0.7816164E-02  0.1226708E+00
        -11   -1    0    0    0    0  0.00000000000E+00  0.00000000000E+00  0.45593999997E+02  0.45594000000E+02  0.51100000000E-03 0.  1.
         11   -1    0    0    0    0 -0.00000000000E+00 -0.00000000000E+00 -0.45593999997E+02  0.45594000000E+02  0.51100000000E-03 0. -1.
    9900012    2    1    2    0    0  0.52029205425E+01 -0.64792830068E+01 -0.16781768587E+02  0.72461568216E+02  0.69999997293E+02 0.  0.
        -12    1    1    2    0    0 -0.52029205425E+01  0.64792830068E+01  0.16781768587E+02  0.18726431784E+02  0.00000000000E+00 0.  1.
         11    1    3    3    0    0 -0.10629453880E+02 -0.33125769890E+00 -0.12485497168E+02  0.16400690877E+02  0.51100000000E-03 0. -1.
        -11    1    3    3    0    0  0.14210703232E+02  0.22309923176E+02 -0.71874423923E+01  0.27410510518E+02  0.51100000000E-03 0.  1.
        -12    1    3    3    0    0  0.16216711906E+01 -0.28457948484E+02  0.28911709732E+01  0.28650366821E+02  0.00000000000E+00 0.  1.
</event>
<event>
 7    1  0.1789107E-013  0.7246154E+02  0.7816164E-02  0.1226708E+00
        -11   -1    0    0    0    0  0.00000000000E+00  0.00000000000E+00  0.45593999997E+02  0.45594000000E+02  0.51100000000E-03 0. -1.
         11   -1    0    0    0    0 -0.00000000000E+00 -0.00000000000E+00 -0.45593999997E+02  0.45594000000E+02  0.51100000000E-03 0.  1.
    9900012    2    1    2    0    0 -0.77897299712E+01  0.16939234547E+02 -0.17501032353E+01  0.72461536869E+02  0.69999956458E+02 0.  0.
        -12    1    1    2    0    0  0.77897299712E+01 -0.16939234547E+02  0.17501032353E+01  0.18726463131E+02  0.00000000000E+00 0.  1.
         11    1    3    3    0    0 -0.31784725856E+01  0.11674559401E+02  0.28914862782E+02  0.31344334657E+02  0.51100000000E-03 0. -1.
        -11    1    3    3    0    0  0.16895693585E+01 -0.59761483168E+01  0.15667340534E+01  0.64049706617E+01  0.51100000000E-03 0.  1.
        -12    1    3    3    0    0 -0.63008267441E+01  0.11240823463E+02 -0.32231700070E+02  0.34712231550E+02  0.00000000000E+00 0.  1.
</event>
<event>
 7    1  0.1789107E-013  0.7246157E+02  0.7816164E-02  0.1226708E+00
        -11   -1    0    0    0    0  0.00000000000E+00  0.00000000000E+00  0.45593999997E+02  0.45594000000E+02  0.51100000000E-03 0.  1.
         11   -1    0    0    0    0 -0.00000000000E+00 -0.00000000000E+00 -0.45593999997E+02  0.45594000000E+02  0.51100000000E-03 0. -1.
    9900012    2    1    2    0    0  0.17723467691E+02  0.49492385886E+01 -0.34731588138E+01  0.72461572104E+02  0.70000002357E+02 0.  0.
        -12    1    1    2    0    0 -0.17723467691E+02 -0.49492385886E+01  0.34731588138E+01  0.18726427896E+02  0.00000000000E+00 0.  1.
         11    1    3    3    0    0 -0.12117672960E+01  0.41480506288E+01  0.13723943233E+01  0.45341118688E+01  0.51100000000E-03 0. -1.
        -11    1    3    3    0    0 -0.24402526205E+02  0.47032158459E+00 -0.22572539632E+01  0.24511215460E+02  0.51100000000E-03 0.  1.
         12    1    3    3    0    0  0.43337761193E+02  0.33086637517E+00 -0.25882991740E+01  0.43416244775E+02  0.00000000000E+00 0. -1.
</event>
<event>
 7    1  0.1789107E-013  0.7246146E+02  0.7816164E-02  0.1226708E+00
        -11   -1    0    0    0    0  0.00000000000E+00  0.00000000000E+00  0.45593999997E+02  0.45594000000E+02  0.51100000000E-03 0.  1.
         11   -1    0    0    0    0 -0.00000000000E+00 -0.00000000000E+00 -0.45593999997E+02  0.45594000000E+02  0.51100000000E-03 0. -1.
    9900012    2    1    2    0    0 -0.16744250206E+02  0.75456293017E+01 -0.36574514439E+01  0.72461457672E+02  0.69999853288E+02 0.  0.
        -12    1    1    2    0    0  0.16744250206E+02 -0.75456293017E+01  0.36574514439E+01  0.18726542328E+02  0.00000000000E+00 0.  1.
         11    1    3    3    0    0  0.79805522106E+01  0.15101472810E+01  0.81254715101E+01  0.11488822652E+02  0.51100000000E-03 0. -1.
        -11    1    3    3    0    0  0.78373809369E+01  0.20605513306E+02  0.32074250750E+01  0.22277775796E+02  0.51100000000E-03 0.  1.
         12    1    3    3    0    0 -0.32562183353E+02 -0.14570031285E+02 -0.14990348029E+02  0.38694859224E+02  0.00000000000E+00 0. -1.
</event>
<event>
 7    1  0.1789107E-013  0.7246155E+02  0.7816164E-02  0.1226708E+00
        -11   -1    0    0    0    0  0.00000000000E+00  0.00000000000E+00  0.45593999997E+02  0.45594000000E+02  0.51100000000E-03 0.  1.
         11   -1    0    0    0    0 -0.00000000000E+00 -0.00000000000E+00 -0.45593999997E+02  0.45594000000E+02  0.51100000000E-03 0. -1.
    9900012    2    1    2    0    0  0.97386111662E+01  0.50754534137E+01 -0.15168363016E+02  0.72461547817E+02  0.69999970719E+02 0.  0.
        -12    1    1    2    0    0 -0.97386111662E+01 -0.50754534137E+01  0.15168363016E+02  0.18726452183E+02  0.00000000000E+00 0.  1.
         11    1    3    3    0    0 -0.21951366808E+02 -0.77678727073E+01 -0.50543262336E+01  0.23827475004E+02  0.51100000000E-03 0. -1.
        -11    1    3    3    0    0  0.73335723178E+01 -0.11172916061E+02 -0.29517257396E+01  0.13686782724E+02  0.51100000000E-03 0.  1.
         12    1    3    3    0    0  0.24356405656E+02  0.24016242182E+02 -0.71623110424E+01  0.34947290088E+02  0.00000000000E+00 0. -1.
</event>
<event>
 7    1  0.1789107E-013  0.7246156E+02  0.7816164E-02  0.1226708E+00
        -11   -1    0    0    0    0  0.00000000000E+00  0.00000000000E+00  0.45593999997E+02  0.45594000000E+02  0.51100000000E-03 0. -1.
         11   -1    0    0    0    0 -0.00000000000E+00 -0.00000000000E+00 -0.45593999997E+02  0.45594000000E+02  0.51100000000E-03 0.  1.
    9900012    2    1    2    0    0  0.11151607607E+02  0.13977505749E+02  0.55633246695E+01  0.72461558785E+02  0.69999985007E+02 0.  0.
        -12    1    1    2    0    0 -0.11151607607E+02 -0.13977505749E+02 -0.55633246695E+01  0.18726441215E+02  0.00000000000E+00 0.  1.
         11    1    3    3    0    0 -0.76818265610E+00  0.35528559045E+02  0.21050324015E+01  0.35599154120E+02  0.51100000000E-03 0. -1.
        -11    1    3    3    0    0 -0.74895678022E+01  0.12185951582E+00 -0.46742894656E+00  0.75051292918E+01  0.51100000000E-03 0.  1.
        -12    1    3    3    0    0  0.19409358066E+02 -0.21672912812E+02  0.39257212146E+01  0.29357275373E+02  0.00000000000E+00 0.  1.
</event>
<event>
 7    1  0.1789107E-013  0.7246186E+02  0.7816164E-02  0.1226707E+00
        -11   -1    0    0    0    0  0.00000000000E+00  0.00000000000E+00  0.45593999997E+02  0.45594000000E+02  0.51100000000E-03 0. -1.
         11   -1    0    0    0    0 -0.00000000000E+00 -0.00000000000E+00 -0.45593999997E+02  0.45594000000E+02  0.51100000000E-03 0.  1.
    9900012    2    1    2    0    0 -0.12842326957E+02  0.13619269473E+02 -0.50830084729E+00  0.72461862320E+02  0.70000380417E+02 0.  0.
        -12    1    1    2    0    0  0.12842326957E+02 -0.13619269473E+02  0.50830084729E+00  0.18726137680E+02  0.00000000000E+00 0.  1.
         11    1    3    3    0    0 -0.36427886410E+02 -0.71013502658E+01 -0.17218323921E+00  0.37114009905E+02  0.51100000000E-03 0. -1.
        -11    1    3    3    0    0  0.34113337619E+01 -0.26565692760E+01  0.10090201085E+01  0.44398964170E+01  0.51100000000E-03 0.  1.
        -12    1    3    3    0    0  0.20174225692E+02  0.23377189015E+02 -0.13451377166E+01  0.30907955998E+02  0.00000000000E+00 0.  1.
</event>
<event>
 7    1  0.1789107E-013  0.7246106E+02  0.7816164E-02  0.1226709E+00
        -11   -1    0    0    0    0  0.00000000000E+00  0.00000000000E+00  0.45593999997E+02  0.45594000000E+02  0.51100000000E-03 0.  1.
         11   -1    0    0    0    0 -0.00000000000E+00 -0.00000000000E+00 -0.45593999997E+02  0.45594000000E+02  0.51100000000E-03 0. -1.
    9900012    2    1    2    0    0 -0.95390903527E+01  0.45529227524E+01 -0.15458819258E+02  0.72461055690E+02  0.69999329629E+02 0.  0.
        -12    1    1    2    0    0  0.95390903527E+01 -0.45529227524E+01  0.15458819258E+02  0.18726944310E+02  0.00000000000E+00 0.  1.
         11    1    3    3    0    0 -0.21417238633E+01 -0.99457750026E+01 -0.31450003248E+02  0.33054623369E+02  0.51100000000E-03 0. -1.
        -11    1    3    3    0    0  0.11492198871E+02 -0.43316268577E+00  0.81046184035E+01  0.14069225442E+02  0.51100000000E-03 0.  1.
        -12    1    3    3    0    0 -0.18889565360E+02  0.14931860441E+02  0.78865655863E+01  0.25337206880E+02  0.00000000000E+00 0.  1.
</event>
<event>
 7    1  0.1789107E-013  0.7246158E+02  0.7816164E-02  0.1226708E+00
        -11   -1    0    0    0    0  0.00000000000E+00  0.00000000000E+00  0.45593999997E+02  0.45594000000E+02  0.51100000000E-03 0. -1.
         11   -1    0    0    0    0 -0.00000000000E+00 -0.00000000000E+00 -0.45593999997E+02  0.45594000000E+02  0.51100000000E-03 0.  1.
    9900012    2    1    2    0    0  0.64125135224E+01  0.40404401756E+01  0.17124054192E+02  0.72461582338E+02  0.70000015689E+02 0.  0.
        -12    1    1    2    0    0 -0.64125135224E+01 -0.40404401756E+01 -0.17124054192E+02  0.18726417662E+02  0.00000000000E+00 0.  1.
         11    1    3    3    0    0  0.28785219234E+02 -0.35886272756E+01  0.21577622886E+02  0.36153297246E+02  0.51100000000E-03 0. -1.
        -11    1    3    3    0    0  0.57271243541E+01  0.44206997017E+01  0.15421306037E+01  0.73973445424E+01  0.51100000000E-03 0.  1.
        -12    1    3    3    0    0 -0.28099830066E+02  0.32083677495E+01 -0.59956992974E+01  0.28910940549E+02  0.00000000000E+00 0.  1.
</event>
<event>
 7    1  0.1789107E-013  0.7246157E+02  0.7816164E-02  0.1226708E+00
        -11   -1    0    0    0    0  0.00000000000E+00  0.00000000000E+00  0.45593999997E+02  0.45594000000E+02  0.51100000000E-03 0.  1.
         11   -1    0    0    0    0 -0.00000000000E+00 -0.00000000000E+00 -0.45593999997E+02  0.45594000000E+02  0.51100000000E-03 0. -1.
    9900012    2    1    2    0    0 -0.96990987878E+00  0.14526592723E+02 -0.11777798108E+02  0.72461570826E+02  0.70000000693E+02 0.  0.
        -12    1    1    2    0    0  0.96990987878E+00 -0.14526592723E+02  0.11777798108E+02  0.18726429174E+02  0.00000000000E+00 0.  1.
         11    1    3    3    0    0  0.25995196530E+02  0.26025436341E+02 -0.10883951516E+02  0.38360578466E+02  0.51100000000E-03 0. -1.
        -11    1    3    3    0    0 -0.44759029162E+00  0.33678026291E+01  0.12615794475E+01  0.36240881034E+01  0.51100000000E-03 0.  1.
        -12    1    3    3    0    0 -0.26517516117E+02 -0.14866646247E+02 -0.21554260399E+01  0.30476904257E+02  0.00000000000E+00 0.  1.
</event>
<event>
 7    1  0.1789107E-013  0.7246150E+02  0.7816164E-02  0.1226708E+00
        -11   -1    0    0    0    0  0.00000000000E+00  0.00000000000E+00  0.45593999997E+02  0.45594000000E+02  0.51100000000E-03 0.  1.
         11   -1    0    0    0    0 -0.00000000000E+00 -0.00000000000E+00 -0.45593999997E+02  0.45594000000E+02  0.51100000000E-03 0. -1.
    9900012    2    1    2    0    0 -0.12382256463E+02  0.10460895449E+02 -0.93771657011E+01  0.72461498851E+02  0.69999906931E+02 0.  0.
        -12    1    1    2    0    0  0.12382256463E+02 -0.10460895449E+02  0.93771657011E+01  0.18726501149E+02  0.00000000000E+00 0.  1.
         11    1    3    3    0    0 -0.31280543225E+02  0.16391920862E+02  0.11319653195E+02  0.37085064415E+02  0.51100000000E-03 0. -1.
        -11    1    3    3    0    0  0.10334832605E+01  0.67171357802E+01 -0.46202534950E+01  0.82179525040E+01  0.51100000000E-03 0.  1.
        -12    1    3    3    0    0  0.17864803502E+02 -0.12648161193E+02 -0.16076565401E+02  0.27158481931E+02  0.00000000000E+00 0.  1.
</event>
<event>
 7    1  0.1789107E-013  0.7246147E+02  0.7816164E-02  0.1226708E+00
        -11   -1    0    0    0    0  0.00000000000E+00  0.00000000000E+00  0.45593999997E+02  0.45594000000E+02  0.51100000000E-03 0. -1.
         11   -1    0    0    0    0 -0.00000000000E+00 -0.00000000000E+00 -0.45593999997E+02  0.45594000000E+02  0.51100000000E-03 0.  1.
    9900012    2    1    2    0    0  0.10918781434E+02 -0.12833410670E+02  0.81710896937E+01  0.72461470044E+02  0.69999869405E+02 0.  0.
        -12    1    1    2    0    0 -0.10918781434E+02  0.12833410670E+02 -0.81710896937E+01  0.18726529956E+02  0.00000000000E+00 0.  1.
         11    1    3    3    0    0  0.37257376970E+01  0.68169270166E+01  0.69411525323E+01  0.10417831544E+02  0.51100000000E-03 0. -1.
        -11    1    3    3    0    0  0.31602929766E+02 -0.61574294441E+01 -0.70292694750E+01  0.32955572166E+02  0.51100000000E-03 0.  1.
         12    1    3    3    0    0 -0.24409886029E+02 -0.13492908242E+02  0.82592066365E+01  0.29088066334E+02  0.00000000000E+00 0. -1.
</event>
<event>
 7    1  0.1789107E-013  0.7246148E+02  0.7816164E-02  0.1226708E+00
        -11   -1    0    0    0    0  0.00000000000E+00  0.00000000000E+00  0.45593999997E+02  0.45594000000E+02  0.51100000000E-03 0.  1.
         11   -1    0    0    0    0 -0.00000000000E+00 -0.00000000000E+00 -0.45593999997E+02  0.45594000000E+02  0.51100000000E-03 0. -1.
    9900012    2    1    2    0    0 -0.17189562519E+02  0.34786112863E+01 -0.65651229143E+01  0.72461477767E+02  0.69999879465E+02 0.  0.
        -12    1    1    2    0    0  0.17189562519E+02 -0.34786112863E+01  0.65651229143E+01  0.18726522233E+02  0.00000000000E+00 0.  1.
         11    1    3    3    0    0  0.68298843154E+01  0.45192581959E+01  0.62819822072E+01  0.10321546159E+02  0.51100000000E-03 0. -1.
        -11    1    3    3    0    0 -0.32999238994E+02  0.74157486844E+01  0.10770105233E+02  0.35495609162E+02  0.51100000000E-03 0.  1.
        -12    1    3    3    0    0  0.89797921598E+01 -0.84563955939E+01 -0.23617210354E+02  0.26644322446E+02  0.00000000000E+00 0.  1.
</event>
<event>
 7    1  0.1789107E-013  0.7246119E+02  0.7816164E-02  0.1226709E+00
        -11   -1    0    0    0    0  0.00000000000E+00  0.00000000000E+00  0.45593999997E+02  0.45594000000E+02  0.51100000000E-03 0.  1.
         11   -1    0    0    0    0 -0.00000000000E+00 -0.00000000000E+00 -0.45593999997E+02  0.45594000000E+02  0.51100000000E-03 0. -1.
    9900012    2    1    2    0    0 -0.64094964710E+01 -0.29117435926E+01 -0.17353201793E+02  0.72461187451E+02  0.69999501274E+02 0.  0.
        -12    1    1    2    0    0  0.64094964710E+01  0.29117435926E+01  0.17353201793E+02  0.18726812549E+02  0.00000000000E+00 0.  1.
         11    1    3    3    0    0 -0.95753183293E+00 -0.22795945407E+01  0.80952145360E+01  0.84643911256E+01  0.51100000000E-03 0. -1.
        -11    1    3    3    0    0  0.17509186683E+02 -0.20108554978E+02 -0.38441436452E+01  0.26938876039E+02  0.51100000000E-03 0.  1.
         12    1    3    3    0    0 -0.22961151321E+02  0.19476405926E+02 -0.21604272684E+02  0.37057920287E+02  0.00000000000E+00 0. -1.
</event>
<event>
 7    1  0.1789107E-013  0.7246157E+02  0.7816164E-02  0.1226708E+00
        -11   -1    0    0    0    0  0.00000000000E+00  0.00000000000E+00  0.45593999997E+02  0.45594000000E+02  0.51100000000E-03 0.  1.
         11   -1    0    0    0    0 -0.00000000000E+00 -0.00000000000E+00 -0.45593999997E+02  0.45594000000E+02  0.51100000000E-03 0. -1.
    9900012    2    1    2    0    0  0.14045577524E+02  0.95011612081E+01 -0.79453711466E+01  0.72461568547E+02  0.69999997724E+02 0.  0.
        -12    1    1    2    0    0 -0.14045577524E+02 -0.95011612081E+01  0.79453711466E+01  0.18726431453E+02  0.00000000000E+00 0.  1.
         11    1    3    3    0    0 -0.53521645998E+01 -0.82768684694E+00  0.74053248037E+01  0.91743973714E+01  0.51100000000E-03 0. -1.
        -11    1    3    3    0    0  0.28643139020E+01  0.32559275657E+02 -0.25972667857E+01  0.32788054539E+02  0.51100000000E-03 0.  1.
         12    1    3    3    0    0  0.16533428222E+02 -0.22230427602E+02 -0.12753429165E+02  0.30499116637E+02  0.00000000000E+00 0. -1.
</event>
<event>
 7    1  0.1789107E-013  0.7246158E+02  0.7816164E-02  0.1226708E+00
        -11   -1    0    0    0    0  0.00000000000E+00  0.00000000000E+00  0.45593999997E+02  0.45594000000E+02  0.51100000000E-03 0.  1.
         11   -1    0    0    0    0 -0.00000000000E+00 -0.00000000000E+00 -0.45593999997E+02  0.45594000000E+02  0.51100000000E-03 0. -1.
    9900012    2    1    2    0    0  0.11780526257E+02  0.11029044526E+02  0.95004351427E+01  0.72461577759E+02  0.70000009724E+02 0.  0.
        -12    1    1    2    0    0 -0.11780526257E+02 -0.11029044526E+02 -0.95004351427E+01  0.18726422241E+02  0.00000000000E+00 0.  1.
         11    1    3    3    0    0  0.17733205805E+02 -0.41954890041E+01  0.96589451227E+01  0.20624353014E+02  0.51100000000E-03 0. -1.
        -11    1    3    3    0    0  0.27773167553E+01 -0.14853044897E+02 -0.11005085255E+02  0.18693269720E+02  0.51100000000E-03 0.  1.
         12    1    3    3    0    0 -0.87299963028E+01  0.30077578428E+02  0.10846575275E+02  0.33143955025E+02  0.00000000000E+00 0. -1.
</event>
<event>
 7    1  0.1789107E-013  0.7246160E+02  0.7816164E-02  0.1226708E+00
        -11   -1    0    0    0    0  0.00000000000E+00  0.00000000000E+00  0.45593999997E+02  0.45594000000E+02  0.51100000000E-03 0.  1.
         11   -1    0    0    0    0 -0.00000000000E+00 -0.00000000000E+00 -0.45593999997E+02  0.45594000000E+02  0.51100000000E-03 0. -1.
    9900012    2    1    2    0    0  0.81660578351E+01 -0.34254091907E+01 -0.16500301602E+02  0.72461604681E+02  0.70000044795E+02 0.  0.
        -12    1    1    2    0    0 -0.81660578351E+01  0.34254091907E+01  0.16500301602E+02  0.18726395319E+02  0.00000000000E+00 0.  1.
         11    1    3    3    0    0  0.44202996488E+01 -0.10036792012E+02  0.12553070745E+02  0.16669008017E+02  0.51100000000E-03 0.  1.
        -11    1    3    3    0    0 -0.35231772774E+01  0.21373829221E+02  0.83019521103E+00  0.21678159009E+02  0.51100000000E-03 0. -1.
         12    1    3    3    0    0  0.72689354636E+01 -0.14762446400E+02 -0.29883567558E+02  0.34114437655E+02  0.00000000000E+00 0. -1.
</event>
<event>
 7    1  0.1789107E-013  0.7246156E+02  0.7816164E-02  0.1226708E+00
        -11   -1    0    0    0    0  0.00000000000E+00  0.00000000000E+00  0.45593999997E+02  0.45594000000E+02  0.51100000000E-03 0. -1.
         11   -1    0    0    0    0 -0.00000000000E+00 -0.00000000000E+00 -0.45593999997E+02  0.45594000000E+02  0.51100000000E-03 0.  1.
    9900012    2    1    2    0    0  0.17568308961E+02  0.24984086454E+01 -0.59826529162E+01  0.72461557160E+02  0.69999982890E+02 0.  0.
        -12    1    1    2    0    0 -0.17568308961E+02 -0.24984086454E+01  0.59826529162E+01  0.18726442840E+02  0.00000000000E+00 0.  1.
         11    1    3    3    0    0  0.14705041855E+01  0.50975710249E+01 -0.11995685831E+01  0.54393545536E+01  0.51100000000E-03 0. -1.
        -11    1    3    3    0    0 -0.61376534066E+01  0.11307491263E+02 -0.28748055347E+02  0.31495727242E+02  0.51100000000E-03 0.  1.
         12    1    3    3    0    0  0.22235458182E+02 -0.13906653642E+02  0.23964971014E+02  0.35526475364E+02  0.00000000000E+00 0. -1.
</event>
<event>
 7    1  0.1789107E-013  0.7246169E+02  0.7816164E-02  0.1226708E+00
        -11   -1    0    0    0    0  0.00000000000E+00  0.00000000000E+00  0.45593999997E+02  0.45594000000E+02  0.51100000000E-03 0. -1.
         11   -1    0    0    0    0 -0.00000000000E+00 -0.00000000000E+00 -0.45593999997E+02  0.45594000000E+02  0.51100000000E-03 0.  1.
    9900012    2    1    2    0    0  0.16068914091E+02 -0.70976671824E+01  0.64875154946E+01  0.72461688650E+02  0.70000154180E+02 0.  0.
        -12    1    1    2    0    0 -0.16068914091E+02  0.70976671824E+01 -0.64875154946E+01  0.18726311350E+02  0.00000000000E+00 0.  1.
         11    1    3    3    0    0  0.10738190476E+02 -0.21115247490E+02 -0.49785974477E+01  0.24206380235E+02  0.51100000000E-03 0. -1.
        -11    1    3    3    0    0 -0.10488846902E+02  0.52715364488E+01 -0.13206419779E+02  0.17669593360E+02  0.51100000000E-03 0.  1.
         12    1    3    3    0    0  0.15819570517E+02  0.87460438592E+01  0.24672532722E+02  0.30585715055E+02  0.00000000000E+00 0. -1.
</event>
<event>
 7    1  0.1789107E-013  0.7246156E+02  0.7816164E-02  0.1226708E+00
        -11   -1    0    0    0    0  0.00000000000E+00  0.00000000000E+00  0.45593999997E+02  0.45594000000E+02  0.51100000000E-03 0.  1.
         11   -1    0    0    0    0 -0.00000000000E+00 -0.00000000000E+00 -0.45593999997E+02  0.45594000000E+02  0.51100000000E-03 0. -1.
    9900012    2    1    2    0    0  0.13504390982E+02  0.95347108186E+01  0.87977425938E+01  0.72461559843E+02  0.69999986385E+02 0.  0.
        -12    1    1    2    0    0 -0.13504390982E+02 -0.95347108186E+01 -0.87977425938E+01  0.18726440157E+02  0.00000000000E+00 0.  1.
         11    1    3    3    0    0  0.80469603002E+01  0.21695342693E+02 -0.13337074996E+02  0.26708033143E+02  0.51100000000E-03 0. -1.
        -11    1    3    3    0    0 -0.46873529207E+01  0.12082718874E+02  0.31621064725E+01  0.13340250762E+02  0.51100000000E-03 0.  1.
         12    1    3    3    0    0  0.10144783603E+02 -0.24243350749E+02  0.18972711117E+02  0.32413275938E+02  0.00000000000E+00 0. -1.
</event>
<event>
 7    1  0.1789107E-013  0.7246161E+02  0.7816164E-02  0.1226708E+00
        -11   -1    0    0    0    0  0.00000000000E+00  0.00000000000E+00  0.45593999997E+02  0.45594000000E+02  0.51100000000E-03 0. -1.
         11   -1    0    0    0    0 -0.00000000000E+00 -0.00000000000E+00 -0.45593999997E+02  0.45594000000E+02  0.51100000000E-03 0.  1.
    9900012    2    1    2    0    0 -0.12232827546E+02  0.15213424777E+00 -0.14177890498E+02  0.72461607032E+02  0.70000047858E+02 0.  0.
        -12    1    1    2    0    0  0.12232827546E+02 -0.15213424777E+00  0.14177890498E+02  0.18726392968E+02  0.00000000000E+00 0.  1.
         11    1    3    3    0    0 -0.54507087230E+01 -0.23038698692E+02  0.43505012591E+01  0.24071118056E+02  0.51100000000E-03 0. -1.
        -11    1    3    3    0    0 -0.14253240481E+02  0.81420098361E+01  0.69871712825E+01  0.17840060291E+02  0.51100000000E-03 0.  1.
        -12    1    3    3    0    0  0.74711216583E+01  0.15048823104E+02 -0.25515563040E+02  0.30550428686E+02  0.00000000000E+00 0.  1.
</event>
<event>
 7    1  0.1789107E-013  0.7246161E+02  0.7816164E-02  0.1226708E+00
        -11   -1    0    0    0    0  0.00000000000E+00  0.00000000000E+00  0.45593999997E+02  0.45594000000E+02  0.51100000000E-03 0.  1.
         11   -1    0    0    0    0 -0.00000000000E+00 -0.00000000000E+00 -0.45593999997E+02  0.45594000000E+02  0.51100000000E-03 0. -1.
    9900012    2    1    2    0    0 -0.17820048654E+02 -0.57044025671E+01 -0.76387433938E+00  0.72461605615E+02  0.70000046011E+02 0.  0.
        -12    1    1    2    0    0  0.17820048654E+02  0.57044025671E+01  0.76387433938E+00  0.18726394385E+02  0.00000000000E+00 0.  1.
         11    1    3    3    0    0 -0.24366004023E+02 -0.32181413367E+02  0.11913202558E+02  0.42086457606E+02  0.51100000000E-03 0. -1.
        -11    1    3    3    0    0  0.13418001382E+01  0.74624259924E+01 -0.15538141167E+01  0.77396749204E+01  0.51100000000E-03 0.  1.
        -12    1    3    3    0    0  0.52041552313E+01  0.19014584807E+02 -0.11123262781E+02  0.22635473089E+02  0.00000000000E+00 0.  1.
</event>
<event>
 7    1  0.1789107E-013  0.7246152E+02  0.7816164E-02  0.1226708E+00
        -11   -1    0    0    0    0  0.00000000000E+00  0.00000000000E+00  0.45593999997E+02  0.45594000000E+02  0.51100000000E-03 0.  1.
         11   -1    0    0    0    0 -0.00000000000E+00 -0.00000000000E+00 -0.45593999997E+02  0.45594000000E+02  0.51100000000E-03 0. -1.
    9900012    2    1    2    0    0  0.38164988217E+01 -0.11066593342E+02 -0.14616634854E+02  0.72461516990E+02  0.69999930562E+02 0.  0.
        -12    1    1    2    0    0 -0.38164988217E+01  0.11066593342E+02  0.14616634854E+02  0.18726483010E+02  0.00000000000E+00 0.  1.
         11    1    3    3    0    0 -0.96295267472E+01  0.88354379013E+01  0.66552903690E+00  0.13085705080E+02  0.51100000000E-03 0.  1.
        -11    1    3    3    0    0  0.20798613546E+02  0.12297499757E+02 -0.41109269298E+01  0.24509397099E+02  0.51100000000E-03 0. -1.
         12    1    3    3    0    0 -0.73525879767E+01 -0.32199530999E+02 -0.11171236961E+02  0.34866414811E+02  0.00000000000E+00 0. -1.
</event>
<event>
 7    1  0.1789107E-013  0.7246159E+02  0.7816164E-02  0.1226708E+00
        -11   -1    0    0    0    0  0.00000000000E+00  0.00000000000E+00  0.45593999997E+02  0.45594000000E+02  0.51100000000E-03 0. -1.
         11   -1    0    0    0    0 -0.00000000000E+00 -0.00000000000E+00 -0.45593999997E+02  0.45594000000E+02  0.51100000000E-03 0.  1.
    9900012    2    1    2    0    0  0.93179646113E+01  0.51194813310E+01  0.15415736165E+02  0.72461588836E+02  0.70000024154E+02 0.  0.
        -12    1    1    2    0    0 -0.93179646113E+01 -0.51194813310E+01 -0.15415736165E+02  0.18726411164E+02  0.00000000000E+00 0.  1.
         11    1    3    3    0    0 -0.65600499373E+01 -0.37119728449E+01 -0.11204202447E+01  0.76202584842E+01  0.51100000000E-03 0. -1.
        -11    1    3    3    0    0  0.32503172056E+02 -0.60605250476E+01  0.24491478925E+02  0.41146308434E+02  0.51100000000E-03 0.  1.
         12    1    3    3    0    0 -0.16625157508E+02  0.14891979224E+02 -0.79553225155E+01  0.23695021918E+02  0.00000000000E+00 0. -1.
</event>
<event>
 7    1  0.1789107E-013  0.7246163E+02  0.7816164E-02  0.1226708E+00
        -11   -1    0    0    0    0  0.00000000000E+00  0.00000000000E+00  0.45593999997E+02  0.45594000000E+02  0.51100000000E-03 0.  1.
         11   -1    0    0    0    0 -0.00000000000E+00 -0.00000000000E+00 -0.45593999997E+02  0.45594000000E+02  0.51100000000E-03 0. -1.
    9900012    2    1    2    0    0  0.92913045520E+01  0.61118963125E+01 -0.15066299627E+02  0.72461628188E+02  0.70000075417E+02 0.  0.
        -12    1    1    2    0    0 -0.92913045520E+01 -0.61118963125E+01  0.15066299627E+02  0.18726371812E+02  0.00000000000E+00 0.  1.
         11    1    3    3    0    0 -0.71380159815E+01 -0.53647805728E+01 -0.18020105510E+02  0.20111100060E+02  0.51100000000E-03 0. -1.
        -11    1    3    3    0    0 -0.44163778504E+00 -0.16922235402E+02 -0.62745389295E+01  0.18053446595E+02  0.51100000000E-03 0.  1.
        -12    1    3    3    0    0  0.16870958319E+02  0.28398912287E+02  0.92283448129E+01  0.34297081533E+02  0.00000000000E+00 0.  1.
</event>
<event>
 7    1  0.1789107E-013  0.7246163E+02  0.7816164E-02  0.1226708E+00
        -11   -1    0    0    0    0  0.00000000000E+00  0.00000000000E+00  0.45593999997E+02  0.45594000000E+02  0.51100000000E-03 0.  1.
         11   -1    0    0    0    0 -0.00000000000E+00 -0.00000000000E+00 -0.45593999997E+02  0.45594000000E+02  0.51100000000E-03 0. -1.
    9900012    2    1    2    0    0  0.20838842785E+01 -0.18209448954E+02  0.38406181626E+01  0.72461629483E+02  0.70000077104E+02 0.  0.
        -12    1    1    2    0    0 -0.20838842785E+01  0.18209448954E+02 -0.38406181626E+01  0.18726370517E+02  0.00000000000E+00 0.  1.
         11    1    3    3    0    0 -0.10969136063E+01  0.14433909834E+02  0.42303803336E+00  0.14481710327E+02  0.51100000000E-03 0. -1.
        -11    1    3    3    0    0  0.13515056249E+02  0.73694015369E+01 -0.42036310207E+01  0.15957297341E+02  0.51100000000E-03 0.  1.
         12    1    3    3    0    0 -0.10334258364E+02 -0.40012760325E+02  0.76212111500E+01  0.42022621814E+02  0.00000000000E+00 0. -1.
</event>
<event>
 7    1  0.1789107E-013  0.7246154E+02  0.7816164E-02  0.1226708E+00
        -11   -1    0    0    0    0  0.00000000000E+00  0.00000000000E+00  0.45593999997E+02  0.45594000000E+02  0.51100000000E-03 0.  1.
         11   -1    0    0    0    0 -0.00000000000E+00 -0.00000000000E+00 -0.45593999997E+02  0.45594000000E+02  0.51100000000E-03 0. -1.
    9900012    2    1    2    0    0 -0.30064658949E+01  0.14736490008E+02 -0.11156936745E+02  0.72461542447E+02  0.69999963724E+02 0.  0.
        -12    1    1    2    0    0  0.30064658949E+01 -0.14736490008E+02  0.11156936745E+02  0.18726457553E+02  0.00000000000E+00 0.  1.
         11    1    3    3    0    0 -0.24759662729E+01 -0.33425724933E+01  0.18525041661E+01  0.45535669320E+01  0.51100000000E-03 0. -1.
        -11    1    3    3    0    0 -0.10041048211E+02 -0.22265194893E+02  0.13069099104E+00  0.24424959226E+02  0.51100000000E-03 0.  1.
         12    1    3    3    0    0  0.95105485887E+01  0.40344257395E+02 -0.13140131902E+02  0.43483016289E+02  0.00000000000E+00 0. -1.
</event>
<event>
 7    1  0.1789107E-013  0.7246155E+02  0.7816164E-02  0.1226708E+00
        -11   -1    0    0    0    0  0.00000000000E+00  0.00000000000E+00  0.45593999997E+02  0.45594000000E+02  0.51100000000E-03 0. -1.
         11   -1    0    0    0    0 -0.00000000000E+00 -0.00000000000E+00 -0.45593999997E+02  0.45594000000E+02  0.51100000000E-03 0.  1.
    9900012    2    1    2    0    0 -0.17872552520E+02  0.42448898947E+01  0.36376648081E+01  0.72461552685E+02  0.69999977060E+02 0.  0.
        -12    1    1    2    0    0  0.17872552520E+02 -0.42448898947E+01 -0.36376648081E+01  0.18726447315E+02  0.00000000000E+00 0.  1.
         11    1    3    3    0    0  0.61685539098E+01 -0.92113887242E+01  0.75259133035E+01  0.13399257848E+02  0.51100000000E-03 0. -1.
        -11    1    3    3    0    0  0.30228733695E+00 -0.17153641147E+02 -0.94055409756E+01  0.19565351607E+02  0.51100000000E-03 0.  1.
         12    1    3    3    0    0 -0.24343393767E+02  0.30609919766E+02  0.55172924803E+01  0.39496943229E+02  0.00000000000E+00 0. -1.
</event>
<event>
 7    1  0.1789107E-013  0.7246183E+02  0.7816164E-02  0.1226707E+00
        -11   -1    0    0    0    0  0.00000000000E+00  0.00000000000E+00  0.45593999997E+02  0.45594000000E+02  0.51100000000E-03 0. -1.
         11   -1    0    0    0    0 -0.00000000000E+00 -0.00000000000E+00 -0.45593999997E+02  0.45594000000E+02  0.51100000000E-03 0.  1.
    9900012    2    1    2    0    0 -0.88805941022E+01  0.69737384585E+01  0.14938925238E+02  0.72461829357E+02  0.70000337476E+02 0.  0.
        -12    1    1    2    0    0  0.88805941022E+01 -0.69737384585E+01 -0.14938925238E+02  0.18726170643E+02  0.00000000000E+00 0.  1.
         11    1    3    3    0    0  0.29899385643E+01  0.12840607229E+02  0.24502174123E+02  0.27824044703E+02  0.51100000000E-03 0. -1.
        -11    1    3    3    0    0 -0.55373654086E+01 -0.10654761856E+02  0.14773979979E+02  0.19038299571E+02  0.51100000000E-03 0.  1.
         12    1    3    3    0    0 -0.63331672580E+01  0.47878930852E+01 -0.24337228864E+02  0.25599485083E+02  0.00000000000E+00 0. -1.
</event>
<event>
 7    1  0.1789107E-013  0.7246156E+02  0.7816164E-02  0.1226708E+00
        -11   -1    0    0    0    0  0.00000000000E+00  0.00000000000E+00  0.45593999997E+02  0.45594000000E+02  0.51100000000E-03 0.  1.
         11   -1    0    0    0    0 -0.00000000000E+00 -0.00000000000E+00 -0.45593999997E+02  0.45594000000E+02  0.51100000000E-03 0. -1.
    9900012    2    1    2    0    0  0.11026970998E+02 -0.11570975017E+02 -0.97569414596E+01  0.72461562568E+02  0.69999989935E+02 0.  0.
        -12    1    1    2    0    0 -0.11026970998E+02  0.11570975017E+02  0.97569414596E+01  0.18726437432E+02  0.00000000000E+00 0.  1.
         11    1    3    3    0    0  0.19528623529E+02  0.13286407229E+02 -0.24647903531E+01  0.23748072464E+02  0.51100000000E-03 0. -1.
        -11    1    3    3    0    0  0.40854322591E+01  0.92476241238E+01  0.36503805616E+01  0.10748701651E+02  0.51100000000E-03 0.  1.
        -12    1    3    3    0    0 -0.12587084790E+02 -0.34105006370E+02 -0.10942531668E+02  0.37964788453E+02  0.00000000000E+00 0.  1.
</event>
<event>
 7    1  0.1789107E-013  0.7246155E+02  0.7816164E-02  0.1226708E+00
        -11   -1    0    0    0    0  0.00000000000E+00  0.00000000000E+00  0.45593999997E+02  0.45594000000E+02  0.51100000000E-03 0. -1.
         11   -1    0    0    0    0 -0.00000000000E+00 -0.00000000000E+00 -0.45593999997E+02  0.45594000000E+02  0.51100000000E-03 0.  1.
    9900012    2    1    2    0    0  0.49319502223E+01  0.38023384579E+01  0.17660636973E+02  0.72461547879E+02  0.69999970800E+02 0.  0.
        -12    1    1    2    0    0 -0.49319502223E+01 -0.38023384579E+01 -0.17660636973E+02  0.18726452121E+02  0.00000000000E+00 0.  1.
         11    1    3    3    0    0  0.59483919444E+01  0.75576864072E+00  0.17507800548E+02  0.18506151228E+02  0.51100000000E-03 0. -1.
        -11    1    3    3    0    0  0.20957485694E+02 -0.74845104936E+01  0.13643275849E+02  0.26103123953E+02  0.51100000000E-03 0.  1.
        -12    1    3    3    0    0 -0.21973927416E+02  0.10531080311E+02 -0.13490439424E+02  0.27852272698E+02  0.00000000000E+00 0.  1.
</event>
<event>
 7    1  0.1789107E-013  0.7246171E+02  0.7816164E-02  0.1226708E+00
        -11   -1    0    0    0    0  0.00000000000E+00  0.00000000000E+00  0.45593999997E+02  0.45594000000E+02  0.51100000000E-03 0.  1.
         11   -1    0    0    0    0 -0.00000000000E+00 -0.00000000000E+00 -0.45593999997E+02  0.45594000000E+02  0.51100000000E-03 0. -1.
    9900012    2    1    2    0    0 -0.53698370037E+01 -0.10857526174E+02 -0.14281212315E+02  0.72461707007E+02  0.70000178093E+02 0.  0.
        -12    1    1    2    0    0  0.53698370037E+01  0.10857526174E+02  0.14281212315E+02  0.18726292993E+02  0.00000000000E+00 0.  1.
         11    1    3    3    0    0 -0.39756446524E+01  0.15628105440E+02 -0.32009457645E+02  0.35841997838E+02  0.51100000000E-03 0. -1.
        -11    1    3    3    0    0  0.67419444279E+01 -0.42027098963E+01  0.69847399534E+01  0.10578429828E+02  0.51100000000E-03 0.  1.
        -12    1    3    3    0    0 -0.81361367791E+01 -0.22282921718E+02  0.10743505376E+02  0.26041279341E+02  0.00000000000E+00 0.  1.
</event>
<event>
 7    1  0.1789107E-013  0.7246156E+02  0.7816164E-02  0.1226708E+00
        -11   -1    0    0    0    0  0.00000000000E+00  0.00000000000E+00  0.45593999997E+02  0.45594000000E+02  0.51100000000E-03 0.  1.
         11   -1    0    0    0    0 -0.00000000000E+00 -0.00000000000E+00 -0.45593999997E+02  0.45594000000E+02  0.51100000000E-03 0. -1.
    9900012    2    1    2    0    0  0.11354466142E+02 -0.78393164040E+01 -0.12660996933E+02  0.72461558096E+02  0.69999984109E+02 0.  0.
        -12    1    1    2    0    0 -0.11354466142E+02  0.78393164040E+01  0.12660996933E+02  0.18726441904E+02  0.00000000000E+00 0.  1.
         11    1    3    3    0    0 -0.86452389997E+01 -0.65721492796E+01 -0.28537892399E+02  0.30534318502E+02  0.51100000000E-03 0. -1.
        -11    1    3    3    0    0 -0.38386196015E+00 -0.13653591589E+02  0.11102733837E+02  0.17602233159E+02  0.51100000000E-03 0.  1.
        -12    1    3    3    0    0  0.20383567102E+02  0.12386424464E+02  0.47741616294E+01  0.24325006435E+02  0.00000000000E+00 0.  1.
</event>
<event>
 7    1  0.1789107E-013  0.7246162E+02  0.7816164E-02  0.1226708E+00
        -11   -1    0    0    0    0  0.00000000000E+00  0.00000000000E+00  0.45593999997E+02  0.45594000000E+02  0.51100000000E-03 0.  1.
         11   -1    0    0    0    0 -0.00000000000E+00 -0.00000000000E+00 -0.45593999997E+02  0.45594000000E+02  0.51100000000E-03 0. -1.
    9900012    2    1    2    0    0 -0.44474695650E+01  0.59654598504E+01 -0.17184606824E+02  0.72461617315E+02  0.70000061254E+02 0.  0.
        -12    1    1    2    0    0  0.44474695650E+01 -0.59654598504E+01  0.17184606824E+02  0.18726382685E+02  0.00000000000E+00 0.  1.
         11    1    3    3    0    0 -0.17907337016E+01 -0.63581863396E+01 -0.59197879718E+01  0.88700141269E+01  0.51100000000E-03 0. -1.
        -11    1    3    3    0    0  0.20306874000E+02  0.96419271731E+01  0.16187018462E+02  0.27701181531E+02  0.51100000000E-03 0.  1.
         12    1    3    3    0    0 -0.22963609863E+02  0.26817190169E+01 -0.27451837314E+02  0.35890421658E+02  0.00000000000E+00 0. -1.
</event>
<event>
 7    1  0.1789107E-013  0.7246163E+02  0.7816164E-02  0.1226708E+00
        -11   -1    0    0    0    0  0.00000000000E+00  0.00000000000E+00  0.45593999997E+02  0.45594000000E+02  0.51100000000E-03 0.  1.
         11   -1    0    0    0    0 -0.00000000000E+00 -0.00000000000E+00 -0.45593999997E+02  0.45594000000E+02  0.51100000000E-03 0. -1.
    9900012    2    1    2    0    0 -0.18688212995E+02 -0.24143480798E+00 -0.11702093286E+01  0.72461628606E+02  0.70000075962E+02 0.  0.
        -12    1    1    2    0    0  0.18688212995E+02  0.24143480798E+00  0.11702093286E+01  0.18726371394E+02  0.00000000000E+00 0.  1.
         11    1    3    3    0    0 -0.99132046775E+01 -0.21975943696E+02  0.22552929053E+02  0.33012851095E+02  0.51100000000E-03 0. -1.
        -11    1    3    3    0    0  0.51419577137E+01 -0.57144900485E+00 -0.30746434127E+01  0.60182817706E+01  0.51100000000E-03 0.  1.
        -12    1    3    3    0    0 -0.13916966031E+02  0.22305957892E+02 -0.20648494969E+02  0.33430495741E+02  0.00000000000E+00 0.  1.
</event>
<event>
 7    1  0.1789107E-013  0.7246147E+02  0.7816164E-02  0.1226708E+00
        -11   -1    0    0    0    0  0.00000000000E+00  0.00000000000E+00  0.45593999997E+02  0.45594000000E+02  0.51100000000E-03 0. -1.
         11   -1    0    0    0    0 -0.00000000000E+00 -0.00000000000E+00 -0.45593999997E+02  0.45594000000E+02  0.51100000000E-03 0.  1.
    9900012    2    1    2    0    0  0.15931537663E+02 -0.54454890871E+01  0.81985067226E+01  0.72461474530E+02  0.69999875249E+02 0.  0.
        -12    1    1    2    0    0 -0.15931537663E+02  0.54454890871E+01 -0.81985067226E+01  0.18726525470E+02  0.00000000000E+00 0.  1.
         11    1    3    3    0    0  0.77901072069E+01 -0.13994905219E+02 -0.23864288196E+01  0.16193769949E+02  0.51100000000E-03 0. -1.
        -11    1    3    3    0    0  0.48213409259E+01 -0.28256455026E+01 -0.21421347513E+02  0.22138286527E+02  0.51100000000E-03 0.  1.
         12    1    3    3    0    0  0.33200895300E+01  0.11375061635E+02  0.32006283055E+02  0.34129418054E+02  0.00000000000E+00 0. -1.
</event>
<event>
 7    1  0.1916431E-013  0.7246155E+02  0.7816164E-02  0.1226708E+00
        -11   -1    0    0    0    0  0.00000000000E+00  0.00000000000E+00  0.45593999997E+02  0.45594000000E+02  0.51100000000E-03 0.  1.
         11   -1    0    0    0    0 -0.00000000000E+00 -0.00000000000E+00 -0.45593999997E+02  0.45594000000E+02  0.51100000000E-03 0. -1.
    9900012    2    1    2    0    0 -0.16000789317E+02  0.81021730515E+01 -0.53860559475E+01  0.72461546369E+02  0.69999968833E+02 0.  0.
        -12    1    1    2    0    0  0.16000789317E+02 -0.81021730515E+01  0.53860559475E+01  0.18726453631E+02  0.00000000000E+00 0.  1.
         11    1    3    3    0    0 -0.24324244854E+01  0.11565979828E+02 -0.24839220583E+02  0.27507734506E+02  0.51100000000E-03 0. -1.
        -11    1    3    3    0    0 -0.14891301255E+02  0.98113528625E+01 -0.37181152983E+01  0.18216417861E+02  0.51100000000E-03 0.  1.
        -12    1    3    3    0    0  0.13229364236E+01 -0.13275159639E+02  0.23171279933E+02  0.26737394001E+02  0.00000000000E+00 0.  1.
</event>
<event>
 7    1  0.1789107E-013  0.7246152E+02  0.7816164E-02  0.1226708E+00
        -11   -1    0    0    0    0  0.00000000000E+00  0.00000000000E+00  0.45593999997E+02  0.45594000000E+02  0.51100000000E-03 0. -1.
         11   -1    0    0    0    0 -0.00000000000E+00 -0.00000000000E+00 -0.45593999997E+02  0.45594000000E+02  0.51100000000E-03 0.  1.
    9900012    2    1    2    0    0  0.11661687426E+02 -0.57418536840E+01  0.13480259377E+02  0.72461515273E+02  0.69999928325E+02 0.  0.
        -12    1    1    2    0    0 -0.11661687426E+02  0.57418536840E+01 -0.13480259377E+02  0.18726484727E+02  0.00000000000E+00 0.  1.
         11    1    3    3    0    0  0.18415331432E+02 -0.12087546570E+02  0.27651536190E+02  0.35353085690E+02  0.51100000000E-03 0. -1.
        -11    1    3    3    0    0  0.39514055336E+01  0.33063737533E+01  0.95810446294E+01  0.10878516881E+02  0.51100000000E-03 0.  1.
        -12    1    3    3    0    0 -0.10705049540E+02  0.30393191328E+01 -0.23752321443E+02  0.26229912702E+02  0.00000000000E+00 0.  1.
</event>
<event>
 7    1  0.1789107E-013  0.7246155E+02  0.7816164E-02  0.1226708E+00
        -11   -1    0    0    0    0  0.00000000000E+00  0.00000000000E+00  0.45593999997E+02  0.45594000000E+02  0.51100000000E-03 0.  1.
         11   -1    0    0    0    0 -0.00000000000E+00 -0.00000000000E+00 -0.45593999997E+02  0.45594000000E+02  0.51100000000E-03 0. -1.
    9900012    2    1    2    0    0 -0.91100879973E+00 -0.10774744431E+02 -0.15289041279E+02  0.72461552450E+02  0.69999976755E+02 0.  0.
        -12    1    1    2    0    0  0.91100879973E+00  0.10774744431E+02  0.15289041279E+02  0.18726447550E+02  0.00000000000E+00 0.  1.
         11    1    3    3    0    0 -0.18530350476E+02 -0.50280135903E+01 -0.16680198193E+02  0.25433910856E+02  0.51100000000E-03 0.  1.
        -11    1    3    3    0    0 -0.91775636121E+01 -0.15254136963E+02 -0.35915860902E+01  0.18160833110E+02  0.51100000000E-03 0. -1.
        -12    1    3    3    0    0  0.26796905289E+02  0.95074061223E+01  0.49827430037E+01  0.28866808484E+02  0.00000000000E+00 0.  1.
</event>
<event>
 7    1  0.1789107E-013  0.7246162E+02  0.7816164E-02  0.1226708E+00
        -11   -1    0    0    0    0  0.00000000000E+00  0.00000000000E+00  0.45593999997E+02  0.45594000000E+02  0.51100000000E-03 0.  1.
         11   -1    0    0    0    0 -0.00000000000E+00 -0.00000000000E+00 -0.45593999997E+02  0.45594000000E+02  0.51100000000E-03 0. -1.
    9900012    2    1    2    0    0  0.64192719561E+01 -0.86187476248E+01 -0.15335822813E+02  0.72461619559E+02  0.70000064176E+02 0.  0.
        -12    1    1    2    0    0 -0.64192719561E+01  0.86187476248E+01  0.15335822813E+02  0.18726380441E+02  0.00000000000E+00 0.  1.
         11    1    3    3    0    0 -0.43257811077E+01  0.89950669485E+01  0.40240715904E+00  0.99892714140E+01  0.51100000000E-03 0. -1.
        -11    1    3    3    0    0 -0.18691231573E+02 -0.12727296589E+02  0.83688437864E+01  0.24111900853E+02  0.51100000000E-03 0.  1.
         12    1    3    3    0    0  0.29436284637E+02 -0.48865179843E+01 -0.24107073759E+02  0.38360447292E+02  0.00000000000E+00 0. -1.
</event>
<event>
 7    1  0.1789107E-013  0.7246158E+02  0.7816164E-02  0.1226708E+00
        -11   -1    0    0    0    0  0.00000000000E+00  0.00000000000E+00  0.45593999997E+02  0.45594000000E+02  0.51100000000E-03 0.  1.
         11   -1    0    0    0    0 -0.00000000000E+00 -0.00000000000E+00 -0.45593999997E+02  0.45594000000E+02  0.51100000000E-03 0. -1.
    9900012    2    1    2    0    0  0.11232378603E+02  0.10425006306E+02  0.10762515914E+02  0.72461579243E+02  0.70000011657E+02 0.  0.
        -12    1    1    2    0    0 -0.11232378603E+02 -0.10425006306E+02 -0.10762515914E+02  0.18726420757E+02  0.00000000000E+00 0.  1.
         11    1    3    3    0    0  0.26461584062E+02  0.35353195790E+01 -0.69352473755E+01  0.27582812982E+02  0.51100000000E-03 0. -1.
        -11    1    3    3    0    0  0.41488642412E+01 -0.79222163165E+01  0.18421456735E+02  0.20477418157E+02  0.51100000000E-03 0.  1.
         12    1    3    3    0    0 -0.19378069700E+02  0.14811903043E+02 -0.72369344541E+00  0.24401348104E+02  0.00000000000E+00 0. -1.
</event>
<event>
 7    1  0.1789107E-013  0.7246157E+02  0.7816164E-02  0.1226708E+00
        -11   -1    0    0    0    0  0.00000000000E+00  0.00000000000E+00  0.45593999997E+02  0.45594000000E+02  0.51100000000E-03 0. -1.
         11   -1    0    0    0    0 -0.00000000000E+00 -0.00000000000E+00 -0.45593999997E+02  0.45594000000E+02  0.51100000000E-03 0.  1.
    9900012    2    1    2    0    0 -0.16199990584E+02 -0.84328434192E+01  0.41384299392E+01  0.72461570938E+02  0.70000000838E+02 0.  0.
        -12    1    1    2    0    0  0.16199990584E+02  0.84328434192E+01 -0.41384299392E+01  0.18726429062E+02  0.00000000000E+00 0.  1.
         11    1    3    3    0    0  0.18119498262E+02 -0.54694691262E+01 -0.40231591462E+01  0.19349860970E+02  0.51100000000E-03 0. -1.
        -11    1    3    3    0    0 -0.12832927511E+02 -0.20704763500E+02  0.11896269436E+01  0.24388244558E+02  0.51100000000E-03 0.  1.
        -12    1    3    3    0    0 -0.21486561335E+02  0.17741389207E+02  0.69719621418E+01  0.28723465409E+02  0.00000000000E+00 0.  1.
</event>
<event>
 7    1  0.1789107E-013  0.7246154E+02  0.7816164E-02  0.1226708E+00
        -11   -1    0    0    0    0  0.00000000000E+00  0.00000000000E+00  0.45593999997E+02  0.45594000000E+02  0.51100000000E-03 0. -1.
         11   -1    0    0    0    0 -0.00000000000E+00 -0.00000000000E+00 -0.45593999997E+02  0.45594000000E+02  0.51100000000E-03 0.  1.
    9900012    2    1    2    0    0  0.11324361264E+02  0.12384663161E+02  0.83101990251E+01  0.72461536172E+02  0.69999955550E+02 0.  0.
        -12    1    1    2    0    0 -0.11324361264E+02 -0.12384663161E+02 -0.83101990251E+01  0.18726463828E+02  0.00000000000E+00 0.  1.
         11    1    3    3    0    0  0.83200643945E+01  0.14643900468E+02  0.36140916373E+02  0.39872711583E+02  0.51100000000E-03 0. -1.
        -11    1    3    3    0    0 -0.23669003372E+01  0.63479968286E+01 -0.10132580828E+02  0.12188866865E+02  0.51100000000E-03 0.  1.
        -12    1    3    3    0    0  0.53711972068E+01 -0.86072341359E+01 -0.17698136520E+02  0.20399957725E+02  0.00000000000E+00 0.  1.
</event>
<event>
 7    1  0.1789107E-013  0.7246159E+02  0.7816164E-02  0.1226708E+00
        -11   -1    0    0    0    0  0.00000000000E+00  0.00000000000E+00  0.45593999997E+02  0.45594000000E+02  0.51100000000E-03 0.  1.
         11   -1    0    0    0    0 -0.00000000000E+00 -0.00000000000E+00 -0.45593999997E+02  0.45594000000E+02  0.51100000000E-03 0. -1.
    9900012    2    1    2    0    0 -0.60098261973E+01 -0.99145427719E+01 -0.14705853687E+02  0.72461593458E+02  0.70000030175E+02 0.  0.
        -12    1    1    2    0    0  0.60098261973E+01  0.99145427719E+01  0.14705853687E+02  0.18726406542E+02  0.00000000000E+00 0.  1.
         11    1    3    3    0    0  0.16343968735E+02 -0.69679142507E+01  0.96360366101E+01  0.20212133604E+02  0.51100000000E-03 0. -1.
        -11    1    3    3    0    0  0.35702100469E+01  0.67514012246E+01  0.70528663026E+01  0.10395707846E+02  0.51100000000E-03 0.  1.
         12    1    3    3    0    0 -0.25924004980E+02 -0.96980297458E+01 -0.31394756600E+02  0.41853752008E+02  0.00000000000E+00 0. -1.
</event>
<event>
 7    1  0.1789107E-013  0.7246160E+02  0.7816164E-02  0.1226708E+00
        -11   -1    0    0    0    0  0.00000000000E+00  0.00000000000E+00  0.45593999997E+02  0.45594000000E+02  0.51100000000E-03 0. -1.
         11   -1    0    0    0    0 -0.00000000000E+00 -0.00000000000E+00 -0.45593999997E+02  0.45594000000E+02  0.51100000000E-03 0.  1.
    9900012    2    1    2    0    0  0.18289599724E+01 -0.17933982359E+02  0.50700228217E+01  0.72461602876E+02  0.70000042444E+02 0.  0.
        -12    1    1    2    0    0 -0.18289599724E+01  0.17933982359E+02 -0.50700228217E+01  0.18726397124E+02  0.00000000000E+00 0.  1.
         11    1    3    3    0    0 -0.89751793298E+01 -0.17831413828E+02 -0.42419700487E+01  0.20408514724E+02  0.51100000000E-03 0. -1.
        -11    1    3    3    0    0  0.23054130870E+02 -0.18041431234E+02  0.77046977470E+01  0.30271249706E+02  0.51100000000E-03 0.  1.
         12    1    3    3    0    0 -0.12249991568E+02  0.17938862703E+02  0.16072951234E+01  0.21781838446E+02  0.00000000000E+00 0. -1.
</event>
<event>
 7    1  0.1789107E-013  0.7246157E+02  0.7816164E-02  0.1226708E+00
        -11   -1    0    0    0    0  0.00000000000E+00  0.00000000000E+00  0.45593999997E+02  0.45594000000E+02  0.51100000000E-03 0.  1.
         11   -1    0    0    0    0 -0.00000000000E+00 -0.00000000000E+00 -0.45593999997E+02  0.45594000000E+02  0.51100000000E-03 0. -1.
    9900012    2    1    2    0    0  0.13771989837E+01  0.82185579448E+01 -0.16770142179E+02  0.72461573741E+02  0.70000004490E+02 0.  0.
        -12    1    1    2    0    0 -0.13771989837E+01 -0.82185579448E+01  0.16770142179E+02  0.18726426259E+02  0.00000000000E+00 0.  1.
         11    1    3    3    0    0 -0.41452452652E+01 -0.65613472877E+01 -0.10686388873E+02  0.13207317818E+02  0.51100000000E-03 0. -1.
        -11    1    3    3    0    0  0.10330176905E+02 -0.20697126928E+02 -0.28625537662E+01  0.23308321095E+02  0.51100000000E-03 0.  1.
        -12    1    3    3    0    0 -0.48077326559E+01  0.35477032160E+02 -0.32211995403E+01  0.35945934828E+02  0.00000000000E+00 0.  1.
</event>
<event>
 7    1  0.1789107E-013  0.7246153E+02  0.7816164E-02  0.1226708E+00
        -11   -1    0    0    0    0  0.00000000000E+00  0.00000000000E+00  0.45593999997E+02  0.45594000000E+02  0.51100000000E-03 0. -1.
         11   -1    0    0    0    0 -0.00000000000E+00 -0.00000000000E+00 -0.45593999997E+02  0.45594000000E+02  0.51100000000E-03 0.  1.
    9900012    2    1    2    0    0 -0.51335601610E+01  0.15880534176E+02  0.84932782304E+01  0.72461532614E+02  0.69999950915E+02 0.  0.
        -12    1    1    2    0    0  0.51335601610E+01 -0.15880534176E+02 -0.84932782304E+01  0.18726467386E+02  0.00000000000E+00 0.  1.
         11    1    3    3    0    0  0.41303864057E+01  0.22938215985E+01  0.10128767305E+00  0.47256712582E+01  0.51100000000E-03 0. -1.
        -11    1    3    3    0    0  0.50867290065E+01  0.37061187314E+02 -0.38804549700E+01  0.37609365165E+02  0.51100000000E-03 0.  1.
         12    1    3    3    0    0 -0.14350675573E+02 -0.23474474736E+02  0.12272445527E+02  0.30126496191E+02  0.00000000000E+00 0. -1.
</event>
<event>
 7    1  0.1789107E-013  0.7246149E+02  0.7816164E-02  0.1226708E+00
        -11   -1    0    0    0    0  0.00000000000E+00  0.00000000000E+00  0.45593999997E+02  0.45594000000E+02  0.51100000000E-03 0.  1.
         11   -1    0    0    0    0 -0.00000000000E+00 -0.00000000000E+00 -0.45593999997E+02  0.45594000000E+02  0.51100000000E-03 0. -1.
    9900012    2    1    2    0    0  0.52809702624E+01  0.17936061443E+02 -0.10445988818E+01  0.72461491147E+02  0.69999896895E+02 0.  0.
        -12    1    1    2    0    0 -0.52809702624E+01 -0.17936061443E+02  0.10445988818E+01  0.18726508853E+02  0.00000000000E+00 0.  1.
         11    1    3    3    0    0  0.14437286363E+02  0.65736997495E+01  0.36817535476E+01  0.16285087515E+02  0.51100000000E-03 0. -1.
        -11    1    3    3    0    0  0.13018494110E+02 -0.13723456649E+02 -0.11330257045E+02  0.22049697872E+02  0.51100000000E-03 0.  1.
         12    1    3    3    0    0 -0.22174810211E+02  0.25085818343E+02  0.66039046154E+01  0.34126705759E+02  0.00000000000E+00 0. -1.
</event>
<event>
 7    1  0.1789107E-013  0.7246174E+02  0.7816164E-02  0.1226708E+00
        -11   -1    0    0    0    0  0.00000000000E+00  0.00000000000E+00  0.45593999997E+02  0.45594000000E+02  0.51100000000E-03 0.  1.
         11   -1    0    0    0    0 -0.00000000000E+00 -0.00000000000E+00 -0.45593999997E+02  0.45594000000E+02  0.51100000000E-03 0. -1.
    9900012    2    1    2    0    0  0.40362204119E-01  0.18595186909E+02  0.22113436411E+01  0.72461744475E+02  0.70000226903E+02 0.  0.
        -12    1    1    2    0    0 -0.40362204119E-01 -0.18595186909E+02 -0.22113436411E+01  0.18726255525E+02  0.00000000000E+00 0.  1.
         11    1    3    3    0    0 -0.86421411329E+01  0.10572243607E+02 -0.16853721421E+01  0.13758612494E+02  0.51100000000E-03 0. -1.
        -11    1    3    3    0    0 -0.17115923797E+02 -0.15904393373E+02  0.23563949734E+01  0.23483125293E+02  0.51100000000E-03 0.  1.
         12    1    3    3    0    0  0.25798427134E+02  0.23927336675E+02  0.15403208099E+01  0.35220006689E+02  0.00000000000E+00 0. -1.
</event>
<event>
 7    1  0.1789107E-013  0.7246158E+02  0.7816164E-02  0.1226708E+00
        -11   -1    0    0    0    0  0.00000000000E+00  0.00000000000E+00  0.45593999997E+02  0.45594000000E+02  0.51100000000E-03 0. -1.
         11   -1    0    0    0    0 -0.00000000000E+00 -0.00000000000E+00 -0.45593999997E+02  0.45594000000E+02  0.51100000000E-03 0.  1.
    9900012    2    1    2    0    0 -0.16557760203E+02  0.77950089679E+01 -0.39695347816E+01  0.72461580318E+02  0.70000013057E+02 0.  0.
        -12    1    1    2    0    0  0.16557760203E+02 -0.77950089679E+01  0.39695347816E+01  0.18726419682E+02  0.00000000000E+00 0.  1.
         11    1    3    3    0    0  0.50911078998E+01  0.11702296040E+02 -0.57186813613E+01  0.13984506750E+02  0.51100000000E-03 0. -1.
        -11    1    3    3    0    0 -0.36353575040E+02  0.79479363362E+01 -0.66561187878E+01  0.37802857402E+02  0.51100000000E-03 0.  1.
         12    1    3    3    0    0  0.14704706937E+02 -0.11855223408E+02  0.84052653675E+01  0.20674216166E+02  0.00000000000E+00 0. -1.
</event>
<event>
 7    1  0.1789107E-013  0.7246150E+02  0.7816164E-02  0.1226708E+00
        -11   -1    0    0    0    0  0.00000000000E+00  0.00000000000E+00  0.45593999997E+02  0.45594000000E+02  0.51100000000E-03 0. -1.
         11   -1    0    0    0    0 -0.00000000000E+00 -0.00000000000E+00 -0.45593999997E+02  0.45594000000E+02  0.51100000000E-03 0.  1.
    9900012    2    1    2    0    0  0.13566254399E+01  0.15788375489E+02  0.99784086950E+01  0.72461498104E+02  0.69999905959E+02 0.  0.
        -12    1    1    2    0    0 -0.13566254399E+01 -0.15788375489E+02 -0.99784086950E+01  0.18726501896E+02  0.00000000000E+00 0.  1.
         11    1    3    3    0    0 -0.51475353637E+01 -0.24131543650E+01 -0.98618751212E+01  0.11383190040E+02  0.51100000000E-03 0. -1.
        -11    1    3    3    0    0 -0.21244396220E+02  0.20975901431E+02  0.93721059271E+01  0.31291359532E+02  0.51100000000E-03 0.  1.
         12    1    3    3    0    0  0.27748557024E+02 -0.27743715767E+01  0.10468177889E+02  0.29786948532E+02  0.00000000000E+00 0. -1.
</event>
<event>
 7    1  0.1789107E-013  0.7246161E+02  0.7816164E-02  0.1226708E+00
        -11   -1    0    0    0    0  0.00000000000E+00  0.00000000000E+00  0.45593999997E+02  0.45594000000E+02  0.51100000000E-03 0. -1.
         11   -1    0    0    0    0 -0.00000000000E+00 -0.00000000000E+00 -0.45593999997E+02  0.45594000000E+02  0.51100000000E-03 0.  1.
    9900012    2    1    2    0    0 -0.11240620028E+02 -0.12254081456E+02  0.86118388550E+01  0.72461606343E+02  0.70000046960E+02 0.  0.
        -12    1    1    2    0    0  0.11240620028E+02  0.12254081456E+02 -0.86118388550E+01  0.18726393657E+02  0.00000000000E+00 0.  1.
         11    1    3    3    0    0  0.12568283426E+01  0.84139518680E+01 -0.36367905385E+01  0.92520510808E+01  0.51100000000E-03 0. -1.
        -11    1    3    3    0    0 -0.24465790260E+02  0.32569863686E+01 -0.11690872190E+02  0.27310425593E+02  0.51100000000E-03 0.  1.
         12    1    3    3    0    0  0.11968341890E+02 -0.23925019693E+02  0.23939501584E+02  0.35899129669E+02  0.00000000000E+00 0. -1.
</event>
<event>
 7    1  0.1789107E-013  0.7246155E+02  0.7816164E-02  0.1226708E+00
        -11   -1    0    0    0    0  0.00000000000E+00  0.00000000000E+00  0.45593999997E+02  0.45594000000E+02  0.51100000000E-03 0.  1.
         11   -1    0    0    0    0 -0.00000000000E+00 -0.00000000000E+00 -0.45593999997E+02  0.45594000000E+02  0.51100000000E-03 0. -1.
    9900012    2    1    2    0    0  0.11585979814E+02  0.36663504224E+01 -0.14247903365E+02  0.72461553355E+02  0.69999977933E+02 0.  0.
        -12    1    1    2    0    0 -0.11585979814E+02 -0.36663504224E+01  0.14247903365E+02  0.18726446645E+02  0.00000000000E+00 0.  1.
         11    1    3    3    0    0 -0.12063587073E+02 -0.13229022012E+02 -0.10754062083E+02  0.20885090568E+02  0.51100000000E-03 0. -1.
        -11    1    3    3    0    0  0.12729560211E+02 -0.11319991262E+02  0.84918107636E+01  0.19034042021E+02  0.51100000000E-03 0.  1.
         12    1    3    3    0    0  0.10920006676E+02  0.28215363697E+02 -0.11985652045E+02  0.32542420766E+02  0.00000000000E+00 0. -1.
</event>
<event>
 7    1  0.1789107E-013  0.7246157E+02  0.7816164E-02  0.1226708E+00
        -11   -1    0    0    0    0  0.00000000000E+00  0.00000000000E+00  0.45593999997E+02  0.45594000000E+02  0.51100000000E-03 0.  1.
         11   -1    0    0    0    0 -0.00000000000E+00 -0.00000000000E+00 -0.45593999997E+02  0.45594000000E+02  0.51100000000E-03 0. -1.
    9900012    2    1    2    0    0 -0.13015547255E+02 -0.56970091173E+01 -0.12199138316E+02  0.72461565238E+02  0.69999993413E+02 0.  0.
        -12    1    1    2    0    0  0.13015547255E+02  0.56970091173E+01  0.12199138316E+02  0.18726434762E+02  0.00000000000E+00 0.  1.
         11    1    3    3    0    0  0.74701556573E+01  0.20472141101E+01 -0.25927628982E+02  0.27059864302E+02  0.51100000000E-03 0. -1.
        -11    1    3    3    0    0 -0.21060746597E+02 -0.12071391037E+01 -0.81084876005E+01  0.22599995652E+02  0.51100000000E-03 0.  1.
        -12    1    3    3    0    0  0.57504368406E+00 -0.65370841237E+01  0.21836978266E+02  0.22801705284E+02  0.00000000000E+00 0.  1.
</event>
<event>
 7    1  0.1789107E-013  0.7246158E+02  0.7816164E-02  0.1226708E+00
        -11   -1    0    0    0    0  0.00000000000E+00  0.00000000000E+00  0.45593999997E+02  0.45594000000E+02  0.51100000000E-03 0.  1.
         11   -1    0    0    0    0 -0.00000000000E+00 -0.00000000000E+00 -0.45593999997E+02  0.45594000000E+02  0.51100000000E-03 0. -1.
    9900012    2    1    2    0    0  0.33569229768E+01  0.18307732606E+02 -0.20583373027E+01  0.72461581296E+02  0.70000014331E+02 0.  0.
        -12    1    1    2    0    0 -0.33569229768E+01 -0.18307732606E+02  0.20583373027E+01  0.18726418704E+02  0.00000000000E+00 0.  1.
         11    1    3    3    0    0  0.41316963189E+01  0.30292323256E+01  0.11734761604E+02  0.12804366174E+02  0.51100000000E-03 0. -1.
        -11    1    3    3    0    0  0.19332873744E+02  0.19236361481E+02  0.92695127214E+01  0.28804886332E+02  0.51100000000E-03 0.  1.
         12    1    3    3    0    0 -0.20107647086E+02 -0.39578612007E+01 -0.23062611628E+02  0.30852328790E+02  0.00000000000E+00 0. -1.
</event>
<event>
 7    1  0.1789107E-013  0.7246160E+02  0.7816164E-02  0.1226708E+00
        -11   -1    0    0    0    0  0.00000000000E+00  0.00000000000E+00  0.45593999997E+02  0.45594000000E+02  0.51100000000E-03 0. -1.
         11   -1    0    0    0    0 -0.00000000000E+00 -0.00000000000E+00 -0.45593999997E+02  0.45594000000E+02  0.51100000000E-03 0.  1.
    9900012    2    1    2    0    0 -0.70375529086E+01  0.98086485772E+01  0.14315771168E+02  0.72461600400E+02  0.70000039218E+02 0.  0.
        -12    1    1    2    0    0  0.70375529086E+01 -0.98086485772E+01 -0.14315771168E+02  0.18726399600E+02  0.00000000000E+00 0.  1.
         11    1    3    3    0    0 -0.13462636317E+02  0.28419416220E+02 -0.19644683078E+01  0.31508172446E+02  0.51100000000E-03 0. -1.
        -11    1    3    3    0    0  0.25293234015E+01  0.56179752924E+01 -0.54118780901E+01  0.82004602296E+01  0.51100000000E-03 0.  1.
        -12    1    3    3    0    0  0.38957600069E+01 -0.24228742935E+02  0.21692117566E+02  0.32752967724E+02  0.00000000000E+00 0.  1.
</event>
<event>
 7    1  0.1789107E-013  0.7246156E+02  0.7816164E-02  0.1226708E+00
        -11   -1    0    0    0    0  0.00000000000E+00  0.00000000000E+00  0.45593999997E+02  0.45594000000E+02  0.51100000000E-03 0. -1.
         11   -1    0    0    0    0 -0.00000000000E+00 -0.00000000000E+00 -0.45593999997E+02  0.45594000000E+02  0.51100000000E-03 0.  1.
    9900012    2    1    2    0    0 -0.14177861337E+02  0.11971671254E+02  0.25193368429E+01  0.72461555521E+02  0.69999980754E+02 0.  0.
        -12    1    1    2    0    0  0.14177861337E+02 -0.11971671254E+02 -0.25193368429E+01  0.18726444479E+02  0.00000000000E+00 0.  1.
         11    1    3    3    0    0  0.79612840605E+01 -0.24673260570E+02  0.36711295530E+00  0.25928490184E+02  0.51100000000E-03 0. -1.
        -11    1    3    3    0    0  0.12662903975E+01  0.20479573033E+00 -0.26640217363E+01  0.29567625428E+01  0.51100000000E-03 0.  1.
        -12    1    3    3    0    0 -0.23405435795E+02  0.36440136093E+02  0.48162456239E+01  0.43576302794E+02  0.00000000000E+00 0.  1.
</event>
<event>
 7    1  0.1789107E-013  0.7246159E+02  0.7816164E-02  0.1226708E+00
        -11   -1    0    0    0    0  0.00000000000E+00  0.00000000000E+00  0.45593999997E+02  0.45594000000E+02  0.51100000000E-03 0.  1.
         11   -1    0    0    0    0 -0.00000000000E+00 -0.00000000000E+00 -0.45593999997E+02  0.45594000000E+02  0.51100000000E-03 0. -1.
    9900012    2    1    2    0    0 -0.14179406796E+01 -0.24373552570E+01 -0.18512896925E+02  0.72461585261E+02  0.70000019497E+02 0.  0.
        -12    1    1    2    0    0  0.14179406796E+01  0.24373552570E+01  0.18512896925E+02  0.18726414739E+02  0.00000000000E+00 0.  1.
         11    1    3    3    0    0  0.22321710817E+02  0.44510932911E+01  0.15626515915E+02  0.27609038469E+02  0.51100000000E-03 0. -1.
        -11    1    3    3    0    0 -0.41703812782E+01  0.47156086208E+01 -0.84472622856E+01  0.10534955389E+02  0.51100000000E-03 0.  1.
        -12    1    3    3    0    0 -0.19569270218E+02 -0.11604057169E+02 -0.25692150554E+02  0.34317591403E+02  0.00000000000E+00 0.  1.
</event>
<event>
 7    1  0.1789107E-013  0.7246159E+02  0.7816164E-02  0.1226708E+00
        -11   -1    0    0    0    0  0.00000000000E+00  0.00000000000E+00  0.45593999997E+02  0.45594000000E+02  0.51100000000E-03 0.  1.
         11   -1    0    0    0    0 -0.00000000000E+00 -0.00000000000E+00 -0.45593999997E+02  0.45594000000E+02  0.51100000000E-03 0. -1.
    9900012    2    1    2    0    0  0.20914509902E+01 -0.14447191567E+02 -0.11729578915E+02  0.72461587291E+02  0.70000022141E+02 0.  0.
        -12    1    1    2    0    0 -0.20914509902E+01  0.14447191567E+02  0.11729578915E+02  0.18726412709E+02  0.00000000000E+00 0.  1.
         11    1    3    3    0    0 -0.11118644103E+02 -0.10120543534E+02  0.11642250522E+02  0.19015563247E+02  0.51100000000E-03 0. -1.
        -11    1    3    3    0    0  0.18067491120E+02  0.17811482827E+02 -0.11412983394E+02  0.27819765385E+02  0.51100000000E-03 0.  1.
         12    1    3    3    0    0 -0.48573960266E+01 -0.22138130861E+02 -0.11958846043E+02  0.25626258659E+02  0.00000000000E+00 0. -1.
</event>
<event>
 7    1  0.1789107E-013  0.7246159E+02  0.7816164E-02  0.1226708E+00
        -11   -1    0    0    0    0  0.00000000000E+00  0.00000000000E+00  0.45593999997E+02  0.45594000000E+02  0.51100000000E-03 0.  1.
         11   -1    0    0    0    0 -0.00000000000E+00 -0.00000000000E+00 -0.45593999997E+02  0.45594000000E+02  0.51100000000E-03 0. -1.
    9900012    2    1    2    0    0 -0.15105716062E+02  0.10939074224E+02  0.16830313919E+01  0.72461585573E+02  0.70000019903E+02 0.  0.
        -12    1    1    2    0    0  0.15105716062E+02 -0.10939074224E+02 -0.16830313919E+01  0.18726414427E+02  0.00000000000E+00 0.  1.
         11    1    3    3    0    0  0.13796187410E+02  0.10361531704E+02 -0.71656960381E+01  0.18682701258E+02  0.51100000000E-03 0. -1.
        -11    1    3    3    0    0  0.72834507054E+01  0.10247872363E+02  0.10363181478E+02  0.16293037555E+02  0.51100000000E-03 0.  1.
         12    1    3    3    0    0 -0.36185354178E+02 -0.96703298436E+01 -0.15144540479E+01  0.37485846760E+02  0.00000000000E+00 0. -1.
</event>
<event>
 7    1  0.1789107E-013  0.7246150E+02  0.7816164E-02  0.1226708E+00
        -11   -1    0    0    0    0  0.00000000000E+00  0.00000000000E+00  0.45593999997E+02  0.45594000000E+02  0.51100000000E-03 0.  1.
         11   -1    0    0    0    0 -0.00000000000E+00 -0.00000000000E+00 -0.45593999997E+02  0.45594000000E+02  0.51100000000E-03 0. -1.
    9900012    2    1    2    0    0  0.13004582886E+02  0.10693167584E+02 -0.81987152973E+01  0.72461496281E+02  0.69999903584E+02 0.  0.
        -12    1    1    2    0    0 -0.13004582886E+02 -0.10693167584E+02  0.81987152973E+01  0.18726503719E+02  0.00000000000E+00 0.  1.
         11    1    3    3    0    0 -0.53395692527E+01 -0.53825077844E+00  0.86541496306E+01  0.10183075164E+02  0.51100000000E-03 0. -1.
        -11    1    3    3    0    0 -0.10466133908E+02  0.13838171604E+02  0.12254027218E+02  0.21241377913E+02  0.51100000000E-03 0.  1.
         12    1    3    3    0    0  0.28810286047E+02 -0.26067532424E+01 -0.29106892145E+02  0.41037043204E+02  0.00000000000E+00 0. -1.
</event>
<event>
 7    1  0.1789107E-013  0.7246152E+02  0.7816164E-02  0.1226708E+00
        -11   -1    0    0    0    0  0.00000000000E+00  0.00000000000E+00  0.45593999997E+02  0.45594000000E+02  0.51100000000E-03 0. -1.
         11   -1    0    0    0    0 -0.00000000000E+00 -0.00000000000E+00 -0.45593999997E+02  0.45594000000E+02  0.51100000000E-03 0.  1.
    9900012    2    1    2    0    0 -0.12289106079E+02 -0.34444644933E+00  0.14125878769E+02  0.72461515478E+02  0.69999928591E+02 0.  0.
        -12    1    1    2    0    0  0.12289106079E+02  0.34444644933E+00 -0.14125878769E+02  0.18726484522E+02  0.00000000000E+00 0.  1.
         11    1    3    3    0    0 -0.30349252678E+02  0.48482364881E+01  0.16771952296E+02  0.35012582299E+02  0.51100000000E-03 0. -1.
        -11    1    3    3    0    0 -0.84315100339E+01 -0.18564910730E+01  0.45997281190E+01  0.97823524566E+01  0.51100000000E-03 0.  1.
        -12    1    3    3    0    0  0.26491656633E+02 -0.33361918644E+01 -0.72458016462E+01  0.27666580722E+02  0.00000000000E+00 0.  1.
</event>
<event>
 7    1  0.1789107E-013  0.7246173E+02  0.7816164E-02  0.1226708E+00
        -11   -1    0    0    0    0  0.00000000000E+00  0.00000000000E+00  0.45593999997E+02  0.45594000000E+02  0.51100000000E-03 0.  1.
         11   -1    0    0    0    0 -0.00000000000E+00 -0.00000000000E+00 -0.45593999997E+02  0.45594000000E+02  0.51100000000E-03 0. -1.
    9900012    2    1    2    0    0  0.57116876695E+01  0.77762769018E+01 -0.16049275289E+02  0.72461732465E+02  0.70000211257E+02 0.  0.
        -12    1    1    2    0    0 -0.57116876695E+01 -0.77762769018E+01  0.16049275289E+02  0.18726267535E+02  0.00000000000E+00 0.  1.
         11    1    3    3    0    0  0.62992160202E+01  0.56994629984E+01  0.10264874930E+02  0.13324100665E+02  0.51100000000E-03 0. -1.
        -11    1    3    3    0    0  0.22743488246E+02 -0.14002424868E+01  0.12956364520E+01  0.22823356692E+02  0.51100000000E-03 0.  1.
        -12    1    3    3    0    0 -0.23331016596E+02  0.34770563902E+01 -0.27609786672E+02  0.36314275108E+02  0.00000000000E+00 0.  1.
</event>
<event>
 7    1  0.1789107E-013  0.7246219E+02  0.7816164E-02  0.1226706E+00
        -11   -1    0    0    0    0  0.00000000000E+00  0.00000000000E+00  0.45593999997E+02  0.45594000000E+02  0.51100000000E-03 0. -1.
         11   -1    0    0    0    0 -0.00000000000E+00 -0.00000000000E+00 -0.45593999997E+02  0.45594000000E+02  0.51100000000E-03 0.  1.
    9900012    2    1    2    0    0  0.30011967443E+01 -0.17654917453E+01  0.18399233375E+02  0.72462190757E+02  0.70000808264E+02 0.  0.
        -12    1    1    2    0    0 -0.30011967443E+01  0.17654917453E+01 -0.18399233375E+02  0.18725809243E+02  0.00000000000E+00 0.  1.
         11    1    3    3    0    0  0.30086994412E+02  0.39417771153E+01  0.20946032367E+02  0.36871413205E+02  0.51100000000E-03 0. -1.
        -11    1    3    3    0    0  0.30464311745E-01  0.43912647141E+01 -0.48754598444E+01  0.65615731970E+01  0.51100000000E-03 0.  1.
         12    1    3    3    0    0 -0.27116261980E+02 -0.10098533575E+02  0.23286608528E+01  0.29029204355E+02  0.00000000000E+00 0. -1.
</event>
<event>
 7    1  0.1789107E-013  0.7246158E+02  0.7816164E-02  0.1226708E+00
        -11   -1    0    0    0    0  0.00000000000E+00  0.00000000000E+00  0.45593999997E+02  0.45594000000E+02  0.51100000000E-03 0.  1.
         11   -1    0    0    0    0 -0.00000000000E+00 -0.00000000000E+00 -0.45593999997E+02  0.45594000000E+02  0.51100000000E-03 0. -1.
    9900012    2    1    2    0    0 -0.51891044728E+01 -0.17862095076E+02  0.21674146751E+01  0.72461576633E+02  0.70000008258E+02 0.  0.
        -12    1    1    2    0    0  0.51891044728E+01  0.17862095076E+02 -0.21674146751E+01  0.18726423367E+02  0.00000000000E+00 0.  1.
         11    1    3    3    0    0  0.82632711759E+01 -0.11778616210E+02  0.72310416891E+01  0.16102962911E+02  0.51100000000E-03 0. -1.
        -11    1    3    3    0    0 -0.40084586076E+01 -0.20043823335E+02  0.18377311913E+02  0.27487236815E+02  0.51100000000E-03 0.  1.
         12    1    3    3    0    0 -0.94439170411E+01  0.13960344469E+02 -0.23440938927E+02  0.28871376908E+02  0.00000000000E+00 0. -1.
</event>
<event>
 7    1  0.1789107E-013  0.7246157E+02  0.7816164E-02  0.1226708E+00
        -11   -1    0    0    0    0  0.00000000000E+00  0.00000000000E+00  0.45593999997E+02  0.45594000000E+02  0.51100000000E-03 0. -1.
         11   -1    0    0    0    0 -0.00000000000E+00 -0.00000000000E+00 -0.45593999997E+02  0.45594000000E+02  0.51100000000E-03 0.  1.
    9900012    2    1    2    0    0 -0.52814181522E+01 -0.12424716894E+01  0.17923228790E+02  0.72461568309E+02  0.69999997414E+02 0.  0.
        -12    1    1    2    0    0  0.52814181522E+01  0.12424716894E+01 -0.17923228790E+02  0.18726431691E+02  0.00000000000E+00 0.  1.
         11    1    3    3    0    0  0.19400121750E+01 -0.37969546639E+01  0.35681378246E+01  0.55598668828E+01  0.51100000000E-03 0. -1.
        -11    1    3    3    0    0  0.23018996182E+02 -0.14546861678E+02  0.16932022946E+02  0.32065226823E+02  0.51100000000E-03 0.  1.
         12    1    3    3    0    0 -0.30240426509E+02  0.17101344652E+02 -0.25769319800E+01  0.34836474604E+02  0.00000000000E+00 0. -1.
</event>
<event>
 7    1  0.1789107E-013  0.7246156E+02  0.7816164E-02  0.1226708E+00
        -11   -1    0    0    0    0  0.00000000000E+00  0.00000000000E+00  0.45593999997E+02  0.45594000000E+02  0.51100000000E-03 0.  1.
         11   -1    0    0    0    0 -0.00000000000E+00 -0.00000000000E+00 -0.45593999997E+02  0.45594000000E+02  0.51100000000E-03 0. -1.
    9900012    2    1    2    0    0 -0.20375731879E+01  0.13008143190E+02  0.13316005911E+02  0.72461561279E+02  0.69999988255E+02 0.  0.
        -12    1    1    2    0    0  0.20375731879E+01 -0.13008143190E+02 -0.13316005911E+02  0.18726438721E+02  0.00000000000E+00 0.  1.
         11    1    3    3    0    0 -0.63258097679E+01 -0.67985774525E+01 -0.10253473858E+01  0.93427973391E+01  0.51100000000E-03 0. -1.
        -11    1    3    3    0    0 -0.19261606895E+02  0.22139190958E+02 -0.81652212610E+01  0.30460205432E+02  0.51100000000E-03 0.  1.
         12    1    3    3    0    0  0.23549843475E+02 -0.23324703156E+01  0.22506574558E+02  0.32658558508E+02  0.00000000000E+00 0. -1.
</event>
<event>
 7    1  0.1789107E-013  0.7246162E+02  0.7816164E-02  0.1226708E+00
        -11   -1    0    0    0    0  0.00000000000E+00  0.00000000000E+00  0.45593999997E+02  0.45594000000E+02  0.51100000000E-03 0. -1.
         11   -1    0    0    0    0 -0.00000000000E+00 -0.00000000000E+00 -0.45593999997E+02  0.45594000000E+02  0.51100000000E-03 0.  1.
    9900012    2    1    2    0    0  0.11110110981E+02 -0.15999909949E+01  0.14989421901E+02  0.72461620048E+02  0.70000064813E+02 0.  0.
        -12    1    1    2    0    0 -0.11110110981E+02  0.15999909949E+01 -0.14989421901E+02  0.18726379952E+02  0.00000000000E+00 0.  1.
         11    1    3    3    0    0 -0.14183858175E+02 -0.15507920415E+02 -0.35985034367E+01  0.21321975883E+02  0.51100000000E-03 0. -1.
        -11    1    3    3    0    0  0.19046511013E+02  0.90363103183E+01 -0.86395358990E+01  0.22783021458E+02  0.51100000000E-03 0.  1.
         12    1    3    3    0    0  0.62474581425E+01  0.48716191020E+01  0.27227461237E+02  0.28356622706E+02  0.00000000000E+00 0. -1.
</event>
<event>
 7    1  0.1789107E-013  0.7246171E+02  0.7816164E-02  0.1226708E+00
        -11   -1    0    0    0    0  0.00000000000E+00  0.00000000000E+00  0.45593999997E+02  0.45594000000E+02  0.51100000000E-03 0. -1.
         11   -1    0    0    0    0 -0.00000000000E+00 -0.00000000000E+00 -0.45593999997E+02  0.45594000000E+02  0.51100000000E-03 0.  1.
    9900012    2    1    2    0    0  0.15730806301E+02  0.79052259549E+01  0.63814494621E+01  0.72461714690E+02  0.70000188102E+02 0.  0.
        -12    1    1    2    0    0 -0.15730806301E+02 -0.79052259549E+01 -0.63814494621E+01  0.18726285310E+02  0.00000000000E+00 0.  1.
         11    1    3    3    0    0 -0.29903786016E+01  0.16382084869E+02 -0.18289304132E+01  0.16752911853E+02  0.51100000000E-03 0. -1.
        -11    1    3    3    0    0  0.24500651285E+02  0.16325429992E+02  0.20818195798E+01  0.29515005520E+02  0.51100000000E-03 0.  1.
        -12    1    3    3    0    0 -0.57794663831E+01 -0.24802288905E+02  0.61285602956E+01  0.26193797318E+02  0.00000000000E+00 0.  1.
</event>
<event>
 7    1  0.1789107E-013  0.7246142E+02  0.7816164E-02  0.1226708E+00
        -11   -1    0    0    0    0  0.00000000000E+00  0.00000000000E+00  0.45593999997E+02  0.45594000000E+02  0.51100000000E-03 0.  1.
         11   -1    0    0    0    0 -0.00000000000E+00 -0.00000000000E+00 -0.45593999997E+02  0.45594000000E+02  0.51100000000E-03 0. -1.
    9900012    2    1    2    0    0 -0.35993157790E+01  0.21803073556E+00 -0.18376130169E+02  0.72461420721E+02  0.69999805153E+02 0.  0.
        -12    1    1    2    0    0  0.35993157790E+01 -0.21803073556E+00  0.18376130169E+02  0.18726579279E+02  0.00000000000E+00 0.  1.
         11    1    3    3    0    0  0.43003906571E+01 -0.17059444124E+02  0.42274818005E+01  0.18093910475E+02  0.51100000000E-03 0. -1.
        -11    1    3    3    0    0 -0.10621970118E+02  0.58482193174E+01  0.12460996792E+02  0.17386901958E+02  0.51100000000E-03 0.  1.
         12    1    3    3    0    0  0.27222636818E+01  0.11429255542E+02 -0.35064608762E+02  0.36980608289E+02  0.00000000000E+00 0. -1.
</event>
<event>
 7    1  0.1789107E-013  0.7246157E+02  0.7816164E-02  0.1226708E+00
        -11   -1    0    0    0    0  0.00000000000E+00  0.00000000000E+00  0.45593999997E+02  0.45594000000E+02  0.51100000000E-03 0.  1.
         11   -1    0    0    0    0 -0.00000000000E+00 -0.00000000000E+00 -0.45593999997E+02  0.45594000000E+02  0.51100000000E-03 0. -1.
    9900012    2    1    2    0    0 -0.63049233133E+01 -0.17568557338E+02 -0.15076553027E+01  0.72461567093E+02  0.69999995829E+02 0.  0.
        -12    1    1    2    0    0  0.63049233133E+01  0.17568557338E+02  0.15076553027E+01  0.18726432907E+02  0.00000000000E+00 0.  1.
         11    1    3    3    0    0  0.17111573805E+02  0.24568175123E+01  0.12836838640E+02  0.21531984044E+02  0.51100000000E-03 0. -1.
        -11    1    3    3    0    0  0.10493225447E+02 -0.30191447766E+01 -0.37089278039E+01  0.11531659082E+02  0.51100000000E-03 0.  1.
         12    1    3    3    0    0 -0.33909722565E+02 -0.17006230073E+02 -0.10635566139E+02  0.39397923966E+02  0.00000000000E+00 0. -1.
</event>
<event>
 7    1  0.1789107E-013  0.7246154E+02  0.7816164E-02  0.1226708E+00
        -11   -1    0    0    0    0  0.00000000000E+00  0.00000000000E+00  0.45593999997E+02  0.45594000000E+02  0.51100000000E-03 0.  1.
         11   -1    0    0    0    0 -0.00000000000E+00 -0.00000000000E+00 -0.45593999997E+02  0.45594000000E+02  0.51100000000E-03 0. -1.
    9900012    2    1    2    0    0  0.54445127559E+01  0.17669852384E+02 -0.29687962568E+01  0.72461544019E+02  0.69999965771E+02 0.  0.
        -12    1    1    2    0    0 -0.54445127559E+01 -0.17669852384E+02  0.29687962568E+01  0.18726455981E+02  0.00000000000E+00 0.  1.
         11    1    3    3    0    0 -0.83329076348E+01  0.65687437996E+01 -0.22153237839E+01  0.10839437462E+02  0.51100000000E-03 0. -1.
        -11    1    3    3    0    0  0.32847257008E+01  0.30476669531E+02 -0.16240519531E+02  0.34689642309E+02  0.51100000000E-03 0.  1.
        -12    1    3    3    0    0  0.10492694690E+02 -0.19375560947E+02  0.15487047058E+02  0.26932464248E+02  0.00000000000E+00 0.  1.
</event>
<event>
 7    1  0.1789107E-013  0.7246150E+02  0.7816164E-02  0.1226708E+00
        -11   -1    0    0    0    0  0.00000000000E+00  0.00000000000E+00  0.45593999997E+02  0.45594000000E+02  0.51100000000E-03 0.  1.
         11   -1    0    0    0    0 -0.00000000000E+00 -0.00000000000E+00 -0.45593999997E+02  0.45594000000E+02  0.51100000000E-03 0. -1.
    9900012    2    1    2    0    0  0.10087301689E+02  0.11635807368E+02 -0.10655331844E+02  0.72461500990E+02  0.69999909718E+02 0.  0.
        -12    1    1    2    0    0 -0.10087301689E+02 -0.11635807368E+02  0.10655331844E+02  0.18726499010E+02  0.00000000000E+00 0.  1.
         11    1    3    3    0    0 -0.17290983528E+02  0.16322310734E+02  0.11051139344E+02  0.26220671619E+02  0.51100000000E-03 0. -1.
        -11    1    3    3    0    0  0.20020859413E+02  0.11353006204E+02 -0.14346833035E+02  0.27121157422E+02  0.51100000000E-03 0.  1.
        -12    1    3    3    0    0  0.73574258041E+01 -0.16039509571E+02 -0.73596381524E+01  0.19119671950E+02  0.00000000000E+00 0.  1.
</event>
<event>
 7    1  0.1789107E-013  0.7246158E+02  0.7816164E-02  0.1226708E+00
        -11   -1    0    0    0    0  0.00000000000E+00  0.00000000000E+00  0.45593999997E+02  0.45594000000E+02  0.51100000000E-03 0.  1.
         11   -1    0    0    0    0 -0.00000000000E+00 -0.00000000000E+00 -0.45593999997E+02  0.45594000000E+02  0.51100000000E-03 0. -1.
    9900012    2    1    2    0    0  0.84999859729E+01 -0.14395543498E+02 -0.84378549006E+01  0.72461579374E+02  0.70000011828E+02 0.  0.
        -12    1    1    2    0    0 -0.84999859729E+01  0.14395543498E+02  0.84378549006E+01  0.18726420626E+02  0.00000000000E+00 0.  1.
         11    1    3    3    0    0  0.25193447221E+02  0.11899954908E+02  0.24092173968E+01  0.27966462744E+02  0.51100000000E-03 0. -1.
        -11    1    3    3    0    0 -0.13901901700E+02 -0.27556815742E+01 -0.14767986712E+02  0.20468270166E+02  0.51100000000E-03 0.  1.
        -12    1    3    3    0    0 -0.27915595488E+01 -0.23539816831E+02  0.39209144141E+01  0.24026846464E+02  0.00000000000E+00 0.  1.
</event>
<event>
 7    1  0.1789107E-013  0.7246159E+02  0.7816164E-02  0.1226708E+00
        -11   -1    0    0    0    0  0.00000000000E+00  0.00000000000E+00  0.45593999997E+02  0.45594000000E+02  0.51100000000E-03 0.  1.
         11   -1    0    0    0    0 -0.00000000000E+00 -0.00000000000E+00 -0.45593999997E+02  0.45594000000E+02  0.51100000000E-03 0. -1.
    9900012    2    1    2    0    0  0.13400507519E+02 -0.13890055054E+00 -0.13079968493E+02  0.72461588947E+02  0.70000024299E+02 0.  0.
        -12    1    1    2    0    0 -0.13400507519E+02  0.13890055054E+00  0.13079968493E+02  0.18726411053E+02  0.00000000000E+00 0.  1.
         11    1    3    3    0    0  0.45846006642E+01 -0.18832343013E+02 -0.82989437843E+01  0.21084311106E+02  0.51100000000E-03 0. -1.
        -11    1    3    3    0    0 -0.56375911757E+01 -0.13692838279E+02  0.29015739365E+01  0.15089578720E+02  0.51100000000E-03 0.  1.
        -12    1    3    3    0    0  0.14453498031E+02  0.32386280741E+02 -0.76825986454E+01  0.36287699121E+02  0.00000000000E+00 0.  1.
</event>
<event>
 7    1  0.1789107E-013  0.7246158E+02  0.7816164E-02  0.1226708E+00
        -11   -1    0    0    0    0  0.00000000000E+00  0.00000000000E+00  0.45593999997E+02  0.45594000000E+02  0.51100000000E-03 0.  1.
         11   -1    0    0    0    0 -0.00000000000E+00 -0.00000000000E+00 -0.45593999997E+02  0.45594000000E+02  0.51100000000E-03 0. -1.
    9900012    2    1    2    0    0  0.54655173039E+01 -0.65387042622E+01 -0.16674897996E+02  0.72461581335E+02  0.70000014383E+02 0.  0.
        -12    1    1    2    0    0 -0.54655173039E+01  0.65387042622E+01  0.16674897996E+02  0.18726418665E+02  0.00000000000E+00 0.  1.
         11    1    3    3    0    0  0.22050719614E+02 -0.45598769244E+01 -0.44485788584E+01  0.22952484989E+02  0.51100000000E-03 0. -1.
        -11    1    3    3    0    0 -0.64075104384E+01 -0.21272096759E+02 -0.15991807984E+02  0.27373275533E+02  0.51100000000E-03 0.  1.
        -12    1    3    3    0    0 -0.10177691872E+02  0.19293269421E+02  0.37654888466E+01  0.22135820813E+02  0.00000000000E+00 0.  1.
</event>
<event>
 7    1  0.1789107E-013  0.7246158E+02  0.7816164E-02  0.1226708E+00
        -11   -1    0    0    0    0  0.00000000000E+00  0.00000000000E+00  0.45593999997E+02  0.45594000000E+02  0.51100000000E-03 0. -1.
         11   -1    0    0    0    0 -0.00000000000E+00 -0.00000000000E+00 -0.45593999997E+02  0.45594000000E+02  0.51100000000E-03 0.  1.
    9900012    2    1    2    0    0 -0.14420652122E+02  0.35896584589E+01  0.11394643959E+02  0.72461581057E+02  0.70000014020E+02 0.  0.
        -12    1    1    2    0    0  0.14420652122E+02 -0.35896584589E+01 -0.11394643959E+02  0.18726418943E+02  0.00000000000E+00 0.  1.
         11    1    3    3    0    0 -0.54207359508E+01 -0.42589944918E+01  0.19512496653E+02  0.20694466368E+02  0.51100000000E-03 0. -1.
        -11    1    3    3    0    0 -0.16091291611E+02  0.84961331602E+01  0.17458898213E+02  0.25217594482E+02  0.51100000000E-03 0.  1.
        -12    1    3    3    0    0  0.70913754398E+01 -0.64748020953E+00 -0.25576750907E+02  0.26549520207E+02  0.00000000000E+00 0.  1.
</event>
<event>
 7    1  0.1789107E-013  0.7246162E+02  0.7816164E-02  0.1226708E+00
        -11   -1    0    0    0    0  0.00000000000E+00  0.00000000000E+00  0.45593999997E+02  0.45594000000E+02  0.51100000000E-03 0. -1.
         11   -1    0    0    0    0 -0.00000000000E+00 -0.00000000000E+00 -0.45593999997E+02  0.45594000000E+02  0.51100000000E-03 0.  1.
    9900012    2    1    2    0    0 -0.76499975712E+01 -0.17070886952E+02 -0.86010357107E+00  0.72461616945E+02  0.70000060771E+02 0.  0.
        -12    1    1    2    0    0  0.76499975712E+01  0.17070886952E+02  0.86010357107E+00  0.18726383055E+02  0.00000000000E+00 0.  1.
         11    1    3    3    0    0 -0.17179639886E+02 -0.54993062875E+01 -0.15675029313E+02  0.23897467240E+02  0.51100000000E-03 0. -1.
        -11    1    3    3    0    0 -0.18897834885E+01  0.12571851397E+02 -0.66062696421E+01  0.14327090704E+02  0.51100000000E-03 0.  1.
        -12    1    3    3    0    0  0.11419425804E+02 -0.24143432062E+02  0.21421195384E+02  0.34237059001E+02  0.00000000000E+00 0.  1.
</event>
<event>
 7    1  0.1789107E-013  0.7246148E+02  0.7816164E-02  0.1226708E+00
        -11   -1    0    0    0    0  0.00000000000E+00  0.00000000000E+00  0.45593999997E+02  0.45594000000E+02  0.51100000000E-03 0.  1.
         11   -1    0    0    0    0 -0.00000000000E+00 -0.00000000000E+00 -0.45593999997E+02  0.45594000000E+02  0.51100000000E-03 0. -1.
    9900012    2    1    2    0    0  0.45416261503E+01  0.15593119624E+02  0.93225901617E+01  0.72461483105E+02  0.69999886419E+02 0.  0.
        -12    1    1    2    0    0 -0.45416261503E+01 -0.15593119624E+02 -0.93225901617E+01  0.18726516895E+02  0.00000000000E+00 0.  1.
         11    1    3    3    0    0 -0.11496795497E+02  0.47674376659E+01  0.11562724340E+02  0.16988271337E+02  0.51100000000E-03 0. -1.
        -11    1    3    3    0    0  0.90530239076E+01  0.24326245836E+01  0.24692012616E+02  0.26411557915E+02  0.51100000000E-03 0.  1.
         12    1    3    3    0    0  0.69853977401E+01  0.83930573746E+01 -0.26932146794E+02  0.29061653852E+02  0.00000000000E+00 0. -1.
</event>
<event>
 7    1  0.1789107E-013  0.7246152E+02  0.7816164E-02  0.1226708E+00
        -11   -1    0    0    0    0  0.00000000000E+00  0.00000000000E+00  0.45593999997E+02  0.45594000000E+02  0.51100000000E-03 0. -1.
         11   -1    0    0    0    0 -0.00000000000E+00 -0.00000000000E+00 -0.45593999997E+02  0.45594000000E+02  0.51100000000E-03 0.  1.
    9900012    2    1    2    0    0 -0.12757283484E+02  0.13190575204E+02  0.37338173845E+01  0.72461522799E+02  0.69999938128E+02 0.  0.
        -12    1    1    2    0    0  0.12757283484E+02 -0.13190575204E+02 -0.37338173845E+01  0.18726477201E+02  0.00000000000E+00 0.  1.
         11    1    3    3    0    0  0.96047195476E+01 -0.15670099566E+02 -0.69964156318E+01  0.19666023745E+02  0.51100000000E-03 0.  1.
        -11    1    3    3    0    0 -0.18400320281E+02  0.86612604166E+01 -0.10784762688E+02  0.23019563961E+02  0.51100000000E-03 0. -1.
         12    1    3    3    0    0 -0.39616827507E+01  0.20199414354E+02  0.21514995705E+02  0.29775935092E+02  0.00000000000E+00 0. -1.
</event>
<event>
 7    1  0.1789107E-013  0.7246159E+02  0.7816164E-02  0.1226708E+00
        -11   -1    0    0    0    0  0.00000000000E+00  0.00000000000E+00  0.45593999997E+02  0.45594000000E+02  0.51100000000E-03 0.  1.
         11   -1    0    0    0    0 -0.00000000000E+00 -0.00000000000E+00 -0.45593999997E+02  0.45594000000E+02  0.51100000000E-03 0. -1.
    9900012    2    1    2    0    0 -0.35537490915E+01  0.16347081835E+02 -0.84156009717E+01  0.72461586653E+02  0.70000021311E+02 0.  0.
        -12    1    1    2    0    0  0.35537490915E+01 -0.16347081835E+02  0.84156009717E+01  0.18726413347E+02  0.00000000000E+00 0.  1.
         11    1    3    3    0    0  0.62981485598E+01  0.35984646237E+01 -0.21136054850E+02  0.22346105652E+02  0.51100000000E-03 0. -1.
        -11    1    3    3    0    0  0.67534852359E+01  0.23229701192E+02 -0.37570699641E+01  0.24481506393E+02  0.51100000000E-03 0.  1.
        -12    1    3    3    0    0 -0.16605382887E+02 -0.10481083981E+02  0.16477523842E+02  0.25633974608E+02  0.00000000000E+00 0.  1.
</event>
<event>
 7    1  0.2180043E-013  0.7246158E+02  0.7816164E-02  0.1226708E+00
        -11   -1    0    0    0    0  0.00000000000E+00  0.00000000000E+00  0.45593999997E+02  0.45594000000E+02  0.51100000000E-03 0.  1.
         11   -1    0    0    0    0 -0.00000000000E+00 -0.00000000000E+00 -0.45593999997E+02  0.45594000000E+02  0.51100000000E-03 0. -1.
    9900012    2    1    2    0    0 -0.98658570559E+01  0.95155922241E+01 -0.12759198466E+02  0.72461580793E+02  0.70000013676E+02 0.  0.
        -12    1    1    2    0    0  0.98658570559E+01 -0.95155922241E+01  0.12759198466E+02  0.18726419207E+02  0.00000000000E+00 0.  1.
         11    1    3    3    0    0 -0.18584748991E+02 -0.58822437318E+01 -0.29544361331E+02  0.35395804456E+02  0.51100000000E-03 0. -1.
        -11    1    3    3    0    0 -0.57439600127E+01  0.93440968653E+01 -0.34216357345E+01  0.11489682947E+02  0.51100000000E-03 0.  1.
        -12    1    3    3    0    0  0.14462851947E+02  0.60537390906E+01  0.20206798600E+02  0.25576093390E+02  0.00000000000E+00 0.  1.
</event>
<event>
 7    1  0.1789107E-013  0.7246162E+02  0.7816164E-02  0.1226708E+00
        -11   -1    0    0    0    0  0.00000000000E+00  0.00000000000E+00  0.45593999997E+02  0.45594000000E+02  0.51100000000E-03 0.  1.
         11   -1    0    0    0    0 -0.00000000000E+00 -0.00000000000E+00 -0.45593999997E+02  0.45594000000E+02  0.51100000000E-03 0. -1.
    9900012    2    1    2    0    0 -0.72039466697E+01 -0.17187677806E+02 -0.18341236218E+01  0.72461624872E+02  0.70000071097E+02 0.  0.
        -12    1    1    2    0    0  0.72039466697E+01  0.17187677806E+02  0.18341236218E+01  0.18726375128E+02  0.00000000000E+00 0.  1.
         11    1    3    3    0    0 -0.15810050464E+00  0.86135603847E+00  0.15046635269E+02  0.15072098831E+02  0.51100000000E-03 0. -1.
        -11    1    3    3    0    0  0.13833589368E+02  0.11960099264E+02 -0.60152876737E+01  0.19250866351E+02  0.51100000000E-03 0.  1.
         12    1    3    3    0    0 -0.20879435533E+02 -0.30009133108E+02 -0.10865471217E+02  0.38138659689E+02  0.00000000000E+00 0. -1.
</event>
<event>
 7    1  0.1789107E-013  0.7246160E+02  0.7816164E-02  0.1226708E+00
        -11   -1    0    0    0    0  0.00000000000E+00  0.00000000000E+00  0.45593999997E+02  0.45594000000E+02  0.51100000000E-03 0. -1.
         11   -1    0    0    0    0 -0.00000000000E+00 -0.00000000000E+00 -0.45593999997E+02  0.45594000000E+02  0.51100000000E-03 0.  1.
    9900012    2    1    2    0    0 -0.83435724395E+01 -0.10764680063E+02  0.12852407515E+02  0.72461603741E+02  0.70000043571E+02 0.  0.
        -12    1    1    2    0    0  0.83435724395E+01  0.10764680063E+02 -0.12852407515E+02  0.18726396259E+02  0.00000000000E+00 0.  1.
         11    1    3    3    0    0 -0.21999413111E+02 -0.41906024625E+01  0.25243853617E+01  0.22536810953E+02  0.51100000000E-03 0. -1.
        -11    1    3    3    0    0 -0.15346388499E+02  0.63872104911E+01  0.34402724053E+00  0.16626077493E+02  0.51100000000E-03 0.  1.
         12    1    3    3    0    0  0.29002229170E+02 -0.12961288092E+02  0.99839949126E+01  0.33298715294E+02  0.00000000000E+00 0. -1.
</event>
<event>
 7    1  0.1789107E-013  0.7246099E+02  0.7816164E-02  0.1226710E+00
        -11   -1    0    0    0    0  0.00000000000E+00  0.00000000000E+00  0.45593999997E+02  0.45594000000E+02  0.51100000000E-03 0. -1.
         11   -1    0    0    0    0 -0.00000000000E+00 -0.00000000000E+00 -0.45593999997E+02  0.45594000000E+02  0.51100000000E-03 0.  1.
    9900012    2    1    2    0    0 -0.16363290165E+02  0.38842156187E+01 -0.82374980935E+01  0.72460993543E+02  0.69999248671E+02 0.  0.
        -12    1    1    2    0    0  0.16363290165E+02 -0.38842156187E+01  0.82374980935E+01  0.18727006457E+02  0.00000000000E+00 0.  1.
         11    1    3    3    0    0  0.77889689648E+01 -0.68017033962E+01 -0.13593011862E+01  0.10429712681E+02  0.51100000000E-03 0. -1.
        -11    1    3    3    0    0 -0.29669013915E+02 -0.14083570931E+02  0.62942964206E+01  0.33439729733E+02  0.51100000000E-03 0.  1.
         12    1    3    3    0    0  0.55167547860E+01  0.24769489946E+02 -0.13172493328E+02  0.28591551130E+02  0.00000000000E+00 0. -1.
</event>
<event>
 7    1  0.1789107E-013  0.7246155E+02  0.7816164E-02  0.1226708E+00
        -11   -1    0    0    0    0  0.00000000000E+00  0.00000000000E+00  0.45593999997E+02  0.45594000000E+02  0.51100000000E-03 0.  1.
         11   -1    0    0    0    0 -0.00000000000E+00 -0.00000000000E+00 -0.45593999997E+02  0.45594000000E+02  0.51100000000E-03 0. -1.
    9900012    2    1    2    0    0  0.24773386457E+01 -0.13057733043E+00 -0.18561406539E+02  0.72461546253E+02  0.69999968682E+02 0.  0.
        -12    1    1    2    0    0 -0.24773386457E+01  0.13057733043E+00  0.18561406539E+02  0.18726453747E+02  0.00000000000E+00 0.  1.
         11    1    3    3    0    0  0.17960801328E+01 -0.82226945675E+01  0.16294944588E+01  0.85728561312E+01  0.51100000000E-03 0. -1.
        -11    1    3    3    0    0  0.24760182082E+02  0.10040909373E+02  0.68959389920E+01  0.27594210491E+02  0.51100000000E-03 0.  1.
         12    1    3    3    0    0 -0.24078923569E+02 -0.19487921360E+01 -0.27086839990E+02  0.36294479631E+02  0.00000000000E+00 0. -1.
</event>
<event>
 7    1  0.1789107E-013  0.7246156E+02  0.7816164E-02  0.1226708E+00
        -11   -1    0    0    0    0  0.00000000000E+00  0.00000000000E+00  0.45593999997E+02  0.45594000000E+02  0.51100000000E-03 0. -1.
         11   -1    0    0    0    0 -0.00000000000E+00 -0.00000000000E+00 -0.45593999997E+02  0.45594000000E+02  0.51100000000E-03 0.  1.
    9900012    2    1    2    0    0 -0.16258601595E+02 -0.89624078661E+01 -0.24521042777E+01  0.72461556238E+02  0.69999981689E+02 0.  0.
        -12    1    1    2    0    0  0.16258601595E+02  0.89624078661E+01  0.24521042777E+01  0.18726443762E+02  0.00000000000E+00 0.  1.
         11    1    3    3    0    0 -0.23273764058E+02 -0.13708932260E+02 -0.13719201689E+01  0.27045980891E+02  0.51100000000E-03 0. -1.
        -11    1    3    3    0    0 -0.12207198923E+01 -0.19470453434E+02  0.21775319602E+01  0.19629833409E+02  0.51100000000E-03 0.  1.
        -12    1    3    3    0    0  0.82358823556E+01  0.24216977828E+02 -0.32577160690E+01  0.25785741938E+02  0.00000000000E+00 0.  1.
</event>
<event>
 7    1  0.1789107E-013  0.7246088E+02  0.7816164E-02  0.1226710E+00
        -11   -1    0    0    0    0  0.00000000000E+00  0.00000000000E+00  0.45593999997E+02  0.45594000000E+02  0.51100000000E-03 0. -1.
         11   -1    0    0    0    0 -0.00000000000E+00 -0.00000000000E+00 -0.45593999997E+02  0.45594000000E+02  0.51100000000E-03 0.  1.
    9900012    2    1    2    0    0 -0.25089280586E+01 -0.10118879004E+02  0.15556941088E+02  0.72460884678E+02  0.69999106851E+02 0.  0.
        -12    1    1    2    0    0  0.25089280586E+01  0.10118879004E+02 -0.15556941088E+02  0.18727115322E+02  0.00000000000E+00 0.  1.
         11    1    3    3    0    0 -0.54536460886E+01  0.14915303205E+01  0.21455922892E+01  0.60473535442E+01  0.51100000000E-03 0. -1.
        -11    1    3    3    0    0 -0.30105526176E+02 -0.20600974971E+01  0.23096466478E+01  0.30264189663E+02  0.51100000000E-03 0.  1.
        -12    1    3    3    0    0  0.33050244206E+02 -0.95503118272E+01  0.11101702151E+02  0.36149341470E+02  0.00000000000E+00 0.  1.
</event>
<event>
 7    1  0.1789107E-013  0.7246154E+02  0.7816164E-02  0.1226708E+00
        -11   -1    0    0    0    0  0.00000000000E+00  0.00000000000E+00  0.45593999997E+02  0.45594000000E+02  0.51100000000E-03 0. -1.
         11   -1    0    0    0    0 -0.00000000000E+00 -0.00000000000E+00 -0.45593999997E+02  0.45594000000E+02  0.51100000000E-03 0.  1.
    9900012    2    1    2    0    0 -0.78345679906E+01 -0.12782393958E+02  0.11220976570E+02  0.72461538346E+02  0.69999958381E+02 0.  0.
        -12    1    1    2    0    0  0.78345679906E+01  0.12782393958E+02 -0.11220976570E+02  0.18726461654E+02  0.00000000000E+00 0.  1.
         11    1    3    3    0    0 -0.17870938844E+01  0.33890301025E+01  0.64727191209E+01  0.75216569096E+01  0.51100000000E-03 0. -1.
        -11    1    3    3    0    0  0.25279063373E+02 -0.46297598065E+01  0.15321985513E+02  0.29920377023E+02  0.51100000000E-03 0.  1.
        -12    1    3    3    0    0 -0.31326537479E+02 -0.11541664254E+02 -0.10573728063E+02  0.35019504413E+02  0.00000000000E+00 0.  1.
</event>
<event>
 7    1  0.1789107E-013  0.7246165E+02  0.7816164E-02  0.1226708E+00
        -11   -1    0    0    0    0  0.00000000000E+00  0.00000000000E+00  0.45593999997E+02  0.45594000000E+02  0.51100000000E-03 0.  1.
         11   -1    0    0    0    0 -0.00000000000E+00 -0.00000000000E+00 -0.45593999997E+02  0.45594000000E+02  0.51100000000E-03 0. -1.
    9900012    2    1    2    0    0 -0.11870297458E+02  0.57456154574E+01 -0.13295113787E+02  0.72461652002E+02  0.70000106439E+02 0.  0.
        -12    1    1    2    0    0  0.11870297458E+02 -0.57456154574E+01  0.13295113787E+02  0.18726347998E+02  0.00000000000E+00 0.  1.
         11    1    3    3    0    0  0.34786628367E+01  0.72880906817E+01 -0.17458306541E+02  0.19235639539E+02  0.51100000000E-03 0. -1.
        -11    1    3    3    0    0  0.16528197087E+02  0.27615758869E+00  0.11905765468E+02  0.20371666932E+02  0.51100000000E-03 0.  1.
         12    1    3    3    0    0 -0.31877157382E+02 -0.18186328129E+01 -0.77425727141E+01  0.32854345531E+02  0.00000000000E+00 0. -1.
</event>
<event>
 7    1  0.1789107E-013  0.7246157E+02  0.7816164E-02  0.1226708E+00
        -11   -1    0    0    0    0  0.00000000000E+00  0.00000000000E+00  0.45593999997E+02  0.45594000000E+02  0.51100000000E-03 0.  1.
         11   -1    0    0    0    0 -0.00000000000E+00 -0.00000000000E+00 -0.45593999997E+02  0.45594000000E+02  0.51100000000E-03 0. -1.
    9900012    2    1    2    0    0 -0.17493769891E+01 -0.98327938980E+01 -0.15840933517E+02  0.72461565999E+02  0.69999994405E+02 0.  0.
        -12    1    1    2    0    0  0.17493769891E+01  0.98327938980E+01  0.15840933517E+02  0.18726434001E+02  0.00000000000E+00 0.  1.
         11    1    3    3    0    0 -0.18833079014E+02 -0.15704219280E+00 -0.11050758203E+02  0.21836409607E+02  0.51100000000E-03 0. -1.
        -11    1    3    3    0    0 -0.73058768771E+01  0.41033108543E+01  0.14406379434E+02  0.16666036288E+02  0.51100000000E-03 0.  1.
         12    1    3    3    0    0  0.24389578902E+02 -0.13779062560E+02 -0.19196554748E+02  0.33959120104E+02  0.00000000000E+00 0. -1.
</event>
<event>
 7    1  0.1789107E-013  0.7246156E+02  0.7816164E-02  0.1226708E+00
        -11   -1    0    0    0    0  0.00000000000E+00  0.00000000000E+00  0.45593999997E+02  0.45594000000E+02  0.51100000000E-03 0.  1.
         11   -1    0    0    0    0 -0.00000000000E+00 -0.00000000000E+00 -0.45593999997E+02  0.45594000000E+02  0.51100000000E-03 0. -1.
    9900012    2    1    2    0    0  0.16009372629E+02 -0.25790796038E+01 -0.93663170247E+01  0.72461559917E+02  0.69999986481E+02 0.  0.
        -12    1    1    2    0    0 -0.16009372629E+02  0.25790796038E+01  0.93663170247E+01  0.18726440083E+02  0.00000000000E+00 0.  1.
         11    1    3    3    0    0 -0.72607855422E+01  0.65472325594E+01  0.49043758585E+00  0.97890648258E+01  0.51100000000E-03 0. -1.
        -11    1    3    3    0    0 -0.16435643941E+02 -0.27324624402E+01  0.82209135549E+01  0.18579024804E+02  0.51100000000E-03 0.  1.
         12    1    3    3    0    0  0.39705802112E+02 -0.63938497231E+01 -0.18077668165E+02  0.44093470287E+02  0.00000000000E+00 0. -1.
</event>
<event>
 7    1  0.1789107E-013  0.7246162E+02  0.7816164E-02  0.1226708E+00
        -11   -1    0    0    0    0  0.00000000000E+00  0.00000000000E+00  0.45593999997E+02  0.45594000000E+02  0.51100000000E-03 0.  1.
         11   -1    0    0    0    0 -0.00000000000E+00 -0.00000000000E+00 -0.45593999997E+02  0.45594000000E+02  0.51100000000E-03 0. -1.
    9900012    2    1    2    0    0 -0.97220266432E+00 -0.18237277271E+02 -0.41393270037E+01  0.72461615182E+02  0.70000058475E+02 0.  0.
        -12    1    1    2    0    0  0.97220266432E+00  0.18237277271E+02  0.41393270037E+01  0.18726384818E+02  0.00000000000E+00 0.  1.
         11    1    3    3    0    0  0.18058744296E+02 -0.11574650786E+02 -0.11498530566E+02  0.24337357946E+02  0.51100000000E-03 0. -1.
        -11    1    3    3    0    0  0.95748816532E+01 -0.14941371797E+02  0.36091744886E+01  0.18109364721E+02  0.51100000000E-03 0.  1.
        -12    1    3    3    0    0 -0.28605828613E+02  0.82787453121E+01  0.37500290738E+01  0.30014892515E+02  0.00000000000E+00 0.  1.
</event>
<event>
 7    1  0.1789107E-013  0.7246154E+02  0.7816164E-02  0.1226708E+00
        -11   -1    0    0    0    0  0.00000000000E+00  0.00000000000E+00  0.45593999997E+02  0.45594000000E+02  0.51100000000E-03 0.  1.
         11   -1    0    0    0    0 -0.00000000000E+00 -0.00000000000E+00 -0.45593999997E+02  0.45594000000E+02  0.51100000000E-03 0. -1.
    9900012    2    1    2    0    0 -0.17684026103E+02  0.57792528327E+01 -0.21344640641E+01  0.72461535321E+02  0.69999954441E+02 0.  0.
        -12    1    1    2    0    0  0.17684026103E+02 -0.57792528327E+01  0.21344640641E+01  0.18726464679E+02  0.00000000000E+00 0.  1.
         11    1    3    3    0    0  0.72329750162E+01 -0.10580056806E+02 -0.91642326428E+01  0.15755528865E+02  0.51100000000E-03 0. -1.
        -11    1    3    3    0    0  0.13378363497E+02  0.32281186098E+01 -0.47234322298E+01  0.14550332364E+02  0.51100000000E-03 0.  1.
         12    1    3    3    0    0 -0.38295364616E+02  0.13131191029E+02  0.11753200808E+02  0.42155674093E+02  0.00000000000E+00 0. -1.
</event>
<event>
 7    1  0.1789107E-013  0.7246157E+02  0.7816164E-02  0.1226708E+00
        -11   -1    0    0    0    0  0.00000000000E+00  0.00000000000E+00  0.45593999997E+02  0.45594000000E+02  0.51100000000E-03 0. -1.
         11   -1    0    0    0    0 -0.00000000000E+00 -0.00000000000E+00 -0.45593999997E+02  0.45594000000E+02  0.51100000000E-03 0.  1.
    9900012    2    1    2    0    0  0.91431111829E+01  0.16318142476E+01  0.16260992825E+02  0.72461569815E+02  0.69999999375E+02 0.  0.
        -12    1    1    2    0    0 -0.91431111829E+01 -0.16318142476E+01 -0.16260992825E+02  0.18726430185E+02  0.00000000000E+00 0.  1.
         11    1    3    3    0    0 -0.52464404542E+01 -0.18816209819E+00 -0.12464894046E+02  0.13525314276E+02  0.51100000000E-03 0. -1.
        -11    1    3    3    0    0  0.32831223784E+02  0.48157313636E+00  0.20417701932E+02  0.38665277967E+02  0.51100000000E-03 0.  1.
         12    1    3    3    0    0 -0.18441672147E+02  0.13384032094E+01  0.83081849388E+01  0.20270977572E+02  0.00000000000E+00 0. -1.
</event>
<event>
 7    1  0.1789107E-013  0.7246149E+02  0.7816164E-02  0.1226708E+00
        -11   -1    0    0    0    0  0.00000000000E+00  0.00000000000E+00  0.45593999997E+02  0.45594000000E+02  0.51100000000E-03 0. -1.
         11   -1    0    0    0    0 -0.00000000000E+00 -0.00000000000E+00 -0.45593999997E+02  0.45594000000E+02  0.51100000000E-03 0.  1.
    9900012    2    1    2    0    0 -0.11668406569E+02 -0.80661221226E+01  0.12225716325E+02  0.72461489978E+02  0.69999895373E+02 0.  0.
        -12    1    1    2    0    0  0.11668406569E+02  0.80661221226E+01 -0.12225716325E+02  0.18726510022E+02  0.00000000000E+00 0.  1.
         11    1    3    3    0    0 -0.23943790229E+02 -0.15975772915E+02  0.17150742144E+02  0.33506392929E+02  0.51100000000E-03 0. -1.
        -11    1    3    3    0    0  0.14156150898E+02 -0.15886531334E+01  0.12544797824E+02  0.18981369280E+02  0.51100000000E-03 0.  1.
        -12    1    3    3    0    0 -0.18807672377E+01  0.94983039258E+01 -0.17469823643E+02  0.19973727769E+02  0.00000000000E+00 0.  1.
</event>
<event>
 7    1  0.1789107E-013  0.7246137E+02  0.7816164E-02  0.1226709E+00
        -11   -1    0    0    0    0  0.00000000000E+00  0.00000000000E+00  0.45593999997E+02  0.45594000000E+02  0.51100000000E-03 0. -1.
         11   -1    0    0    0    0 -0.00000000000E+00 -0.00000000000E+00 -0.45593999997E+02  0.45594000000E+02  0.51100000000E-03 0.  1.
    9900012    2    1    2    0    0  0.54854093629E+01  0.11592084476E+01  0.17867653624E+02  0.72461373872E+02  0.69999744123E+02 0.  0.
        -12    1    1    2    0    0 -0.54854093629E+01 -0.11592084476E+01 -0.17867653624E+02  0.18726626128E+02  0.00000000000E+00 0.  1.
         11    1    3    3    0    0 -0.12527286245E+01 -0.99802549428E+00 -0.36170140253E+01  0.39557773716E+01  0.51100000000E-03 0. -1.
        -11    1    3    3    0    0  0.29181835773E+02 -0.17860328582E+02  0.16635514108E+02  0.38043543553E+02  0.51100000000E-03 0.  1.
         12    1    3    3    0    0 -0.22443697786E+02  0.20017562524E+02  0.48491535411E+01  0.30462052948E+02  0.00000000000E+00 0. -1.
</event>
<event>
 7    1  0.1789107E-013  0.7246139E+02  0.7816164E-02  0.1226708E+00
        -11   -1    0    0    0    0  0.00000000000E+00  0.00000000000E+00  0.45593999997E+02  0.45594000000E+02  0.51100000000E-03 0. -1.
         11   -1    0    0    0    0 -0.00000000000E+00 -0.00000000000E+00 -0.45593999997E+02  0.45594000000E+02  0.51100000000E-03 0.  1.
    9900012    2    1    2    0    0  0.94899230796E+01  0.34793201349E+01  0.15764566805E+02  0.72461391252E+02  0.69999766764E+02 0.  0.
        -12    1    1    2    0    0 -0.94899230796E+01 -0.34793201349E+01 -0.15764566805E+02  0.18726608748E+02  0.00000000000E+00 0.  1.
         11    1    3    3    0    0 -0.56659433192E+01  0.26927370371E+02  0.24244696563E+02  0.36674125763E+02  0.51100000000E-03 0. -1.
        -11    1    3    3    0    0  0.10866329998E+01  0.33307308880E+01 -0.38154557947E+01  0.51799848172E+01  0.51100000000E-03 0.  1.
         12    1    3    3    0    0  0.14069233399E+02 -0.26778781124E+02 -0.46646739635E+01  0.30607280672E+02  0.00000000000E+00 0. -1.
</event>
<event>
 7    1  0.1789107E-013  0.7246157E+02  0.7816164E-02  0.1226708E+00
        -11   -1    0    0    0    0  0.00000000000E+00  0.00000000000E+00  0.45593999997E+02  0.45594000000E+02  0.51100000000E-03 0.  1.
         11   -1    0    0    0    0 -0.00000000000E+00 -0.00000000000E+00 -0.45593999997E+02  0.45594000000E+02  0.51100000000E-03 0. -1.
    9900012    2    1    2    0    0  0.33843972000E+01  0.21682053512E+01 -0.18289992580E+02  0.72461572487E+02  0.70000002856E+02 0.  0.
        -12    1    1    2    0    0 -0.33843972000E+01 -0.21682053512E+01  0.18289992580E+02  0.18726427513E+02  0.00000000000E+00 0.  1.
         11    1    3    3    0    0  0.81719281171E+01 -0.93141240249E+01 -0.68767784644E+01  0.14171217231E+02  0.51100000000E-03 0. -1.
        -11    1    3    3    0    0 -0.14524434503E+02 -0.19697910690E+02 -0.57090392779E+01  0.25130857783E+02  0.51100000000E-03 0.  1.
         12    1    3    3    0    0  0.97369035863E+01  0.31180240066E+02 -0.57041748374E+01  0.33159497472E+02  0.00000000000E+00 0. -1.
</event>
<event>
 7    1  0.1789107E-013  0.7246152E+02  0.7816164E-02  0.1226708E+00
        -11   -1    0    0    0    0  0.00000000000E+00  0.00000000000E+00  0.45593999997E+02  0.45594000000E+02  0.51100000000E-03 0.  1.
         11   -1    0    0    0    0 -0.00000000000E+00 -0.00000000000E+00 -0.45593999997E+02  0.45594000000E+02  0.51100000000E-03 0. -1.
    9900012    2    1    2    0    0  0.14449577371E+02  0.92095066852E+01  0.75548412436E+01  0.72461523402E+02  0.69999938914E+02 0.  0.
        -12    1    1    2    0    0 -0.14449577371E+02 -0.92095066852E+01 -0.75548412436E+01  0.18726476598E+02  0.00000000000E+00 0.  1.
         11    1    3    3    0    0 -0.56653735595E+01  0.42280693020E+01  0.21683900650E+01  0.73942506940E+01  0.51100000000E-03 0. -1.
        -11    1    3    3    0    0 -0.67263378623E+01 -0.22528419106E+02 -0.72578172991E+01  0.24605877360E+02  0.51100000000E-03 0.  1.
         12    1    3    3    0    0  0.26841288792E+02  0.27509856490E+02  0.12644268478E+02  0.40461395347E+02  0.00000000000E+00 0. -1.
</event>
<event>
 7    1  0.2265874E-013  0.7246157E+02  0.7816164E-02  0.1226708E+00
        -11   -1    0    0    0    0  0.00000000000E+00  0.00000000000E+00  0.45593999997E+02  0.45594000000E+02  0.51100000000E-03 0. -1.
         11   -1    0    0    0    0 -0.00000000000E+00 -0.00000000000E+00 -0.45593999997E+02  0.45594000000E+02  0.51100000000E-03 0.  1.
    9900012    2    1    2    0    0  0.68188709712E+01  0.77506944595E+01  0.15623986804E+02  0.72461568691E+02  0.69999997911E+02 0.  0.
        -12    1    1    2    0    0 -0.68188709712E+01 -0.77506944595E+01 -0.15623986804E+02  0.18726431309E+02  0.00000000000E+00 0.  1.
         11    1    3    3    0    0 -0.57104248541E+01  0.10099444148E+02  0.31204661680E+02  0.33291720216E+02  0.51100000000E-03 0. -1.
        -11    1    3    3    0    0  0.16940694517E+02 -0.91586251579E+01  0.24350654649E+01  0.19411261927E+02  0.51100000000E-03 0.  1.
        -12    1    3    3    0    0 -0.44113986920E+01  0.68098754694E+01 -0.18015740341E+02  0.19758586547E+02  0.00000000000E+00 0.  1.
</event>
<event>
 7    1  0.1789107E-013  0.7246151E+02  0.7816164E-02  0.1226708E+00
        -11   -1    0    0    0    0  0.00000000000E+00  0.00000000000E+00  0.45593999997E+02  0.45594000000E+02  0.51100000000E-03 0. -1.
         11   -1    0    0    0    0 -0.00000000000E+00 -0.00000000000E+00 -0.45593999997E+02  0.45594000000E+02  0.51100000000E-03 0.  1.
    9900012    2    1    2    0    0  0.12001436934E+02  0.19208871247E+01  0.14246308752E+02  0.72461505163E+02  0.69999915154E+02 0.  0.
        -12    1    1    2    0    0 -0.12001436934E+02 -0.19208871247E+01 -0.14246308752E+02  0.18726494837E+02  0.00000000000E+00 0.  1.
         11    1    3    3    0    0  0.14446374071E+02 -0.11794573647E+02 -0.99566752983E+00  0.18676216035E+02  0.51100000000E-03 0. -1.
        -11    1    3    3    0    0  0.47587955908E+01 -0.15271756280E+02  0.17649267910E+02  0.23819515809E+02  0.51100000000E-03 0.  1.
        -12    1    3    3    0    0 -0.72037327275E+01  0.28987217052E+02 -0.24072916283E+01  0.29965773319E+02  0.00000000000E+00 0.  1.
</event>
<event>
 7    1  0.1789107E-013  0.7246159E+02  0.7816164E-02  0.1226708E+00
        -11   -1    0    0    0    0  0.00000000000E+00  0.00000000000E+00  0.45593999997E+02  0.45594000000E+02  0.51100000000E-03 0.  1.
         11   -1    0    0    0    0 -0.00000000000E+00 -0.00000000000E+00 -0.45593999997E+02  0.45594000000E+02  0.51100000000E-03 0. -1.
    9900012    2    1    2    0    0 -0.74697741757E+01 -0.80417766931E+01 -0.15172699214E+02  0.72461588169E+02  0.70000023286E+02 0.  0.
        -12    1    1    2    0    0  0.74697741757E+01  0.80417766931E+01  0.15172699214E+02  0.18726411831E+02  0.00000000000E+00 0.  1.
         11    1    3    3    0    0 -0.39152828455E+01  0.32451322312E+01  0.18053676501E+02  0.18756213861E+02  0.51100000000E-03 0. -1.
        -11    1    3    3    0    0 -0.15291779316E+02 -0.17082480899E+02 -0.63175750052E+01  0.23781535327E+02  0.51100000000E-03 0.  1.
         12    1    3    3    0    0  0.11737287986E+02  0.57955719745E+01 -0.26908800709E+02  0.29923838981E+02  0.00000000000E+00 0. -1.
</event>
<event>
 7    1  0.1789107E-013  0.7246159E+02  0.7816164E-02  0.1226708E+00
        -11   -1    0    0    0    0  0.00000000000E+00  0.00000000000E+00  0.45593999997E+02  0.45594000000E+02  0.51100000000E-03 0.  1.
         11   -1    0    0    0    0 -0.00000000000E+00 -0.00000000000E+00 -0.45593999997E+02  0.45594000000E+02  0.51100000000E-03 0. -1.
    9900012    2    1    2    0    0  0.17203215037E+02 -0.73710132955E+01 -0.62931856240E+00  0.72461588532E+02  0.70000023758E+02 0.  0.
        -12    1    1    2    0    0 -0.17203215037E+02  0.73710132955E+01  0.62931856240E+00  0.18726411468E+02  0.00000000000E+00 0.  1.
         11    1    3    3    0    0 -0.15091185022E+02  0.86689996472E+01 -0.14512265370E+01  0.17464291540E+02  0.51100000000E-03 0. -1.
        -11    1    3    3    0    0  0.16799015463E+02 -0.63362799748E+01  0.21092702492E+02  0.27699412685E+02  0.51100000000E-03 0.  1.
        -12    1    3    3    0    0  0.15495384597E+02 -0.97037329679E+01 -0.20270794517E+02  0.27297884307E+02  0.00000000000E+00 0.  1.
</event>
<event>
 7    1  0.1789107E-013  0.7246155E+02  0.7816164E-02  0.1226708E+00
        -11   -1    0    0    0    0  0.00000000000E+00  0.00000000000E+00  0.45593999997E+02  0.45594000000E+02  0.51100000000E-03 0. -1.
         11   -1    0    0    0    0 -0.00000000000E+00 -0.00000000000E+00 -0.45593999997E+02  0.45594000000E+02  0.51100000000E-03 0.  1.
    9900012    2    1    2    0    0 -0.15187619179E+02  0.51798103530E+01  0.96532823778E+01  0.72461546190E+02  0.69999968600E+02 0.  0.
        -12    1    1    2    0    0  0.15187619179E+02 -0.51798103530E+01 -0.96532823778E+01  0.18726453810E+02  0.00000000000E+00 0.  1.
         11    1    3    3    0    0  0.11035203405E+02 -0.29038365269E+01  0.18389791431E+01  0.11558106476E+02  0.51100000000E-03 0. -1.
        -11    1    3    3    0    0  0.86634359778E+01  0.14277987470E+02  0.17481066654E+02  0.24176512171E+02  0.51100000000E-03 0.  1.
        -12    1    3    3    0    0 -0.34886258562E+02 -0.61943405906E+01 -0.96667634187E+01  0.36726927543E+02  0.00000000000E+00 0.  1.
</event>
<event>
 7    1  0.1789107E-013  0.7246163E+02  0.7816164E-02  0.1226708E+00
        -11   -1    0    0    0    0  0.00000000000E+00  0.00000000000E+00  0.45593999997E+02  0.45594000000E+02  0.51100000000E-03 0.  1.
         11   -1    0    0    0    0 -0.00000000000E+00 -0.00000000000E+00 -0.45593999997E+02  0.45594000000E+02  0.51100000000E-03 0. -1.
    9900012    2    1    2    0    0 -0.56348727741E+01  0.11421165606E+02 -0.13728879608E+02  0.72461629549E+02  0.70000077190E+02 0.  0.
        -12    1    1    2    0    0  0.56348727741E+01 -0.11421165606E+02  0.13728879608E+02  0.18726370451E+02  0.00000000000E+00 0.  1.
         11    1    3    3    0    0  0.12748055664E+02  0.29347676150E+02  0.47720125516E+00  0.32000417809E+02  0.51100000000E-03 0. -1.
        -11    1    3    3    0    0 -0.30287497916E+00  0.38291988002E+01  0.49736932226E+01  0.62842757131E+01  0.51100000000E-03 0.  1.
        -12    1    3    3    0    0 -0.18080053459E+02 -0.21755709345E+02 -0.19179774086E+02  0.34176936027E+02  0.00000000000E+00 0.  1.
</event>
<event>
 7    1  0.1789107E-013  0.7246151E+02  0.7816164E-02  0.1226708E+00
        -11   -1    0    0    0    0  0.00000000000E+00  0.00000000000E+00  0.45593999997E+02  0.45594000000E+02  0.51100000000E-03 0.  1.
         11   -1    0    0    0    0 -0.00000000000E+00 -0.00000000000E+00 -0.45593999997E+02  0.45594000000E+02  0.51100000000E-03 0. -1.
    9900012    2    1    2    0    0  0.12880374060E+02 -0.63483096265E+01 -0.12019831331E+02  0.72461510306E+02  0.69999921854E+02 0.  0.
        -12    1    1    2    0    0 -0.12880374060E+02  0.63483096265E+01  0.12019831331E+02  0.18726489694E+02  0.00000000000E+00 0.  1.
         11    1    3    3    0    0  0.11900921721E+02 -0.76911874564E+01 -0.56732971393E+01  0.15263440077E+02  0.51100000000E-03 0. -1.
        -11    1    3    3    0    0  0.13172639403E+02  0.42145989833E+01  0.22125305076E+02  0.26092343674E+02  0.51100000000E-03 0.  1.
        -12    1    3    3    0    0 -0.12193187064E+02 -0.28717211534E+01 -0.28471839269E+02  0.31105726555E+02  0.00000000000E+00 0.  1.
</event>
<event>
 7    1  0.1789107E-013  0.7246158E+02  0.7816164E-02  0.1226708E+00
        -11   -1    0    0    0    0  0.00000000000E+00  0.00000000000E+00  0.45593999997E+02  0.45594000000E+02  0.51100000000E-03 0. -1.
         11   -1    0    0    0    0 -0.00000000000E+00 -0.00000000000E+00 -0.45593999997E+02  0.45594000000E+02  0.51100000000E-03 0.  1.
    9900012    2    1    2    0    0 -0.15731911462E+02  0.66579846860E+01  0.76718220434E+01  0.72461584118E+02  0.70000018008E+02 0.  0.
        -12    1    1    2    0    0  0.15731911462E+02 -0.66579846860E+01 -0.76718220434E+01  0.18726415882E+02  0.00000000000E+00 0.  1.
         11    1    3    3    0    0 -0.25176967026E+01  0.91512279592E+01  0.24461438835E+02  0.26238249941E+02  0.51100000000E-03 0. -1.
        -11    1    3    3    0    0 -0.92008880105E+01 -0.31089176239E+01  0.12961538764E+02  0.16196394549E+02  0.51100000000E-03 0.  1.
        -12    1    3    3    0    0 -0.40133267490E+01  0.61567435067E+00 -0.29751155556E+02  0.30026939628E+02  0.00000000000E+00 0.  1.
</event>
<event>
 7    1  0.1789107E-013  0.7246161E+02  0.7816164E-02  0.1226708E+00
        -11   -1    0    0    0    0  0.00000000000E+00  0.00000000000E+00  0.45593999997E+02  0.45594000000E+02  0.51100000000E-03 0.  1.
         11   -1    0    0    0    0 -0.00000000000E+00 -0.00000000000E+00 -0.45593999997E+02  0.45594000000E+02  0.51100000000E-03 0. -1.
    9900012    2    1    2    0    0 -0.12521803459E+02 -0.13495147887E+02 -0.34297516547E+01  0.72461607534E+02  0.70000048512E+02 0.  0.
        -12    1    1    2    0    0  0.12521803459E+02  0.13495147887E+02  0.34297516547E+01  0.18726392466E+02  0.00000000000E+00 0.  1.
         11    1    3    3    0    0  0.13029205592E+01  0.82626042972E+01  0.41441045300E+01  0.93349790773E+01  0.51100000000E-03 0. -1.
        -11    1    3    3    0    0 -0.27025525750E+02  0.77679333205E+01 -0.11827249740E+02  0.30505797266E+02  0.51100000000E-03 0.  1.
         12    1    3    3    0    0  0.13200801732E+02 -0.29525685505E+02  0.42533935549E+01  0.32620831191E+02  0.00000000000E+00 0. -1.
</event>
<event>
 7    1  0.1789107E-013  0.7246166E+02  0.7816164E-02  0.1226708E+00
        -11   -1    0    0    0    0  0.00000000000E+00  0.00000000000E+00  0.45593999997E+02  0.45594000000E+02  0.51100000000E-03 0.  1.
         11   -1    0    0    0    0 -0.00000000000E+00 -0.00000000000E+00 -0.45593999997E+02  0.45594000000E+02  0.51100000000E-03 0. -1.
    9900012    2    1    2    0    0  0.60893944340E+01 -0.19074502594E+01 -0.17605590828E+02  0.72461657071E+02  0.70000113043E+02 0.  0.
        -12    1    1    2    0    0 -0.60893944340E+01  0.19074502594E+01  0.17605590828E+02  0.18726342929E+02  0.00000000000E+00 0.  1.
         11    1    3    3    0    0  0.20146632986E+02  0.36534993132E+01  0.12430073174E+02  0.23952903733E+02  0.51100000000E-03 0. -1.
        -11    1    3    3    0    0 -0.10601947337E+02  0.92223131432E+01 -0.30218651540E+02  0.33325954573E+02  0.51100000000E-03 0.  1.
         12    1    3    3    0    0 -0.34552912151E+01 -0.14783262716E+02  0.18298753767E+00  0.15182798765E+02  0.00000000000E+00 0. -1.
</event>
<event>
 7    1  0.1789107E-013  0.7246157E+02  0.7816164E-02  0.1226708E+00
        -11   -1    0    0    0    0  0.00000000000E+00  0.00000000000E+00  0.45593999997E+02  0.45594000000E+02  0.51100000000E-03 0.  1.
         11   -1    0    0    0    0 -0.00000000000E+00 -0.00000000000E+00 -0.45593999997E+02  0.45594000000E+02  0.51100000000E-03 0. -1.
    9900012    2    1    2    0    0 -0.14115916657E+02  0.12205387145E+02  0.15647528131E+01  0.72461574025E+02  0.70000004860E+02 0.  0.
        -12    1    1    2    0    0  0.14115916657E+02 -0.12205387145E+02 -0.15647528131E+01  0.18726425975E+02  0.00000000000E+00 0.  1.
         11    1    3    3    0    0 -0.45920661102E+01 -0.79345581754E+01  0.19533701928E+01  0.93733633222E+01  0.51100000000E-03 0. -1.
        -11    1    3    3    0    0 -0.19811155497E+02 -0.96224452678E+01  0.16346182286E+02  0.27427559327E+02  0.51100000000E-03 0.  1.
         12    1    3    3    0    0  0.10287304950E+02  0.29762390588E+02 -0.16734799665E+02  0.35660651375E+02  0.00000000000E+00 0. -1.
</event>
<event>
 7    1  0.1789107E-013  0.7246161E+02  0.7816164E-02  0.1226708E+00
        -11   -1    0    0    0    0  0.00000000000E+00  0.00000000000E+00  0.45593999997E+02  0.45594000000E+02  0.51100000000E-03 0. -1.
         11   -1    0    0    0    0 -0.00000000000E+00 -0.00000000000E+00 -0.45593999997E+02  0.45594000000E+02  0.51100000000E-03 0.  1.
    9900012    2    1    2    0    0 -0.20168908238E+01  0.18212728332E+02  0.38608798398E+01  0.72461609130E+02  0.70000050590E+02 0.  0.
        -12    1    1    2    0    0  0.20168908238E+01 -0.18212728332E+02 -0.38608798398E+01  0.18726390870E+02  0.00000000000E+00 0.  1.
         11    1    3    3    0    0  0.12195280476E+02  0.29589038385E+02  0.11130107954E+02  0.33883851047E+02  0.51100000000E-03 0. -1.
        -11    1    3    3    0    0  0.73998229579E+01 -0.70070301618E+01 -0.12288511836E+02  0.15964440952E+02  0.51100000000E-03 0.  1.
        -12    1    3    3    0    0 -0.21611994258E+02 -0.43692798914E+01  0.50192837221E+01  0.22613317131E+02  0.00000000000E+00 0.  1.
</event>
<event>
 7    1  0.1789107E-013  0.7246155E+02  0.7816164E-02  0.1226708E+00
        -11   -1    0    0    0    0  0.00000000000E+00  0.00000000000E+00  0.45593999997E+02  0.45594000000E+02  0.51100000000E-03 0. -1.
         11   -1    0    0    0    0 -0.00000000000E+00 -0.00000000000E+00 -0.45593999997E+02  0.45594000000E+02  0.51100000000E-03 0.  1.
    9900012    2    1    2    0    0 -0.55788822380E+01 -0.25666013182E+01  0.17690912158E+02  0.72461555000E+02  0.69999980076E+02 0.  0.
        -12    1    1    2    0    0  0.55788822380E+01  0.25666013182E+01 -0.17690912158E+02  0.18726445000E+02  0.00000000000E+00 0.  1.
         11    1    3    3    0    0  0.62823015672E+01 -0.41832007810E+01 -0.61908402141E+01  0.97618125659E+01  0.51100000000E-03 0. -1.
        -11    1    3    3    0    0  0.14829059336E+02  0.18122981974E+02  0.25516322085E+00  0.23418125137E+02  0.51100000000E-03 0.  1.
         12    1    3    3    0    0 -0.26690243141E+02 -0.16506382511E+02  0.23626589152E+02  0.39281617297E+02  0.00000000000E+00 0. -1.
</event>
<event>
 7    1  0.1789107E-013  0.7246158E+02  0.7816164E-02  0.1226708E+00
        -11   -1    0    0    0    0  0.00000000000E+00  0.00000000000E+00  0.45593999997E+02  0.45594000000E+02  0.51100000000E-03 0.  1.
         11   -1    0    0    0    0 -0.00000000000E+00 -0.00000000000E+00 -0.45593999997E+02  0.45594000000E+02  0.51100000000E-03 0. -1.
    9900012    2    1    2    0    0 -0.48508294117E+01 -0.64001365458E+01 -0.16917051613E+02  0.72461576714E+02  0.70000008363E+02 0.  0.
        -12    1    1    2    0    0  0.48508294117E+01  0.64001365458E+01  0.16917051613E+02  0.18726423286E+02  0.00000000000E+00 0.  1.
         11    1    3    3    0    0 -0.43593092378E+01 -0.18741351152E+02 -0.18794118574E+02  0.26897225010E+02  0.51100000000E-03 0. -1.
        -11    1    3    3    0    0 -0.12470319219E+02 -0.51504032312E+01 -0.13721788254E+02  0.19243777904E+02  0.51100000000E-03 0.  1.
        -12    1    3    3    0    0  0.11978799045E+02  0.17491617837E+02  0.15598855215E+02  0.26320573800E+02  0.00000000000E+00 0.  1.
</event>
<event>
 7    1  0.1789107E-013  0.7246161E+02  0.7816164E-02  0.1226708E+00
        -11   -1    0    0    0    0  0.00000000000E+00  0.00000000000E+00  0.45593999997E+02  0.45594000000E+02  0.51100000000E-03 0.  1.
         11   -1    0    0    0    0 -0.00000000000E+00 -0.00000000000E+00 -0.45593999997E+02  0.45594000000E+02  0.51100000000E-03 0. -1.
    9900012    2    1    2    0    0 -0.24829992695E+01  0.36213001628E+01 -0.18204351294E+02  0.72461614703E+02  0.70000057851E+02 0.  0.
        -12    1    1    2    0    0  0.24829992695E+01 -0.36213001628E+01  0.18204351294E+02  0.18726385297E+02  0.00000000000E+00 0.  1.
         11    1    3    3    0    0 -0.78190437830E+01  0.19736903807E+02 -0.63634385588E+01  0.22162494628E+02  0.51100000000E-03 0. -1.
        -11    1    3    3    0    0  0.13322000520E+02 -0.49448591348E+01 -0.26589004677E+02  0.30148009879E+02  0.51100000000E-03 0.  1.
         12    1    3    3    0    0 -0.79859560060E+01 -0.11170744510E+02  0.14748091941E+02  0.20151110196E+02  0.00000000000E+00 0. -1.
</event>
<event>
 7    1  0.1789107E-013  0.7246152E+02  0.7816164E-02  0.1226708E+00
        -11   -1    0    0    0    0  0.00000000000E+00  0.00000000000E+00  0.45593999997E+02  0.45594000000E+02  0.51100000000E-03 0. -1.
         11   -1    0    0    0    0 -0.00000000000E+00 -0.00000000000E+00 -0.45593999997E+02  0.45594000000E+02  0.51100000000E-03 0.  1.
    9900012    2    1    2    0    0  0.16874927901E+02 -0.76099910826E+01 -0.28294899350E+01  0.72461516901E+02  0.69999930446E+02 0.  0.
        -12    1    1    2    0    0 -0.16874927901E+02  0.76099910826E+01  0.28294899350E+01  0.18726483099E+02  0.00000000000E+00 0.  1.
         11    1    3    3    0    0  0.24600205809E+01 -0.80702605669E+00  0.16310946849E+01  0.30599775239E+01  0.51100000000E-03 0. -1.
        -11    1    3    3    0    0 -0.17152417107E+02  0.73468656740E+01  0.19755297064E+02  0.27174502943E+02  0.51100000000E-03 0.  1.
        -12    1    3    3    0    0  0.31567324427E+02 -0.14149830700E+02 -0.24215881684E+02  0.42227036435E+02  0.00000000000E+00 0.  1.
</event>
<event>
 7    1  0.1789107E-013  0.7246120E+02  0.7816164E-02  0.1226709E+00
        -11   -1    0    0    0    0  0.00000000000E+00  0.00000000000E+00  0.45593999997E+02  0.45594000000E+02  0.51100000000E-03 0.  1.
         11   -1    0    0    0    0 -0.00000000000E+00 -0.00000000000E+00 -0.45593999997E+02  0.45594000000E+02  0.51100000000E-03 0. -1.
    9900012    2    1    2    0    0  0.11429320151E+02 -0.35964925187E+01 -0.14391980203E+02  0.72461195369E+02  0.69999511588E+02 0.  0.
        -12    1    1    2    0    0 -0.11429320151E+02  0.35964925187E+01  0.14391980203E+02  0.18726804631E+02  0.00000000000E+00 0.  1.
         11    1    3    3    0    0  0.10074977254E+02 -0.92101531299E+01 -0.17366975551E+02  0.22089452854E+02  0.51100000000E-03 0. -1.
        -11    1    3    3    0    0 -0.21755582052E+01 -0.17817474269E+02 -0.12675599253E+02  0.21974218064E+02  0.51100000000E-03 0.  1.
         12    1    3    3    0    0  0.35299011016E+01  0.23431134880E+02  0.15650594601E+02  0.28397524451E+02  0.00000000000E+00 0. -1.
</event>
<event>
 7    1  0.1789107E-013  0.7246160E+02  0.7816164E-02  0.1226708E+00
        -11   -1    0    0    0    0  0.00000000000E+00  0.00000000000E+00  0.45593999997E+02  0.45594000000E+02  0.51100000000E-03 0.  1.
         11   -1    0    0    0    0 -0.00000000000E+00 -0.00000000000E+00 -0.45593999997E+02  0.45594000000E+02  0.51100000000E-03 0. -1.
    9900012    2    1    2    0    0  0.21885109750E+01  0.15975951028E+02 -0.95214124811E+01  0.72461604533E+02  0.70000044603E+02 0.  0.
        -12    1    1    2    0    0 -0.21885109750E+01 -0.15975951028E+02  0.95214124811E+01  0.18726395467E+02  0.00000000000E+00 0.  1.
         11    1    3    3    0    0 -0.18555322712E+01  0.39303939031E+01 -0.21543054468E+02  0.21977128846E+02  0.51100000000E-03 0. -1.
        -11    1    3    3    0    0  0.20138636675E+02  0.19982628084E+02  0.15314191849E+02  0.32239643059E+02  0.51100000000E-03 0.  1.
         12    1    3    3    0    0 -0.16094593429E+02 -0.79370709593E+01 -0.32925498621E+01  0.18244832629E+02  0.00000000000E+00 0. -1.
</event>
<event>
 7    1  0.1816608E-013  0.7246160E+02  0.7816164E-02  0.1226708E+00
        -11   -1    0    0    0    0  0.00000000000E+00  0.00000000000E+00  0.45593999997E+02  0.45594000000E+02  0.51100000000E-03 0. -1.
         11   -1    0    0    0    0 -0.00000000000E+00 -0.00000000000E+00 -0.45593999997E+02  0.45594000000E+02  0.51100000000E-03 0.  1.
    9900012    2    1    2    0    0  0.10352805119E+02 -0.13448557859E+02  0.79141600713E+01  0.72461595862E+02  0.70000033306E+02 0.  0.
        -12    1    1    2    0    0 -0.10352805119E+02  0.13448557859E+02 -0.79141600713E+01  0.18726404138E+02  0.00000000000E+00 0.  1.
         11    1    3    3    0    0  0.23192920732E+02 -0.21400280847E+01  0.15901099922E+02  0.28201706886E+02  0.51100000000E-03 0. -1.
        -11    1    3    3    0    0  0.12559437695E+02  0.19554720427E+01 -0.90215031897E+01  0.15586881220E+02  0.51100000000E-03 0.  1.
        -12    1    3    3    0    0 -0.25399553308E+02 -0.13264001817E+02  0.10345633390E+01  0.28673007755E+02  0.00000000000E+00 0.  1.
</event>
<event>
 7    1  0.1789107E-013  0.7246159E+02  0.7816164E-02  0.1226708E+00
        -11   -1    0    0    0    0  0.00000000000E+00  0.00000000000E+00  0.45593999997E+02  0.45594000000E+02  0.51100000000E-03 0.  1.
         11   -1    0    0    0    0 -0.00000000000E+00 -0.00000000000E+00 -0.45593999997E+02  0.45594000000E+02  0.51100000000E-03 0. -1.
    9900012    2    1    2    0    0 -0.18306639708E+02 -0.37467090575E+01 -0.12277546056E+01  0.72461594378E+02  0.70000031374E+02 0.  0.
        -12    1    1    2    0    0  0.18306639708E+02  0.37467090575E+01  0.12277546056E+01  0.18726405622E+02  0.00000000000E+00 0.  1.
         11    1    3    3    0    0 -0.33885457223E+01  0.27561093438E+01 -0.11860429172E+02  0.12639151919E+02  0.51100000000E-03 0. -1.
        -11    1    3    3    0    0  0.19840262823E+02  0.18788687816E+01 -0.53851528160E+01  0.20643789572E+02  0.51100000000E-03 0.  1.
         12    1    3    3    0    0 -0.34758356808E+02 -0.83816871829E+01  0.16017827382E+02  0.39178652887E+02  0.00000000000E+00 0. -1.
</event>
<event>
 7    1  0.1789107E-013  0.7246158E+02  0.7816164E-02  0.1226708E+00
        -11   -1    0    0    0    0  0.00000000000E+00  0.00000000000E+00  0.45593999997E+02  0.45594000000E+02  0.51100000000E-03 0.  1.
         11   -1    0    0    0    0 -0.00000000000E+00 -0.00000000000E+00 -0.45593999997E+02  0.45594000000E+02  0.51100000000E-03 0. -1.
    9900012    2    1    2    0    0  0.13554850332E+02  0.89953584155E+00 -0.12889365575E+02  0.72461578100E+02  0.70000010168E+02 0.  0.
        -12    1    1    2    0    0 -0.13554850332E+02 -0.89953584155E+00  0.12889365575E+02  0.18726421900E+02  0.00000000000E+00 0.  1.
         11    1    3    3    0    0 -0.23318897496E+01  0.22832436104E+01 -0.23060009006E+02  0.23289803065E+02  0.51100000000E-03 0. -1.
        -11    1    3    3    0    0 -0.11667882764E+02 -0.13427681498E+02  0.13840812803E+01  0.17842583890E+02  0.51100000000E-03 0.  1.
        -12    1    3    3    0    0  0.27554622846E+02  0.12043973729E+02  0.87865621505E+01  0.31329191145E+02  0.00000000000E+00 0.  1.
</event>
<event>
 7    1  0.1789107E-013  0.7246158E+02  0.7816164E-02  0.1226708E+00
        -11   -1    0    0    0    0  0.00000000000E+00  0.00000000000E+00  0.45593999997E+02  0.45594000000E+02  0.51100000000E-03 0. -1.
         11   -1    0    0    0    0 -0.00000000000E+00 -0.00000000000E+00 -0.45593999997E+02  0.45594000000E+02  0.51100000000E-03 0.  1.
    9900012    2    1    2    0    0 -0.67562978006E+01  0.64133767559E+01  0.16244992306E+02  0.72461581858E+02  0.70000015064E+02 0.  0.
        -12    1    1    2    0    0  0.67562978006E+01 -0.64133767559E+01 -0.16244992306E+02  0.18726418142E+02  0.00000000000E+00 0.  1.
         11    1    3    3    0    0  0.12945643140E+02 -0.13373249792E+02  0.92891855016E+01  0.20801981969E+02  0.51100000000E-03 0. -1.
        -11    1    3    3    0    0 -0.10539951957E+02 -0.11163864824E+02  0.11337271435E+02  0.19085496822E+02  0.51100000000E-03 0.  1.
        -12    1    3    3    0    0 -0.91619889836E+01  0.30950491372E+02 -0.43814646308E+01  0.32574103067E+02  0.00000000000E+00 0.  1.
</event>
<event>
 7    1  0.1789107E-013  0.7246146E+02  0.7816164E-02  0.1226708E+00
        -11   -1    0    0    0    0  0.00000000000E+00  0.00000000000E+00  0.45593999997E+02  0.45594000000E+02  0.51100000000E-03 0.  1.
         11   -1    0    0    0    0 -0.00000000000E+00 -0.00000000000E+00 -0.45593999997E+02  0.45594000000E+02  0.51100000000E-03 0. -1.
    9900012    2    1    2    0    0 -0.11580951912E+02 -0.77938681419E+01 -0.12482811898E+02  0.72461456787E+02  0.69999852136E+02 0.  0.
        -12    1    1    2    0    0  0.11580951912E+02  0.77938681419E+01  0.12482811898E+02  0.18726543213E+02  0.00000000000E+00 0.  1.
         11    1    3    3    0    0 -0.11098904564E+02  0.74484647046E+01 -0.13608241064E+02  0.19074840343E+02  0.51100000000E-03 0. -1.
        -11    1    3    3    0    0 -0.22380366084E+02 -0.18383525161E+02 -0.70388632871E+01  0.29805710528E+02  0.51100000000E-03 0.  1.
        -12    1    3    3    0    0  0.21898318736E+02  0.31411923149E+01  0.81642924527E+01  0.23580905917E+02  0.00000000000E+00 0.  1.
</event>
<event>
 7    1  0.1789107E-013  0.7246157E+02  0.7816164E-02  0.1226708E+00
        -11   -1    0    0    0    0  0.00000000000E+00  0.00000000000E+00  0.45593999997E+02  0.45594000000E+02  0.51100000000E-03 0.  1.
         11   -1    0    0    0    0 -0.00000000000E+00 -0.00000000000E+00 -0.45593999997E+02  0.45594000000E+02  0.51100000000E-03 0. -1.
    9900012    2    1    2    0    0  0.12442716908E+02 -0.13115980993E+02 -0.48814926020E+01  0.72461571310E+02  0.70000001323E+02 0.  0.
        -12    1    1    2    0    0 -0.12442716908E+02  0.13115980993E+02  0.48814926020E+01  0.18726428690E+02  0.00000000000E+00 0.  1.
         11    1    3    3    0    0 -0.13639421797E+02 -0.15313402653E+02 -0.13067840799E+02  0.24316714235E+02  0.51100000000E-03 0. -1.
        -11    1    3    3    0    0  0.44158211206E+01 -0.16633769690E+02 -0.27456423468E+01  0.17427573624E+02  0.51100000000E-03 0.  1.
        -12    1    3    3    0    0  0.21666317585E+02  0.18831191350E+02  0.10931990544E+02  0.30717283450E+02  0.00000000000E+00 0.  1.
</event>
<event>
 7    1  0.2262899E-013  0.7246146E+02  0.7816164E-02  0.1226708E+00
        -11   -1    0    0    0    0  0.00000000000E+00  0.00000000000E+00  0.45593999997E+02  0.45594000000E+02  0.51100000000E-03 0. -1.
         11   -1    0    0    0    0 -0.00000000000E+00 -0.00000000000E+00 -0.45593999997E+02  0.45594000000E+02  0.51100000000E-03 0.  1.
    9900012    2    1    2    0    0  0.98305805046E+00 -0.61484584927E+01  0.17661068117E+02  0.72461460757E+02  0.69999857308E+02 0.  0.
        -12    1    1    2    0    0 -0.98305805046E+00  0.61484584927E+01 -0.17661068117E+02  0.18726539243E+02  0.00000000000E+00 0.  1.
         11    1    3    3    0    0  0.30733584463E+01 -0.88929148941E+01  0.31263700808E+02  0.32648866074E+02  0.51100000000E-03 0. -1.
        -11    1    3    3    0    0 -0.11914882758E+02 -0.70322017232E+01  0.65869460217E+01  0.15323320475E+02  0.51100000000E-03 0.  1.
        -12    1    3    3    0    0  0.98245823626E+01  0.97766581246E+01 -0.20189578712E+02  0.24489274209E+02  0.00000000000E+00 0.  1.
</event>
<event>
 7    1  0.1789107E-013  0.7246161E+02  0.7816164E-02  0.1226708E+00
        -11   -1    0    0    0    0  0.00000000000E+00  0.00000000000E+00  0.45593999997E+02  0.45594000000E+02  0.51100000000E-03 0. -1.
         11   -1    0    0    0    0 -0.00000000000E+00 -0.00000000000E+00 -0.45593999997E+02  0.45594000000E+02  0.51100000000E-03 0.  1.
    9900012    2    1    2    0    0 -0.13205267887E+01  0.18453495471E+02  0.28986630352E+01  0.72461613976E+02  0.70000056904E+02 0.  0.
        -12    1    1    2    0    0  0.13205267887E+01 -0.18453495471E+02 -0.28986630352E+01  0.18726386024E+02  0.00000000000E+00 0.  1.
         11    1    3    3    0    0  0.14183521672E+02 -0.28505885734E+01 -0.75944248844E+01  0.16339321645E+02  0.51100000000E-03 0. -1.
        -11    1    3    3    0    0 -0.12729176690E+01  0.35061625781E+02  0.92803631564E+01  0.36291363468E+02  0.51100000000E-03 0.  1.
        -12    1    3    3    0    0 -0.14231130792E+02 -0.13757541736E+02  0.12127247632E+01  0.19830928863E+02  0.00000000000E+00 0.  1.
</event>
<event>
 7    1  0.1789107E-013  0.7246140E+02  0.7816164E-02  0.1226708E+00
        -11   -1    0    0    0    0  0.00000000000E+00  0.00000000000E+00  0.45593999997E+02  0.45594000000E+02  0.51100000000E-03 0.  1.
         11   -1    0    0    0    0 -0.00000000000E+00 -0.00000000000E+00 -0.45593999997E+02  0.45594000000E+02  0.51100000000E-03 0. -1.
    9900012    2    1    2    0    0 -0.70931035979E+01 -0.17042806477E+02  0.31490229070E+01  0.72461395488E+02  0.69999772282E+02 0.  0.
        -12    1    1    2    0    0  0.70931035979E+01  0.17042806477E+02 -0.31490229070E+01  0.18726604512E+02  0.00000000000E+00 0.  1.
         11    1    3    3    0    0  0.14197455668E+02 -0.75018904296E+00  0.86053990982E+01  0.16618767251E+02  0.51100000000E-03 0. -1.
        -11    1    3    3    0    0 -0.13144538884E+02 -0.25515398679E+02  0.14684319160E+02  0.32240404800E+02  0.51100000000E-03 0.  1.
         12    1    3    3    0    0 -0.81460203817E+01  0.92227812453E+01 -0.20140695351E+02  0.23602223437E+02  0.00000000000E+00 0. -1.
</event>
<event>
 7    1  0.1789107E-013  0.7246160E+02  0.7816164E-02  0.1226708E+00
        -11   -1    0    0    0    0  0.00000000000E+00  0.00000000000E+00  0.45593999997E+02  0.45594000000E+02  0.51100000000E-03 0.  1.
         11   -1    0    0    0    0 -0.00000000000E+00 -0.00000000000E+00 -0.45593999997E+02  0.45594000000E+02  0.51100000000E-03 0. -1.
    9900012    2    1    2    0    0 -0.12701524311E+02 -0.74142120106E+01 -0.11592185844E+02  0.72461600661E+02  0.70000039559E+02 0.  0.
        -12    1    1    2    0    0  0.12701524311E+02  0.74142120106E+01  0.11592185844E+02  0.18726399339E+02  0.00000000000E+00 0.  1.
         11    1    3    3    0    0  0.47770055304E+01 -0.46470371745E+00  0.26911647566E+01  0.55025538972E+01  0.51100000000E-03 0. -1.
        -11    1    3    3    0    0 -0.35292987291E+02  0.49612531842E+01  0.74797209109E+01  0.36416414022E+02  0.51100000000E-03 0.  1.
         12    1    3    3    0    0  0.17814457450E+02 -0.11910761477E+02 -0.21763071511E+02  0.30542632742E+02  0.00000000000E+00 0. -1.
</event>
<event>
 7    1  0.1789107E-013  0.7246159E+02  0.7816164E-02  0.1226708E+00
        -11   -1    0    0    0    0  0.00000000000E+00  0.00000000000E+00  0.45593999997E+02  0.45594000000E+02  0.51100000000E-03 0. -1.
         11   -1    0    0    0    0 -0.00000000000E+00 -0.00000000000E+00 -0.45593999997E+02  0.45594000000E+02  0.51100000000E-03 0.  1.
    9900012    2    1    2    0    0  0.11725003798E+02 -0.52937511096E+01  0.13608048558E+02  0.72461588159E+02  0.70000023272E+02 0.  0.
        -12    1    1    2    0    0 -0.11725003798E+02  0.52937511096E+01 -0.13608048558E+02  0.18726411841E+02  0.00000000000E+00 0.  1.
         11    1    3    3    0    0  0.39449229389E+00  0.26636321791E+02  0.20309220225E+02  0.33497965447E+02  0.51100000000E-03 0. -1.
        -11    1    3    3    0    0 -0.30826128414E+01 -0.50125509558E+00  0.14444453583E+01  0.34409564448E+01  0.51100000000E-03 0.  1.
        -12    1    3    3    0    0  0.14413124345E+02 -0.31428817805E+02 -0.81456170244E+01  0.35522666267E+02  0.00000000000E+00 0.  1.
</event>
<event>
 7    1  0.1789107E-013  0.7246157E+02  0.7816164E-02  0.1226708E+00
        -11   -1    0    0    0    0  0.00000000000E+00  0.00000000000E+00  0.45593999997E+02  0.45594000000E+02  0.51100000000E-03 0.  1.
         11   -1    0    0    0    0 -0.00000000000E+00 -0.00000000000E+00 -0.45593999997E+02  0.45594000000E+02  0.51100000000E-03 0. -1.
    9900012    2    1    2    0    0  0.10920296612E+02  0.14144000357E+02 -0.56011965398E+01  0.72461574103E+02  0.70000004962E+02 0.  0.
        -12    1    1    2    0    0 -0.10920296612E+02 -0.14144000357E+02  0.56011965398E+01  0.18726425897E+02  0.00000000000E+00 0.  1.
         11    1    3    3    0    0 -0.73325339360E+01  0.37950279198E+01 -0.22120551321E+02  0.23611164347E+02  0.51100000000E-03 0. -1.
        -11    1    3    3    0    0  0.16198307387E+02 -0.11994367707E+02 -0.13003173692E+01  0.20197545505E+02  0.51100000000E-03 0.  1.
        -12    1    3    3    0    0  0.20545231604E+01  0.22343340145E+02  0.17819672150E+02  0.28652864251E+02  0.00000000000E+00 0.  1.
</event>
<event>
 7    1  0.1789107E-013  0.7246157E+02  0.7816164E-02  0.1226708E+00
        -11   -1    0    0    0    0  0.00000000000E+00  0.00000000000E+00  0.45593999997E+02  0.45594000000E+02  0.51100000000E-03 0.  1.
         11   -1    0    0    0    0 -0.00000000000E+00 -0.00000000000E+00 -0.45593999997E+02  0.45594000000E+02  0.51100000000E-03 0. -1.
    9900012    2    1    2    0    0 -0.16421104128E+02 -0.89833419774E+01 -0.57091873457E+00  0.72461573697E+02  0.70000004433E+02 0.  0.
        -12    1    1    2    0    0  0.16421104128E+02  0.89833419774E+01  0.57091873457E+00  0.18726426303E+02  0.00000000000E+00 0.  1.
         11    1    3    3    0    0 -0.15989287138E+00 -0.11036803939E+01 -0.24875574866E+01  0.27260995309E+01  0.51100000000E-03 0. -1.
        -11    1    3    3    0    0 -0.25132730652E+02  0.77464724020E+01  0.27772527373E+02  0.38248859612E+02  0.51100000000E-03 0.  1.
         12    1    3    3    0    0  0.88715193956E+01 -0.15626133986E+02 -0.25855888621E+02  0.31486614554E+02  0.00000000000E+00 0. -1.
</event>
<event>
 7    1  0.1789107E-013  0.7246185E+02  0.7816164E-02  0.1226707E+00
        -11   -1    0    0    0    0  0.00000000000E+00  0.00000000000E+00  0.45593999997E+02  0.45594000000E+02  0.51100000000E-03 0.  1.
         11   -1    0    0    0    0 -0.00000000000E+00 -0.00000000000E+00 -0.45593999997E+02  0.45594000000E+02  0.51100000000E-03 0. -1.
    9900012    2    1    2    0    0 -0.16360556218E+02 -0.60525635282E-01 -0.91102825290E+01  0.72461849544E+02  0.70000363774E+02 0.  0.
        -12    1    1    2    0    0  0.16360556218E+02  0.60525635282E-01  0.91102825290E+01  0.18726150456E+02  0.00000000000E+00 0.  1.
         11    1    3    3    0    0  0.13447791715E+02 -0.55342726997E+01 -0.17929154727E+02  0.23085187152E+02  0.51100000000E-03 0. -1.
        -11    1    3    3    0    0 -0.12024272902E+02 -0.15252980549E+02 -0.29369002436E+01  0.19643368798E+02  0.51100000000E-03 0.  1.
        -12    1    3    3    0    0 -0.17784075032E+02  0.20726727613E+02  0.11755772442E+02  0.29733293595E+02  0.00000000000E+00 0.  1.
</event>
<event>
 7    1  0.1789107E-013  0.7246156E+02  0.7816164E-02  0.1226708E+00
        -11   -1    0    0    0    0  0.00000000000E+00  0.00000000000E+00  0.45593999997E+02  0.45594000000E+02  0.51100000000E-03 0. -1.
         11   -1    0    0    0    0 -0.00000000000E+00 -0.00000000000E+00 -0.45593999997E+02  0.45594000000E+02  0.51100000000E-03 0.  1.
    9900012    2    1    2    0    0  0.35500002015E+01 -0.27327483421E+01  0.18182655971E+02  0.72461564325E+02  0.69999992223E+02 0.  0.
        -12    1    1    2    0    0 -0.35500002015E+01  0.27327483421E+01 -0.18182655971E+02  0.18726435675E+02  0.00000000000E+00 0.  1.
         11    1    3    3    0    0  0.52511708463E+01  0.13752321979E+02  0.34664178996E+02  0.37660409727E+02  0.51100000000E-03 0. -1.
        -11    1    3    3    0    0  0.94202691685E+01 -0.42113945160E+01  0.14162335408E+01  0.10415518839E+02  0.51100000000E-03 0.  1.
        -12    1    3    3    0    0 -0.11121439813E+02 -0.12273675805E+02 -0.17897756566E+02  0.24385635759E+02  0.00000000000E+00 0.  1.
</event>
<event>
 7    1  0.1789107E-013  0.7246156E+02  0.7816164E-02  0.1226708E+00
        -11   -1    0    0    0    0  0.00000000000E+00  0.00000000000E+00  0.45593999997E+02  0.45594000000E+02  0.51100000000E-03 0.  1.
         11   -1    0    0    0    0 -0.00000000000E+00 -0.00000000000E+00 -0.45593999997E+02  0.45594000000E+02  0.51100000000E-03 0. -1.
    9900012    2    1    2    0    0  0.78628609047E+01  0.16990851242E+02 -0.40745830473E+00  0.72461558005E+02  0.69999983991E+02 0.  0.
        -12    1    1    2    0    0 -0.78628609047E+01 -0.16990851242E+02  0.40745830473E+00  0.18726441995E+02  0.00000000000E+00 0.  1.
         11    1    3    3    0    0  0.36874304213E+02 -0.26028589895E+01 -0.31906647319E+01  0.37103497515E+02  0.51100000000E-03 0.  1.
        -11    1    3    3    0    0 -0.90927618533E+01  0.65020859485E+01 -0.10037559960E+01  0.11223322421E+02  0.51100000000E-03 0. -1.
        -12    1    3    3    0    0 -0.19918681455E+02  0.13091624283E+02  0.37869624232E+01  0.24134738069E+02  0.00000000000E+00 0.  1.
</event>
<event>
 7    1  0.1789107E-013  0.7246157E+02  0.7816164E-02  0.1226708E+00
        -11   -1    0    0    0    0  0.00000000000E+00  0.00000000000E+00  0.45593999997E+02  0.45594000000E+02  0.51100000000E-03 0. -1.
         11   -1    0    0    0    0 -0.00000000000E+00 -0.00000000000E+00 -0.45593999997E+02  0.45594000000E+02  0.51100000000E-03 0.  1.
    9900012    2    1    2    0    0  0.34738513359E+01  0.90206400686E+01  0.16038692541E+02  0.72461568178E+02  0.69999997243E+02 0.  0.
        -12    1    1    2    0    0 -0.34738513359E+01 -0.90206400686E+01 -0.16038692541E+02  0.18726431822E+02  0.00000000000E+00 0.  1.
         11    1    3    3    0    0 -0.31775582277E+01  0.12970528151E+02 -0.16558977514E+02  0.21272781044E+02  0.51100000000E-03 0. -1.
        -11    1    3    3    0    0 -0.15675153221E+02  0.32426659661E+01  0.13578155251E+02  0.20990274209E+02  0.51100000000E-03 0.  1.
         12    1    3    3    0    0  0.22326562785E+02 -0.71925540482E+01  0.19019514804E+02  0.30198512925E+02  0.00000000000E+00 0. -1.
</event>
<event>
 7    1  0.1789107E-013  0.7246153E+02  0.7816164E-02  0.1226708E+00
        -11   -1    0    0    0    0  0.00000000000E+00  0.00000000000E+00  0.45593999997E+02  0.45594000000E+02  0.51100000000E-03 0.  1.
         11   -1    0    0    0    0 -0.00000000000E+00 -0.00000000000E+00 -0.45593999997E+02  0.45594000000E+02  0.51100000000E-03 0. -1.
    9900012    2    1    2    0    0  0.57647579904E+01  0.85711827728E+01 -0.15619959260E+02  0.72461528466E+02  0.69999945511E+02 0.  0.
        -12    1    1    2    0    0 -0.57647579904E+01 -0.85711827728E+01  0.15619959260E+02  0.18726471534E+02  0.00000000000E+00 0.  1.
         11    1    3    3    0    0 -0.25745817948E+02  0.15212738569E+02 -0.15791944820E+02  0.33818043676E+02  0.51100000000E-03 0.  1.
        -11    1    3    3    0    0  0.47494400900E+01 -0.10555272703E+02  0.65856776543E+00  0.11593303014E+02  0.51100000000E-03 0. -1.
        -12    1    3    3    0    0  0.26761135848E+02  0.39137169069E+01 -0.48658220510E+00  0.27050181777E+02  0.00000000000E+00 0.  1.
</event>
<event>
 7    1  0.1789107E-013  0.7246147E+02  0.7816164E-02  0.1226708E+00
        -11   -1    0    0    0    0  0.00000000000E+00  0.00000000000E+00  0.45593999997E+02  0.45594000000E+02  0.51100000000E-03 0.  1.
         11   -1    0    0    0    0 -0.00000000000E+00 -0.00000000000E+00 -0.45593999997E+02  0.45594000000E+02  0.51100000000E-03 0. -1.
    9900012    2    1    2    0    0  0.16627232970E+02  0.84912925937E+01 -0.14546304399E+01  0.72461471334E+02  0.69999871086E+02 0.  0.
        -12    1    1    2    0    0 -0.16627232970E+02 -0.84912925937E+01  0.14546304399E+01  0.18726528666E+02  0.00000000000E+00 0.  1.
         11    1    3    3    0    0  0.15623179875E+02 -0.18790598933E+02  0.66278778796E+01  0.25319935291E+02  0.51100000000E-03 0. -1.
        -11    1    3    3    0    0  0.17794218958E+02  0.20677372302E+02  0.21952694441E+00  0.27280691816E+02  0.51100000000E-03 0.  1.
        -12    1    3    3    0    0 -0.16790165863E+02  0.66045192249E+01 -0.83020352639E+01  0.19860844227E+02  0.00000000000E+00 0.  1.
</event>
<event>
 7    1  0.1789107E-013  0.7246156E+02  0.7816164E-02  0.1226708E+00
        -11   -1    0    0    0    0  0.00000000000E+00  0.00000000000E+00  0.45593999997E+02  0.45594000000E+02  0.51100000000E-03 0. -1.
         11   -1    0    0    0    0 -0.00000000000E+00 -0.00000000000E+00 -0.45593999997E+02  0.45594000000E+02  0.51100000000E-03 0.  1.
    9900012    2    1    2    0    0  0.12997266646E+02  0.75792602095E+01  0.11149235906E+02  0.72461559151E+02  0.69999985484E+02 0.  0.
        -12    1    1    2    0    0 -0.12997266646E+02 -0.75792602095E+01 -0.11149235906E+02  0.18726440849E+02  0.00000000000E+00 0.  1.
         11    1    3    3    0    0 -0.87942668014E+01 -0.19946481881E+02  0.51237343232E+01  0.22393166853E+02  0.51100000000E-03 0. -1.
        -11    1    3    3    0    0 -0.52828429323E+01  0.11385949753E+02  0.12692761189E+02  0.17850895442E+02  0.51100000000E-03 0.  1.
        -12    1    3    3    0    0  0.27074376379E+02  0.16139792338E+02 -0.66672596063E+01  0.32217496857E+02  0.00000000000E+00 0.  1.
</event>
<event>
 7    1  0.1789107E-013  0.7246157E+02  0.7816164E-02  0.1226708E+00
        -11   -1    0    0    0    0  0.00000000000E+00  0.00000000000E+00  0.45593999997E+02  0.45594000000E+02  0.51100000000E-03 0.  1.
         11   -1    0    0    0    0 -0.00000000000E+00 -0.00000000000E+00 -0.45593999997E+02  0.45594000000E+02  0.51100000000E-03 0. -1.
    9900012    2    1    2    0    0 -0.35192089872E+01  0.13743970430E+02  0.12222834790E+02  0.72461568270E+02  0.69999997362E+02 0.  0.
        -12    1    1    2    0    0  0.35192089872E+01 -0.13743970430E+02 -0.12222834790E+02  0.18726431730E+02  0.00000000000E+00 0.  1.
         11    1    3    3    0    0  0.10162952055E+02 -0.10204995983E+02 -0.91466433366E+01  0.17061319470E+02  0.51100000000E-03 0. -1.
        -11    1    3    3    0    0  0.12036677515E+02  0.12937438533E+01 -0.40095354174E+01  0.12752715526E+02  0.51100000000E-03 0.  1.
         12    1    3    3    0    0 -0.25718838557E+02  0.22655222559E+02  0.25379013544E+02  0.42647533274E+02  0.00000000000E+00 0. -1.
</event>
<event>
 7    1  0.1789107E-013  0.7246156E+02  0.7816164E-02  0.1226708E+00
        -11   -1    0    0    0    0  0.00000000000E+00  0.00000000000E+00  0.45593999997E+02  0.45594000000E+02  0.51100000000E-03 0.  1.
         11   -1    0    0    0    0 -0.00000000000E+00 -0.00000000000E+00 -0.45593999997E+02  0.45594000000E+02  0.51100000000E-03 0. -1.
    9900012    2    1    2    0    0 -0.14888419450E+02  0.53083266042E+01 -0.10041713464E+02  0.72461564826E+02  0.69999992876E+02 0.  0.
        -12    1    1    2    0    0  0.14888419450E+02 -0.53083266042E+01  0.10041713464E+02  0.18726435174E+02  0.00000000000E+00 0.  1.
         11    1    3    3    0    0 -0.11983056710E+02 -0.17002193277E+02 -0.20509673820E+02  0.29211554988E+02  0.51100000000E-03 0. -1.
        -11    1    3    3    0    0 -0.80716986362E+01 -0.14135835756E+00 -0.97077557510E+01  0.12625879100E+02  0.51100000000E-03 0.  1.
        -12    1    3    3    0    0  0.51663358964E+01  0.22451878239E+02  0.20175716107E+02  0.30624130738E+02  0.00000000000E+00 0.  1.
</event>
<event>
 7    1  0.1789107E-013  0.7246158E+02  0.7816164E-02  0.1226708E+00
        -11   -1    0    0    0    0  0.00000000000E+00  0.00000000000E+00  0.45593999997E+02  0.45594000000E+02  0.51100000000E-03 0. -1.
         11   -1    0    0    0    0 -0.00000000000E+00 -0.00000000000E+00 -0.45593999997E+02  0.45594000000E+02  0.51100000000E-03 0.  1.
    9900012    2    1    2    0    0 -0.47854804690E+01  0.10394173530E+01  0.18074774335E+02  0.72461583391E+02  0.70000017061E+02 0.  0.
        -12    1    1    2    0    0  0.47854804690E+01 -0.10394173530E+01 -0.18074774335E+02  0.18726416609E+02  0.00000000000E+00 0.  1.
         11    1    3    3    0    0 -0.80273983511E+01 -0.68700594505E+01 -0.37444319968E+01  0.11209710629E+02  0.51100000000E-03 0. -1.
        -11    1    3    3    0    0  0.16859712109E+02 -0.19717069853E+02  0.60035047815E+01  0.26628083031E+02  0.51100000000E-03 0.  1.
        -12    1    3    3    0    0 -0.13617794227E+02  0.27626546657E+02  0.15815701550E+02  0.34623789731E+02  0.00000000000E+00 0.  1.
</event>
<event>
 7    1  0.1789107E-013  0.7246162E+02  0.7816164E-02  0.1226708E+00
        -11   -1    0    0    0    0  0.00000000000E+00  0.00000000000E+00  0.45593999997E+02  0.45594000000E+02  0.51100000000E-03 0.  1.
         11   -1    0    0    0    0 -0.00000000000E+00 -0.00000000000E+00 -0.45593999997E+02  0.45594000000E+02  0.51100000000E-03 0. -1.
    9900012    2    1    2    0    0 -0.10861441934E+02 -0.14370973996E+02 -0.51167959616E+01  0.72461617130E+02  0.70000061012E+02 0.  0.
        -12    1    1    2    0    0  0.10861441934E+02  0.14370973996E+02  0.51167959616E+01  0.18726382870E+02  0.00000000000E+00 0.  1.
         11    1    3    3    0    0 -0.21891645609E+02 -0.13367255584E+02  0.13023808916E+02  0.28767121307E+02  0.51100000000E-03 0. -1.
        -11    1    3    3    0    0 -0.13613719054E+00  0.83372025281E+01  0.93862268908E+01  0.12555028269E+02  0.51100000000E-03 0.  1.
         12    1    3    3    0    0  0.11166340865E+02 -0.93409209395E+01 -0.27526831769E+02  0.31139467554E+02  0.00000000000E+00 0. -1.
</event>
<event>
 7    1  0.1789107E-013  0.7246155E+02  0.7816164E-02  0.1226708E+00
        -11   -1    0    0    0    0  0.00000000000E+00  0.00000000000E+00  0.45593999997E+02  0.45594000000E+02  0.51100000000E-03 0. -1.
         11   -1    0    0    0    0 -0.00000000000E+00 -0.00000000000E+00 -0.45593999997E+02  0.45594000000E+02  0.51100000000E-03 0.  1.
    9900012    2    1    2    0    0  0.96818524998E+01  0.12045458571E+02  0.10575856760E+02  0.72461545818E+02  0.69999968115E+02 0.  0.
        -12    1    1    2    0    0 -0.96818524998E+01 -0.12045458571E+02 -0.10575856760E+02  0.18726454182E+02  0.00000000000E+00 0.  1.
         11    1    3    3    0    0  0.14472843312E+02 -0.62153941765E+01  0.62476005284E+01  0.16944817229E+02  0.51100000000E-03 0. -1.
        -11    1    3    3    0    0  0.20304009110E+02  0.63408265640E+01  0.14705896027E+02  0.25859664454E+02  0.51100000000E-03 0.  1.
        -12    1    3    3    0    0 -0.25094999923E+02  0.11920026184E+02 -0.10377639796E+02  0.29657064134E+02  0.00000000000E+00 0.  1.
</event>
<event>
 7    1  0.1789107E-013  0.7246155E+02  0.7816164E-02  0.1226708E+00
        -11   -1    0    0    0    0  0.00000000000E+00  0.00000000000E+00  0.45593999997E+02  0.45594000000E+02  0.51100000000E-03 0.  1.
         11   -1    0    0    0    0 -0.00000000000E+00 -0.00000000000E+00 -0.45593999997E+02  0.45594000000E+02  0.51100000000E-03 0. -1.
    9900012    2    1    2    0    0 -0.27335046561E+01 -0.11430724101E+02 -0.14578973919E+02  0.72461548609E+02  0.69999971751E+02 0.  0.
        -12    1    1    2    0    0  0.27335046561E+01  0.11430724101E+02  0.14578973919E+02  0.18726451391E+02  0.00000000000E+00 0.  1.
         11    1    3    3    0    0 -0.48639261932E+01 -0.14010740819E+02 -0.45485202154E+01  0.15512822849E+02  0.51100000000E-03 0.  1.
        -11    1    3    3    0    0  0.11215822870E+02 -0.62863380397E+01  0.20322370366E+02  0.24048107331E+02  0.51100000000E-03 0. -1.
         12    1    3    3    0    0 -0.90854013333E+01  0.88663547584E+01 -0.30352824070E+02  0.32900618430E+02  0.00000000000E+00 0. -1.
</event>
<event>
 7    1  0.1789107E-013  0.7246156E+02  0.7816164E-02  0.1226708E+00
        -11   -1    0    0    0    0  0.00000000000E+00  0.00000000000E+00  0.45593999997E+02  0.45594000000E+02  0.51100000000E-03 0. -1.
         11   -1    0    0    0    0 -0.00000000000E+00 -0.00000000000E+00 -0.45593999997E+02  0.45594000000E+02  0.51100000000E-03 0.  1.
    9900012    2    1    2    0    0  0.45622252780E+01  0.52798083682E+01  0.17377836417E+02  0.72461562153E+02  0.69999989395E+02 0.  0.
        -12    1    1    2    0    0 -0.45622252780E+01 -0.52798083682E+01 -0.17377836417E+02  0.18726437847E+02  0.00000000000E+00 0.  1.
         11    1    3    3    0    0  0.57117633570E+01 -0.33312603784E+01  0.34272788675E+02  0.34904807408E+02  0.51100000000E-03 0. -1.
        -11    1    3    3    0    0  0.67390106902E+01 -0.72426573559E+01 -0.17204623930E+02  0.19846144096E+02  0.51100000000E-03 0.  1.
         12    1    3    3    0    0 -0.78885487692E+01  0.15853726103E+02  0.30967167180E+00  0.17710610649E+02  0.00000000000E+00 0. -1.
</event>
<event>
 7    1  0.1789107E-013  0.7246155E+02  0.7816164E-02  0.1226708E+00
        -11   -1    0    0    0    0  0.00000000000E+00  0.00000000000E+00  0.45593999997E+02  0.45594000000E+02  0.51100000000E-03 0. -1.
         11   -1    0    0    0    0 -0.00000000000E+00 -0.00000000000E+00 -0.45593999997E+02  0.45594000000E+02  0.51100000000E-03 0.  1.
    9900012    2    1    2    0    0  0.13682220151E+02  0.97659428244E+01  0.82524612364E+01  0.72461550684E+02  0.69999974454E+02 0.  0.
        -12    1    1    2    0    0 -0.13682220151E+02 -0.97659428244E+01 -0.82524612364E+01  0.18726449316E+02  0.00000000000E+00 0.  1.
         11    1    3    3    0    0  0.85476039965E+01  0.18874733348E+02  0.19680969468E+01  0.20813228940E+02  0.51100000000E-03 0. -1.
        -11    1    3    3    0    0  0.23437713740E+02  0.86775004165E+01  0.75123086498E+01  0.26097130501E+02  0.51100000000E-03 0.  1.
         12    1    3    3    0    0 -0.18303097586E+02 -0.17786290940E+02 -0.12279443602E+01  0.25551191244E+02  0.00000000000E+00 0. -1.
</event>
<event>
 7    1  0.1789107E-013  0.7246154E+02  0.7816164E-02  0.1226708E+00
        -11   -1    0    0    0    0  0.00000000000E+00  0.00000000000E+00  0.45593999997E+02  0.45594000000E+02  0.51100000000E-03 0. -1.
         11   -1    0    0    0    0 -0.00000000000E+00 -0.00000000000E+00 -0.45593999997E+02  0.45594000000E+02  0.51100000000E-03 0.  1.
    9900012    2    1    2    0    0  0.65636401617E+01 -0.85992033029E+01  0.15285696634E+02  0.72461543015E+02  0.69999964464E+02 0.  0.
        -12    1    1    2    0    0 -0.65636401617E+01  0.85992033029E+01 -0.15285696634E+02  0.18726456985E+02  0.00000000000E+00 0.  1.
         11    1    3    3    0    0  0.81080725733E+01 -0.23986971050E+01 -0.38181041236E+01  0.92775270420E+01  0.51100000000E-03 0. -1.
        -11    1    3    3    0    0  0.38441231424E+01 -0.37028581643E+00 -0.21483347658E+02  0.21827703067E+02  0.51100000000E-03 0.  1.
         12    1    3    3    0    0 -0.53885555541E+01 -0.58302203815E+01  0.40587148416E+02  0.41356312906E+02  0.00000000000E+00 0. -1.
</event>
<event>
 7    1  0.1789107E-013  0.7246155E+02  0.7816164E-02  0.1226708E+00
        -11   -1    0    0    0    0  0.00000000000E+00  0.00000000000E+00  0.45593999997E+02  0.45594000000E+02  0.51100000000E-03 0. -1.
         11   -1    0    0    0    0 -0.00000000000E+00 -0.00000000000E+00 -0.45593999997E+02  0.45594000000E+02  0.51100000000E-03 0.  1.
    9900012    2    1    2    0    0 -0.49459525231E+00 -0.67742890332E+01  0.17451195653E+02  0.72461552230E+02  0.69999976467E+02 0.  0.
        -12    1    1    2    0    0  0.49459525231E+00  0.67742890332E+01 -0.17451195653E+02  0.18726447770E+02  0.00000000000E+00 0.  1.
         11    1    3    3    0    0  0.89332352952E+00  0.37899647399E+01 -0.76592016084E+01  0.85921609155E+01  0.51100000000E-03 0. -1.
        -11    1    3    3    0    0 -0.16083863658E+02  0.18813880465E+02  0.17020211599E+02  0.30038980866E+02  0.51100000000E-03 0.  1.
         12    1    3    3    0    0  0.14695944876E+02 -0.29378134238E+02  0.80901856622E+01  0.33830410449E+02  0.00000000000E+00 0. -1.
</event>
<event>
 7    1  0.1789107E-013  0.7246156E+02  0.7816164E-02  0.1226708E+00
        -11   -1    0    0    0    0  0.00000000000E+00  0.00000000000E+00  0.45593999997E+02  0.45594000000E+02  0.51100000000E-03 0. -1.
         11   -1    0    0    0    0 -0.00000000000E+00 -0.00000000000E+00 -0.45593999997E+02  0.45594000000E+02  0.51100000000E-03 0.  1.
    9900012    2    1    2    0    0  0.18288029756E+01  0.88135718421E+01  0.16421210125E+02  0.72461555839E+02  0.69999981169E+02 0.  0.
        -12    1    1    2    0    0 -0.18288029756E+01 -0.88135718421E+01 -0.16421210125E+02  0.18726444161E+02  0.00000000000E+00 0.  1.
         11    1    3    3    0    0 -0.28373402791E+01 -0.45730469492E+01  0.50187294218E+00  0.54051026790E+01  0.51100000000E-03 0. -1.
        -11    1    3    3    0    0 -0.10638768894E+01 -0.17430066153E+02 -0.15005593431E+02  0.23024049918E+02  0.51100000000E-03 0.  1.
         12    1    3    3    0    0  0.57300201441E+01  0.30816684945E+02  0.30924930614E+02  0.44032403242E+02  0.00000000000E+00 0. -1.
</event>
<event>
 7    1  0.1789107E-013  0.7246157E+02  0.7816164E-02  0.1226708E+00
        -11   -1    0    0    0    0  0.00000000000E+00  0.00000000000E+00  0.45593999997E+02  0.45594000000E+02  0.51100000000E-03 0.  1.
         11   -1    0    0    0    0 -0.00000000000E+00 -0.00000000000E+00 -0.45593999997E+02  0.45594000000E+02  0.51100000000E-03 0. -1.
    9900012    2    1    2    0    0 -0.73188031761E+00 -0.27040181983E+01 -0.18515720641E+02  0.72461567503E+02  0.69999996364E+02 0.  0.
        -12    1    1    2    0    0  0.73188031761E+00  0.27040181983E+01  0.18515720641E+02  0.18726432497E+02  0.00000000000E+00 0.  1.
         11    1    3    3    0    0 -0.64696248129E+01  0.12040387313E+02 -0.29791557148E+01  0.13989365279E+02  0.51100000000E-03 0. -1.
        -11    1    3    3    0    0 -0.11027454375E+02  0.13057990358E+02  0.74989727881E+01  0.18664148931E+02  0.51100000000E-03 0.  1.
        -12    1    3    3    0    0  0.16765198870E+02 -0.27802395869E+02 -0.23035537714E+02  0.39808053293E+02  0.00000000000E+00 0.  1.
</event>
<event>
 7    1  0.1789107E-013  0.7246159E+02  0.7816164E-02  0.1226708E+00
        -11   -1    0    0    0    0  0.00000000000E+00  0.00000000000E+00  0.45593999997E+02  0.45594000000E+02  0.51100000000E-03 0.  1.
         11   -1    0    0    0    0 -0.00000000000E+00 -0.00000000000E+00 -0.45593999997E+02  0.45594000000E+02  0.51100000000E-03 0. -1.
    9900012    2    1    2    0    0 -0.11142666261E+02  0.12812594737E+02 -0.78966263214E+01  0.72461593443E+02  0.70000030155E+02 0.  0.
        -12    1    1    2    0    0  0.11142666261E+02 -0.12812594737E+02  0.78966263214E+01  0.18726406557E+02  0.00000000000E+00 0.  1.
         11    1    3    3    0    0 -0.17069341243E+02  0.57235256103E+01 -0.24661804522E+02  0.30534009865E+02  0.51100000000E-03 0. -1.
        -11    1    3    3    0    0  0.16213284958E+01  0.11202621335E+02 -0.96346641036E+01  0.14864527692E+02  0.51100000000E-03 0.  1.
        -12    1    3    3    0    0  0.43053464860E+01 -0.41135522089E+01  0.26399842305E+02  0.27063055885E+02  0.00000000000E+00 0.  1.
</event>
<event>
 7    1  0.1789107E-013  0.7246166E+02  0.7816164E-02  0.1226708E+00
        -11   -1    0    0    0    0  0.00000000000E+00  0.00000000000E+00  0.45593999997E+02  0.45594000000E+02  0.51100000000E-03 0.  1.
         11   -1    0    0    0    0 -0.00000000000E+00 -0.00000000000E+00 -0.45593999997E+02  0.45594000000E+02  0.51100000000E-03 0. -1.
    9900012    2    1    2    0    0  0.16821957378E+02 -0.12538694346E+01 -0.81317527584E+01  0.72461659153E+02  0.70000115755E+02 0.  0.
        -12    1    1    2    0    0 -0.16821957378E+02  0.12538694346E+01  0.81317527584E+01  0.18726340847E+02  0.00000000000E+00 0.  1.
         11    1    3    3    0    0  0.10118385643E+02 -0.72161641813E+01 -0.83369810864E+01  0.14965293429E+02  0.51100000000E-03 0. -1.
        -11    1    3    3    0    0  0.10296041470E+02 -0.46266414936E+00 -0.27217145808E+02  0.29103188043E+02  0.51100000000E-03 0.  1.
        -12    1    3    3    0    0 -0.35924697355E+01  0.64249588961E+01  0.27422374136E+02  0.28393177682E+02  0.00000000000E+00 0.  1.
</event>
<event>
 7    1  0.1789107E-013  0.7246163E+02  0.7816164E-02  0.1226708E+00
        -11   -1    0    0    0    0  0.00000000000E+00  0.00000000000E+00  0.45593999997E+02  0.45594000000E+02  0.51100000000E-03 0.  1.
         11   -1    0    0    0    0 -0.00000000000E+00 -0.00000000000E+00 -0.45593999997E+02  0.45594000000E+02  0.51100000000E-03 0. -1.
    9900012    2    1    2    0    0 -0.73713491116E+01 -0.63298793060E+01 -0.16008526050E+02  0.72461626458E+02  0.70000073163E+02 0.  0.
        -12    1    1    2    0    0  0.73713491116E+01  0.63298793060E+01  0.16008526050E+02  0.18726373542E+02  0.00000000000E+00 0.  1.
         11    1    3    3    0    0 -0.10879763939E+02 -0.56846216866E+01 -0.22193596429E+02  0.25362174784E+02  0.51100000000E-03 0. -1.
        -11    1    3    3    0    0  0.63297451394E-02 -0.23413900949E+02  0.55083069517E+01  0.24053112968E+02  0.51100000000E-03 0.  1.
         12    1    3    3    0    0  0.35020850821E+01  0.22768643330E+02  0.67676342699E+00  0.23046338705E+02  0.00000000000E+00 0. -1.
</event>
<event>
 7    1  0.1789107E-013  0.7246158E+02  0.7816164E-02  0.1226708E+00
        -11   -1    0    0    0    0  0.00000000000E+00  0.00000000000E+00  0.45593999997E+02  0.45594000000E+02  0.51100000000E-03 0. -1.
         11   -1    0    0    0    0 -0.00000000000E+00 -0.00000000000E+00 -0.45593999997E+02  0.45594000000E+02  0.51100000000E-03 0.  1.
    9900012    2    1    2    0    0 -0.12188217242E+02  0.98581260805E+01  0.10244190361E+02  0.72461582149E+02  0.70000015443E+02 0.  0.
        -12    1    1    2    0    0  0.12188217242E+02 -0.98581260805E+01 -0.10244190361E+02  0.18726417851E+02  0.00000000000E+00 0.  1.
         11    1    3    3    0    0 -0.18182236258E+01  0.18165997407E+02  0.48726836322E+01  0.18895831418E+02  0.51100000000E-03 0.  1.
        -11    1    3    3    0    0 -0.24249144437E+02  0.72113718360E+01  0.16256843719E+02  0.30071745171E+02  0.51100000000E-03 0. -1.
        -12    1    3    3    0    0  0.13879150821E+02 -0.15519243163E+02 -0.10885336990E+02  0.23494005560E+02  0.00000000000E+00 0.  1.
</event>
<event>
 7    1  0.1789107E-013  0.7246155E+02  0.7816164E-02  0.1226708E+00
        -11   -1    0    0    0    0  0.00000000000E+00  0.00000000000E+00  0.45593999997E+02  0.45594000000E+02  0.51100000000E-03 0.  1.
         11   -1    0    0    0    0 -0.00000000000E+00 -0.00000000000E+00 -0.45593999997E+02  0.45594000000E+02  0.51100000000E-03 0. -1.
    9900012    2    1    2    0    0 -0.65754625795E+01 -0.54268431876E+01 -0.16673111892E+02  0.72461548246E+02  0.69999971278E+02 0.  0.
        -12    1    1    2    0    0  0.65754625795E+01  0.54268431876E+01  0.16673111892E+02  0.18726451754E+02  0.00000000000E+00 0.  1.
         11    1    3    3    0    0 -0.40803612763E+01 -0.17059685989E+02 -0.27393423818E+02  0.32528170913E+02  0.51100000000E-03 0. -1.
        -11    1    3    3    0    0 -0.26932236711E+01 -0.73190060910E+01 -0.94521380606E+01  0.12254151055E+02  0.51100000000E-03 0.  1.
        -12    1    3    3    0    0  0.19812236793E+00  0.18951848892E+02  0.20172449987E+02  0.27679226278E+02  0.00000000000E+00 0.  1.
</event>
<event>
 7    1  0.1789107E-013  0.7246164E+02  0.7816164E-02  0.1226708E+00
        -11   -1    0    0    0    0  0.00000000000E+00  0.00000000000E+00  0.45593999997E+02  0.45594000000E+02  0.51100000000E-03 0. -1.
         11   -1    0    0    0    0 -0.00000000000E+00 -0.00000000000E+00 -0.45593999997E+02  0.45594000000E+02  0.51100000000E-03 0.  1.
    9900012    2    1    2    0    0  0.39987908851E+01  0.86451374422E+01  0.16122903242E+02  0.72461635193E+02  0.70000084543E+02 0.  0.
        -12    1    1    2    0    0 -0.39987908851E+01 -0.86451374422E+01 -0.16122903242E+02  0.18726364807E+02  0.00000000000E+00 0.  1.
         11    1    3    3    0    0 -0.38039742303E+01  0.26548310616E+02  0.89130458906E+01  0.28261730375E+02  0.51100000000E-03 0. -1.
        -11    1    3    3    0    0  0.55098340884E+01 -0.14937851145E+00 -0.14821184092E+02  0.15812908770E+02  0.51100000000E-03 0.  1.
         12    1    3    3    0    0  0.22929310270E+01 -0.17753794662E+02  0.22031041443E+02  0.28386996048E+02  0.00000000000E+00 0. -1.
</event>
<event>
 7    1  0.1789107E-013  0.7246159E+02  0.7816164E-02  0.1226708E+00
        -11   -1    0    0    0    0  0.00000000000E+00  0.00000000000E+00  0.45593999997E+02  0.45594000000E+02  0.51100000000E-03 0. -1.
         11   -1    0    0    0    0 -0.00000000000E+00 -0.00000000000E+00 -0.45593999997E+02  0.45594000000E+02  0.51100000000E-03 0.  1.
    9900012    2    1    2    0    0 -0.19959387345E+01  0.51723840671E+01  0.17886897164E+02  0.72461590346E+02  0.70000026121E+02 0.  0.
        -12    1    1    2    0    0  0.19959387345E+01 -0.51723840671E+01 -0.17886897164E+02  0.18726409654E+02  0.00000000000E+00 0.  1.
         11    1    3    3    0    0 -0.94157693532E+01  0.78440063478E+01  0.16576470823E+02  0.20614667916E+02  0.51100000000E-03 0. -1.
        -11    1    3    3    0    0 -0.13329814195E+02  0.17747374174E+02  0.42092300758E+01  0.22591388949E+02  0.51100000000E-03 0.  1.
         12    1    3    3    0    0  0.20749644814E+02 -0.20418996455E+02 -0.28988037347E+01  0.29255533480E+02  0.00000000000E+00 0. -1.
</event>
<event>
 7    1  0.1789107E-013  0.7246157E+02  0.7816164E-02  0.1226708E+00
        -11   -1    0    0    0    0  0.00000000000E+00  0.00000000000E+00  0.45593999997E+02  0.45594000000E+02  0.51100000000E-03 0. -1.
         11   -1    0    0    0    0 -0.00000000000E+00 -0.00000000000E+00 -0.45593999997E+02  0.45594000000E+02  0.51100000000E-03 0.  1.
    9900012    2    1    2    0    0 -0.15842584429E+02 -0.36585283788E+01 -0.92901529002E+01  0.72461568087E+02  0.69999997124E+02 0.  0.
        -12    1    1    2    0    0  0.15842584429E+02  0.36585283788E+01  0.92901529002E+01  0.18726431913E+02  0.00000000000E+00 0.  1.
         11    1    3    3    0    0  0.17062388692E+02  0.71653645912E+01  0.17314664508E+02  0.25342950990E+02  0.51100000000E-03 0. -1.
        -11    1    3    3    0    0 -0.53959750895E+01  0.47215492343E+01 -0.64195644006E+01  0.96239483422E+01  0.51100000000E-03 0.  1.
        -12    1    3    3    0    0 -0.27508998032E+02 -0.15545442204E+02 -0.20185253007E+02  0.37494668755E+02  0.00000000000E+00 0.  1.
</event>
<event>
 7    1  0.1789107E-013  0.7246162E+02  0.7816164E-02  0.1226708E+00
        -11   -1    0    0    0    0  0.00000000000E+00  0.00000000000E+00  0.45593999997E+02  0.45594000000E+02  0.51100000000E-03 0.  1.
         11   -1    0    0    0    0 -0.00000000000E+00 -0.00000000000E+00 -0.45593999997E+02  0.45594000000E+02  0.51100000000E-03 0. -1.
    9900012    2    1    2    0    0 -0.17144653948E+02  0.15929226882E+01 -0.73621159606E+01  0.72461619861E+02  0.70000064570E+02 0.  0.
        -12    1    1    2    0    0  0.17144653948E+02 -0.15929226882E+01  0.73621159606E+01  0.18726380139E+02  0.00000000000E+00 0.  1.
         11    1    3    3    0    0 -0.28049184790E+01  0.36838525788E+01  0.23418868567E+02  0.23872196018E+02  0.51100000000E-03 0. -1.
        -11    1    3    3    0    0 -0.96587452111E+01  0.31333948766E+01  0.55605478055E+01  0.11577098715E+02  0.51100000000E-03 0.  1.
         12    1    3    3    0    0 -0.46809902579E+01 -0.52243247672E+01 -0.36341532333E+02  0.37012325128E+02  0.00000000000E+00 0. -1.
</event>
<event>
 7    1  0.1789107E-013  0.7246188E+02  0.7816164E-02  0.1226707E+00
        -11   -1    0    0    0    0  0.00000000000E+00  0.00000000000E+00  0.45593999997E+02  0.45594000000E+02  0.51100000000E-03 0.  1.
         11   -1    0    0    0    0 -0.00000000000E+00 -0.00000000000E+00 -0.45593999997E+02  0.45594000000E+02  0.51100000000E-03 0. -1.
    9900012    2    1    2    0    0 -0.30724216359E+01  0.18457854878E+02 -0.73180064252E+00  0.72461876173E+02  0.70000398462E+02 0.  0.
        -12    1    1    2    0    0  0.30724216359E+01 -0.18457854878E+02  0.73180064252E+00  0.18726123827E+02  0.00000000000E+00 0.  1.
         11    1    3    3    0    0 -0.40774136128E+01 -0.66160902220E+01 -0.63567037939E+01  0.10040200943E+02  0.51100000000E-03 0. -1.
        -11    1    3    3    0    0  0.14380052221E+02  0.93015711163E+01 -0.22021121677E+02  0.27896862320E+02  0.51100000000E-03 0.  1.
         12    1    3    3    0    0 -0.13375060244E+02  0.15772373984E+02  0.27646024829E+02  0.34524812910E+02  0.00000000000E+00 0. -1.
</event>
<event>
 7    1  0.1789107E-013  0.7246157E+02  0.7816164E-02  0.1226708E+00
        -11   -1    0    0    0    0  0.00000000000E+00  0.00000000000E+00  0.45593999997E+02  0.45594000000E+02  0.51100000000E-03 0.  1.
         11   -1    0    0    0    0 -0.00000000000E+00 -0.00000000000E+00 -0.45593999997E+02  0.45594000000E+02  0.51100000000E-03 0. -1.
    9900012    2    1    2    0    0 -0.39629519191E+01 -0.16284309054E+02 -0.83543606927E+01  0.72461573436E+02  0.70000004092E+02 0.  0.
        -12    1    1    2    0    0  0.39629519191E+01  0.16284309054E+02  0.83543606927E+01  0.18726426564E+02  0.00000000000E+00 0.  1.
         11    1    3    3    0    0 -0.14618556683E+02  0.63602882817E+01  0.99660355150E+01  0.18800992811E+02  0.51100000000E-03 0.  1.
        -11    1    3    3    0    0 -0.80261103286E+01 -0.66501915567E+01  0.11158911197E+02  0.15269734579E+02  0.51100000000E-03 0. -1.
         12    1    3    3    0    0  0.18681715093E+02 -0.15994405779E+02 -0.29479307405E+02  0.38390846046E+02  0.00000000000E+00 0. -1.
</event>
<event>
 7    1  0.1789107E-013  0.7246154E+02  0.7816164E-02  0.1226708E+00
        -11   -1    0    0    0    0  0.00000000000E+00  0.00000000000E+00  0.45593999997E+02  0.45594000000E+02  0.51100000000E-03 0. -1.
         11   -1    0    0    0    0 -0.00000000000E+00 -0.00000000000E+00 -0.45593999997E+02  0.45594000000E+02  0.51100000000E-03 0.  1.
    9900012    2    1    2    0    0  0.17618953889E+02  0.15085146141E+01 -0.61625611135E+01  0.72461539791E+02  0.69999960263E+02 0.  0.
        -12    1    1    2    0    0 -0.17618953889E+02 -0.15085146141E+01  0.61625611135E+01  0.18726460209E+02  0.00000000000E+00 0.  1.
         11    1    3    3    0    0  0.26937154210E+01 -0.13309704322E+02  0.12846285851E+02  0.18693084078E+02  0.51100000000E-03 0. -1.
        -11    1    3    3    0    0  0.11519039062E+02  0.95724697252E-02  0.13582198116E+02  0.17809111670E+02  0.51100000000E-03 0.  1.
        -12    1    3    3    0    0  0.34061994065E+01  0.14808646467E+02 -0.32591045080E+02  0.35959344043E+02  0.00000000000E+00 0.  1.
</event>
<event>
 7    1  0.1789107E-013  0.7246158E+02  0.7816164E-02  0.1226708E+00
        -11   -1    0    0    0    0  0.00000000000E+00  0.00000000000E+00  0.45593999997E+02  0.45594000000E+02  0.51100000000E-03 0.  1.
         11   -1    0    0    0    0 -0.00000000000E+00 -0.00000000000E+00 -0.45593999997E+02  0.45594000000E+02  0.51100000000E-03 0. -1.
    9900012    2    1    2    0    0  0.13681043242E+02  0.10093367862E+02 -0.78505945490E+01  0.72461578725E+02  0.70000010983E+02 0.  0.
        -12    1    1    2    0    0 -0.13681043242E+02 -0.10093367862E+02  0.78505945490E+01  0.18726421275E+02  0.00000000000E+00 0.  1.
         11    1    3    3    0    0  0.21480917721E+02  0.21458791057E+02 -0.59035136987E+01  0.30931553696E+02  0.51100000000E-03 0. -1.
        -11    1    3    3    0    0  0.64846712111E+01 -0.14302079952E+02  0.13192157631E+02  0.20509350914E+02  0.51100000000E-03 0.  1.
        -12    1    3    3    0    0 -0.14284545690E+02  0.29366567572E+01 -0.15139238481E+02  0.21020674116E+02  0.00000000000E+00 0.  1.
</event>
<event>
 7    1  0.1861355E-013  0.7246157E+02  0.7816164E-02  0.1226708E+00
        -11   -1    0    0    0    0  0.00000000000E+00  0.00000000000E+00  0.45593999997E+02  0.45594000000E+02  0.51100000000E-03 0. -1.
         11   -1    0    0    0    0 -0.00000000000E+00 -0.00000000000E+00 -0.45593999997E+02  0.45594000000E+02  0.51100000000E-03 0.  1.
    9900012    2    1    2    0    0 -0.14453860036E+02 -0.69819894731E+01  0.96445207810E+01  0.72461574072E+02  0.70000004921E+02 0.  0.
        -12    1    1    2    0    0  0.14453860036E+02  0.69819894731E+01 -0.96445207810E+01  0.18726425928E+02  0.00000000000E+00 0.  1.
         11    1    3    3    0    0 -0.17348021455E+02  0.91700093008E+01  0.26239151293E+02  0.32764858917E+02  0.51100000000E-03 0. -1.
        -11    1    3    3    0    0 -0.59110371418E+00  0.77425615421E+01  0.32729112818E+01  0.84266607475E+01  0.51100000000E-03 0.  1.
        -12    1    3    3    0    0  0.34852651335E+01 -0.23894560316E+02 -0.19867541794E+02  0.31270054408E+02  0.00000000000E+00 0.  1.
</event>
<event>
 7    1  0.1789107E-013  0.7246153E+02  0.7816164E-02  0.1226708E+00
        -11   -1    0    0    0    0  0.00000000000E+00  0.00000000000E+00  0.45593999997E+02  0.45594000000E+02  0.51100000000E-03 0.  1.
         11   -1    0    0    0    0 -0.00000000000E+00 -0.00000000000E+00 -0.45593999997E+02  0.45594000000E+02  0.51100000000E-03 0. -1.
    9900012    2    1    2    0    0 -0.20921672698E+01  0.11229059087E+02 -0.14839535013E+02  0.72461528596E+02  0.69999945680E+02 0.  0.
        -12    1    1    2    0    0  0.20921672698E+01 -0.11229059087E+02  0.14839535013E+02  0.18726471404E+02  0.00000000000E+00 0.  1.
         11    1    3    3    0    0 -0.23416567859E+02  0.28090981191E+02  0.20912041476E+01  0.36630752239E+02  0.51100000000E-03 0. -1.
        -11    1    3    3    0    0 -0.14120888050E+01  0.45215962642E+00 -0.43684305779E+01  0.46132016102E+01  0.51100000000E-03 0.  1.
        -12    1    3    3    0    0  0.22736489394E+02 -0.17314081730E+02 -0.12562308583E+02  0.31217574747E+02  0.00000000000E+00 0.  1.
</event>
<event>
 7    1  0.1789107E-013  0.7246156E+02  0.7816164E-02  0.1226708E+00
        -11   -1    0    0    0    0  0.00000000000E+00  0.00000000000E+00  0.45593999997E+02  0.45594000000E+02  0.51100000000E-03 0.  1.
         11   -1    0    0    0    0 -0.00000000000E+00 -0.00000000000E+00 -0.45593999997E+02  0.45594000000E+02  0.51100000000E-03 0. -1.
    9900012    2    1    2    0    0  0.92338781218E+01  0.24771311704E+01  0.16102138223E+02  0.72461560420E+02  0.69999987136E+02 0.  0.
        -12    1    1    2    0    0 -0.92338781218E+01 -0.24771311704E+01 -0.16102138223E+02  0.18726439580E+02  0.00000000000E+00 0.  1.
         11    1    3    3    0    0 -0.11685836732E+02  0.48451602284E+01  0.25756559010E+02  0.28695551747E+02  0.51100000000E-03 0. -1.
        -11    1    3    3    0    0 -0.89403463943E+01 -0.43417965181E+01  0.41993004483E+01  0.10789583642E+02  0.51100000000E-03 0.  1.
         12    1    3    3    0    0  0.29860061248E+02  0.19737674601E+01 -0.13853721235E+02  0.32976425030E+02  0.00000000000E+00 0. -1.
</event>
<event>
 7    1  0.1789107E-013  0.7246158E+02  0.7816164E-02  0.1226708E+00
        -11   -1    0    0    0    0  0.00000000000E+00  0.00000000000E+00  0.45593999997E+02  0.45594000000E+02  0.51100000000E-03 0.  1.
         11   -1    0    0    0    0 -0.00000000000E+00 -0.00000000000E+00 -0.45593999997E+02  0.45594000000E+02  0.51100000000E-03 0. -1.
    9900012    2    1    2    0    0  0.35709618239E+00  0.18443566355E+02 -0.32227683161E+01  0.72461577673E+02  0.70000009612E+02 0.  0.
        -12    1    1    2    0    0 -0.35709618239E+00 -0.18443566355E+02  0.32227683161E+01  0.18726422327E+02  0.00000000000E+00 0.  1.
         11    1    3    3    0    0  0.13504198543E+02  0.15764844195E+02 -0.92677353887E+01  0.22732897094E+02  0.51100000000E-03 0. -1.
        -11    1    3    3    0    0 -0.71349122081E+00  0.22121383088E+02 -0.70065111862E+01  0.23215422863E+02  0.51100000000E-03 0.  1.
        -12    1    3    3    0    0 -0.12433611139E+02 -0.19442660929E+02  0.13051478259E+02  0.26513257716E+02  0.00000000000E+00 0.  1.
</event>
<event>
 7    1  0.1789107E-013  0.7246142E+02  0.7816164E-02  0.1226708E+00
        -11   -1    0    0    0    0  0.00000000000E+00  0.00000000000E+00  0.45593999997E+02  0.45594000000E+02  0.51100000000E-03 0.  1.
         11   -1    0    0    0    0 -0.00000000000E+00 -0.00000000000E+00 -0.45593999997E+02  0.45594000000E+02  0.51100000000E-03 0. -1.
    9900012    2    1    2    0    0 -0.15942299020E+02 -0.20892538139E+01 -0.96001494379E+01  0.72461421327E+02  0.69999805942E+02 0.  0.
        -12    1    1    2    0    0  0.15942299020E+02  0.20892538139E+01  0.96001494379E+01  0.18726578673E+02  0.00000000000E+00 0.  1.
         11    1    3    3    0    0 -0.14113342306E+02 -0.24138620303E+02  0.15078689681E+02  0.31768322334E+02  0.51100000000E-03 0. -1.
        -11    1    3    3    0    0 -0.49771925208E+00  0.25330068332E+00  0.43401050438E+01  0.43758882233E+01  0.51100000000E-03 0.  1.
         12    1    3    3    0    0 -0.13312374619E+01  0.21796065806E+02 -0.29018944162E+02  0.36317210770E+02  0.00000000000E+00 0. -1.
</event>
<event>
 7    1  0.1789107E-013  0.7246159E+02  0.7816164E-02  0.1226708E+00
        -11   -1    0    0    0    0  0.00000000000E+00  0.00000000000E+00  0.45593999997E+02  0.45594000000E+02  0.51100000000E-03 0. -1.
         11   -1    0    0    0    0 -0.00000000000E+00 -0.00000000000E+00 -0.45593999997E+02  0.45594000000E+02  0.51100000000E-03 0.  1.
    9900012    2    1    2    0    0  0.25485403322E+01  0.17245871970E+02  0.68383722331E+01  0.72461588367E+02  0.70000023543E+02 0.  0.
        -12    1    1    2    0    0 -0.25485403322E+01 -0.17245871970E+02 -0.68383722331E+01  0.18726411633E+02  0.00000000000E+00 0.  1.
         11    1    3    3    0    0  0.20294749740E+02 -0.42805190387E+01 -0.11337601187E+02  0.23637701056E+02  0.51100000000E-03 0. -1.
        -11    1    3    3    0    0 -0.11996994936E+02 -0.79443306116E+01  0.14718944787E+01  0.14463981125E+02  0.51100000000E-03 0.  1.
        -12    1    3    3    0    0 -0.57492144718E+01  0.29470721621E+02  0.16704078941E+02  0.34359906186E+02  0.00000000000E+00 0.  1.
</event>
<event>
 7    1  0.1789107E-013  0.7246161E+02  0.7816164E-02  0.1226708E+00
        -11   -1    0    0    0    0  0.00000000000E+00  0.00000000000E+00  0.45593999997E+02  0.45594000000E+02  0.51100000000E-03 0.  1.
         11   -1    0    0    0    0 -0.00000000000E+00 -0.00000000000E+00 -0.45593999997E+02  0.45594000000E+02  0.51100000000E-03 0. -1.
    9900012    2    1    2    0    0  0.15432951744E+02  0.92896848274E+01 -0.51189378742E+01  0.72461607697E+02  0.70000048724E+02 0.  0.
        -12    1    1    2    0    0 -0.15432951744E+02 -0.92896848274E+01  0.51189378742E+01  0.18726392303E+02  0.00000000000E+00 0.  1.
         11    1    3    3    0    0  0.14640514789E+02  0.12401451759E+02 -0.33980301846E+01  0.19485566156E+02  0.51100000000E-03 0. -1.
        -11    1    3    3    0    0 -0.62770291145E+01 -0.56183020692E+01  0.24392785951E+02  0.25806480182E+02  0.51100000000E-03 0.  1.
         12    1    3    3    0    0  0.70694660698E+01  0.25065351378E+01 -0.26113693641E+02  0.27169561360E+02  0.00000000000E+00 0. -1.
</event>
<event>
 7    1  0.1789107E-013  0.7246173E+02  0.7816164E-02  0.1226708E+00
        -11   -1    0    0    0    0  0.00000000000E+00  0.00000000000E+00  0.45593999997E+02  0.45594000000E+02  0.51100000000E-03 0.  1.
         11   -1    0    0    0    0 -0.00000000000E+00 -0.00000000000E+00 -0.45593999997E+02  0.45594000000E+02  0.51100000000E-03 0. -1.
    9900012    2    1    2    0    0  0.84757209340E+01  0.14388375182E+02 -0.84740761533E+01  0.72461730954E+02  0.70000209289E+02 0.  0.
        -12    1    1    2    0    0 -0.84757209340E+01 -0.14388375182E+02  0.84740761533E+01  0.18726269046E+02  0.00000000000E+00 0.  1.
         11    1    3    3    0    0  0.19594764609E+01  0.62891160685E+01 -0.45605614015E+01  0.80119441762E+01  0.51100000000E-03 0. -1.
        -11    1    3    3    0    0  0.32936138776E+02 -0.56895105533E+01 -0.80033019768E+01  0.34368773772E+02  0.51100000000E-03 0.  1.
         12    1    3    3    0    0 -0.26419894303E+02  0.13788769667E+02  0.40897872251E+01  0.30081013006E+02  0.00000000000E+00 0. -1.
</event>
<event>
 7    1  0.1789107E-013  0.7246161E+02  0.7816164E-02  0.1226708E+00
        -11   -1    0    0    0    0  0.00000000000E+00  0.00000000000E+00  0.45593999997E+02  0.45594000000E+02  0.51100000000E-03 0. -1.
         11   -1    0    0    0    0 -0.00000000000E+00 -0.00000000000E+00 -0.45593999997E+02  0.45594000000E+02  0.51100000000E-03 0.  1.
    9900012    2    1    2    0    0 -0.59013555250E+01  0.40278695682E+00  0.17767655227E+02  0.72461606684E+02  0.70000047404E+02 0.  0.
        -12    1    1    2    0    0  0.59013555250E+01 -0.40278695682E+00 -0.17767655227E+02  0.18726393316E+02  0.00000000000E+00 0.  1.
         11    1    3    3    0    0 -0.20376291305E+02 -0.11951384821E+02  0.75021056577E+01  0.24785286685E+02  0.51100000000E-03 0. -1.
        -11    1    3    3    0    0 -0.13694821085E+02  0.13162808722E+01 -0.38556896544E+01  0.14288004159E+02  0.51100000000E-03 0.  1.
         12    1    3    3    0    0  0.28169756865E+02  0.11037890905E+02  0.14121239223E+02  0.33388315840E+02  0.00000000000E+00 0. -1.
</event>
<event>
 7    1  0.1789107E-013  0.7246139E+02  0.7816164E-02  0.1226708E+00
        -11   -1    0    0    0    0  0.00000000000E+00  0.00000000000E+00  0.45593999997E+02  0.45594000000E+02  0.51100000000E-03 0.  1.
         11   -1    0    0    0    0 -0.00000000000E+00 -0.00000000000E+00 -0.45593999997E+02  0.45594000000E+02  0.51100000000E-03 0. -1.
    9900012    2    1    2    0    0  0.15103765703E+02 -0.10547256565E+02  0.33641617723E+01  0.72461389418E+02  0.69999764374E+02 0.  0.
        -12    1    1    2    0    0 -0.15103765703E+02  0.10547256565E+02 -0.33641617723E+01  0.18726610582E+02  0.00000000000E+00 0.  1.
         11    1    3    3    0    0  0.11034044585E+02 -0.32785336461E+02  0.68833998249E+01  0.35270520554E+02  0.51100000000E-03 0. -1.
        -11    1    3    3    0    0  0.89286678194E+00  0.15445512730E+01  0.11364392653E+02  0.11503576416E+02  0.51100000000E-03 0.  1.
        -12    1    3    3    0    0  0.31768543358E+01  0.20693528622E+02 -0.14883630706E+02  0.25687292448E+02  0.00000000000E+00 0.  1.
</event>
<event>
 7    1  0.1789107E-013  0.7246146E+02  0.7816164E-02  0.1226708E+00
        -11   -1    0    0    0    0  0.00000000000E+00  0.00000000000E+00  0.45593999997E+02  0.45594000000E+02  0.51100000000E-03 0. -1.
         11   -1    0    0    0    0 -0.00000000000E+00 -0.00000000000E+00 -0.45593999997E+02  0.45594000000E+02  0.51100000000E-03 0.  1.
    9900012    2    1    2    0    0  0.13975877531E+02 -0.10050208300E+02  0.73723332023E+01  0.72461464376E+02  0.69999862021E+02 0.  0.
        -12    1    1    2    0    0 -0.13975877531E+02  0.10050208300E+02 -0.73723332023E+01  0.18726535624E+02  0.00000000000E+00 0.  1.
         11    1    3    3    0    0  0.29903066279E+01 -0.19465868917E+02  0.12940007809E+02  0.23564927090E+02  0.51100000000E-03 0. -1.
        -11    1    3    3    0    0  0.82362455426E+01 -0.13873437238E+02 -0.16451999277E+02  0.23042922599E+02  0.51100000000E-03 0.  1.
        -12    1    3    3    0    0  0.27493253605E+01  0.23289097854E+02  0.10884324671E+02  0.25853614686E+02  0.00000000000E+00 0.  1.
</event>
<event>
 7    1  0.1789107E-013  0.7246163E+02  0.7816164E-02  0.1226708E+00
        -11   -1    0    0    0    0  0.00000000000E+00  0.00000000000E+00  0.45593999997E+02  0.45594000000E+02  0.51100000000E-03 0.  1.
         11   -1    0    0    0    0 -0.00000000000E+00 -0.00000000000E+00 -0.45593999997E+02  0.45594000000E+02  0.51100000000E-03 0. -1.
    9900012    2    1    2    0    0  0.89300403293E+01  0.11047038343E+02  0.12202217901E+02  0.72461633611E+02  0.70000082481E+02 0.  0.
        -12    1    1    2    0    0 -0.89300403293E+01 -0.11047038343E+02 -0.12202217901E+02  0.18726366389E+02  0.00000000000E+00 0.  1.
         11    1    3    3    0    0  0.32281863083E+01 -0.23478433772E+01 -0.88726628245E+01  0.97292189421E+01  0.51100000000E-03 0. -1.
        -11    1    3    3    0    0  0.20298636620E+02 -0.76462299051E+01  0.28735031809E+02  0.36002798971E+02  0.51100000000E-03 0.  1.
         12    1    3    3    0    0 -0.14596782599E+02  0.21041111626E+02 -0.76601510836E+01  0.26729615697E+02  0.00000000000E+00 0. -1.
</event>
<event>
 7    1  0.2722996E-013  0.7246130E+02  0.7816164E-02  0.1226709E+00
        -11   -1    0    0    0    0  0.00000000000E+00  0.00000000000E+00  0.45593999997E+02  0.45594000000E+02  0.51100000000E-03 0. -1.
         11   -1    0    0    0    0 -0.00000000000E+00 -0.00000000000E+00 -0.45593999997E+02  0.45594000000E+02  0.51100000000E-03 0.  1.
    9900012    2    1    2    0    0 -0.69715389147E+00  0.16463004131E+02  0.88979067014E+01  0.72461300552E+02  0.69999648609E+02 0.  0.
        -12    1    1    2    0    0  0.69715389147E+00 -0.16463004131E+02 -0.88979067014E+01  0.18726699448E+02  0.00000000000E+00 0.  1.
         11    1    3    3    0    0 -0.17278489520E+02  0.18930626731E+02  0.19664922585E+02  0.32305170005E+02  0.51100000000E-03 0. -1.
        -11    1    3    3    0    0  0.59513263042E+01  0.90609531751E+01  0.95803025776E+01  0.14467251120E+02  0.51100000000E-03 0.  1.
        -12    1    3    3    0    0  0.10630009324E+02 -0.11528575775E+02 -0.20347318462E+02  0.25688879427E+02  0.00000000000E+00 0.  1.
</event>
<event>
 7    1  0.1789107E-013  0.7246159E+02  0.7816164E-02  0.1226708E+00
        -11   -1    0    0    0    0  0.00000000000E+00  0.00000000000E+00  0.45593999997E+02  0.45594000000E+02  0.51100000000E-03 0. -1.
         11   -1    0    0    0    0 -0.00000000000E+00 -0.00000000000E+00 -0.45593999997E+02  0.45594000000E+02  0.51100000000E-03 0.  1.
    9900012    2    1    2    0    0 -0.15564179403E+02  0.87738442638E+01  0.56084171849E+01  0.72461591723E+02  0.70000027914E+02 0.  0.
        -12    1    1    2    0    0  0.15564179403E+02 -0.87738442638E+01 -0.56084171849E+01  0.18726408277E+02  0.00000000000E+00 0.  1.
         11    1    3    3    0    0 -0.14010881686E+02  0.53514279162E+01 -0.20412298367E+01  0.15136353783E+02  0.51100000000E-03 0. -1.
        -11    1    3    3    0    0  0.22351268725E+02  0.24850711597E+01 -0.12779525170E+02  0.25866407871E+02  0.51100000000E-03 0.  1.
         12    1    3    3    0    0 -0.23904566443E+02  0.93734518798E+00  0.20429172192E+02  0.31458830068E+02  0.00000000000E+00 0. -1.
</event>
<event>
 7    1  0.1789107E-013  0.7246162E+02  0.7816164E-02  0.1226708E+00
        -11   -1    0    0    0    0  0.00000000000E+00  0.00000000000E+00  0.45593999997E+02  0.45594000000E+02  0.51100000000E-03 0. -1.
         11   -1    0    0    0    0 -0.00000000000E+00 -0.00000000000E+00 -0.45593999997E+02  0.45594000000E+02  0.51100000000E-03 0.  1.
    9900012    2    1    2    0    0 -0.12678900396E+02 -0.11518482058E+02  0.75662106921E+01  0.72461615181E+02  0.70000058473E+02 0.  0.
        -12    1    1    2    0    0  0.12678900396E+02  0.11518482058E+02 -0.75662106921E+01  0.18726384819E+02  0.00000000000E+00 0.  1.
         11    1    3    3    0    0  0.77641499282E+01  0.68442057823E+01  0.18262065549E+01  0.10510005116E+02  0.51100000000E-03 0. -1.
        -11    1    3    3    0    0  0.13779465022E+02 -0.96829856006E+01 -0.13643688324E+02  0.21674503403E+02  0.51100000000E-03 0.  1.
         12    1    3    3    0    0 -0.34222515346E+02 -0.86797022393E+01  0.19383692461E+02  0.40277106661E+02  0.00000000000E+00 0. -1.
</event>
<event>
 7    1  0.1789107E-013  0.7246156E+02  0.7816164E-02  0.1226708E+00
        -11   -1    0    0    0    0  0.00000000000E+00  0.00000000000E+00  0.45593999997E+02  0.45594000000E+02  0.51100000000E-03 0.  1.
         11   -1    0    0    0    0 -0.00000000000E+00 -0.00000000000E+00 -0.45593999997E+02  0.45594000000E+02  0.51100000000E-03 0. -1.
    9900012    2    1    2    0    0 -0.44316307738E+01  0.18045205730E+02  0.23261399720E+01  0.72461555374E+02  0.69999980564E+02 0.  0.
        -12    1    1    2    0    0  0.44316307738E+01 -0.18045205730E+02 -0.23261399720E+01  0.18726444626E+02  0.00000000000E+00 0.  1.
         11    1    3    3    0    0  0.22121917215E+02  0.14978008321E+01 -0.16835421952E+02  0.27839792764E+02  0.51100000000E-03 0. -1.
        -11    1    3    3    0    0 -0.40708153347E+01 -0.65326414520E+01  0.62321828510E+01  0.99038904063E+01  0.51100000000E-03 0.  1.
        -12    1    3    3    0    0 -0.22482732654E+02  0.23080046350E+02  0.12929379073E+02  0.34717872203E+02  0.00000000000E+00 0.  1.
</event>
<event>
 7    1  0.1789107E-013  0.7246156E+02  0.7816164E-02  0.1226708E+00
        -11   -1    0    0    0    0  0.00000000000E+00  0.00000000000E+00  0.45593999997E+02  0.45594000000E+02  0.51100000000E-03 0.  1.
         11   -1    0    0    0    0 -0.00000000000E+00 -0.00000000000E+00 -0.45593999997E+02  0.45594000000E+02  0.51100000000E-03 0. -1.
    9900012    2    1    2    0    0 -0.14544047689E+02 -0.53132734024E+01 -0.10531821191E+02  0.72461562671E+02  0.69999990070E+02 0.  0.
        -12    1    1    2    0    0  0.14544047689E+02  0.53132734024E+01  0.10531821191E+02  0.18726437329E+02  0.00000000000E+00 0.  1.
         11    1    3    3    0    0 -0.36103602039E+01 -0.15841497351E+02 -0.34736388374E+02  0.38348460421E+02  0.51100000000E-03 0. -1.
        -11    1    3    3    0    0 -0.81470017694E+01  0.60293313979E+01  0.85507311617E+00  0.10171412155E+02  0.51100000000E-03 0.  1.
        -12    1    3    3    0    0 -0.27866857157E+01  0.44988925507E+01  0.23349494067E+02  0.23941690096E+02  0.00000000000E+00 0.  1.
</event>
<event>
 7    1  0.1789107E-013  0.7246157E+02  0.7816164E-02  0.1226708E+00
        -11   -1    0    0    0    0  0.00000000000E+00  0.00000000000E+00  0.45593999997E+02  0.45594000000E+02  0.51100000000E-03 0.  1.
         11   -1    0    0    0    0 -0.00000000000E+00 -0.00000000000E+00 -0.45593999997E+02  0.45594000000E+02  0.51100000000E-03 0. -1.
    9900012    2    1    2    0    0  0.33485327575E+01 -0.13283382418E+02  0.12767866990E+02  0.72461565541E+02  0.69999993808E+02 0.  0.
        -12    1    1    2    0    0 -0.33485327575E+01  0.13283382418E+02 -0.12767866990E+02  0.18726434459E+02  0.00000000000E+00 0.  1.
         11    1    3    3    0    0  0.14907042020E+02 -0.18478911703E+02 -0.15628770941E+02  0.28424435982E+02  0.51100000000E-03 0. -1.
        -11    1    3    3    0    0  0.32722477791E+01 -0.10938896519E+02  0.12716142246E+02  0.17089977661E+02  0.51100000000E-03 0.  1.
        -12    1    3    3    0    0 -0.14830757042E+02  0.16134425804E+02  0.15680495685E+02  0.26947151897E+02  0.00000000000E+00 0.  1.
</event>
<event>
 7    1  0.1789107E-013  0.7246157E+02  0.7816164E-02  0.1226708E+00
        -11   -1    0    0    0    0  0.00000000000E+00  0.00000000000E+00  0.45593999997E+02  0.45594000000E+02  0.51100000000E-03 0. -1.
         11   -1    0    0    0    0 -0.00000000000E+00 -0.00000000000E+00 -0.45593999997E+02  0.45594000000E+02  0.51100000000E-03 0.  1.
    9900012    2    1    2    0    0  0.11705564061E+02 -0.67349588060E+01 -0.12973016642E+02  0.72461573194E+02  0.70000003778E+02 0.  0.
        -12    1    1    2    0    0 -0.11705564061E+02  0.67349588060E+01  0.12973016642E+02  0.18726426806E+02  0.00000000000E+00 0.  1.
         11    1    3    3    0    0  0.85939551486E+01 -0.16715832154E+02 -0.16546715353E+02  0.25041343792E+02  0.51100000000E-03 0. -1.
        -11    1    3    3    0    0  0.16702177218E+02  0.78984159763E+01 -0.15356119095E+02  0.24024114816E+02  0.51100000000E-03 0.  1.
        -12    1    3    3    0    0 -0.13590568306E+02  0.20824573712E+01  0.18929817806E+02  0.23396114586E+02  0.00000000000E+00 0.  1.
</event>
<event>
 7    1  0.1789107E-013  0.7246151E+02  0.7816164E-02  0.1226708E+00
        -11   -1    0    0    0    0  0.00000000000E+00  0.00000000000E+00  0.45593999997E+02  0.45594000000E+02  0.51100000000E-03 0. -1.
         11   -1    0    0    0    0 -0.00000000000E+00 -0.00000000000E+00 -0.45593999997E+02  0.45594000000E+02  0.51100000000E-03 0.  1.
    9900012    2    1    2    0    0  0.13725832234E+02  0.12801905091E+01  0.12674544805E+02  0.72461509558E+02  0.69999920880E+02 0.  0.
        -12    1    1    2    0    0 -0.13725832234E+02 -0.12801905091E+01 -0.12674544805E+02  0.18726490442E+02  0.00000000000E+00 0.  1.
         11    1    3    3    0    0 -0.79008526794E+01  0.19129365116E+02 -0.69494749320E+01  0.21832344925E+02  0.51100000000E-03 0.  1.
        -11    1    3    3    0    0 -0.89022080849E+01 -0.33457849759E+01  0.13129597917E+02  0.16212030336E+02  0.51100000000E-03 0. -1.
        -12    1    3    3    0    0  0.30528892998E+02 -0.14503389631E+02  0.64944218202E+01  0.34417134298E+02  0.00000000000E+00 0.  1.
</event>
<event>
 7    1  0.1789107E-013  0.7246154E+02  0.7816164E-02  0.1226708E+00
        -11   -1    0    0    0    0  0.00000000000E+00  0.00000000000E+00  0.45593999997E+02  0.45594000000E+02  0.51100000000E-03 0.  1.
         11   -1    0    0    0    0 -0.00000000000E+00 -0.00000000000E+00 -0.45593999997E+02  0.45594000000E+02  0.51100000000E-03 0. -1.
    9900012    2    1    2    0    0 -0.22446421181E+01 -0.61307930538E+00 -0.18581335465E+02  0.72461539787E+02  0.69999960258E+02 0.  0.
        -12    1    1    2    0    0  0.22446421181E+01  0.61307930538E+00  0.18581335465E+02  0.18726460213E+02  0.00000000000E+00 0.  1.
         11    1    3    3    0    0 -0.39023632112E+01 -0.36252410779E+01  0.67921282538E+01  0.86315594178E+01  0.51100000000E-03 0. -1.
        -11    1    3    3    0    0 -0.35968004478E+01 -0.27233957089E+02 -0.82720191168E+01  0.28688877509E+02  0.51100000000E-03 0.  1.
         12    1    3    3    0    0  0.52545215409E+01  0.30246118861E+02 -0.17101444602E+02  0.35141102860E+02  0.00000000000E+00 0. -1.
</event>
<event>
 7    1  0.1789107E-013  0.7246160E+02  0.7816164E-02  0.1226708E+00
        -11   -1    0    0    0    0  0.00000000000E+00  0.00000000000E+00  0.45593999997E+02  0.45594000000E+02  0.51100000000E-03 0. -1.
         11   -1    0    0    0    0 -0.00000000000E+00 -0.00000000000E+00 -0.45593999997E+02  0.45594000000E+02  0.51100000000E-03 0.  1.
    9900012    2    1    2    0    0  0.97330379000E+01  0.13795281402E+02  0.81016109645E+01  0.72461603765E+02  0.70000043602E+02 0.  0.
        -12    1    1    2    0    0 -0.97330379000E+01 -0.13795281402E+02 -0.81016109645E+01  0.18726396235E+02  0.00000000000E+00 0.  1.
         11    1    3    3    0    0  0.12260165563E+02 -0.18565420453E+02  0.71197014590E+01  0.23359722716E+02  0.51100000000E-03 0. -1.
        -11    1    3    3    0    0 -0.86964139597E+01  0.97457325856E+01 -0.15631489697E+02  0.20370331117E+02  0.51100000000E-03 0.  1.
        -12    1    3    3    0    0  0.61692862967E+01  0.22614969270E+02  0.16613399203E+02  0.28731549933E+02  0.00000000000E+00 0.  1.
</event>
<event>
 7    1  0.1789107E-013  0.7246153E+02  0.7816164E-02  0.1226708E+00
        -11   -1    0    0    0    0  0.00000000000E+00  0.00000000000E+00  0.45593999997E+02  0.45594000000E+02  0.51100000000E-03 0. -1.
         11   -1    0    0    0    0 -0.00000000000E+00 -0.00000000000E+00 -0.45593999997E+02  0.45594000000E+02  0.51100000000E-03 0.  1.
    9900012    2    1    2    0    0  0.62656844904E+01 -0.10177327982E+02 -0.14416785453E+02  0.72461534509E+02  0.69999953383E+02 0.  0.
        -12    1    1    2    0    0 -0.62656844904E+01  0.10177327982E+02  0.14416785453E+02  0.18726465491E+02  0.00000000000E+00 0.  1.
         11    1    3    3    0    0  0.10430277989E+02 -0.94160259716E+01 -0.13007522233E+02  0.19148051570E+02  0.51100000000E-03 0. -1.
        -11    1    3    3    0    0 -0.26919321851E+02 -0.70641241429E+01  0.61868880039E+01  0.28510161737E+02  0.51100000000E-03 0.  1.
         12    1    3    3    0    0  0.22754728353E+02  0.63028221327E+01 -0.75961512235E+01  0.24803321202E+02  0.00000000000E+00 0. -1.
</event>
<event>
 7    1  0.1789107E-013  0.7246157E+02  0.7816164E-02  0.1226708E+00
        -11   -1    0    0    0    0  0.00000000000E+00  0.00000000000E+00  0.45593999997E+02  0.45594000000E+02  0.51100000000E-03 0. -1.
         11   -1    0    0    0    0 -0.00000000000E+00 -0.00000000000E+00 -0.45593999997E+02  0.45594000000E+02  0.51100000000E-03 0.  1.
    9900012    2    1    2    0    0  0.60194485693E+01 -0.82108957104E+01  0.15717084810E+02  0.72461566160E+02  0.69999994614E+02 0.  0.
        -12    1    1    2    0    0 -0.60194485693E+01  0.82108957104E+01 -0.15717084810E+02  0.18726433840E+02  0.00000000000E+00 0.  1.
         11    1    3    3    0    0  0.52333421980E+01  0.18814038069E+01  0.41085261393E+00  0.55764102232E+01  0.51100000000E-03 0. -1.
        -11    1    3    3    0    0 -0.21856993442E+02  0.15186437710E+02 -0.53620844015E+01  0.27149733001E+02  0.51100000000E-03 0.  1.
         12    1    3    3    0    0  0.22643099813E+02 -0.25278737227E+02  0.20668316597E+02  0.39735422936E+02  0.00000000000E+00 0. -1.
</event>
<event>
 7    1  0.1789107E-013  0.7246157E+02  0.7816164E-02  0.1226708E+00
        -11   -1    0    0    0    0  0.00000000000E+00  0.00000000000E+00  0.45593999997E+02  0.45594000000E+02  0.51100000000E-03 0.  1.
         11   -1    0    0    0    0 -0.00000000000E+00 -0.00000000000E+00 -0.45593999997E+02  0.45594000000E+02  0.51100000000E-03 0. -1.
    9900012    2    1    2    0    0 -0.10650611341E+02  0.15219247961E+02  0.23702711664E+01  0.72461569058E+02  0.69999998389E+02 0.  0.
        -12    1    1    2    0    0  0.10650611341E+02 -0.15219247961E+02 -0.23702711664E+01  0.18726430942E+02  0.00000000000E+00 0.  1.
         11    1    3    3    0    0  0.41497767997E+01 -0.88362989518E+01  0.99776141920E+00  0.98130706083E+01  0.51100000000E-03 0. -1.
        -11    1    3    3    0    0 -0.39704201794E+01 -0.90603666945E+01  0.20601015945E+02  0.22852928461E+02  0.51100000000E-03 0.  1.
         12    1    3    3    0    0 -0.10829967961E+02  0.33115913607E+02 -0.19228506197E+02  0.39795569988E+02  0.00000000000E+00 0. -1.
</event>
<event>
 7    1  0.1789107E-013  0.7246134E+02  0.7816164E-02  0.1226709E+00
        -11   -1    0    0    0    0  0.00000000000E+00  0.00000000000E+00  0.45593999997E+02  0.45594000000E+02  0.51100000000E-03 0. -1.
         11   -1    0    0    0    0 -0.00000000000E+00 -0.00000000000E+00 -0.45593999997E+02  0.45594000000E+02  0.51100000000E-03 0.  1.
    9900012    2    1    2    0    0  0.23918989794E+01 -0.76186087408E+01  0.16938809345E+02  0.72461344081E+02  0.69999705315E+02 0.  0.
        -12    1    1    2    0    0 -0.23918989794E+01  0.76186087408E+01 -0.16938809345E+02  0.18726655919E+02  0.00000000000E+00 0.  1.
         11    1    3    3    0    0  0.77798800109E+01 -0.20056545783E+02 -0.11338041296E+02  0.24317539810E+02  0.51100000000E-03 0. -1.
        -11    1    3    3    0    0 -0.20116891829E+02  0.71025454080E+00  0.14134822076E+02  0.24596483361E+02  0.51100000000E-03 0.  1.
        -12    1    3    3    0    0  0.14728910797E+02  0.11727682501E+02  0.14142028564E+02  0.23547320910E+02  0.00000000000E+00 0.  1.
</event>
<event>
 7    1  0.1789107E-013  0.7246160E+02  0.7816164E-02  0.1226708E+00
        -11   -1    0    0    0    0  0.00000000000E+00  0.00000000000E+00  0.45593999997E+02  0.45594000000E+02  0.51100000000E-03 0. -1.
         11   -1    0    0    0    0 -0.00000000000E+00 -0.00000000000E+00 -0.45593999997E+02  0.45594000000E+02  0.51100000000E-03 0.  1.
    9900012    2    1    2    0    0 -0.16534035601E+02  0.84052916774E+01 -0.25797055445E+01  0.72461597726E+02  0.70000035735E+02 0.  0.
        -12    1    1    2    0    0  0.16534035601E+02 -0.84052916774E+01  0.25797055445E+01  0.18726402274E+02  0.00000000000E+00 0.  1.
         11    1    3    3    0    0  0.10738767787E+02  0.17648208138E+02  0.10882554699E+02  0.23349740493E+02  0.51100000000E-03 0. -1.
        -11    1    3    3    0    0 -0.19982281197E+02 -0.89569985880E+01  0.10340025435E+02  0.24216430617E+02  0.51100000000E-03 0.  1.
        -12    1    3    3    0    0 -0.72905221899E+01 -0.28591787265E+00 -0.23802285679E+02  0.24895426616E+02  0.00000000000E+00 0.  1.
</event>
<event>
 7    1  0.1789107E-013  0.7246154E+02  0.7816164E-02  0.1226708E+00
        -11   -1    0    0    0    0  0.00000000000E+00  0.00000000000E+00  0.45593999997E+02  0.45594000000E+02  0.51100000000E-03 0.  1.
         11   -1    0    0    0    0 -0.00000000000E+00 -0.00000000000E+00 -0.45593999997E+02  0.45594000000E+02  0.51100000000E-03 0. -1.
    9900012    2    1    2    0    0  0.16382758880E+02 -0.71623940680E+01 -0.55664872671E+01  0.72461535897E+02  0.69999955191E+02 0.  0.
        -12    1    1    2    0    0 -0.16382758880E+02  0.71623940680E+01  0.55664872671E+01  0.18726464103E+02  0.00000000000E+00 0.  1.
         11    1    3    3    0    0 -0.57526568140E+01 -0.29122572426E+01  0.91615461409E+01  0.11203045596E+02  0.51100000000E-03 0. -1.
        -11    1    3    3    0    0  0.51020527300E+01 -0.19588134124E+01  0.20952953957E+02  0.21653964345E+02  0.51100000000E-03 0.  1.
         12    1    3    3    0    0  0.17033362964E+02 -0.22913234129E+01 -0.35680987365E+02  0.39604525956E+02  0.00000000000E+00 0. -1.
</event>
<event>
 7    1  0.1789107E-013  0.7246157E+02  0.7816164E-02  0.1226708E+00
        -11   -1    0    0    0    0  0.00000000000E+00  0.00000000000E+00  0.45593999997E+02  0.45594000000E+02  0.51100000000E-03 0.  1.
         11   -1    0    0    0    0 -0.00000000000E+00 -0.00000000000E+00 -0.45593999997E+02  0.45594000000E+02  0.51100000000E-03 0. -1.
    9900012    2    1    2    0    0 -0.11649369463E+02 -0.97595068727E+01 -0.10941820858E+02  0.72461568761E+02  0.69999998002E+02 0.  0.
        -12    1    1    2    0    0  0.11649369463E+02  0.97595068727E+01  0.10941820858E+02  0.18726431239E+02  0.00000000000E+00 0.  1.
         11    1    3    3    0    0 -0.29871841077E+01 -0.29923741874E+02 -0.14701067027E+02  0.33473496510E+02  0.51100000000E-03 0. -1.
        -11    1    3    3    0    0 -0.17341447411E+01  0.95454514087E+01 -0.14082018554E+02  0.17100472139E+02  0.51100000000E-03 0.  1.
        -12    1    3    3    0    0 -0.69280406137E+01  0.10618783593E+02  0.17841264723E+02  0.21887600111E+02  0.00000000000E+00 0.  1.
</event>
<event>
 7    1  0.1789107E-013  0.7246161E+02  0.7816164E-02  0.1226708E+00
        -11   -1    0    0    0    0  0.00000000000E+00  0.00000000000E+00  0.45593999997E+02  0.45594000000E+02  0.51100000000E-03 0. -1.
         11   -1    0    0    0    0 -0.00000000000E+00 -0.00000000000E+00 -0.45593999997E+02  0.45594000000E+02  0.51100000000E-03 0.  1.
    9900012    2    1    2    0    0 -0.50540104408E+01  0.70775217048E+01 -0.16584432633E+02  0.72461608442E+02  0.70000049695E+02 0.  0.
        -12    1    1    2    0    0  0.50540104408E+01 -0.70775217048E+01  0.16584432633E+02  0.18726391558E+02  0.00000000000E+00 0.  1.
         11    1    3    3    0    0  0.67666509594E+01  0.52233718495E+01 -0.14299926672E+02  0.16660104495E+02  0.51100000000E-03 0. -1.
        -11    1    3    3    0    0  0.13681890797E+02  0.17424277218E+02 -0.10919512992E+02  0.24698893428E+02  0.51100000000E-03 0.  1.
         12    1    3    3    0    0 -0.25502552197E+02 -0.15570127363E+02  0.86350070312E+01  0.31102610519E+02  0.00000000000E+00 0. -1.
</event>
<event>
 7    1  0.1789107E-013  0.7246155E+02  0.7816164E-02  0.1226708E+00
        -11   -1    0    0    0    0  0.00000000000E+00  0.00000000000E+00  0.45593999997E+02  0.45594000000E+02  0.51100000000E-03 0.  1.
         11   -1    0    0    0    0 -0.00000000000E+00 -0.00000000000E+00 -0.45593999997E+02  0.45594000000E+02  0.51100000000E-03 0. -1.
    9900012    2    1    2    0    0  0.66392125200E+01  0.53264271771E+01 -0.16680225351E+02  0.72461551135E+02  0.69999975041E+02 0.  0.
        -12    1    1    2    0    0 -0.66392125200E+01 -0.53264271771E+01  0.16680225351E+02  0.18726448865E+02  0.00000000000E+00 0.  1.
         11    1    3    3    0    0 -0.81182638868E+01  0.47893091649E+01 -0.12444027335E+02  0.15610813796E+02  0.51100000000E-03 0. -1.
        -11    1    3    3    0    0 -0.11318417083E+02 -0.15916452122E+02 -0.14532460071E+02  0.24344042585E+02  0.51100000000E-03 0.  1.
        -12    1    3    3    0    0  0.26075893490E+02  0.16453570134E+02  0.10296262055E+02  0.32506694753E+02  0.00000000000E+00 0.  1.
</event>
<event>
 7    1  0.1789107E-013  0.7246159E+02  0.7816164E-02  0.1226708E+00
        -11   -1    0    0    0    0  0.00000000000E+00  0.00000000000E+00  0.45593999997E+02  0.45594000000E+02  0.51100000000E-03 0. -1.
         11   -1    0    0    0    0 -0.00000000000E+00 -0.00000000000E+00 -0.45593999997E+02  0.45594000000E+02  0.51100000000E-03 0.  1.
    9900012    2    1    2    0    0 -0.39318926784E+01  0.13973135869E+02  0.11830904340E+02  0.72461585406E+02  0.70000019685E+02 0.  0.
        -12    1    1    2    0    0  0.39318926784E+01 -0.13973135869E+02 -0.11830904340E+02  0.18726414594E+02  0.00000000000E+00 0.  1.
         11    1    3    3    0    0  0.16027679938E+02  0.18177833513E+02  0.90010467582E+01  0.25852253256E+02  0.51100000000E-03 0. -1.
        -11    1    3    3    0    0  0.58134972019E+01 -0.24176247439E+01  0.16299915364E+02  0.17473663046E+02  0.51100000000E-03 0.  1.
        -12    1    3    3    0    0 -0.25773069818E+02 -0.17870729001E+01 -0.13470057782E+02  0.29135669103E+02  0.00000000000E+00 0.  1.
</event>
<event>
 7    1  0.1789107E-013  0.7246190E+02  0.7816164E-02  0.1226707E+00
        -11   -1    0    0    0    0  0.00000000000E+00  0.00000000000E+00  0.45593999997E+02  0.45594000000E+02  0.51100000000E-03 0.  1.
         11   -1    0    0    0    0 -0.00000000000E+00 -0.00000000000E+00 -0.45593999997E+02  0.45594000000E+02  0.51100000000E-03 0. -1.
    9900012    2    1    2    0    0  0.15671363076E+01  0.18633229177E+02  0.10067215247E+01  0.72461904999E+02  0.70000436013E+02 0.  0.
        -12    1    1    2    0    0 -0.15671363076E+01 -0.18633229177E+02 -0.10067215247E+01  0.18726095001E+02  0.00000000000E+00 0.  1.
         11    1    3    3    0    0 -0.74641683716E+01  0.25955709492E+01 -0.22829019125E+02  0.24158123116E+02  0.51100000000E-03 0. -1.
        -11    1    3    3    0    0 -0.86425769663E+01 -0.71524711573E+01  0.98950488380E+00  0.11261931471E+02  0.51100000000E-03 0.  1.
        -12    1    3    3    0    0  0.17673881645E+02  0.23190129385E+02  0.22846235765E+02  0.37041850412E+02  0.00000000000E+00 0.  1.
</event>
<event>
 7    1  0.1789107E-013  0.7246160E+02  0.7816164E-02  0.1226708E+00
        -11   -1    0    0    0    0  0.00000000000E+00  0.00000000000E+00  0.45593999997E+02  0.45594000000E+02  0.51100000000E-03 0.  1.
         11   -1    0    0    0    0 -0.00000000000E+00 -0.00000000000E+00 -0.45593999997E+02  0.45594000000E+02  0.51100000000E-03 0. -1.
    9900012    2    1    2    0    0 -0.15969041690E+02  0.78770385188E+01  0.57982655299E+01  0.72461603884E+02  0.70000043757E+02 0.  0.
        -12    1    1    2    0    0  0.15969041690E+02 -0.78770385188E+01 -0.57982655299E+01  0.18726396116E+02  0.00000000000E+00 0.  1.
         11    1    3    3    0    0 -0.28293791522E+02  0.18032668843E+02 -0.12832537738E+02  0.35921996177E+02  0.51100000000E-03 0. -1.
        -11    1    3    3    0    0  0.43298338706E+00  0.63011066703E-01 -0.67187531139E+01  0.67329851236E+01  0.51100000000E-03 0.  1.
        -12    1    3    3    0    0  0.11891766445E+02 -0.10218641391E+02  0.25349556382E+02  0.29806622583E+02  0.00000000000E+00 0.  1.
</event>
<event>
 7    1  0.1789107E-013  0.7246142E+02  0.7816164E-02  0.1226708E+00
        -11   -1    0    0    0    0  0.00000000000E+00  0.00000000000E+00  0.45593999997E+02  0.45594000000E+02  0.51100000000E-03 0. -1.
         11   -1    0    0    0    0 -0.00000000000E+00 -0.00000000000E+00 -0.45593999997E+02  0.45594000000E+02  0.51100000000E-03 0.  1.
    9900012    2    1    2    0    0  0.12671368078E+02  0.72612275036E+01  0.11721601493E+02  0.72461416345E+02  0.69999799452E+02 0.  0.
        -12    1    1    2    0    0 -0.12671368078E+02 -0.72612275036E+01 -0.11721601493E+02  0.18726583655E+02  0.00000000000E+00 0.  1.
         11    1    3    3    0    0  0.26870536696E+01  0.60917122973E+01 -0.36023791247E+01  0.75700958881E+01  0.51100000000E-03 0. -1.
        -11    1    3    3    0    0  0.20327726558E+02 -0.16661505392E+02 -0.13426643796E+02  0.29514352319E+02  0.51100000000E-03 0.  1.
         12    1    3    3    0    0 -0.10343412150E+02  0.17831020598E+02  0.28750624413E+02  0.35376968138E+02  0.00000000000E+00 0. -1.
</event>
<event>
 7    1  0.1789107E-013  0.7246162E+02  0.7816164E-02  0.1226708E+00
        -11   -1    0    0    0    0  0.00000000000E+00  0.00000000000E+00  0.45593999997E+02  0.45594000000E+02  0.51100000000E-03 0. -1.
         11   -1    0    0    0    0 -0.00000000000E+00 -0.00000000000E+00 -0.45593999997E+02  0.45594000000E+02  0.51100000000E-03 0.  1.
    9900012    2    1    2    0    0  0.12951410127E+02 -0.13226241149E+02 -0.28292526246E+01  0.72461624225E+02  0.70000070255E+02 0.  0.
        -12    1    1    2    0    0 -0.12951410127E+02  0.13226241149E+02  0.28292526246E+01  0.18726375775E+02  0.00000000000E+00 0.  1.
         11    1    3    3    0    0 -0.10229178464E+02 -0.19023536864E+01  0.82496860881E+01  0.13278266544E+02  0.51100000000E-03 0. -1.
        -11    1    3    3    0    0 -0.92518440547E+01  0.60710361292E+01 -0.18578319961E+02  0.21624247292E+02  0.51100000000E-03 0.  1.
         12    1    3    3    0    0  0.32432432646E+02 -0.17394923592E+02  0.74993812485E+01  0.37559110390E+02  0.00000000000E+00 0. -1.
</event>
<event>
 7    1  0.1789107E-013  0.7246141E+02  0.7816164E-02  0.1226708E+00
        -11   -1    0    0    0    0  0.00000000000E+00  0.00000000000E+00  0.45593999997E+02  0.45594000000E+02  0.51100000000E-03 0. -1.
         11   -1    0    0    0    0 -0.00000000000E+00 -0.00000000000E+00 -0.45593999997E+02  0.45594000000E+02  0.51100000000E-03 0.  1.
    9900012    2    1    2    0    0 -0.17871018534E+02  0.51309502165E+01 -0.22327562935E+01  0.72461410502E+02  0.69999791840E+02 0.  0.
        -12    1    1    2    0    0  0.17871018534E+02 -0.51309502165E+01  0.22327562935E+01  0.18726589498E+02  0.00000000000E+00 0.  1.
         11    1    3    3    0    0 -0.28916865189E+02 -0.76026601207E+01  0.25166268553E+02  0.39081026169E+02  0.51100000000E-03 0. -1.
        -11    1    3    3    0    0  0.13510927254E+00  0.15187817157E+01  0.31273659016E+00  0.15565207520E+01  0.51100000000E-03 0.  1.
        -12    1    3    3    0    0  0.10910737382E+02  0.11214828622E+02 -0.27711761437E+02  0.31823863580E+02  0.00000000000E+00 0.  1.
</event>
<event>
 7    1  0.1789107E-013  0.7246153E+02  0.7816164E-02  0.1226708E+00
        -11   -1    0    0    0    0  0.00000000000E+00  0.00000000000E+00  0.45593999997E+02  0.45594000000E+02  0.51100000000E-03 0.  1.
         11   -1    0    0    0    0 -0.00000000000E+00 -0.00000000000E+00 -0.45593999997E+02  0.45594000000E+02  0.51100000000E-03 0. -1.
    9900012    2    1    2    0    0 -0.12149013009E+02 -0.12501037646E+02  0.68414976265E+01  0.72461533459E+02  0.69999952016E+02 0.  0.
        -12    1    1    2    0    0  0.12149013009E+02  0.12501037646E+02 -0.68414976265E+01  0.18726466541E+02  0.00000000000E+00 0.  1.
         11    1    3    3    0    0 -0.11418608276E+02  0.21744069847E+01 -0.27985828340E+00  0.11627165674E+02  0.51100000000E-03 0. -1.
        -11    1    3    3    0    0 -0.71466003758E+00  0.21772511304E+02  0.10589655625E+02  0.24221762817E+02  0.51100000000E-03 0.  1.
         12    1    3    3    0    0 -0.15744695875E-01 -0.36447955934E+02 -0.34682997146E+01  0.36612604969E+02  0.00000000000E+00 0. -1.
</event>
<event>
 7    1  0.1789107E-013  0.7246162E+02  0.7816164E-02  0.1226708E+00
        -11   -1    0    0    0    0  0.00000000000E+00  0.00000000000E+00  0.45593999997E+02  0.45594000000E+02  0.51100000000E-03 0.  1.
         11   -1    0    0    0    0 -0.00000000000E+00 -0.00000000000E+00 -0.45593999997E+02  0.45594000000E+02  0.51100000000E-03 0. -1.
    9900012    2    1    2    0    0 -0.11871612499E+02  0.26747911923E+00 -0.14480012042E+02  0.72461615481E+02  0.70000058865E+02 0.  0.
        -12    1    1    2    0    0  0.11871612499E+02 -0.26747911923E+00  0.14480012042E+02  0.18726384519E+02  0.00000000000E+00 0.  1.
         11    1    3    3    0    0  0.15763418274E+02  0.14603532455E+02  0.19407537562E+01  0.21575797580E+02  0.51100000000E-03 0. -1.
        -11    1    3    3    0    0  0.49620806279E+01 -0.41636275690E+00 -0.14564826405E+02  0.15392523204E+02  0.51100000000E-03 0.  1.
         12    1    3    3    0    0 -0.32597111400E+02 -0.13919690579E+02 -0.18559393930E+01  0.35493294697E+02  0.00000000000E+00 0. -1.
</event>
<event>
 7    1  0.1789107E-013  0.7246163E+02  0.7816164E-02  0.1226708E+00
        -11   -1    0    0    0    0  0.00000000000E+00  0.00000000000E+00  0.45593999997E+02  0.45594000000E+02  0.51100000000E-03 0.  1.
         11   -1    0    0    0    0 -0.00000000000E+00 -0.00000000000E+00 -0.45593999997E+02  0.45594000000E+02  0.51100000000E-03 0. -1.
    9900012    2    1    2    0    0 -0.49809112281E+01 -0.16881746505E+02  0.63932957278E+01  0.72461626299E+02  0.70000072956E+02 0.  0.
        -12    1    1    2    0    0  0.49809112281E+01  0.16881746505E+02 -0.63932957278E+01  0.18726373701E+02  0.00000000000E+00 0.  1.
         11    1    3    3    0    0  0.13588116083E+02 -0.21941300076E+01 -0.19372141046E+01  0.13899780715E+02  0.51100000000E-03 0. -1.
        -11    1    3    3    0    0 -0.24407715476E+02 -0.59749646488E-01  0.25475314559E+02  0.35280756751E+02  0.51100000000E-03 0.  1.
         12    1    3    3    0    0  0.58386881655E+01 -0.14627866851E+02 -0.17144804727E+02  0.23281088833E+02  0.00000000000E+00 0. -1.
</event>
<event>
 7    1  0.1789107E-013  0.7246154E+02  0.7816164E-02  0.1226708E+00
        -11   -1    0    0    0    0  0.00000000000E+00  0.00000000000E+00  0.45593999997E+02  0.45594000000E+02  0.51100000000E-03 0.  1.
         11   -1    0    0    0    0 -0.00000000000E+00 -0.00000000000E+00 -0.45593999997E+02  0.45594000000E+02  0.51100000000E-03 0. -1.
    9900012    2    1    2    0    0  0.17115134114E+02 -0.15443740095E+01  0.74409149858E+01  0.72461544846E+02  0.69999966848E+02 0.  0.
        -12    1    1    2    0    0 -0.17115134114E+02  0.15443740095E+01 -0.74409149858E+01  0.18726455154E+02  0.00000000000E+00 0.  1.
         11    1    3    3    0    0 -0.14470966498E+02 -0.14228412128E+02 -0.16380476218E+02  0.26080195254E+02  0.51100000000E-03 0. -1.
        -11    1    3    3    0    0  0.10621585840E+02  0.16697292459E+01 -0.24334825747E+01  0.11023970211E+02  0.51100000000E-03 0.  1.
        -12    1    3    3    0    0  0.20964514772E+02  0.11014308873E+02  0.26254873778E+02  0.35357379381E+02  0.00000000000E+00 0.  1.
</event>
<event>
 7    1  0.1789107E-013  0.7246141E+02  0.7816164E-02  0.1226708E+00
        -11   -1    0    0    0    0  0.00000000000E+00  0.00000000000E+00  0.45593999997E+02  0.45594000000E+02  0.51100000000E-03 0.  1.
         11   -1    0    0    0    0 -0.00000000000E+00 -0.00000000000E+00 -0.45593999997E+02  0.45594000000E+02  0.51100000000E-03 0. -1.
    9900012    2    1    2    0    0  0.80288976490E+01 -0.15895589396E+02  0.57924267802E+01  0.72461410142E+02  0.69999791371E+02 0.  0.
        -12    1    1    2    0    0 -0.80288976490E+01  0.15895589396E+02 -0.57924267802E+01  0.18726589858E+02  0.00000000000E+00 0.  1.
         11    1    3    3    0    0  0.18622380044E+02 -0.30631177689E+02 -0.11137259011E+02  0.37537989073E+02  0.51100000000E-03 0. -1.
        -11    1    3    3    0    0  0.58669612585E+00 -0.71731356555E+00 -0.54445360131E+01  0.55228365678E+01  0.51100000000E-03 0.  1.
        -12    1    3    3    0    0 -0.11180178521E+02  0.15452901858E+02  0.22374221805E+02  0.29400584501E+02  0.00000000000E+00 0.  1.
</event>
<event>
 7    1  0.1789107E-013  0.7246154E+02  0.7816164E-02  0.1226708E+00
        -11   -1    0    0    0    0  0.00000000000E+00  0.00000000000E+00  0.45593999997E+02  0.45594000000E+02  0.51100000000E-03 0. -1.
         11   -1    0    0    0    0 -0.00000000000E+00 -0.00000000000E+00 -0.45593999997E+02  0.45594000000E+02  0.51100000000E-03 0.  1.
    9900012    2    1    2    0    0  0.15437311199E+02  0.10597147102E+02  0.26460237095E+00  0.72461544965E+02  0.69999967004E+02 0.  0.
        -12    1    1    2    0    0 -0.15437311199E+02 -0.10597147102E+02 -0.26460237095E+00  0.18726455035E+02  0.00000000000E+00 0.  1.
         11    1    3    3    0    0  0.18085634067E+02  0.76444914118E+01  0.18686469759E+00  0.19635766530E+02  0.51100000000E-03 0. -1.
        -11    1    3    3    0    0  0.74742767119E+01 -0.15446583807E+02 -0.18179463296E+02  0.24999092977E+02  0.51100000000E-03 0.  1.
        -12    1    3    3    0    0 -0.10122599580E+02  0.18399239497E+02  0.18257200970E+02  0.27826685458E+02  0.00000000000E+00 0.  1.
</event>
<event>
 7    1  0.1789107E-013  0.7246157E+02  0.7816164E-02  0.1226708E+00
        -11   -1    0    0    0    0  0.00000000000E+00  0.00000000000E+00  0.45593999997E+02  0.45594000000E+02  0.51100000000E-03 0. -1.
         11   -1    0    0    0    0 -0.00000000000E+00 -0.00000000000E+00 -0.45593999997E+02  0.45594000000E+02  0.51100000000E-03 0.  1.
    9900012    2    1    2    0    0  0.98780341400E+01 -0.11859262094E+01  0.15864972697E+02  0.72461565793E+02  0.69999994136E+02 0.  0.
        -12    1    1    2    0    0 -0.98780341400E+01  0.11859262094E+01 -0.15864972697E+02  0.18726434207E+02  0.00000000000E+00 0.  1.
         11    1    3    3    0    0  0.68021758231E+00 -0.44845501457E+01 -0.39567609971E+00  0.45530699320E+01  0.51100000000E-03 0.  1.
        -11    1    3    3    0    0 -0.70364427449E+01  0.26436524742E+02  0.26265846120E+02  0.37924873627E+02  0.51100000000E-03 0. -1.
         12    1    3    3    0    0  0.16234259303E+02 -0.23137900806E+02 -0.10005197324E+02  0.29983622234E+02  0.00000000000E+00 0. -1.
</event>
<event>
 7    1  0.1789107E-013  0.7246150E+02  0.7816164E-02  0.1226708E+00
        -11   -1    0    0    0    0  0.00000000000E+00  0.00000000000E+00  0.45593999997E+02  0.45594000000E+02  0.51100000000E-03 0. -1.
         11   -1    0    0    0    0 -0.00000000000E+00 -0.00000000000E+00 -0.45593999997E+02  0.45594000000E+02  0.51100000000E-03 0.  1.
    9900012    2    1    2    0    0 -0.17975959959E+01  0.57056649962E+01  0.17745305335E+02  0.72461499370E+02  0.69999907608E+02 0.  0.
        -12    1    1    2    0    0  0.17975959959E+01 -0.57056649962E+01 -0.17745305335E+02  0.18726500630E+02  0.00000000000E+00 0.  1.
         11    1    3    3    0    0 -0.15801944806E+02 -0.19772064111E+02  0.63760479279E+01  0.26101531876E+02  0.51100000000E-03 0. -1.
        -11    1    3    3    0    0  0.62676176288E+00 -0.80999627629E+01 -0.93685168072E+00  0.81780143311E+01  0.51100000000E-03 0.  1.
        -12    1    3    3    0    0  0.13377587047E+02  0.33577691870E+02  0.12306109088E+02  0.38181953163E+02  0.00000000000E+00 0.  1.
</event>
<event>
 7    1  0.1789107E-013  0.7246153E+02  0.7816164E-02  0.1226708E+00
        -11   -1    0    0    0    0  0.00000000000E+00  0.00000000000E+00  0.45593999997E+02  0.45594000000E+02  0.51100000000E-03 0.  1.
         11   -1    0    0    0    0 -0.00000000000E+00 -0.00000000000E+00 -0.45593999997E+02  0.45594000000E+02  0.51100000000E-03 0. -1.
    9900012    2    1    2    0    0  0.10596644313E+02 -0.86230041841E+01 -0.12807631374E+02  0.72461534950E+02  0.69999953957E+02 0.  0.
        -12    1    1    2    0    0 -0.10596644313E+02  0.86230041841E+01  0.12807631374E+02  0.18726465050E+02  0.00000000000E+00 0.  1.
         11    1    3    3    0    0  0.56557559349E+00  0.10629897952E+02 -0.21228414234E+01  0.10854541087E+02  0.51100000000E-03 0. -1.
        -11    1    3    3    0    0  0.17160507642E+02 -0.59605530739E+00  0.19139350895E+02  0.25712896714E+02  0.51100000000E-03 0.  1.
         12    1    3    3    0    0 -0.71294389223E+01 -0.18656846829E+02 -0.29824140846E+02  0.35894097149E+02  0.00000000000E+00 0. -1.
</event>
<event>
 7    1  0.1789107E-013  0.7246149E+02  0.7816164E-02  0.1226708E+00
        -11   -1    0    0    0    0  0.00000000000E+00  0.00000000000E+00  0.45593999997E+02  0.45594000000E+02  0.51100000000E-03 0.  1.
         11   -1    0    0    0    0 -0.00000000000E+00 -0.00000000000E+00 -0.45593999997E+02  0.45594000000E+02  0.51100000000E-03 0. -1.
    9900012    2    1    2    0    0 -0.11799398997E+02 -0.39486540796E+00 -0.14536178418E+02  0.72461488889E+02  0.69999893954E+02 0.  0.
        -12    1    1    2    0    0  0.11799398997E+02  0.39486540796E+00  0.14536178418E+02  0.18726511111E+02  0.00000000000E+00 0.  1.
         11    1    3    3    0    0 -0.19555483836E+02 -0.19977268645E+01 -0.11428783672E+02  0.22738182802E+02  0.51100000000E-03 0. -1.
        -11    1    3    3    0    0  0.94140738076E+01  0.24430935994E+02  0.20471038913E+01  0.26261874530E+02  0.51100000000E-03 0.  1.
         12    1    3    3    0    0 -0.16579889692E+01 -0.22828074537E+02 -0.51544986372E+01  0.23461431557E+02  0.00000000000E+00 0. -1.
</event>
<event>
 7    1  0.1789107E-013  0.7246153E+02  0.7816164E-02  0.1226708E+00
        -11   -1    0    0    0    0  0.00000000000E+00  0.00000000000E+00  0.45593999997E+02  0.45594000000E+02  0.51100000000E-03 0. -1.
         11   -1    0    0    0    0 -0.00000000000E+00 -0.00000000000E+00 -0.45593999997E+02  0.45594000000E+02  0.51100000000E-03 0.  1.
    9900012    2    1    2    0    0  0.11837143363E+02  0.13492568922E+02 -0.53398017870E+01  0.72461525098E+02  0.69999941123E+02 0.  0.
        -12    1    1    2    0    0 -0.11837143363E+02 -0.13492568922E+02  0.53398017870E+01  0.18726474902E+02  0.00000000000E+00 0.  1.
         11    1    3    3    0    0  0.14175011689E+02 -0.57398811480E+01 -0.73860736542E+01  0.16983264594E+02  0.51100000000E-03 0. -1.
        -11    1    3    3    0    0  0.15181187446E+02 -0.65551341259E+01  0.14416688632E+02  0.21938075281E+02  0.51100000000E-03 0.  1.
         12    1    3    3    0    0 -0.17519055772E+02  0.25787584196E+02 -0.12370416765E+02  0.33540185223E+02  0.00000000000E+00 0. -1.
</event>
<event>
 7    1  0.1789107E-013  0.7246160E+02  0.7816164E-02  0.1226708E+00
        -11   -1    0    0    0    0  0.00000000000E+00  0.00000000000E+00  0.45593999997E+02  0.45594000000E+02  0.51100000000E-03 0.  1.
         11   -1    0    0    0    0 -0.00000000000E+00 -0.00000000000E+00 -0.45593999997E+02  0.45594000000E+02  0.51100000000E-03 0. -1.
    9900012    2    1    2    0    0  0.78750384151E+01  0.11983897566E+02 -0.12043592212E+02  0.72461597669E+02  0.70000035660E+02 0.  0.
        -12    1    1    2    0    0 -0.78750384151E+01 -0.11983897566E+02  0.12043592212E+02  0.18726402331E+02  0.00000000000E+00 0.  1.
         11    1    3    3    0    0  0.10337841637E+02  0.99748387231E+01 -0.56335250162E+01  0.15430650720E+02  0.51100000000E-03 0. -1.
        -11    1    3    3    0    0 -0.55514985483E+01  0.28017705344E+02 -0.10679881883E+02  0.30493783402E+02  0.51100000000E-03 0.  1.
         12    1    3    3    0    0  0.30886953264E+01 -0.26008646501E+02  0.42698146869E+01  0.26537163547E+02  0.00000000000E+00 0. -1.
</event>
<event>
 7    1  0.1789107E-013  0.7246160E+02  0.7816164E-02  0.1226708E+00
        -11   -1    0    0    0    0  0.00000000000E+00  0.00000000000E+00  0.45593999997E+02  0.45594000000E+02  0.51100000000E-03 0.  1.
         11   -1    0    0    0    0 -0.00000000000E+00 -0.00000000000E+00 -0.45593999997E+02  0.45594000000E+02  0.51100000000E-03 0. -1.
    9900012    2    1    2    0    0 -0.86193777794E+01  0.13512546681E+02 -0.96848000100E+01  0.72461603060E+02  0.70000042684E+02 0.  0.
        -12    1    1    2    0    0  0.86193777794E+01 -0.13512546681E+02  0.96848000100E+01  0.18726396940E+02  0.00000000000E+00 0.  1.
         11    1    3    3    0    0  0.23339789238E+02  0.18410151472E+02 -0.97556142551E+01  0.31286601743E+02  0.51100000000E-03 0. -1.
        -11    1    3    3    0    0 -0.74111223508E+01 -0.83522782463E+01  0.94917093626E+01  0.14655300518E+02  0.51100000000E-03 0.  1.
        -12    1    3    3    0    0 -0.24548044667E+02  0.34546734554E+01 -0.94208951175E+01  0.26519700799E+02  0.00000000000E+00 0.  1.
</event>
<event>
 7    1  0.1789107E-013  0.7246152E+02  0.7816164E-02  0.1226708E+00
        -11   -1    0    0    0    0  0.00000000000E+00  0.00000000000E+00  0.45593999997E+02  0.45594000000E+02  0.51100000000E-03 0.  1.
         11   -1    0    0    0    0 -0.00000000000E+00 -0.00000000000E+00 -0.45593999997E+02  0.45594000000E+02  0.51100000000E-03 0. -1.
    9900012    2    1    2    0    0 -0.73291875925E+01 -0.15530586835E+02 -0.74675842863E+01  0.72461523201E+02  0.69999938653E+02 0.  0.
        -12    1    1    2    0    0  0.73291875925E+01  0.15530586835E+02  0.74675842863E+01  0.18726476799E+02  0.00000000000E+00 0.  1.
         11    1    3    3    0    0  0.26317878947E+01 -0.11039806473E+02 -0.11861571068E+02  0.16416470478E+02  0.51100000000E-03 0.  1.
        -11    1    3    3    0    0  0.90231350001E+01 -0.36612770421E+01 -0.21688741355E+02  0.23774427787E+02  0.51100000000E-03 0. -1.
        -12    1    3    3    0    0 -0.18984110487E+02 -0.82950332029E+00  0.26082728136E+02  0.32270624936E+02  0.00000000000E+00 0.  1.
</event>
<event>
 7    1  0.1789107E-013  0.7246158E+02  0.7816164E-02  0.1226708E+00
        -11   -1    0    0    0    0  0.00000000000E+00  0.00000000000E+00  0.45593999997E+02  0.45594000000E+02  0.51100000000E-03 0.  1.
         11   -1    0    0    0    0 -0.00000000000E+00 -0.00000000000E+00 -0.45593999997E+02  0.45594000000E+02  0.51100000000E-03 0. -1.
    9900012    2    1    2    0    0 -0.13890580058E+02 -0.92230141677E+00 -0.12525177990E+02  0.72461576478E+02  0.70000008055E+02 0.  0.
        -12    1    1    2    0    0  0.13890580058E+02  0.92230141677E+00  0.12525177990E+02  0.18726423522E+02  0.00000000000E+00 0.  1.
         11    1    3    3    0    0  0.16288437673E+00  0.39425390022E+01  0.26031569062E+01  0.47272160140E+01  0.51100000000E-03 0. -1.
        -11    1    3    3    0    0 -0.52669862680E+01  0.28764541076E+02  0.13371789895E+01  0.29273332841E+02  0.51100000000E-03 0.  1.
         12    1    3    3    0    0 -0.87864781670E+01 -0.33629381495E+02 -0.16465513885E+02  0.38461027623E+02  0.00000000000E+00 0. -1.
</event>
<event>
 7    1  0.2126061E-013  0.7246159E+02  0.7816164E-02  0.1226708E+00
        -11   -1    0    0    0    0  0.00000000000E+00  0.00000000000E+00  0.45593999997E+02  0.45594000000E+02  0.51100000000E-03 0. -1.
         11   -1    0    0    0    0 -0.00000000000E+00 -0.00000000000E+00 -0.45593999997E+02  0.45594000000E+02  0.51100000000E-03 0.  1.
    9900012    2    1    2    0    0 -0.54587375826E+01  0.82013344771E+01  0.15925406583E+02  0.72461594097E+02  0.70000031007E+02 0.  0.
        -12    1    1    2    0    0  0.54587375826E+01 -0.82013344771E+01 -0.15925406583E+02  0.18726405903E+02  0.00000000000E+00 0.  1.
         11    1    3    3    0    0 -0.23578060439E+01 -0.10657068849E+01  0.22694789972E+02  0.22841814128E+02  0.51100000000E-03 0. -1.
        -11    1    3    3    0    0 -0.41142668291E+01 -0.14357278973E+02  0.12216317762E+02  0.19295001192E+02  0.51100000000E-03 0.  1.
        -12    1    3    3    0    0  0.10133352903E+01  0.23624320335E+02 -0.18985701151E+02  0.30324778778E+02  0.00000000000E+00 0.  1.
</event>
<event>
 7    1  0.1789107E-013  0.7246155E+02  0.7816164E-02  0.1226708E+00
        -11   -1    0    0    0    0  0.00000000000E+00  0.00000000000E+00  0.45593999997E+02  0.45594000000E+02  0.51100000000E-03 0.  1.
         11   -1    0    0    0    0 -0.00000000000E+00 -0.00000000000E+00 -0.45593999997E+02  0.45594000000E+02  0.51100000000E-03 0. -1.
    9900012    2    1    2    0    0  0.15369824772E+02 -0.27632305395E+01 -0.10335031516E+02  0.72461552580E+02  0.69999976923E+02 0.  0.
        -12    1    1    2    0    0 -0.15369824772E+02  0.27632305395E+01  0.10335031516E+02  0.18726447420E+02  0.00000000000E+00 0.  1.
         11    1    3    3    0    0 -0.16199609724E+02  0.14514997944E+01 -0.25699908398E+01  0.16466300739E+02  0.51100000000E-03 0. -1.
        -11    1    3    3    0    0  0.56295771345E+01 -0.85212094436E+01  0.17027439246E+02  0.19855398174E+02  0.51100000000E-03 0.  1.
        -12    1    3    3    0    0  0.25939857362E+02  0.43064791096E+01 -0.24792479923E+02  0.36139853666E+02  0.00000000000E+00 0.  1.
</event>
<event>
 7    1  0.1789107E-013  0.7246153E+02  0.7816164E-02  0.1226708E+00
        -11   -1    0    0    0    0  0.00000000000E+00  0.00000000000E+00  0.45593999997E+02  0.45594000000E+02  0.51100000000E-03 0. -1.
         11   -1    0    0    0    0 -0.00000000000E+00 -0.00000000000E+00 -0.45593999997E+02  0.45594000000E+02  0.51100000000E-03 0.  1.
    9900012    2    1    2    0    0 -0.13203913194E+02 -0.83948594884E+01  0.10289017226E+02  0.72461525027E+02  0.69999941030E+02 0.  0.
        -12    1    1    2    0    0  0.13203913194E+02  0.83948594884E+01 -0.10289017226E+02  0.18726474973E+02  0.00000000000E+00 0.  1.
         11    1    3    3    0    0  0.14158858999E+02 -0.10828653276E+02  0.19418679439E+02  0.26359403091E+02  0.51100000000E-03 0. -1.
        -11    1    3    3    0    0 -0.29189115429E+02 -0.72168967877E+01  0.33129212883E+01  0.30250016637E+02  0.51100000000E-03 0.  1.
         12    1    3    3    0    0  0.18263432369E+01  0.96506905754E+01 -0.12442583502E+02  0.15852105299E+02  0.00000000000E+00 0. -1.
</event>
<event>
 7    1  0.1789107E-013  0.7246156E+02  0.7816164E-02  0.1226708E+00
        -11   -1    0    0    0    0  0.00000000000E+00  0.00000000000E+00  0.45593999997E+02  0.45594000000E+02  0.51100000000E-03 0.  1.
         11   -1    0    0    0    0 -0.00000000000E+00 -0.00000000000E+00 -0.45593999997E+02  0.45594000000E+02  0.51100000000E-03 0. -1.
    9900012    2    1    2    0    0  0.15636863667E+02 -0.97102509161E+01  0.34466071944E+01  0.72461559352E+02  0.69999985745E+02 0.  0.
        -12    1    1    2    0    0 -0.15636863667E+02  0.97102509161E+01 -0.34466071944E+01  0.18726440648E+02  0.00000000000E+00 0.  1.
         11    1    3    3    0    0 -0.46272212714E+01 -0.13808146966E+01 -0.61896259533E+01  0.78504328303E+01  0.51100000000E-03 0. -1.
        -11    1    3    3    0    0 -0.43087980680E+00  0.24788098986E+02  0.49216901811E+01  0.25275651193E+02  0.51100000000E-03 0.  1.
         12    1    3    3    0    0  0.20694964745E+02 -0.33117535206E+02  0.47145429666E+01  0.39335475328E+02  0.00000000000E+00 0. -1.
</event>
<event>
 7    1  0.1789107E-013  0.7246155E+02  0.7816164E-02  0.1226708E+00
        -11   -1    0    0    0    0  0.00000000000E+00  0.00000000000E+00  0.45593999997E+02  0.45594000000E+02  0.51100000000E-03 0.  1.
         11   -1    0    0    0    0 -0.00000000000E+00 -0.00000000000E+00 -0.45593999997E+02  0.45594000000E+02  0.51100000000E-03 0. -1.
    9900012    2    1    2    0    0  0.45331014344E+01 -0.17433490587E+02 -0.51189999607E+01  0.72461554442E+02  0.69999979349E+02 0.  0.
        -12    1    1    2    0    0 -0.45331014344E+01  0.17433490587E+02  0.51189999607E+01  0.18726445558E+02  0.00000000000E+00 0.  1.
         11    1    3    3    0    0  0.12608352408E+02  0.25091159018E+01 -0.22234863099E+02  0.25683756546E+02  0.51100000000E-03 0. -1.
        -11    1    3    3    0    0  0.84650075570E+01  0.71399137812E+01  0.83084819301E+01  0.13844334364E+02  0.51100000000E-03 0.  1.
        -12    1    3    3    0    0 -0.16540258530E+02 -0.27082520270E+02  0.88073812081E+01  0.32933463531E+02  0.00000000000E+00 0.  1.
</event>
<event>
 7    1  0.1789107E-013  0.7246158E+02  0.7816164E-02  0.1226708E+00
        -11   -1    0    0    0    0  0.00000000000E+00  0.00000000000E+00  0.45593999997E+02  0.45594000000E+02  0.51100000000E-03 0.  1.
         11   -1    0    0    0    0 -0.00000000000E+00 -0.00000000000E+00 -0.45593999997E+02  0.45594000000E+02  0.51100000000E-03 0. -1.
    9900012    2    1    2    0    0  0.17562407852E+02 -0.55393235485E+01 -0.33995076226E+01  0.72461576769E+02  0.70000008435E+02 0.  0.
        -12    1    1    2    0    0 -0.17562407852E+02  0.55393235485E+01  0.33995076226E+01  0.18726423231E+02  0.00000000000E+00 0.  1.
         11    1    3    3    0    0  0.26260896073E+02 -0.17529779465E+02 -0.18520789559E+02  0.36605293016E+02  0.51100000000E-03 0. -1.
        -11    1    3    3    0    0 -0.24882883449E+01 -0.52914893448E+01 -0.56501291283E+01  0.81311375466E+01  0.51100000000E-03 0.  1.
        -12    1    3    3    0    0 -0.62101998758E+01  0.17281945262E+02  0.20771411065E+02  0.27725146206E+02  0.00000000000E+00 0.  1.
</event>
<event>
 7    1  0.1789107E-013  0.7246158E+02  0.7816164E-02  0.1226708E+00
        -11   -1    0    0    0    0  0.00000000000E+00  0.00000000000E+00  0.45593999997E+02  0.45594000000E+02  0.51100000000E-03 0. -1.
         11   -1    0    0    0    0 -0.00000000000E+00 -0.00000000000E+00 -0.45593999997E+02  0.45594000000E+02  0.51100000000E-03 0.  1.
    9900012    2    1    2    0    0 -0.56655666423E+01 -0.17422826396E+02 -0.38762436693E+01  0.72461580428E+02  0.70000013201E+02 0.  0.
        -12    1    1    2    0    0  0.56655666423E+01  0.17422826396E+02  0.38762436693E+01  0.18726419572E+02  0.00000000000E+00 0.  1.
         11    1    3    3    0    0 -0.11614763086E+02  0.29161157496E+01 -0.25342856579E+01  0.12240467992E+02  0.51100000000E-03 0. -1.
        -11    1    3    3    0    0 -0.23151339594E+02 -0.15076511848E+02  0.87401788189E+01  0.28977171369E+02  0.51100000000E-03 0.  1.
         12    1    3    3    0    0  0.29100536038E+02 -0.52624302976E+01 -0.10082136830E+02  0.31243941067E+02  0.00000000000E+00 0. -1.
</event>
<event>
 7    1  0.1789107E-013  0.7246159E+02  0.7816164E-02  0.1226708E+00
        -11   -1    0    0    0    0  0.00000000000E+00  0.00000000000E+00  0.45593999997E+02  0.45594000000E+02  0.51100000000E-03 0. -1.
         11   -1    0    0    0    0 -0.00000000000E+00 -0.00000000000E+00 -0.45593999997E+02  0.45594000000E+02  0.51100000000E-03 0.  1.
    9900012    2    1    2    0    0  0.76388823891E+01  0.13229106341E+02  0.10831272774E+02  0.72461594882E+02  0.70000032030E+02 0.  0.
        -12    1    1    2    0    0 -0.76388823891E+01 -0.13229106341E+02 -0.10831272774E+02  0.18726405118E+02  0.00000000000E+00 0.  1.
         11    1    3    3    0    0  0.58608978428E+01  0.50121915360E+01 -0.70818248997E+01  0.10470168656E+02  0.51100000000E-03 0. -1.
        -11    1    3    3    0    0  0.13164658003E+02 -0.16666352907E+02 -0.94920875127E+01  0.23263174013E+02  0.51100000000E-03 0.  1.
         12    1    3    3    0    0 -0.11386673457E+02  0.24883267711E+02  0.27405185186E+02  0.38728252213E+02  0.00000000000E+00 0. -1.
</event>
<event>
 7    1  0.1789107E-013  0.7246155E+02  0.7816164E-02  0.1226708E+00
        -11   -1    0    0    0    0  0.00000000000E+00  0.00000000000E+00  0.45593999997E+02  0.45594000000E+02  0.51100000000E-03 0.  1.
         11   -1    0    0    0    0 -0.00000000000E+00 -0.00000000000E+00 -0.45593999997E+02  0.45594000000E+02  0.51100000000E-03 0. -1.
    9900012    2    1    2    0    0 -0.38244258024E+01  0.50097807542E+01 -0.17633941023E+02  0.72461547802E+02  0.69999970699E+02 0.  0.
        -12    1    1    2    0    0  0.38244258024E+01 -0.50097807542E+01  0.17633941023E+02  0.18726452198E+02  0.00000000000E+00 0.  1.
         11    1    3    3    0    0 -0.88759868460E+01 -0.40976919168E+01 -0.12349817407E+01  0.98539028662E+01  0.51100000000E-03 0.  1.
        -11    1    3    3    0    0  0.15310744449E+02 -0.20987212681E+02 -0.16567774668E+02  0.30811899478E+02  0.51100000000E-03 0. -1.
        -12    1    3    3    0    0 -0.10259183405E+02  0.30094685352E+02  0.16881538578E+00  0.31795745458E+02  0.00000000000E+00 0.  1.
</event>
<event>
 7    1  0.1789107E-013  0.7246150E+02  0.7816164E-02  0.1226708E+00
        -11   -1    0    0    0    0  0.00000000000E+00  0.00000000000E+00  0.45593999997E+02  0.45594000000E+02  0.51100000000E-03 0.  1.
         11   -1    0    0    0    0 -0.00000000000E+00 -0.00000000000E+00 -0.45593999997E+02  0.45594000000E+02  0.51100000000E-03 0. -1.
    9900012    2    1    2    0    0 -0.67853739901E+01 -0.12029259807E+02 -0.12646636887E+02  0.72461499627E+02  0.69999907942E+02 0.  0.
        -12    1    1    2    0    0  0.67853739901E+01  0.12029259807E+02  0.12646636887E+02  0.18726500373E+02  0.00000000000E+00 0.  1.
         11    1    3    3    0    0  0.94487701303E+01 -0.12730383557E+02 -0.17774495977E+01  0.15953095305E+02  0.51100000000E-03 0. -1.
        -11    1    3    3    0    0 -0.30441173399E+02 -0.52590000069E+01  0.82302250577E+01  0.31969653169E+02  0.51100000000E-03 0.  1.
         12    1    3    3    0    0  0.14207029279E+02  0.59601237572E+01 -0.19099412347E+02  0.24538751152E+02  0.00000000000E+00 0. -1.
</event>
<event>
 7    1  0.1789107E-013  0.7246153E+02  0.7816164E-02  0.1226708E+00
        -11   -1    0    0    0    0  0.00000000000E+00  0.00000000000E+00  0.45593999997E+02  0.45594000000E+02  0.51100000000E-03 0.  1.
         11   -1    0    0    0    0 -0.00000000000E+00 -0.00000000000E+00 -0.45593999997E+02  0.45594000000E+02  0.51100000000E-03 0. -1.
    9900012    2    1    2    0    0  0.11673224116E+02  0.13279190662E+02 -0.61708591741E+01  0.72461532932E+02  0.69999951329E+02 0.  0.
        -12    1    1    2    0    0 -0.11673224116E+02 -0.13279190662E+02  0.61708591741E+01  0.18726467068E+02  0.00000000000E+00 0.  1.
         11    1    3    3    0    0 -0.19310160256E+01 -0.92871834998E+01  0.11856731591E+02  0.15184290715E+02  0.51100000000E-03 0. -1.
        -11    1    3    3    0    0  0.15160773187E+02 -0.10857336643E+02  0.12001797181E+01  0.18686124109E+02  0.51100000000E-03 0.  1.
         12    1    3    3    0    0 -0.15565330456E+01  0.33423710805E+02 -0.19227770483E+02  0.38591118108E+02  0.00000000000E+00 0. -1.
</event>
<event>
 7    1  0.1789107E-013  0.7246160E+02  0.7816164E-02  0.1226708E+00
        -11   -1    0    0    0    0  0.00000000000E+00  0.00000000000E+00  0.45593999997E+02  0.45594000000E+02  0.51100000000E-03 0.  1.
         11   -1    0    0    0    0 -0.00000000000E+00 -0.00000000000E+00 -0.45593999997E+02  0.45594000000E+02  0.51100000000E-03 0. -1.
    9900012    2    1    2    0    0 -0.13319878609E+00  0.10354193285E+02 -0.15602911646E+02  0.72461603862E+02  0.70000043728E+02 0.  0.
        -12    1    1    2    0    0  0.13319878609E+00 -0.10354193285E+02  0.15602911646E+02  0.18726396138E+02  0.00000000000E+00 0.  1.
         11    1    3    3    0    0  0.27929832252E+02  0.91427704156E+01  0.24758200793E+00  0.29389234043E+02  0.51100000000E-03 0. -1.
        -11    1    3    3    0    0  0.14555839361E+01 -0.84787880316E+01 -0.10760619637E+01  0.86698604770E+01  0.51100000000E-03 0.  1.
         12    1    3    3    0    0 -0.29518614974E+02  0.96902109006E+01 -0.14774431690E+02  0.34402509342E+02  0.00000000000E+00 0. -1.
</event>
<event>
 7    1  0.1789107E-013  0.7246152E+02  0.7816164E-02  0.1226708E+00
        -11   -1    0    0    0    0  0.00000000000E+00  0.00000000000E+00  0.45593999997E+02  0.45594000000E+02  0.51100000000E-03 0.  1.
         11   -1    0    0    0    0 -0.00000000000E+00 -0.00000000000E+00 -0.45593999997E+02  0.45594000000E+02  0.51100000000E-03 0. -1.
    9900012    2    1    2    0    0 -0.10609571354E+02  0.15430826588E+02  0.88109152158E-01  0.72461516701E+02  0.69999930185E+02 0.  0.
        -12    1    1    2    0    0  0.10609571354E+02 -0.15430826588E+02 -0.88109152158E-01  0.18726483299E+02  0.00000000000E+00 0.  1.
         11    1    3    3    0    0  0.92318927551E+01  0.25213422584E+02  0.58992435984E+01  0.27490827517E+02  0.51100000000E-03 0. -1.
        -11    1    3    3    0    0  0.94652842754E+01 -0.20836205287E+01 -0.10522103296E+02  0.14305514285E+02  0.51100000000E-03 0.  1.
         12    1    3    3    0    0 -0.29306748384E+02 -0.76989754673E+01  0.47109688500E+01  0.30665174900E+02  0.00000000000E+00 0. -1.
</event>
<event>
 7    1  0.1789107E-013  0.7246156E+02  0.7816164E-02  0.1226708E+00
        -11   -1    0    0    0    0  0.00000000000E+00  0.00000000000E+00  0.45593999997E+02  0.45594000000E+02  0.51100000000E-03 0. -1.
         11   -1    0    0    0    0 -0.00000000000E+00 -0.00000000000E+00 -0.45593999997E+02  0.45594000000E+02  0.51100000000E-03 0.  1.
    9900012    2    1    2    0    0  0.17558192179E+02 -0.64333552408E+01  0.10006294746E+01  0.72461563297E+02  0.69999990884E+02 0.  0.
        -12    1    1    2    0    0 -0.17558192179E+02  0.64333552408E+01 -0.10006294746E+01  0.18726436703E+02  0.00000000000E+00 0.  1.
         11    1    3    3    0    0  0.17163144167E+02  0.38749799157E+01  0.20839630354E+02  0.27274148577E+02  0.51100000000E-03 0. -1.
        -11    1    3    3    0    0  0.16441184521E+02  0.51803532130E+01 -0.36266755522E+01  0.17615373504E+02  0.51100000000E-03 0.  1.
        -12    1    3    3    0    0 -0.16046136509E+02 -0.15488688370E+02 -0.16212325327E+02  0.27572041215E+02  0.00000000000E+00 0.  1.
</event>
<event>
 7    1  0.1789107E-013  0.7246165E+02  0.7816164E-02  0.1226708E+00
        -11   -1    0    0    0    0  0.00000000000E+00  0.00000000000E+00  0.45593999997E+02  0.45594000000E+02  0.51100000000E-03 0.  1.
         11   -1    0    0    0    0 -0.00000000000E+00 -0.00000000000E+00 -0.45593999997E+02  0.45594000000E+02  0.51100000000E-03 0. -1.
    9900012    2    1    2    0    0  0.13801512933E+02  0.21572297600E+01 -0.12471598309E+02  0.72461650546E+02  0.70000104542E+02 0.  0.
        -12    1    1    2    0    0 -0.13801512933E+02 -0.21572297600E+01  0.12471598309E+02  0.18726349454E+02  0.00000000000E+00 0.  1.
         11    1    3    3    0    0 -0.36920963705E+01  0.38347151238E+01 -0.88284186819E+01  0.10309102404E+02  0.51100000000E-03 0. -1.
        -11    1    3    3    0    0 -0.16277616370E+02 -0.11964457735E+02 -0.14895441106E+02  0.25099466321E+02  0.51100000000E-03 0.  1.
         12    1    3    3    0    0  0.33771225674E+02  0.10286972372E+02  0.11252261478E+02  0.37053081821E+02  0.00000000000E+00 0. -1.
</event>
<event>
 7    1  0.1789107E-013  0.7246157E+02  0.7816164E-02  0.1226708E+00
        -11   -1    0    0    0    0  0.00000000000E+00  0.00000000000E+00  0.45593999997E+02  0.45594000000E+02  0.51100000000E-03 0.  1.
         11   -1    0    0    0    0 -0.00000000000E+00 -0.00000000000E+00 -0.45593999997E+02  0.45594000000E+02  0.51100000000E-03 0. -1.
    9900012    2    1    2    0    0  0.87289505704E+01 -0.40568184694E+01 -0.16063218614E+02  0.72461565572E+02  0.69999993848E+02 0.  0.
        -12    1    1    2    0    0 -0.87289505704E+01  0.40568184694E+01  0.16063218614E+02  0.18726434428E+02  0.00000000000E+00 0.  1.
         11    1    3    3    0    0 -0.28269608218E+01 -0.11183790703E+02 -0.16417353707E+01  0.11651788586E+02  0.51100000000E-03 0. -1.
        -11    1    3    3    0    0 -0.19303164495E+02 -0.10696889375E+00  0.90990132328E+01  0.21340469628E+02  0.51100000000E-03 0.  1.
         12    1    3    3    0    0  0.30859075887E+02  0.72339411270E+01 -0.23520496476E+02  0.39469307358E+02  0.00000000000E+00 0. -1.
</event>
<event>
 7    1  0.1789107E-013  0.7246155E+02  0.7816164E-02  0.1226708E+00
        -11   -1    0    0    0    0  0.00000000000E+00  0.00000000000E+00  0.45593999997E+02  0.45594000000E+02  0.51100000000E-03 0.  1.
         11   -1    0    0    0    0 -0.00000000000E+00 -0.00000000000E+00 -0.45593999997E+02  0.45594000000E+02  0.51100000000E-03 0. -1.
    9900012    2    1    2    0    0 -0.17982216708E+01 -0.18167690389E+02  0.41690959161E+01  0.72461549829E+02  0.69999973340E+02 0.  0.
        -12    1    1    2    0    0  0.17982216708E+01  0.18167690389E+02 -0.41690959161E+01  0.18726450171E+02  0.00000000000E+00 0.  1.
         11    1    3    3    0    0  0.13528175834E+01  0.10292499840E+02 -0.15704439165E+01  0.10499141047E+02  0.51100000000E-03 0. -1.
        -11    1    3    3    0    0 -0.37356394029E+01 -0.18892914032E+02  0.30128317951E+02  0.35757694908E+02  0.51100000000E-03 0.  1.
         12    1    3    3    0    0  0.58460014863E+00 -0.95672761969E+01 -0.24388778118E+02  0.26204713874E+02  0.00000000000E+00 0. -1.
</event>
<event>
 7    1  0.1789107E-013  0.7246155E+02  0.7816164E-02  0.1226708E+00
        -11   -1    0    0    0    0  0.00000000000E+00  0.00000000000E+00  0.45593999997E+02  0.45594000000E+02  0.51100000000E-03 0. -1.
         11   -1    0    0    0    0 -0.00000000000E+00 -0.00000000000E+00 -0.45593999997E+02  0.45594000000E+02  0.51100000000E-03 0.  1.
    9900012    2    1    2    0    0 -0.28894669099E+01 -0.11054380249E+02  0.14836828041E+02  0.72461553246E+02  0.69999977791E+02 0.  0.
        -12    1    1    2    0    0  0.28894669099E+01  0.11054380249E+02 -0.14836828041E+02  0.18726446754E+02  0.00000000000E+00 0.  1.
         11    1    3    3    0    0 -0.19731817606E+02 -0.29780760700E+01  0.57086698108E+01  0.20755781710E+02  0.51100000000E-03 0. -1.
        -11    1    3    3    0    0 -0.80015815590E+00  0.17701108769E+02  0.10210082796E+02  0.20450312851E+02  0.51100000000E-03 0.  1.
        -12    1    3    3    0    0  0.17642508852E+02 -0.25777412948E+02 -0.10819245659E+01  0.31255458685E+02  0.00000000000E+00 0.  1.
</event>
<event>
 7    1  0.1789107E-013  0.7246157E+02  0.7816164E-02  0.1226708E+00
        -11   -1    0    0    0    0  0.00000000000E+00  0.00000000000E+00  0.45593999997E+02  0.45594000000E+02  0.51100000000E-03 0. -1.
         11   -1    0    0    0    0 -0.00000000000E+00 -0.00000000000E+00 -0.45593999997E+02  0.45594000000E+02  0.51100000000E-03 0.  1.
    9900012    2    1    2    0    0  0.12269138208E+02  0.13897811292E+02 -0.26454084332E+01  0.72461572235E+02  0.70000002528E+02 0.  0.
        -12    1    1    2    0    0 -0.12269138208E+02 -0.13897811292E+02  0.26454084332E+01  0.18726427765E+02  0.00000000000E+00 0.  1.
         11    1    3    3    0    0 -0.23408042961E+01 -0.10984831289E+01  0.84324339455E+00  0.27197591108E+01  0.51100000000E-03 0. -1.
        -11    1    3    3    0    0  0.17977188559E+01 -0.79313875406E+01 -0.30797062841E+02  0.31852751550E+02  0.51100000000E-03 0.  1.
         12    1    3    3    0    0  0.12812223648E+02  0.22927681961E+02  0.27308411013E+02  0.37889061574E+02  0.00000000000E+00 0. -1.
</event>
<event>
 7    1  0.1789107E-013  0.7246168E+02  0.7816164E-02  0.1226708E+00
        -11   -1    0    0    0    0  0.00000000000E+00  0.00000000000E+00  0.45593999997E+02  0.45594000000E+02  0.51100000000E-03 0. -1.
         11   -1    0    0    0    0 -0.00000000000E+00 -0.00000000000E+00 -0.45593999997E+02  0.45594000000E+02  0.51100000000E-03 0.  1.
    9900012    2    1    2    0    0 -0.81325794464E+01 -0.15453307350E+02  0.67625162873E+01  0.72461676734E+02  0.70000138658E+02 0.  0.
        -12    1    1    2    0    0  0.81325794464E+01  0.15453307350E+02 -0.67625162873E+01  0.18726323266E+02  0.00000000000E+00 0.  1.
         11    1    3    3    0    0  0.26139810772E+01  0.10612402871E+01 -0.71792494918E+01  0.77136730256E+01  0.51100000000E-03 0. -1.
        -11    1    3    3    0    0 -0.14286785127E+02 -0.17105656648E+02 -0.20403203685E+02  0.30215996417E+02  0.51100000000E-03 0.  1.
         12    1    3    3    0    0  0.35402246031E+01  0.59110900995E+00  0.34344969464E+02  0.34532007292E+02  0.00000000000E+00 0. -1.
</event>
<event>
 7    1  0.1789107E-013  0.7246171E+02  0.7816164E-02  0.1226708E+00
        -11   -1    0    0    0    0  0.00000000000E+00  0.00000000000E+00  0.45593999997E+02  0.45594000000E+02  0.51100000000E-03 0. -1.
         11   -1    0    0    0    0 -0.00000000000E+00 -0.00000000000E+00 -0.45593999997E+02  0.45594000000E+02  0.51100000000E-03 0.  1.
    9900012    2    1    2    0    0 -0.14446881328E+02  0.10456484598E+02 -0.57117049152E+01  0.72461707700E+02  0.70000178997E+02 0.  0.
        -12    1    1    2    0    0  0.14446881328E+02 -0.10456484598E+02  0.57117049152E+01  0.18726292300E+02  0.00000000000E+00 0.  1.
         11    1    3    3    0    0 -0.11504402781E+02  0.19540258910E+02 -0.33940475570E+01  0.22927986408E+02  0.51100000000E-03 0. -1.
        -11    1    3    3    0    0 -0.24821989649E+02  0.17234094467E+01 -0.33647900315E+01  0.25108228182E+02  0.51100000000E-03 0.  1.
        -12    1    3    3    0    0  0.21879511101E+02 -0.10807183759E+02  0.10471326733E+01  0.24425493110E+02  0.00000000000E+00 0.  1.
</event>
<event>
 7    1  0.1789107E-013  0.7246158E+02  0.7816164E-02  0.1226708E+00
        -11   -1    0    0    0    0  0.00000000000E+00  0.00000000000E+00  0.45593999997E+02  0.45594000000E+02  0.51100000000E-03 0.  1.
         11   -1    0    0    0    0 -0.00000000000E+00 -0.00000000000E+00 -0.45593999997E+02  0.45594000000E+02  0.51100000000E-03 0. -1.
    9900012    2    1    2    0    0  0.13330922384E+02 -0.13046530868E+02 -0.16593252143E+01  0.72461579641E+02  0.70000012176E+02 0.  0.
        -12    1    1    2    0    0 -0.13330922384E+02  0.13046530868E+02  0.16593252143E+01  0.18726420359E+02  0.00000000000E+00 0.  1.
         11    1    3    3    0    0  0.87163034791E+01  0.61126272761E+00  0.12230644900E+02  0.15031176381E+02  0.51100000000E-03 0. -1.
        -11    1    3    3    0    0  0.27114869901E+02  0.29624552306E+01 -0.31136557290E+01  0.27453363418E+02  0.51100000000E-03 0.  1.
         12    1    3    3    0    0 -0.22500250996E+02 -0.16620248826E+02 -0.10776314386E+02  0.29977039842E+02  0.00000000000E+00 0. -1.
</event>
<event>
 7    1  0.1789107E-013  0.7246156E+02  0.7816164E-02  0.1226708E+00
        -11   -1    0    0    0    0  0.00000000000E+00  0.00000000000E+00  0.45593999997E+02  0.45594000000E+02  0.51100000000E-03 0.  1.
         11   -1    0    0    0    0 -0.00000000000E+00 -0.00000000000E+00 -0.45593999997E+02  0.45594000000E+02  0.51100000000E-03 0. -1.
    9900012    2    1    2    0    0  0.14332888123E+02  0.11566967650E+02  0.33842443412E+01  0.72461560608E+02  0.69999987381E+02 0.  0.
        -12    1    1    2    0    0 -0.14332888123E+02 -0.11566967650E+02 -0.33842443412E+01  0.18726439392E+02  0.00000000000E+00 0.  1.
         11    1    3    3    0    0  0.94336859253E+01  0.18920729535E+02  0.14157610118E+02  0.25444574290E+02  0.51100000000E-03 0. -1.
        -11    1    3    3    0    0 -0.25539518115E+00  0.18099782346E+01  0.17115106846E+02  0.17212441155E+02  0.51100000000E-03 0.  1.
        -12    1    3    3    0    0  0.51545973785E+01 -0.91637401192E+01 -0.27888472623E+02  0.29804545163E+02  0.00000000000E+00 0.  1.
</event>
<event>
 7    1  0.1789107E-013  0.7246162E+02  0.7816164E-02  0.1226708E+00
        -11   -1    0    0    0    0  0.00000000000E+00  0.00000000000E+00  0.45593999997E+02  0.45594000000E+02  0.51100000000E-03 0. -1.
         11   -1    0    0    0    0 -0.00000000000E+00 -0.00000000000E+00 -0.45593999997E+02  0.45594000000E+02  0.51100000000E-03 0.  1.
    9900012    2    1    2    0    0 -0.48625210259E+00 -0.11886571538E+02  0.14462029221E+02  0.72461619858E+02  0.70000064566E+02 0.  0.
        -12    1    1    2    0    0  0.48625210259E+00  0.11886571538E+02 -0.14462029221E+02  0.18726380142E+02  0.00000000000E+00 0.  1.
         11    1    3    3    0    0  0.11889671478E+02  0.14326314026E+01 -0.93153746893E+01  0.15172110152E+02  0.51100000000E-03 0.  1.
        -11    1    3    3    0    0  0.12427768910E+02 -0.33008887415E+01  0.27426531786E+02  0.30291252081E+02  0.51100000000E-03 0. -1.
         12    1    3    3    0    0 -0.24803692491E+02 -0.10018314199E+02 -0.36491278756E+01  0.26998257625E+02  0.00000000000E+00 0. -1.
</event>
<event>
 7    1  0.1789107E-013  0.7246157E+02  0.7816164E-02  0.1226708E+00
        -11   -1    0    0    0    0  0.00000000000E+00  0.00000000000E+00  0.45593999997E+02  0.45594000000E+02  0.51100000000E-03 0.  1.
         11   -1    0    0    0    0 -0.00000000000E+00 -0.00000000000E+00 -0.45593999997E+02  0.45594000000E+02  0.51100000000E-03 0. -1.
    9900012    2    1    2    0    0 -0.13410822177E+02 -0.49525091056E+01 -0.12095530775E+02  0.72461565139E+02  0.69999993284E+02 0.  0.
        -12    1    1    2    0    0  0.13410822177E+02  0.49525091056E+01  0.12095530775E+02  0.18726434861E+02  0.00000000000E+00 0.  1.
         11    1    3    3    0    0 -0.44716076833E+01  0.54102106768E+01 -0.70883342330E+01  0.99754767956E+01  0.51100000000E-03 0. -1.
        -11    1    3    3    0    0 -0.27257416538E+02  0.14731703789E+02 -0.51964847178E+01  0.31416449617E+02  0.51100000000E-03 0.  1.
        -12    1    3    3    0    0  0.18318202045E+02 -0.25094423571E+02  0.18928817614E+00  0.31069638726E+02  0.00000000000E+00 0.  1.
</event>
<event>
 7    1  0.1789107E-013  0.7246157E+02  0.7816164E-02  0.1226708E+00
        -11   -1    0    0    0    0  0.00000000000E+00  0.00000000000E+00  0.45593999997E+02  0.45594000000E+02  0.51100000000E-03 0.  1.
         11   -1    0    0    0    0 -0.00000000000E+00 -0.00000000000E+00 -0.45593999997E+02  0.45594000000E+02  0.51100000000E-03 0. -1.
    9900012    2    1    2    0    0 -0.15085678232E+02 -0.11042182738E+02 -0.10825187286E+01  0.72461565899E+02  0.69999994274E+02 0.  0.
        -12    1    1    2    0    0  0.15085678232E+02  0.11042182738E+02  0.10825187286E+01  0.18726434101E+02  0.00000000000E+00 0.  1.
         11    1    3    3    0    0 -0.85373273333E+01 -0.35546732189E+02  0.95071342657E+00  0.36569932781E+02  0.51100000000E-03 0. -1.
        -11    1    3    3    0    0  0.40419091237E+01 -0.21458673624E+01  0.45661146810E+01  0.64646097827E+01  0.51100000000E-03 0.  1.
        -12    1    3    3    0    0 -0.10590260023E+02  0.26650416813E+02 -0.65993468361E+01  0.29427023335E+02  0.00000000000E+00 0.  1.
</event>
<event>
 7    1  0.1789107E-013  0.7246165E+02  0.7816164E-02  0.1226708E+00
        -11   -1    0    0    0    0  0.00000000000E+00  0.00000000000E+00  0.45593999997E+02  0.45594000000E+02  0.51100000000E-03 0. -1.
         11   -1    0    0    0    0 -0.00000000000E+00 -0.00000000000E+00 -0.45593999997E+02  0.45594000000E+02  0.51100000000E-03 0.  1.
    9900012    2    1    2    0    0 -0.15923648711E+02  0.95817439568E+01 -0.23029771027E+01  0.72461652010E+02  0.70000106449E+02 0.  0.
        -12    1    1    2    0    0  0.15923648711E+02 -0.95817439568E+01  0.23029771027E+01  0.18726347990E+02  0.00000000000E+00 0.  1.
         11    1    3    3    0    0 -0.89565786769E+01 -0.10232014554E+01  0.30334953637E+02  0.31646115958E+02  0.51100000000E-03 0. -1.
        -11    1    3    3    0    0  0.35623192207E+01  0.47471619201E+01  0.94457449477E-01  0.59358728926E+01  0.51100000000E-03 0.  1.
        -12    1    3    3    0    0 -0.10529389255E+02  0.58577834921E+01 -0.32732388189E+02  0.34879663159E+02  0.00000000000E+00 0.  1.
</event>
<event>
 7    1  0.1789107E-013  0.7246156E+02  0.7816164E-02  0.1226708E+00
        -11   -1    0    0    0    0  0.00000000000E+00  0.00000000000E+00  0.45593999997E+02  0.45594000000E+02  0.51100000000E-03 0.  1.
         11   -1    0    0    0    0 -0.00000000000E+00 -0.00000000000E+00 -0.45593999997E+02  0.45594000000E+02  0.51100000000E-03 0. -1.
    9900012    2    1    2    0    0  0.12542319091E+02 -0.18151797437E+01 -0.13786763246E+02  0.72461561832E+02  0.69999988976E+02 0.  0.
        -12    1    1    2    0    0 -0.12542319091E+02  0.18151797437E+01  0.13786763246E+02  0.18726438168E+02  0.00000000000E+00 0.  1.
         11    1    3    3    0    0  0.30535199045E+01 -0.10971934219E+02 -0.29714621326E+02  0.31822414193E+02  0.51100000000E-03 0. -1.
        -11    1    3    3    0    0  0.12556460058E+02  0.15914830865E+01 -0.82580350836E+01  0.15112665262E+02  0.51100000000E-03 0.  1.
        -12    1    3    3    0    0 -0.30676608717E+01  0.75652713883E+01  0.24185893164E+02  0.25526482377E+02  0.00000000000E+00 0.  1.
</event>
<event>
 7    1  0.1789107E-013  0.7246162E+02  0.7816164E-02  0.1226708E+00
        -11   -1    0    0    0    0  0.00000000000E+00  0.00000000000E+00  0.45593999997E+02  0.45594000000E+02  0.51100000000E-03 0. -1.
         11   -1    0    0    0    0 -0.00000000000E+00 -0.00000000000E+00 -0.45593999997E+02  0.45594000000E+02  0.51100000000E-03 0.  1.
    9900012    2    1    2    0    0 -0.11760541808E+02  0.31408866002E+01  0.14230316357E+02  0.72461617118E+02  0.70000060996E+02 0.  0.
        -12    1    1    2    0    0  0.11760541808E+02 -0.31408866002E+01 -0.14230316357E+02  0.18726382882E+02  0.00000000000E+00 0.  1.
         11    1    3    3    0    0 -0.14349938846E+02  0.15740241448E+01  0.11302497928E+02  0.18334250913E+02  0.51100000000E-03 0. -1.
        -11    1    3    3    0    0 -0.14726919527E+01 -0.12200535691E+02  0.24966042086E+02  0.27826698519E+02  0.51100000000E-03 0.  1.
        -12    1    3    3    0    0  0.40620889902E+01  0.13767398147E+02 -0.22038223658E+02  0.26300667685E+02  0.00000000000E+00 0.  1.
</event>
<event>
 7    1  0.1789107E-013  0.7246154E+02  0.7816164E-02  0.1226708E+00
        -11   -1    0    0    0    0  0.00000000000E+00  0.00000000000E+00  0.45593999997E+02  0.45594000000E+02  0.51100000000E-03 0.  1.
         11   -1    0    0    0    0 -0.00000000000E+00 -0.00000000000E+00 -0.45593999997E+02  0.45594000000E+02  0.51100000000E-03 0. -1.
    9900012    2    1    2    0    0 -0.55636979588E+01  0.17720136282E+02 -0.23921739612E+01  0.72461535809E+02  0.69999955077E+02 0.  0.
        -12    1    1    2    0    0  0.55636979588E+01 -0.17720136282E+02  0.23921739612E+01  0.18726464191E+02  0.00000000000E+00 0.  1.
         11    1    3    3    0    0  0.14951442519E+01  0.35760958051E+01  0.61413894574E+01  0.72622711510E+01  0.51100000000E-03 0. -1.
        -11    1    3    3    0    0 -0.54093268841E+01 -0.15008590500E+02  0.19176119725E+02  0.24944782503E+02  0.51100000000E-03 0.  1.
         12    1    3    3    0    0 -0.16495153266E+01  0.29152630977E+02 -0.27709683144E+02  0.40254482156E+02  0.00000000000E+00 0. -1.
</event>
<event>
 7    1  0.1789107E-013  0.7246161E+02  0.7816164E-02  0.1226708E+00
        -11   -1    0    0    0    0  0.00000000000E+00  0.00000000000E+00  0.45593999997E+02  0.45594000000E+02  0.51100000000E-03 0.  1.
         11   -1    0    0    0    0 -0.00000000000E+00 -0.00000000000E+00 -0.45593999997E+02  0.45594000000E+02  0.51100000000E-03 0. -1.
    9900012    2    1    2    0    0  0.14023427391E+02 -0.12410500285E+02  0.26973386229E-01  0.72461607911E+02  0.70000049002E+02 0.  0.
        -12    1    1    2    0    0 -0.14023427391E+02  0.12410500285E+02 -0.26973386229E-01  0.18726392089E+02  0.00000000000E+00 0.  1.
         11    1    3    3    0    0  0.58110960580E+01 -0.36449908176E+01  0.83503016400E+01  0.10806587491E+02  0.51100000000E-03 0. -1.
        -11    1    3    3    0    0  0.15013087897E+02  0.14788288111E+02  0.16501316204E+02  0.26765270598E+02  0.51100000000E-03 0.  1.
         12    1    3    3    0    0 -0.68007565638E+01 -0.23553797578E+02 -0.24824644457E+02  0.34889749822E+02  0.00000000000E+00 0. -1.
</event>
<event>
 7    1  0.1789107E-013  0.7246158E+02  0.7816164E-02  0.1226708E+00
        -11   -1    0    0    0    0  0.00000000000E+00  0.00000000000E+00  0.45593999997E+02  0.45594000000E+02  0.51100000000E-03 0.  1.
         11   -1    0    0    0    0 -0.00000000000E+00 -0.00000000000E+00 -0.45593999997E+02  0.45594000000E+02  0.51100000000E-03 0. -1.
    9900012    2    1    2    0    0 -0.41878170569E+01 -0.39790517411E+01 -0.17813148542E+02  0.72461576811E+02  0.70000008489E+02 0.  0.
        -12    1    1    2    0    0  0.41878170569E+01  0.39790517411E+01  0.17813148542E+02  0.18726423189E+02  0.00000000000E+00 0.  1.
         11    1    3    3    0    0  0.16894673179E+02  0.68582032571E+01 -0.23263714709E+02  0.29557830706E+02  0.51100000000E-03 0. -1.
        -11    1    3    3    0    0 -0.77593005190E+00  0.10501450984E+02  0.81614080610E+01  0.13322579406E+02  0.51100000000E-03 0.  1.
        -12    1    3    3    0    0 -0.20306560184E+02 -0.21338705982E+02 -0.27108418946E+01  0.29581166699E+02  0.00000000000E+00 0.  1.
</event>
<event>
 7    1  0.1789107E-013  0.7246216E+02  0.7816164E-02  0.1226706E+00
        -11   -1    0    0    0    0  0.00000000000E+00  0.00000000000E+00  0.45593999997E+02  0.45594000000E+02  0.51100000000E-03 0.  1.
         11   -1    0    0    0    0 -0.00000000000E+00 -0.00000000000E+00 -0.45593999997E+02  0.45594000000E+02  0.51100000000E-03 0. -1.
    9900012    2    1    2    0    0  0.50984050986E+01 -0.12875632454E+02 -0.12604824643E+02  0.72462155562E+02  0.70000762415E+02 0.  0.
        -12    1    1    2    0    0 -0.50984050986E+01  0.12875632454E+02  0.12604824643E+02  0.18725844438E+02  0.00000000000E+00 0.  1.
         11    1    3    3    0    0  0.74417543924E+01 -0.86930734434E+01  0.18165248391E+01  0.11586586947E+02  0.51100000000E-03 0. -1.
        -11    1    3    3    0    0  0.80578160925E+01 -0.30129628778E+02 -0.76426700214E+01  0.32111264936E+02  0.51100000000E-03 0.  1.
         12    1    3    3    0    0 -0.10401165386E+02  0.25947069767E+02 -0.67786794606E+01  0.28764303679E+02  0.00000000000E+00 0. -1.
</event>
<event>
 7    1  0.1789107E-013  0.7246156E+02  0.7816164E-02  0.1226708E+00
        -11   -1    0    0    0    0  0.00000000000E+00  0.00000000000E+00  0.45593999997E+02  0.45594000000E+02  0.51100000000E-03 0.  1.
         11   -1    0    0    0    0 -0.00000000000E+00 -0.00000000000E+00 -0.45593999997E+02  0.45594000000E+02  0.51100000000E-03 0. -1.
    9900012    2    1    2    0    0 -0.53818504442E+01  0.16421301486E+02 -0.72149877412E+01  0.72461561343E+02  0.69999988339E+02 0.  0.
        -12    1    1    2    0    0  0.53818504442E+01 -0.16421301486E+02  0.72149877412E+01  0.18726438657E+02  0.00000000000E+00 0.  1.
         11    1    3    3    0    0  0.16138944624E+02  0.93723702384E+01  0.15226574087E+02  0.24086415593E+02  0.51100000000E-03 0. -1.
        -11    1    3    3    0    0 -0.92017808167E+01 -0.97712631673E+01  0.46368149392E+01  0.14200366443E+02  0.51100000000E-03 0.  1.
         12    1    3    3    0    0 -0.12319014252E+02  0.16820194414E+02 -0.27078376767E+02  0.34174779306E+02  0.00000000000E+00 0. -1.
</event>
<event>
 7    1  0.1789107E-013  0.7246164E+02  0.7816164E-02  0.1226708E+00
        -11   -1    0    0    0    0  0.00000000000E+00  0.00000000000E+00  0.45593999997E+02  0.45594000000E+02  0.51100000000E-03 0. -1.
         11   -1    0    0    0    0 -0.00000000000E+00 -0.00000000000E+00 -0.45593999997E+02  0.45594000000E+02  0.51100000000E-03 0.  1.
    9900012    2    1    2    0    0  0.52533048658E+01  0.11081973878E+02  0.14151653033E+02  0.72461637817E+02  0.70000087961E+02 0.  0.
        -12    1    1    2    0    0 -0.52533048658E+01 -0.11081973878E+02 -0.14151653033E+02  0.18726362183E+02  0.00000000000E+00 0.  1.
         11    1    3    3    0    0  0.26186714600E+02  0.22369462343E+01 -0.51777568653E+01  0.26787256605E+02  0.51100000000E-03 0. -1.
        -11    1    3    3    0    0 -0.47168638397E+01  0.11415105308E+02 -0.73314784544E+01  0.14363286889E+02  0.51100000000E-03 0.  1.
         12    1    3    3    0    0 -0.16216545895E+02 -0.25700776635E+01  0.26660888352E+02  0.31311094323E+02  0.00000000000E+00 0. -1.
</event>
<event>
 7    1  0.1789107E-013  0.7246154E+02  0.7816164E-02  0.1226708E+00
        -11   -1    0    0    0    0  0.00000000000E+00  0.00000000000E+00  0.45593999997E+02  0.45594000000E+02  0.51100000000E-03 0. -1.
         11   -1    0    0    0    0 -0.00000000000E+00 -0.00000000000E+00 -0.45593999997E+02  0.45594000000E+02  0.51100000000E-03 0.  1.
    9900012    2    1    2    0    0 -0.41564173343E+01 -0.16394819192E+02 -0.80382991744E+01  0.72461543982E+02  0.69999965723E+02 0.  0.
        -12    1    1    2    0    0  0.41564173343E+01  0.16394819192E+02  0.80382991744E+01  0.18726456018E+02  0.00000000000E+00 0.  1.
         11    1    3    3    0    0 -0.10640958763E+02 -0.32830409984E+02 -0.18135286800E+02  0.38986593218E+02  0.51100000000E-03 0. -1.
        -11    1    3    3    0    0  0.47083931412E+01 -0.55435968160E+01 -0.29552605834E+01  0.78507322593E+01  0.51100000000E-03 0.  1.
         12    1    3    3    0    0  0.17761482877E+01  0.21979187609E+02  0.13052248209E+02  0.25624218505E+02  0.00000000000E+00 0. -1.
</event>
<event>
 7    1  0.1789107E-013  0.7246154E+02  0.7816164E-02  0.1226708E+00
        -11   -1    0    0    0    0  0.00000000000E+00  0.00000000000E+00  0.45593999997E+02  0.45594000000E+02  0.51100000000E-03 0.  1.
         11   -1    0    0    0    0 -0.00000000000E+00 -0.00000000000E+00 -0.45593999997E+02  0.45594000000E+02  0.51100000000E-03 0. -1.
    9900012    2    1    2    0    0  0.16382579534E+02 -0.90654781916E+01 -0.32927134438E+00  0.72461542069E+02  0.69999963231E+02 0.  0.
        -12    1    1    2    0    0 -0.16382579534E+02  0.90654781916E+01  0.32927134438E+00  0.18726457931E+02  0.00000000000E+00 0.  1.
         11    1    3    3    0    0 -0.33917147727E+01  0.18381955188E+02  0.15672111613E+01  0.18757829211E+02  0.51100000000E-03 0. -1.
        -11    1    3    3    0    0 -0.10547291532E+02 -0.50502971492E+01  0.86662800424E+01  0.14555248881E+02  0.51100000000E-03 0.  1.
         12    1    3    3    0    0  0.30321585838E+02 -0.22397136231E+02 -0.10562762548E+02  0.39148463977E+02  0.00000000000E+00 0. -1.
</event>
<event>
 7    1  0.1789107E-013  0.7246159E+02  0.7816164E-02  0.1226708E+00
        -11   -1    0    0    0    0  0.00000000000E+00  0.00000000000E+00  0.45593999997E+02  0.45594000000E+02  0.51100000000E-03 0.  1.
         11   -1    0    0    0    0 -0.00000000000E+00 -0.00000000000E+00 -0.45593999997E+02  0.45594000000E+02  0.51100000000E-03 0. -1.
    9900012    2    1    2    0    0 -0.17269291772E+02 -0.70885514763E+01 -0.14840832626E+01  0.72461588078E+02  0.70000023166E+02 0.  0.
        -12    1    1    2    0    0  0.17269291772E+02  0.70885514763E+01  0.14840832626E+01  0.18726411922E+02  0.00000000000E+00 0.  1.
         11    1    3    3    0    0  0.66747361959E+01 -0.89574804942E+01 -0.71957738279E+01  0.13287878737E+02  0.51100000000E-03 0. -1.
        -11    1    3    3    0    0  0.15334597856E+02 -0.13163719752E+01  0.11674222269E+02  0.19317613529E+02  0.51100000000E-03 0.  1.
        -12    1    3    3    0    0 -0.39278625824E+02  0.31853009931E+01 -0.59625317037E+01  0.39856095812E+02  0.00000000000E+00 0.  1.
</event>
<event>
 7    1  0.1789107E-013  0.7246148E+02  0.7816164E-02  0.1226708E+00
        -11   -1    0    0    0    0  0.00000000000E+00  0.00000000000E+00  0.45593999997E+02  0.45594000000E+02  0.51100000000E-03 0. -1.
         11   -1    0    0    0    0 -0.00000000000E+00 -0.00000000000E+00 -0.45593999997E+02  0.45594000000E+02  0.51100000000E-03 0.  1.
    9900012    2    1    2    0    0 -0.13670999628E+02  0.10731263531E+02  0.69732541323E+01  0.72461480810E+02  0.69999883430E+02 0.  0.
        -12    1    1    2    0    0  0.13670999628E+02 -0.10731263531E+02 -0.69732541323E+01  0.18726519190E+02  0.00000000000E+00 0.  1.
         11    1    3    3    0    0 -0.16293726443E+02 -0.16056082573E+02 -0.47634610439E+01  0.23366083762E+02  0.51100000000E-03 0. -1.
        -11    1    3    3    0    0 -0.43167028089E+00 -0.98917149664E+01 -0.14327403294E+01  0.10004254561E+02  0.51100000000E-03 0.  1.
         12    1    3    3    0    0  0.30543970967E+01  0.36679061070E+02  0.13169455506E+02  0.39091142487E+02  0.00000000000E+00 0. -1.
</event>
<event>
 7    1  0.1789107E-013  0.7246160E+02  0.7816164E-02  0.1226708E+00
        -11   -1    0    0    0    0  0.00000000000E+00  0.00000000000E+00  0.45593999997E+02  0.45594000000E+02  0.51100000000E-03 0.  1.
         11   -1    0    0    0    0 -0.00000000000E+00 -0.00000000000E+00 -0.45593999997E+02  0.45594000000E+02  0.51100000000E-03 0. -1.
    9900012    2    1    2    0    0  0.55627710261E+01  0.12930152677E+02 -0.12350903008E+02  0.72461599522E+02  0.70000038075E+02 0.  0.
        -12    1    1    2    0    0 -0.55627710261E+01 -0.12930152677E+02  0.12350903008E+02  0.18726400478E+02  0.00000000000E+00 0.  1.
         11    1    3    3    0    0  0.38644979393E+01 -0.78788061991E+01 -0.39905706709E+00  0.87845989237E+01  0.51100000000E-03 0. -1.
        -11    1    3    3    0    0  0.23729244743E+02  0.41550886809E+01  0.12186841185E+02  0.26997424254E+02  0.51100000000E-03 0.  1.
         12    1    3    3    0    0 -0.22030971656E+02  0.16653870195E+02 -0.24138687126E+02  0.36679576344E+02  0.00000000000E+00 0. -1.
</event>
<event>
 7    1  0.1789107E-013  0.7246158E+02  0.7816164E-02  0.1226708E+00
        -11   -1    0    0    0    0  0.00000000000E+00  0.00000000000E+00  0.45593999997E+02  0.45594000000E+02  0.51100000000E-03 0.  1.
         11   -1    0    0    0    0 -0.00000000000E+00 -0.00000000000E+00 -0.45593999997E+02  0.45594000000E+02  0.51100000000E-03 0. -1.
    9900012    2    1    2    0    0 -0.10801457284E+02 -0.12187824696E+02  0.92446858270E+01  0.72461581060E+02  0.70000014024E+02 0.  0.
        -12    1    1    2    0    0  0.10801457284E+02  0.12187824696E+02 -0.92446858270E+01  0.18726418940E+02  0.00000000000E+00 0.  1.
         11    1    3    3    0    0 -0.59777032413E+01 -0.48663443178E+01  0.84303760002E+01  0.11423024242E+02  0.51100000000E-03 0. -1.
        -11    1    3    3    0    0 -0.29671517052E+02 -0.92969014120E+01  0.12495900953E+02  0.33510876457E+02  0.51100000000E-03 0.  1.
         12    1    3    3    0    0  0.24847763009E+02  0.19754210337E+01 -0.11681591126E+02  0.27527680361E+02  0.00000000000E+00 0. -1.
</event>
<event>
 7    1  0.1789107E-013  0.7246162E+02  0.7816164E-02  0.1226708E+00
        -11   -1    0    0    0    0  0.00000000000E+00  0.00000000000E+00  0.45593999997E+02  0.45594000000E+02  0.51100000000E-03 0.  1.
         11   -1    0    0    0    0 -0.00000000000E+00 -0.00000000000E+00 -0.45593999997E+02  0.45594000000E+02  0.51100000000E-03 0. -1.
    9900012    2    1    2    0    0  0.10412042194E+02 -0.11421028572E+02  0.10574825668E+02  0.72461616094E+02  0.70000059663E+02 0.  0.
        -12    1    1    2    0    0 -0.10412042194E+02  0.11421028572E+02 -0.10574825668E+02  0.18726383906E+02  0.00000000000E+00 0.  1.
         11    1    3    3    0    0  0.28337596948E+01  0.18103256859E+01  0.74853153146E+01  0.82059380157E+01  0.51100000000E-03 0. -1.
        -11    1    3    3    0    0 -0.27987056293E+01  0.24699017431E+02  0.11551060261E+01  0.24883900125E+02  0.51100000000E-03 0.  1.
         12    1    3    3    0    0  0.10376988129E+02 -0.37930371689E+02  0.19344043269E+01  0.39371777953E+02  0.00000000000E+00 0. -1.
</event>
<event>
 7    1  0.1789107E-013  0.7246161E+02  0.7816164E-02  0.1226708E+00
        -11   -1    0    0    0    0  0.00000000000E+00  0.00000000000E+00  0.45593999997E+02  0.45594000000E+02  0.51100000000E-03 0.  1.
         11   -1    0    0    0    0 -0.00000000000E+00 -0.00000000000E+00 -0.45593999997E+02  0.45594000000E+02  0.51100000000E-03 0. -1.
    9900012    2    1    2    0    0 -0.51118334143E+01 -0.13067882348E+02  0.12400701203E+02  0.72461607388E+02  0.70000048322E+02 0.  0.
        -12    1    1    2    0    0  0.51118334143E+01  0.13067882348E+02 -0.12400701203E+02  0.18726392612E+02  0.00000000000E+00 0.  1.
         11    1    3    3    0    0 -0.41914774618E+01 -0.99235863453E+01 -0.15730920338E+02  0.19065883253E+02  0.51100000000E-03 0. -1.
        -11    1    3    3    0    0 -0.17247501355E+02 -0.15158528445E+02  0.22967623385E+02  0.32477207575E+02  0.51100000000E-03 0.  1.
         12    1    3    3    0    0  0.16327145403E+02  0.12014232442E+02  0.51639981553E+01  0.20918516561E+02  0.00000000000E+00 0. -1.
</event>
<event>
 7    1  0.1789107E-013  0.7246158E+02  0.7816164E-02  0.1226708E+00
        -11   -1    0    0    0    0  0.00000000000E+00  0.00000000000E+00  0.45593999997E+02  0.45594000000E+02  0.51100000000E-03 0.  1.
         11   -1    0    0    0    0 -0.00000000000E+00 -0.00000000000E+00 -0.45593999997E+02  0.45594000000E+02  0.51100000000E-03 0. -1.
    9900012    2    1    2    0    0 -0.12514366755E+02  0.12629610432E+02  0.58789918830E+01  0.72461575341E+02  0.70000006574E+02 0.  0.
        -12    1    1    2    0    0  0.12514366755E+02 -0.12629610432E+02 -0.58789918830E+01  0.18726424659E+02  0.00000000000E+00 0.  1.
         11    1    3    3    0    0 -0.99971816489E+01  0.23131063601E+00  0.27327793634E+01  0.10366543727E+02  0.51100000000E-03 0. -1.
        -11    1    3    3    0    0  0.25734456290E+02 -0.54005340609E+00  0.13850029783E+02  0.29229731840E+02  0.51100000000E-03 0.  1.
         12    1    3    3    0    0 -0.28251641396E+02  0.12938353203E+02 -0.10703817263E+02  0.32865299773E+02  0.00000000000E+00 0. -1.
</event>
<event>
 7    1  0.1789107E-013  0.7246139E+02  0.7816164E-02  0.1226708E+00
        -11   -1    0    0    0    0  0.00000000000E+00  0.00000000000E+00  0.45593999997E+02  0.45594000000E+02  0.51100000000E-03 0.  1.
         11   -1    0    0    0    0 -0.00000000000E+00 -0.00000000000E+00 -0.45593999997E+02  0.45594000000E+02  0.51100000000E-03 0. -1.
    9900012    2    1    2    0    0  0.13586792190E+02 -0.12084326646E+02 -0.44781690041E+01  0.72461391388E+02  0.69999766940E+02 0.  0.
        -12    1    1    2    0    0 -0.13586792190E+02  0.12084326646E+02  0.44781690041E+01  0.18726608612E+02  0.00000000000E+00 0.  1.
         11    1    3    3    0    0  0.26260990284E+00  0.96065067451E+01 -0.61363770898E+00  0.96296670401E+01  0.51100000000E-03 0. -1.
        -11    1    3    3    0    0 -0.11382493021E+02 -0.12164244843E+02  0.20796915733E+02  0.26646607744E+02  0.51100000000E-03 0.  1.
         12    1    3    3    0    0  0.24706675308E+02 -0.95265885476E+01 -0.24661447028E+02  0.36185116604E+02  0.00000000000E+00 0. -1.
</event>
<event>
 7    1  0.1789107E-013  0.7246132E+02  0.7816164E-02  0.1226709E+00
        -11   -1    0    0    0    0  0.00000000000E+00  0.00000000000E+00  0.45593999997E+02  0.45594000000E+02  0.51100000000E-03 0. -1.
         11   -1    0    0    0    0 -0.00000000000E+00 -0.00000000000E+00 -0.45593999997E+02  0.45594000000E+02  0.51100000000E-03 0.  1.
    9900012    2    1    2    0    0 -0.62633703580E+01 -0.17480877883E+02  0.24243552109E+01  0.72461323894E+02  0.69999679017E+02 0.  0.
        -12    1    1    2    0    0  0.62633703580E+01  0.17480877883E+02 -0.24243552109E+01  0.18726676106E+02  0.00000000000E+00 0.  1.
         11    1    3    3    0    0 -0.33930724593E+02 -0.17127247534E+02 -0.95366996675E+01  0.39186545144E+02  0.51100000000E-03 0. -1.
        -11    1    3    3    0    0  0.96651815808E+01 -0.54447511844E+01  0.43970071938E-01  0.11093375685E+02  0.51100000000E-03 0.  1.
        -12    1    3    3    0    0  0.18002172655E+02  0.50911208354E+01  0.11917084807E+02  0.22181403065E+02  0.00000000000E+00 0.  1.
</event>
<event>
 7    1  0.1789107E-013  0.7246153E+02  0.7816164E-02  0.1226708E+00
        -11   -1    0    0    0    0  0.00000000000E+00  0.00000000000E+00  0.45593999997E+02  0.45594000000E+02  0.51100000000E-03 0. -1.
         11   -1    0    0    0    0 -0.00000000000E+00 -0.00000000000E+00 -0.45593999997E+02  0.45594000000E+02  0.51100000000E-03 0.  1.
    9900012    2    1    2    0    0 -0.77032383364E+01 -0.87625614075E+01  0.14647805620E+02  0.72461532827E+02  0.69999951192E+02 0.  0.
        -12    1    1    2    0    0  0.77032383364E+01  0.87625614075E+01 -0.14647805620E+02  0.18726467173E+02  0.00000000000E+00 0.  1.
         11    1    3    3    0    0  0.63348019889E+01 -0.51253156708E+01 -0.16759775106E+01  0.83191031873E+01  0.51100000000E-03 0. -1.
        -11    1    3    3    0    0 -0.18107450812E+02 -0.14157040123E+02 -0.17241418399E+02  0.28732700336E+02  0.51100000000E-03 0.  1.
         12    1    3    3    0    0  0.40694104864E+01  0.10519794387E+02  0.33565201529E+02  0.35409729304E+02  0.00000000000E+00 0. -1.
</event>
<event>
 7    1  0.2641391E-013  0.7246161E+02  0.7816164E-02  0.1226708E+00
        -11   -1    0    0    0    0  0.00000000000E+00  0.00000000000E+00  0.45593999997E+02  0.45594000000E+02  0.51100000000E-03 0. -1.
         11   -1    0    0    0    0 -0.00000000000E+00 -0.00000000000E+00 -0.45593999997E+02  0.45594000000E+02  0.51100000000E-03 0.  1.
    9900012    2    1    2    0    0 -0.21096289625E+01  0.55654612592E+01  0.17755356937E+02  0.72461612378E+02  0.70000054822E+02 0.  0.
        -12    1    1    2    0    0  0.21096289625E+01 -0.55654612592E+01 -0.17755356937E+02  0.18726387622E+02  0.00000000000E+00 0.  1.
         11    1    3    3    0    0  0.37733264086E+01  0.48857188872E+01  0.37954907840E+02  0.38453650940E+02  0.51100000000E-03 0. -1.
        -11    1    3    3    0    0  0.63259901918E+01 -0.38700577517E+01  0.25075464608E+01  0.78283643517E+01  0.51100000000E-03 0.  1.
        -12    1    3    3    0    0 -0.12208945563E+02  0.45498001237E+01 -0.22707097363E+02  0.26179597086E+02  0.00000000000E+00 0.  1.
</event>
<event>
 7    1  0.1789107E-013  0.7246154E+02  0.7816164E-02  0.1226708E+00
        -11   -1    0    0    0    0  0.00000000000E+00  0.00000000000E+00  0.45593999997E+02  0.45594000000E+02  0.51100000000E-03 0.  1.
         11   -1    0    0    0    0 -0.00000000000E+00 -0.00000000000E+00 -0.45593999997E+02  0.45594000000E+02  0.51100000000E-03 0. -1.
    9900012    2    1    2    0    0  0.14778268519E+02  0.80427356809E+01 -0.82217765950E+01  0.72461536692E+02  0.69999956226E+02 0.  0.
        -12    1    1    2    0    0 -0.14778268519E+02 -0.80427356809E+01  0.82217765950E+01  0.18726463308E+02  0.00000000000E+00 0.  1.
         11    1    3    3    0    0  0.49455135769E+01  0.49551682898E+01  0.36546291990E+01  0.78973484261E+01  0.51100000000E-03 0. -1.
        -11    1    3    3    0    0  0.55601794042E+01 -0.15588313972E+02  0.20863507867E+02  0.26630754557E+02  0.51100000000E-03 0.  1.
         12    1    3    3    0    0  0.42725755380E+01  0.18675881363E+02 -0.32739913661E+02  0.37933433709E+02  0.00000000000E+00 0. -1.
</event>
<event>
 7    1  0.1789107E-013  0.7246155E+02  0.7816164E-02  0.1226708E+00
        -11   -1    0    0    0    0  0.00000000000E+00  0.00000000000E+00  0.45593999997E+02  0.45594000000E+02  0.51100000000E-03 0.  1.
         11   -1    0    0    0    0 -0.00000000000E+00 -0.00000000000E+00 -0.45593999997E+02  0.45594000000E+02  0.51100000000E-03 0. -1.
    9900012    2    1    2    0    0  0.13109986201E+02 -0.24941819981E+01 -0.13137252099E+02  0.72461546125E+02  0.69999968515E+02 0.  0.
        -12    1    1    2    0    0 -0.13109986201E+02  0.24941819981E+01  0.13137252099E+02  0.18726453875E+02  0.00000000000E+00 0.  1.
         11    1    3    3    0    0 -0.93321400176E+01 -0.18335357524E+02 -0.18065763820E+02  0.27379663904E+02  0.51100000000E-03 0. -1.
        -11    1    3    3    0    0  0.80721170760E+01  0.12869196971E+02 -0.14320760707E+02  0.20877248196E+02  0.51100000000E-03 0.  1.
        -12    1    3    3    0    0  0.14370009142E+02  0.29719785556E+01  0.19249272428E+02  0.24204634025E+02  0.00000000000E+00 0.  1.
</event>
<event>
 7    1  0.1789107E-013  0.7246158E+02  0.7816164E-02  0.1226708E+00
        -11   -1    0    0    0    0  0.00000000000E+00  0.00000000000E+00  0.45593999997E+02  0.45594000000E+02  0.51100000000E-03 0.  1.
         11   -1    0    0    0    0 -0.00000000000E+00 -0.00000000000E+00 -0.45593999997E+02  0.45594000000E+02  0.51100000000E-03 0. -1.
    9900012    2    1    2    0    0  0.17212097139E+02  0.41074370796E+00  0.73657150792E+01  0.72461581310E+02  0.70000014350E+02 0.  0.
        -12    1    1    2    0    0 -0.17212097139E+02 -0.41074370796E+00 -0.73657150792E+01  0.18726418690E+02  0.00000000000E+00 0.  1.
         11    1    3    3    0    0  0.43283058077E+01 -0.17562892920E+02  0.54492221667E+01  0.18891359437E+02  0.51100000000E-03 0. -1.
        -11    1    3    3    0    0 -0.13410895180E+01 -0.48174239549E+01  0.20371484208E+02  0.20976259527E+02  0.51100000000E-03 0.  1.
         12    1    3    3    0    0  0.14224880850E+02  0.22791060583E+02 -0.18454991295E+02  0.32593962346E+02  0.00000000000E+00 0. -1.
</event>
<event>
 7    1  0.1789107E-013  0.7246168E+02  0.7816164E-02  0.1226708E+00
        -11   -1    0    0    0    0  0.00000000000E+00  0.00000000000E+00  0.45593999997E+02  0.45594000000E+02  0.51100000000E-03 0.  1.
         11   -1    0    0    0    0 -0.00000000000E+00 -0.00000000000E+00 -0.45593999997E+02  0.45594000000E+02  0.51100000000E-03 0. -1.
    9900012    2    1    2    0    0  0.74357464380E+01  0.37453397108E+01 -0.16773703651E+02  0.72461680852E+02  0.70000144022E+02 0.  0.
        -12    1    1    2    0    0 -0.74357464380E+01 -0.37453397108E+01  0.16773703651E+02  0.18726319148E+02  0.00000000000E+00 0.  1.
         11    1    3    3    0    0 -0.16321934433E+02 -0.17067420858E+02  0.22662880472E-01  0.23615734421E+02  0.51100000000E-03 0. -1.
        -11    1    3    3    0    0  0.82524608321E+00  0.15624610657E+01 -0.18757617736E+02  0.18840661854E+02  0.51100000000E-03 0.  1.
        -12    1    3    3    0    0  0.22932434788E+02  0.19250299503E+02  0.19612512045E+01  0.30005284577E+02  0.00000000000E+00 0.  1.
</event>
<event>
 7    1  0.1789107E-013  0.7246152E+02  0.7816164E-02  0.1226708E+00
        -11   -1    0    0    0    0  0.00000000000E+00  0.00000000000E+00  0.45593999997E+02  0.45594000000E+02  0.51100000000E-03 0.  1.
         11   -1    0    0    0    0 -0.00000000000E+00 -0.00000000000E+00 -0.45593999997E+02  0.45594000000E+02  0.51100000000E-03 0. -1.
    9900012    2    1    2    0    0 -0.17307563303E+02 -0.67112022730E+01  0.24676102935E+01  0.72461519177E+02  0.69999933411E+02 0.  0.
        -12    1    1    2    0    0  0.17307563303E+02  0.67112022730E+01 -0.24676102935E+01  0.18726480823E+02  0.00000000000E+00 0.  1.
         11    1    3    3    0    0 -0.31379706783E+01 -0.12676951696E+02 -0.62142930498E+01  0.14462690022E+02  0.51100000000E-03 0. -1.
        -11    1    3    3    0    0  0.14057958559E+02 -0.15872066933E+02  0.67770232767E+01  0.22259307095E+02  0.51100000000E-03 0.  1.
         12    1    3    3    0    0 -0.28227551184E+02  0.21837816357E+02  0.19048800666E+01  0.35739522061E+02  0.00000000000E+00 0. -1.
</event>
<event>
 7    1  0.1789107E-013  0.7246159E+02  0.7816164E-02  0.1226708E+00
        -11   -1    0    0    0    0  0.00000000000E+00  0.00000000000E+00  0.45593999997E+02  0.45594000000E+02  0.51100000000E-03 0.  1.
         11   -1    0    0    0    0 -0.00000000000E+00 -0.00000000000E+00 -0.45593999997E+02  0.45594000000E+02  0.51100000000E-03 0. -1.
    9900012    2    1    2    0    0  0.96045651544E+01 -0.14643761655E+02 -0.66325794281E+01  0.72461587181E+02  0.70000021998E+02 0.  0.
        -12    1    1    2    0    0 -0.96045651544E+01  0.14643761655E+02  0.66325794281E+01  0.18726412819E+02  0.00000000000E+00 0.  1.
         11    1    3    3    0    0 -0.35323818462E+01 -0.50096613073E+01  0.14451306711E+02  0.15697601531E+02  0.51100000000E-03 0.  1.
        -11    1    3    3    0    0 -0.13011527172E+02  0.10587342316E+02 -0.16253994071E+02  0.23357739193E+02  0.51100000000E-03 0. -1.
         12    1    3    3    0    0  0.26148474173E+02 -0.20221442664E+02 -0.48298920679E+01  0.33406246457E+02  0.00000000000E+00 0. -1.
</event>
<event>
 7    1  0.1789107E-013  0.7246158E+02  0.7816164E-02  0.1226708E+00
        -11   -1    0    0    0    0  0.00000000000E+00  0.00000000000E+00  0.45593999997E+02  0.45594000000E+02  0.51100000000E-03 0.  1.
         11   -1    0    0    0    0 -0.00000000000E+00 -0.00000000000E+00 -0.45593999997E+02  0.45594000000E+02  0.51100000000E-03 0. -1.
    9900012    2    1    2    0    0  0.34270298752E+01  0.15753747124E+02 -0.95264795978E+01  0.72461577604E+02  0.70000009523E+02 0.  0.
        -12    1    1    2    0    0 -0.34270298752E+01 -0.15753747124E+02  0.95264795978E+01  0.18726422396E+02  0.00000000000E+00 0.  1.
         11    1    3    3    0    0  0.11087240511E+02  0.40622485623E+01 -0.33696146700E+02  0.35705168649E+02  0.51100000000E-03 0. -1.
        -11    1    3    3    0    0 -0.38991737781E+01 -0.19555462191E+01 -0.35548021630E+01  0.56271072361E+01  0.51100000000E-03 0.  1.
        -12    1    3    3    0    0 -0.37610368575E+01  0.13647044781E+02  0.27724469265E+02  0.31129301720E+02  0.00000000000E+00 0.  1.
</event>
<event>
 7    1  0.1789107E-013  0.7246108E+02  0.7816164E-02  0.1226709E+00
        -11   -1    0    0    0    0  0.00000000000E+00  0.00000000000E+00  0.45593999997E+02  0.45594000000E+02  0.51100000000E-03 0. -1.
         11   -1    0    0    0    0 -0.00000000000E+00 -0.00000000000E+00 -0.45593999997E+02  0.45594000000E+02  0.51100000000E-03 0.  1.
    9900012    2    1    2    0    0 -0.18635097521E+02  0.10954114399E+00 -0.18490011297E+01  0.72461076493E+02  0.69999356729E+02 0.  0.
        -12    1    1    2    0    0  0.18635097521E+02 -0.10954114399E+00  0.18490011297E+01  0.18726923507E+02  0.00000000000E+00 0.  1.
         11    1    3    3    0    0  0.10433690673E+01  0.14613300679E+02  0.74258061723E+00  0.14669308163E+02  0.51100000000E-03 0. -1.
        -11    1    3    3    0    0  0.78193441269E+01 -0.17418351691E+02 -0.17911704611E+02  0.26179577547E+02  0.51100000000E-03 0.  1.
         12    1    3    3    0    0 -0.27497810715E+02  0.29145921558E+01  0.15320122864E+02  0.31612190783E+02  0.00000000000E+00 0. -1.
</event>
<event>
 7    1  0.1789107E-013  0.7246154E+02  0.7816164E-02  0.1226708E+00
        -11   -1    0    0    0    0  0.00000000000E+00  0.00000000000E+00  0.45593999997E+02  0.45594000000E+02  0.51100000000E-03 0. -1.
         11   -1    0    0    0    0 -0.00000000000E+00 -0.00000000000E+00 -0.45593999997E+02  0.45594000000E+02  0.51100000000E-03 0.  1.
    9900012    2    1    2    0    0  0.14702829829E+02 -0.41797676966E+01  0.10818351071E+02  0.72461537897E+02  0.69999957797E+02 0.  0.
        -12    1    1    2    0    0 -0.14702829829E+02  0.41797676966E+01 -0.10818351071E+02  0.18726462103E+02  0.00000000000E+00 0.  1.
         11    1    3    3    0    0 -0.62092817049E+01  0.23548371120E+02  0.24321197647E+02  0.34418042027E+02  0.51100000000E-03 0. -1.
        -11    1    3    3    0    0  0.25676952118E+01 -0.62147882851E+01 -0.29013047158E-01  0.67243954485E+01  0.51100000000E-03 0.  1.
        -12    1    3    3    0    0  0.18344416322E+02 -0.21513350531E+02 -0.13473833528E+02  0.31319100422E+02  0.00000000000E+00 0.  1.
</event>
<event>
 7    1  0.1789107E-013  0.7246147E+02  0.7816164E-02  0.1226708E+00
        -11   -1    0    0    0    0  0.00000000000E+00  0.00000000000E+00  0.45593999997E+02  0.45594000000E+02  0.51100000000E-03 0. -1.
         11   -1    0    0    0    0 -0.00000000000E+00 -0.00000000000E+00 -0.45593999997E+02  0.45594000000E+02  0.51100000000E-03 0.  1.
    9900012    2    1    2    0    0  0.28924712836E+01  0.54554854600E+01  0.17679202614E+02  0.72461470242E+02  0.69999869663E+02 0.  0.
        -12    1    1    2    0    0 -0.28924712836E+01 -0.54554854600E+01 -0.17679202614E+02  0.18726529758E+02  0.00000000000E+00 0.  1.
         11    1    3    3    0    0 -0.77128344843E+01  0.66418546697E+01  0.97038863755E+01  0.14062981913E+02  0.51100000000E-03 0. -1.
        -11    1    3    3    0    0  0.19368314579E+01  0.27284049209E+02 -0.82065948140E+00  0.27365016711E+02  0.51100000000E-03 0.  1.
         12    1    3    3    0    0  0.86684743100E+01 -0.28470418419E+02  0.87959757196E+01  0.31033471618E+02  0.00000000000E+00 0. -1.
</event>
<event>
 7    1  0.1789107E-013  0.7246157E+02  0.7816164E-02  0.1226708E+00
        -11   -1    0    0    0    0  0.00000000000E+00  0.00000000000E+00  0.45593999997E+02  0.45594000000E+02  0.51100000000E-03 0. -1.
         11   -1    0    0    0    0 -0.00000000000E+00 -0.00000000000E+00 -0.45593999997E+02  0.45594000000E+02  0.51100000000E-03 0.  1.
    9900012    2    1    2    0    0 -0.14469234759E+02 -0.10684637735E+02  0.52114087218E+01  0.72461574316E+02  0.70000005239E+02 0.  0.
        -12    1    1    2    0    0  0.14469234759E+02  0.10684637735E+02 -0.52114087218E+01  0.18726425684E+02  0.00000000000E+00 0.  1.
         11    1    3    3    0    0 -0.12521950439E+02  0.10541673482E+02  0.17814893374E+02  0.24192902860E+02  0.51100000000E-03 0. -1.
        -11    1    3    3    0    0  0.49137726715E+01  0.30483401481E+01 -0.20922353501E+02  0.21706736646E+02  0.51100000000E-03 0.  1.
         12    1    3    3    0    0 -0.68610569909E+01 -0.24274651365E+02  0.83188688490E+01  0.26561934810E+02  0.00000000000E+00 0. -1.
</event>
<event>
 7    1  0.1789107E-013  0.7246155E+02  0.7816164E-02  0.1226708E+00
        -11   -1    0    0    0    0  0.00000000000E+00  0.00000000000E+00  0.45593999997E+02  0.45594000000E+02  0.51100000000E-03 0.  1.
         11   -1    0    0    0    0 -0.00000000000E+00 -0.00000000000E+00 -0.45593999997E+02  0.45594000000E+02  0.51100000000E-03 0. -1.
    9900012    2    1    2    0    0 -0.26613222910E+00 -0.16865355639E+02 -0.81344293331E+01  0.72461548447E+02  0.69999971539E+02 0.  0.
        -12    1    1    2    0    0  0.26613222910E+00  0.16865355639E+02  0.81344293331E+01  0.18726451553E+02  0.00000000000E+00 0.  1.
         11    1    3    3    0    0 -0.18089944943E+02  0.34145506614E+01 -0.55080190355E+01  0.19215710714E+02  0.51100000000E-03 0. -1.
        -11    1    3    3    0    0 -0.13857588871E+02 -0.71562206867E+01 -0.95138029553E+01  0.18269009573E+02  0.51100000000E-03 0.  1.
         12    1    3    3    0    0  0.31681401586E+02 -0.13123685614E+02  0.68873926577E+01  0.34976828160E+02  0.00000000000E+00 0. -1.
</event>
<event>
 7    1  0.1789107E-013  0.7246157E+02  0.7816164E-02  0.1226708E+00
        -11   -1    0    0    0    0  0.00000000000E+00  0.00000000000E+00  0.45593999997E+02  0.45594000000E+02  0.51100000000E-03 0. -1.
         11   -1    0    0    0    0 -0.00000000000E+00 -0.00000000000E+00 -0.45593999997E+02  0.45594000000E+02  0.51100000000E-03 0.  1.
    9900012    2    1    2    0    0  0.14930175300E+02 -0.85954926033E+01 -0.73407475723E+01  0.72461569414E+02  0.69999998853E+02 0.  0.
        -12    1    1    2    0    0 -0.14930175300E+02  0.85954926033E+01  0.73407475723E+01  0.18726430586E+02  0.00000000000E+00 0.  1.
         11    1    3    3    0    0 -0.20442240167E+00 -0.23620196532E+00 -0.22521644751E+01  0.22737249109E+01  0.51100000000E-03 0. -1.
        -11    1    3    3    0    0  0.16577841670E+01  0.26729622232E+02  0.11445327305E+02  0.29124156132E+02  0.51100000000E-03 0.  1.
         12    1    3    3    0    0  0.13476813534E+02 -0.35088912870E+02 -0.16533910402E+02  0.41063688371E+02  0.00000000000E+00 0. -1.
</event>
<event>
 7    1  0.1789107E-013  0.7246154E+02  0.7816164E-02  0.1226708E+00
        -11   -1    0    0    0    0  0.00000000000E+00  0.00000000000E+00  0.45593999997E+02  0.45594000000E+02  0.51100000000E-03 0.  1.
         11   -1    0    0    0    0 -0.00000000000E+00 -0.00000000000E+00 -0.45593999997E+02  0.45594000000E+02  0.51100000000E-03 0. -1.
    9900012    2    1    2    0    0  0.74516772325E+01  0.13394119558E+02 -0.10758738364E+02  0.72461537881E+02  0.69999957776E+02 0.  0.
        -12    1    1    2    0    0 -0.74516772325E+01 -0.13394119558E+02  0.10758738364E+02  0.18726462119E+02  0.00000000000E+00 0.  1.
         11    1    3    3    0    0  0.61467488135E+01 -0.11263220340E+02  0.38036498043E+01  0.13383213571E+02  0.51100000000E-03 0. -1.
        -11    1    3    3    0    0 -0.11892409669E+02  0.10110687392E+02  0.16253604306E+02  0.22535196038E+02  0.51100000000E-03 0.  1.
         12    1    3    3    0    0  0.13197338088E+02  0.14546652506E+02 -0.30815992474E+02  0.36543128272E+02  0.00000000000E+00 0. -1.
</event>
<event>
 7    1  0.1789107E-013  0.7246155E+02  0.7816164E-02  0.1226708E+00
        -11   -1    0    0    0    0  0.00000000000E+00  0.00000000000E+00  0.45593999997E+02  0.45594000000E+02  0.51100000000E-03 0.  1.
         11   -1    0    0    0    0 -0.00000000000E+00 -0.00000000000E+00 -0.45593999997E+02  0.45594000000E+02  0.51100000000E-03 0. -1.
    9900012    2    1    2    0    0 -0.11435332115E+02 -0.13793362737E+02 -0.54457633180E+01  0.72461547739E+02  0.69999970617E+02 0.  0.
        -12    1    1    2    0    0  0.11435332115E+02  0.13793362737E+02  0.54457633180E+01  0.18726452261E+02  0.00000000000E+00 0.  1.
         11    1    3    3    0    0 -0.54737058908E+01  0.95326167010E+00 -0.11686711752E+02  0.12940223948E+02  0.51100000000E-03 0. -1.
        -11    1    3    3    0    0  0.13412369796E+02 -0.31070354922E+02  0.42844261638E+01  0.34111800397E+02  0.51100000000E-03 0.  1.
         12    1    3    3    0    0 -0.19373996020E+02  0.16323730514E+02  0.19565222702E+01  0.25409523393E+02  0.00000000000E+00 0. -1.
</event>
<event>
 7    1  0.1789107E-013  0.7246162E+02  0.7816164E-02  0.1226708E+00
        -11   -1    0    0    0    0  0.00000000000E+00  0.00000000000E+00  0.45593999997E+02  0.45594000000E+02  0.51100000000E-03 0.  1.
         11   -1    0    0    0    0 -0.00000000000E+00 -0.00000000000E+00 -0.45593999997E+02  0.45594000000E+02  0.51100000000E-03 0. -1.
    9900012    2    1    2    0    0 -0.13462873602E+02  0.12272014185E+02 -0.43388911382E+01  0.72461620902E+02  0.70000065926E+02 0.  0.
        -12    1    1    2    0    0  0.13462873602E+02 -0.12272014185E+02  0.43388911382E+01  0.18726379098E+02  0.00000000000E+00 0.  1.
         11    1    3    3    0    0 -0.27545776492E+02  0.64135561663E+00 -0.10485948336E+02  0.29481116877E+02  0.51100000000E-03 0. -1.
        -11    1    3    3    0    0 -0.92958332673E+01  0.97484000744E+01  0.12819730312E+02  0.18595410877E+02  0.51100000000E-03 0.  1.
        -12    1    3    3    0    0  0.23378736157E+02  0.18822584944E+01 -0.66726731149E+01  0.24385093148E+02  0.00000000000E+00 0.  1.
</event>
<event>
 7    1  0.1789107E-013  0.7246159E+02  0.7816164E-02  0.1226708E+00
        -11   -1    0    0    0    0  0.00000000000E+00  0.00000000000E+00  0.45593999997E+02  0.45594000000E+02  0.51100000000E-03 0. -1.
         11   -1    0    0    0    0 -0.00000000000E+00 -0.00000000000E+00 -0.45593999997E+02  0.45594000000E+02  0.51100000000E-03 0.  1.
    9900012    2    1    2    0    0 -0.41981602845E+00  0.18594149321E+02  0.21817227989E+01  0.72461586867E+02  0.70000021589E+02 0.  0.
        -12    1    1    2    0    0  0.41981602845E+00 -0.18594149321E+02 -0.21817227989E+01  0.18726413133E+02  0.00000000000E+00 0.  1.
         11    1    3    3    0    0  0.31507361172E+01  0.69373346788E+01  0.93917280605E+01  0.12093730059E+02  0.51100000000E-03 0. -1.
        -11    1    3    3    0    0  0.14285656914E+02 -0.24482281625E+00  0.20706023780E+02  0.25157093487E+02  0.51100000000E-03 0.  1.
         12    1    3    3    0    0 -0.17856209060E+02  0.11901637458E+02 -0.27916029041E+02  0.35210763321E+02  0.00000000000E+00 0. -1.
</event>
<event>
 7    1  0.1789107E-013  0.7246157E+02  0.7816164E-02  0.1226708E+00
        -11   -1    0    0    0    0  0.00000000000E+00  0.00000000000E+00  0.45593999997E+02  0.45594000000E+02  0.51100000000E-03 0. -1.
         11   -1    0    0    0    0 -0.00000000000E+00 -0.00000000000E+00 -0.45593999997E+02  0.45594000000E+02  0.51100000000E-03 0.  1.
    9900012    2    1    2    0    0  0.79233243483E+01 -0.89773846655E+01  0.14398150840E+02  0.72461568098E+02  0.69999997139E+02 0.  0.
        -12    1    1    2    0    0 -0.79233243483E+01  0.89773846655E+01 -0.14398150840E+02  0.18726431902E+02  0.00000000000E+00 0.  1.
         11    1    3    3    0    0 -0.15463956422E+02 -0.20651311838E+02 -0.12043061130E+02  0.28471844873E+02  0.51100000000E-03 0. -1.
        -11    1    3    3    0    0 -0.46937323477E+01  0.25487160272E+01  0.62416423552E+01  0.82149361708E+01  0.51100000000E-03 0.  1.
        -12    1    3    3    0    0  0.28081013118E+02  0.91252111453E+01  0.20199569615E+02  0.35774787054E+02  0.00000000000E+00 0.  1.
</event>
<event>
 7    1  0.1789107E-013  0.7246150E+02  0.7816164E-02  0.1226708E+00
        -11   -1    0    0    0    0  0.00000000000E+00  0.00000000000E+00  0.45593999997E+02  0.45594000000E+02  0.51100000000E-03 0. -1.
         11   -1    0    0    0    0 -0.00000000000E+00 -0.00000000000E+00 -0.45593999997E+02  0.45594000000E+02  0.51100000000E-03 0.  1.
    9900012    2    1    2    0    0 -0.14940992382E+01  0.65583171189E+01  0.17476779681E+02  0.72461503157E+02  0.69999912542E+02 0.  0.
        -12    1    1    2    0    0  0.14940992382E+01 -0.65583171189E+01 -0.17476779681E+02  0.18726496843E+02  0.00000000000E+00 0.  1.
         11    1    3    3    0    0 -0.12650873677E+02 -0.12670144306E+02 -0.20724276328E+00  0.17905868070E+02  0.51100000000E-03 0. -1.
        -11    1    3    3    0    0 -0.11808697479E+02 -0.41985109576E+01  0.17775452995E+02  0.21749472634E+02  0.51100000000E-03 0.  1.
        -12    1    3    3    0    0  0.22965471917E+02  0.23426972382E+02 -0.91430550419E-01  0.32806162454E+02  0.00000000000E+00 0.  1.
</event>
<event>
 7    1  0.1789107E-013  0.7246137E+02  0.7816164E-02  0.1226709E+00
        -11   -1    0    0    0    0  0.00000000000E+00  0.00000000000E+00  0.45593999997E+02  0.45594000000E+02  0.51100000000E-03 0.  1.
         11   -1    0    0    0    0 -0.00000000000E+00 -0.00000000000E+00 -0.45593999997E+02  0.45594000000E+02  0.51100000000E-03 0. -1.
    9900012    2    1    2    0    0  0.50794644877E+01  0.10549052350E+02 -0.14615174755E+02  0.72461366611E+02  0.69999734664E+02 0.  0.
        -12    1    1    2    0    0 -0.50794644877E+01 -0.10549052350E+02  0.14615174755E+02  0.18726633389E+02  0.00000000000E+00 0.  1.
         11    1    3    3    0    0  0.69617459118E+01 -0.70314997114E+01 -0.10925715710E+01  0.99549790171E+01  0.51100000000E-03 0. -1.
        -11    1    3    3    0    0 -0.19448523980E+02 -0.12725204919E+02 -0.14625079429E+02  0.27460314525E+02  0.51100000000E-03 0.  1.
        -12    1    3    3    0    0  0.17566242556E+02  0.30305756981E+02  0.11024762448E+01  0.35046073069E+02  0.00000000000E+00 0.  1.
</event>
<event>
 7    1  0.1789107E-013  0.7246170E+02  0.7816164E-02  0.1226708E+00
        -11   -1    0    0    0    0  0.00000000000E+00  0.00000000000E+00  0.45593999997E+02  0.45594000000E+02  0.51100000000E-03 0. -1.
         11   -1    0    0    0    0 -0.00000000000E+00 -0.00000000000E+00 -0.45593999997E+02  0.45594000000E+02  0.51100000000E-03 0.  1.
    9900012    2    1    2    0    0  0.83083636225E+01 -0.42411015363E+01  0.16237558264E+02  0.72461704405E+02  0.70000174704E+02 0.  0.
        -12    1    1    2    0    0 -0.83083636225E+01  0.42411015363E+01 -0.16237558264E+02  0.18726295595E+02  0.00000000000E+00 0.  1.
         11    1    3    3    0    0 -0.66421768066E+01 -0.10690277060E+02 -0.10841125986E+02  0.16611157372E+02  0.51100000000E-03 0. -1.
        -11    1    3    3    0    0  0.28344068597E+02  0.10516315120E+02  0.64358720493E+01  0.30909538295E+02  0.51100000000E-03 0.  1.
         12    1    3    3    0    0 -0.13393528168E+02 -0.40671395963E+01  0.20642812201E+02  0.24941008738E+02  0.00000000000E+00 0. -1.
</event>
<event>
 7    1  0.1789107E-013  0.7246159E+02  0.7816164E-02  0.1226708E+00
        -11   -1    0    0    0    0  0.00000000000E+00  0.00000000000E+00  0.45593999997E+02  0.45594000000E+02  0.51100000000E-03 0.  1.
         11   -1    0    0    0    0 -0.00000000000E+00 -0.00000000000E+00 -0.45593999997E+02  0.45594000000E+02  0.51100000000E-03 0. -1.
    9900012    2    1    2    0    0 -0.82128708958E+01  0.16812324319E+02  0.75680946630E+00  0.72461594634E+02  0.70000031707E+02 0.  0.
        -12    1    1    2    0    0  0.82128708958E+01 -0.16812324319E+02 -0.75680946630E+00  0.18726405366E+02  0.00000000000E+00 0.  1.
         11    1    3    3    0    0  0.46031800482E+01  0.25398360706E+01 -0.26872529323E+01  0.59043511417E+01  0.51100000000E-03 0. -1.
        -11    1    3    3    0    0 -0.79820038134E+01  0.39636316826E+02 -0.51369761909E+00  0.40435304894E+02  0.51100000000E-03 0.  1.
         12    1    3    3    0    0 -0.48340471307E+01 -0.25363828577E+02  0.39577600177E+01  0.26121938598E+02  0.00000000000E+00 0. -1.
</event>
<event>
 7    1  0.1789107E-013  0.7246158E+02  0.7816164E-02  0.1226708E+00
        -11   -1    0    0    0    0  0.00000000000E+00  0.00000000000E+00  0.45593999997E+02  0.45594000000E+02  0.51100000000E-03 0.  1.
         11   -1    0    0    0    0 -0.00000000000E+00 -0.00000000000E+00 -0.45593999997E+02  0.45594000000E+02  0.51100000000E-03 0. -1.
    9900012    2    1    2    0    0  0.15196151952E+02  0.57744971851E+01 -0.92957459452E+01  0.72461581640E+02  0.70000014780E+02 0.  0.
        -12    1    1    2    0    0 -0.15196151952E+02 -0.57744971851E+01  0.92957459452E+01  0.18726418360E+02  0.00000000000E+00 0.  1.
         11    1    3    3    0    0  0.27786429285E+02  0.59989496466E+01 -0.10660346253E+02  0.30359776544E+02  0.51100000000E-03 0. -1.
        -11    1    3    3    0    0  0.81698279592E+01 -0.19734604389E+01  0.15005987212E+02  0.17199426951E+02  0.51100000000E-03 0.  1.
         12    1    3    3    0    0 -0.20760105292E+02  0.17490079774E+01 -0.13641386904E+02  0.24902378145E+02  0.00000000000E+00 0. -1.
</event>
<event>
 7    1  0.1789107E-013  0.7246160E+02  0.7816164E-02  0.1226708E+00
        -11   -1    0    0    0    0  0.00000000000E+00  0.00000000000E+00  0.45593999997E+02  0.45594000000E+02  0.51100000000E-03 0.  1.
         11   -1    0    0    0    0 -0.00000000000E+00 -0.00000000000E+00 -0.45593999997E+02  0.45594000000E+02  0.51100000000E-03 0. -1.
    9900012    2    1    2    0    0 -0.19573656629E+01 -0.10488793693E+02 -0.15389342972E+02  0.72461602840E+02  0.70000042397E+02 0.  0.
        -12    1    1    2    0    0  0.19573656629E+01  0.10488793693E+02  0.15389342972E+02  0.18726397160E+02  0.00000000000E+00 0.  1.
         11    1    3    3    0    0 -0.18331026154E+02 -0.12642408986E+01 -0.31461000497E+02  0.36433766995E+02  0.51100000000E-03 0. -1.
        -11    1    3    3    0    0  0.18058384560E+01 -0.31092068289E+01 -0.71139078092E+01  0.79709412376E+01  0.51100000000E-03 0.  1.
        -12    1    3    3    0    0  0.14567822035E+02 -0.61153459654E+01  0.23185565334E+02  0.28056894607E+02  0.00000000000E+00 0.  1.
</event>
<event>
 7    1  0.1789107E-013  0.7246159E+02  0.7816164E-02  0.1226708E+00
        -11   -1    0    0    0    0  0.00000000000E+00  0.00000000000E+00  0.45593999997E+02  0.45594000000E+02  0.51100000000E-03 0.  1.
         11   -1    0    0    0    0 -0.00000000000E+00 -0.00000000000E+00 -0.45593999997E+02  0.45594000000E+02  0.51100000000E-03 0. -1.
    9900012    2    1    2    0    0 -0.43000569687E+01 -0.97161671248E+00 -0.18200103975E+02  0.72461593146E+02  0.70000029768E+02 0.  0.
        -12    1    1    2    0    0  0.43000569687E+01  0.97161671248E+00  0.18200103975E+02  0.18726406854E+02  0.00000000000E+00 0.  1.
         11    1    3    3    0    0  0.17602755753E+01 -0.33624944517E+01 -0.15702287015E+02  0.16154465538E+02  0.51100000000E-03 0. -1.
        -11    1    3    3    0    0  0.11893526620E+02 -0.19706125780E+02  0.10146525089E+02  0.25154310572E+02  0.51100000000E-03 0.  1.
        -12    1    3    3    0    0 -0.17953859164E+02  0.22097003519E+02 -0.12644342049E+02  0.31152817036E+02  0.00000000000E+00 0.  1.
</event>
<event>
 7    1  0.1789107E-013  0.7246154E+02  0.7816164E-02  0.1226708E+00
        -11   -1    0    0    0    0  0.00000000000E+00  0.00000000000E+00  0.45593999997E+02  0.45594000000E+02  0.51100000000E-03 0. -1.
         11   -1    0    0    0    0 -0.00000000000E+00 -0.00000000000E+00 -0.45593999997E+02  0.45594000000E+02  0.51100000000E-03 0.  1.
    9900012    2    1    2    0    0 -0.52954281248E+01  0.37481224378E+01  0.17566738398E+02  0.72461540677E+02  0.69999961418E+02 0.  0.
        -12    1    1    2    0    0  0.52954281248E+01 -0.37481224378E+01 -0.17566738398E+02  0.18726459323E+02  0.00000000000E+00 0.  1.
         11    1    3    3    0    0  0.65024927509E+01  0.32918373072E+02  0.18526288046E+02  0.38329167049E+02  0.51100000000E-03 0. -1.
        -11    1    3    3    0    0  0.22005089503E+01 -0.75336671529E+01 -0.27093306175E+01  0.83029424343E+01  0.51100000000E-03 0.  1.
        -12    1    3    3    0    0 -0.13998429826E+02 -0.21636583481E+02  0.17497809695E+01  0.25829431194E+02  0.00000000000E+00 0.  1.
</event>
<event>
 7    1  0.1789107E-013  0.7246164E+02  0.7816164E-02  0.1226708E+00
        -11   -1    0    0    0    0  0.00000000000E+00  0.00000000000E+00  0.45593999997E+02  0.45594000000E+02  0.51100000000E-03 0. -1.
         11   -1    0    0    0    0 -0.00000000000E+00 -0.00000000000E+00 -0.45593999997E+02  0.45594000000E+02  0.51100000000E-03 0.  1.
    9900012    2    1    2    0    0 -0.26591492168E+01  0.17582960744E+02  0.58689690910E+01  0.72461644742E+02  0.70000096981E+02 0.  0.
        -12    1    1    2    0    0  0.26591492168E+01 -0.17582960744E+02 -0.58689690910E+01  0.18726355258E+02  0.00000000000E+00 0.  1.
         11    1    3    3    0    0  0.77197089085E+01  0.13867407794E+02  0.99858412728E+01  0.18751424766E+02  0.51100000000E-03 0. -1.
        -11    1    3    3    0    0 -0.31428307166E+02  0.70487915230E+01 -0.15765951697E+01  0.32247629461E+02  0.51100000000E-03 0.  1.
         12    1    3    3    0    0  0.21049449041E+02 -0.33332385734E+01 -0.25402770121E+01  0.21462590515E+02  0.00000000000E+00 0. -1.
</event>
<event>
 7    1  0.1789107E-013  0.7246154E+02  0.7816164E-02  0.1226708E+00
        -11   -1    0    0    0    0  0.00000000000E+00  0.00000000000E+00  0.45593999997E+02  0.45594000000E+02  0.51100000000E-03 0.  1.
         11   -1    0    0    0    0 -0.00000000000E+00 -0.00000000000E+00 -0.45593999997E+02  0.45594000000E+02  0.51100000000E-03 0. -1.
    9900012    2    1    2    0    0  0.66867912785E+01  0.77101016167E+01 -0.15701005086E+02  0.72461537300E+02  0.69999957019E+02 0.  0.
        -12    1    1    2    0    0 -0.66867912785E+01 -0.77101016167E+01  0.15701005086E+02  0.18726462700E+02  0.00000000000E+00 0.  1.
         11    1    3    3    0    0 -0.88405684560E+01  0.32375986544E+02 -0.11410174719E+02  0.35447880652E+02  0.51100000000E-03 0. -1.
        -11    1    3    3    0    0  0.29933975196E+01  0.14092721606E+01 -0.72126578737E+01  0.79352952432E+01  0.51100000000E-03 0.  1.
        -12    1    3    3    0    0  0.12533962215E+02 -0.26075157088E+02  0.29218275069E+01  0.29078361404E+02  0.00000000000E+00 0.  1.
</event>
<event>
 7    1  0.1789107E-013  0.7246155E+02  0.7816164E-02  0.1226708E+00
        -11   -1    0    0    0    0  0.00000000000E+00  0.00000000000E+00  0.45593999997E+02  0.45594000000E+02  0.51100000000E-03 0. -1.
         11   -1    0    0    0    0 -0.00000000000E+00 -0.00000000000E+00 -0.45593999997E+02  0.45594000000E+02  0.51100000000E-03 0.  1.
    9900012    2    1    2    0    0  0.59299364655E+01 -0.10741464372E+02  0.14146967233E+02  0.72461551185E+02  0.69999975107E+02 0.  0.
        -12    1    1    2    0    0 -0.59299364655E+01  0.10741464372E+02 -0.14146967233E+02  0.18726448815E+02  0.00000000000E+00 0.  1.
         11    1    3    3    0    0  0.59716077296E+01  0.48895261222E+01 -0.13529660483E+02  0.15576240805E+02  0.51100000000E-03 0. -1.
        -11    1    3    3    0    0 -0.90371553940E+01 -0.29284876471E+02  0.87462080903E+01  0.31871151906E+02  0.51100000000E-03 0.  1.
         12    1    3    3    0    0  0.89954841299E+01  0.13653885977E+02  0.18930419625E+02  0.25014158475E+02  0.00000000000E+00 0. -1.
</event>
<event>
 7    1  0.1789107E-013  0.7246157E+02  0.7816164E-02  0.1226708E+00
        -11   -1    0    0    0    0  0.00000000000E+00  0.00000000000E+00  0.45593999997E+02  0.45594000000E+02  0.51100000000E-03 0. -1.
         11   -1    0    0    0    0 -0.00000000000E+00 -0.00000000000E+00 -0.45593999997E+02  0.45594000000E+02  0.51100000000E-03 0.  1.
    9900012    2    1    2    0    0 -0.42735786003E+01 -0.82817724554E+01  0.16242785809E+02  0.72461566279E+02  0.69999994769E+02 0.  0.
        -12    1    1    2    0    0  0.42735786003E+01  0.82817724554E+01 -0.16242785809E+02  0.18726433721E+02  0.00000000000E+00 0.  1.
         11    1    3    3    0    0 -0.22718668319E+01  0.27545371691E+00  0.41508104737E+01  0.47398820135E+01  0.51100000000E-03 0. -1.
        -11    1    3    3    0    0  0.29796358159E+02 -0.55292117512E+01  0.17986068228E+02  0.35240513513E+02  0.51100000000E-03 0.  1.
         12    1    3    3    0    0 -0.31798069927E+02 -0.30280144211E+01 -0.58940928921E+01  0.32481170752E+02  0.00000000000E+00 0. -1.
</event>
<event>
 7    1  0.1789107E-013  0.7246160E+02  0.7816164E-02  0.1226708E+00
        -11   -1    0    0    0    0  0.00000000000E+00  0.00000000000E+00  0.45593999997E+02  0.45594000000E+02  0.51100000000E-03 0.  1.
         11   -1    0    0    0    0 -0.00000000000E+00 -0.00000000000E+00 -0.45593999997E+02  0.45594000000E+02  0.51100000000E-03 0. -1.
    9900012    2    1    2    0    0  0.16800704593E+01  0.15750156381E+02  0.99893929445E+01  0.72461600609E+02  0.70000039490E+02 0.  0.
        -12    1    1    2    0    0 -0.16800704593E+01 -0.15750156381E+02 -0.99893929445E+01  0.18726399391E+02  0.00000000000E+00 0.  1.
         11    1    3    3    0    0  0.17444972769E+02  0.22914868785E+02  0.10585521788E+02  0.30683408515E+02  0.51100000000E-03 0. -1.
        -11    1    3    3    0    0 -0.10284031220E+02  0.40551757697E+01 -0.17538265214E+02  0.20731533847E+02  0.51100000000E-03 0.  1.
        -12    1    3    3    0    0 -0.54808710899E+01 -0.11219888174E+02  0.16942136371E+02  0.21046658247E+02  0.00000000000E+00 0.  1.
</event>
<event>
 7    1  0.1789107E-013  0.7246167E+02  0.7816164E-02  0.1226708E+00
        -11   -1    0    0    0    0  0.00000000000E+00  0.00000000000E+00  0.45593999997E+02  0.45594000000E+02  0.51100000000E-03 0.  1.
         11   -1    0    0    0    0 -0.00000000000E+00 -0.00000000000E+00 -0.45593999997E+02  0.45594000000E+02  0.51100000000E-03 0. -1.
    9900012    2    1    2    0    0  0.10902080119E+02  0.35215022106E+01 -0.14812801907E+02  0.72461670165E+02  0.70000130100E+02 0.  0.
        -12    1    1    2    0    0 -0.10902080119E+02 -0.35215022106E+01  0.14812801907E+02  0.18726329835E+02  0.00000000000E+00 0.  1.
         11    1    3    3    0    0 -0.68900078219E+01 -0.25853653856E+00 -0.89809602246E+01  0.11322397968E+02  0.51100000000E-03 0. -1.
        -11    1    3    3    0    0  0.21728008815E+02 -0.24211516202E+02 -0.17439518720E+01  0.32578294189E+02  0.51100000000E-03 0.  1.
         12    1    3    3    0    0 -0.39359208740E+01  0.27991554951E+02 -0.40878898107E+01  0.28560978009E+02  0.00000000000E+00 0. -1.
</event>
<event>
 7    1  0.1789107E-013  0.7246156E+02  0.7816164E-02  0.1226708E+00
        -11   -1    0    0    0    0  0.00000000000E+00  0.00000000000E+00  0.45593999997E+02  0.45594000000E+02  0.51100000000E-03 0.  1.
         11   -1    0    0    0    0 -0.00000000000E+00 -0.00000000000E+00 -0.45593999997E+02  0.45594000000E+02  0.51100000000E-03 0. -1.
    9900012    2    1    2    0    0 -0.16598944551E+02  0.85317084650E+01  0.15376555070E+01  0.72461564300E+02  0.69999992192E+02 0.  0.
        -12    1    1    2    0    0  0.16598944551E+02 -0.85317084650E+01 -0.15376555070E+01  0.18726435700E+02  0.00000000000E+00 0.  1.
         11    1    3    3    0    0  0.88119143228E+00  0.32132832663E+02 -0.98361974922E+00  0.32159958665E+02  0.51100000000E-03 0. -1.
        -11    1    3    3    0    0 -0.25156817332E+01 -0.24296529192E+01  0.12151388187E+02  0.12644686751E+02  0.51100000000E-03 0.  1.
        -12    1    3    3    0    0 -0.14964454251E+02 -0.21171471278E+02 -0.96301129311E+01  0.27656918884E+02  0.00000000000E+00 0.  1.
</event>
<event>
 7    1  0.1789107E-013  0.7246163E+02  0.7816164E-02  0.1226708E+00
        -11   -1    0    0    0    0  0.00000000000E+00  0.00000000000E+00  0.45593999997E+02  0.45594000000E+02  0.51100000000E-03 0. -1.
         11   -1    0    0    0    0 -0.00000000000E+00 -0.00000000000E+00 -0.45593999997E+02  0.45594000000E+02  0.51100000000E-03 0.  1.
    9900012    2    1    2    0    0 -0.13899208999E+02  0.94611233953E+01  0.82447688184E+01  0.72461626097E+02  0.70000072693E+02 0.  0.
        -12    1    1    2    0    0  0.13899208999E+02 -0.94611233953E+01 -0.82447688184E+01  0.18726373903E+02  0.00000000000E+00 0.  1.
         11    1    3    3    0    0  0.12437256570E+02  0.14224981556E+02 -0.68047671944E+01  0.20083334088E+02  0.51100000000E-03 0. -1.
        -11    1    3    3    0    0 -0.29497425693E+02  0.91802050267E+01 -0.96736054001E+00  0.30908090745E+02  0.51100000000E-03 0.  1.
         12    1    3    3    0    0  0.31609601242E+01 -0.13944063188E+02  0.16016896553E+02  0.21470201263E+02  0.00000000000E+00 0. -1.
</event>
<event>
 7    1  0.1789107E-013  0.7246173E+02  0.7816164E-02  0.1226708E+00
        -11   -1    0    0    0    0  0.00000000000E+00  0.00000000000E+00  0.45593999997E+02  0.45594000000E+02  0.51100000000E-03 0.  1.
         11   -1    0    0    0    0 -0.00000000000E+00 -0.00000000000E+00 -0.45593999997E+02  0.45594000000E+02  0.51100000000E-03 0. -1.
    9900012    2    1    2    0    0 -0.16831819701E+01 -0.40500994607E+01 -0.18205407980E+02  0.72461727363E+02  0.70000204610E+02 0.  0.
        -12    1    1    2    0    0  0.16831819701E+01  0.40500994607E+01  0.18205407980E+02  0.18726272637E+02  0.00000000000E+00 0.  1.
         11    1    3    3    0    0  0.19102760696E+02 -0.48690575963E+01  0.77010822229E+01  0.21164353422E+02  0.51100000000E-03 0. -1.
        -11    1    3    3    0    0 -0.48041247963E+01 -0.18468369445E+02 -0.13259328299E+02  0.23237256125E+02  0.51100000000E-03 0.  1.
        -12    1    3    3    0    0 -0.15981817870E+02  0.19287327581E+02 -0.12647161904E+02  0.28060117816E+02  0.00000000000E+00 0.  1.
</event>
<event>
 7    1  0.1789107E-013  0.7246164E+02  0.7816164E-02  0.1226708E+00
        -11   -1    0    0    0    0  0.00000000000E+00  0.00000000000E+00  0.45593999997E+02  0.45594000000E+02  0.51100000000E-03 0. -1.
         11   -1    0    0    0    0 -0.00000000000E+00 -0.00000000000E+00 -0.45593999997E+02  0.45594000000E+02  0.51100000000E-03 0.  1.
    9900012    2    1    2    0    0  0.11766297250E+02  0.14546438022E+02  0.79488257375E+00  0.72461642949E+02  0.70000094646E+02 0.  0.
        -12    1    1    2    0    0 -0.11766297250E+02 -0.14546438022E+02 -0.79488257375E+00  0.18726357051E+02  0.00000000000E+00 0.  1.
         11    1    3    3    0    0  0.21754506935E+02  0.85647734225E+01  0.27465284788E+02  0.36068764666E+02  0.51100000000E-03 0. -1.
        -11    1    3    3    0    0  0.45110966382E+01 -0.24285074394E+01 -0.28207382986E+00  0.51310044990E+01  0.51100000000E-03 0.  1.
        -12    1    3    3    0    0 -0.14499306323E+02  0.84101720384E+01 -0.26388328384E+02  0.31261873784E+02  0.00000000000E+00 0.  1.
</event>
<event>
 7    1  0.1789107E-013  0.7246171E+02  0.7816164E-02  0.1226708E+00
        -11   -1    0    0    0    0  0.00000000000E+00  0.00000000000E+00  0.45593999997E+02  0.45594000000E+02  0.51100000000E-03 0.  1.
         11   -1    0    0    0    0 -0.00000000000E+00 -0.00000000000E+00 -0.45593999997E+02  0.45594000000E+02  0.51100000000E-03 0. -1.
    9900012    2    1    2    0    0 -0.10271787484E+02 -0.42532811243E+01 -0.15068974554E+02  0.72461707987E+02  0.70000179370E+02 0.  0.
        -12    1    1    2    0    0  0.10271787484E+02  0.42532811243E+01  0.15068974554E+02  0.18726292013E+02  0.00000000000E+00 0.  1.
         11    1    3    3    0    0 -0.63988366767E+01  0.12251693428E+02 -0.28944236090E+01  0.14121855082E+02  0.51100000000E-03 0. -1.
        -11    1    3    3    0    0  0.40864657288E+01  0.16535707163E+02  0.79986590723E+01  0.18817740586E+02  0.51100000000E-03 0.  1.
        -12    1    3    3    0    0 -0.79594165361E+01 -0.33040681715E+02 -0.20173210018E+02  0.39522112320E+02  0.00000000000E+00 0.  1.
</event>
<event>
 7    1  0.1789107E-013  0.7246158E+02  0.7816164E-02  0.1226708E+00
        -11   -1    0    0    0    0  0.00000000000E+00  0.00000000000E+00  0.45593999997E+02  0.45594000000E+02  0.51100000000E-03 0.  1.
         11   -1    0    0    0    0 -0.00000000000E+00 -0.00000000000E+00 -0.45593999997E+02  0.45594000000E+02  0.51100000000E-03 0. -1.
    9900012    2    1    2    0    0 -0.15661553840E+02 -0.23424592889E+01  0.99953707729E+01  0.72461579598E+02  0.70000012120E+02 0.  0.
        -12    1    1    2    0    0  0.15661553840E+02  0.23424592889E+01 -0.99953707729E+01  0.18726420402E+02  0.00000000000E+00 0.  1.
         11    1    3    3    0    0 -0.17792223696E+02 -0.91936611299E+01 -0.20106216820E+02  0.28378629003E+02  0.51100000000E-03 0. -1.
        -11    1    3    3    0    0  0.15277043486E+02  0.14897316694E+01  0.67812129667E+01  0.16780709392E+02  0.51100000000E-03 0.  1.
        -12    1    3    3    0    0 -0.13146373629E+02  0.53614701715E+01  0.23320374626E+02  0.27302241203E+02  0.00000000000E+00 0.  1.
</event>
<event>
 7    1  0.1789107E-013  0.7246150E+02  0.7816164E-02  0.1226708E+00
        -11   -1    0    0    0    0  0.00000000000E+00  0.00000000000E+00  0.45593999997E+02  0.45594000000E+02  0.51100000000E-03 0. -1.
         11   -1    0    0    0    0 -0.00000000000E+00 -0.00000000000E+00 -0.45593999997E+02  0.45594000000E+02  0.51100000000E-03 0.  1.
    9900012    2    1    2    0    0 -0.17396728298E+02 -0.69070029601E+01 -0.57348543319E+00  0.72461501905E+02  0.69999910910E+02 0.  0.
        -12    1    1    2    0    0  0.17396728298E+02  0.69070029601E+01  0.57348543319E+00  0.18726498095E+02  0.00000000000E+00 0.  1.
         11    1    3    3    0    0  0.19296916313E+02 -0.13470362558E+02  0.12766106303E+00  0.23533761795E+02  0.51100000000E-03 0. -1.
        -11    1    3    3    0    0  0.12693229262E+01 -0.71986462376E+01 -0.41408079716E+01  0.84010701261E+01  0.51100000000E-03 0.  1.
        -12    1    3    3    0    0 -0.37962967537E+02  0.13762005836E+02  0.34396614754E+01  0.40526669983E+02  0.00000000000E+00 0.  1.
</event>
<event>
 7    1  0.1789107E-013  0.7246163E+02  0.7816164E-02  0.1226708E+00
        -11   -1    0    0    0    0  0.00000000000E+00  0.00000000000E+00  0.45593999997E+02  0.45594000000E+02  0.51100000000E-03 0.  1.
         11   -1    0    0    0    0 -0.00000000000E+00 -0.00000000000E+00 -0.45593999997E+02  0.45594000000E+02  0.51100000000E-03 0. -1.
    9900012    2    1    2    0    0 -0.15084454448E+02 -0.33568406818E+01  0.10576760193E+02  0.72461628180E+02  0.70000075407E+02 0.  0.
        -12    1    1    2    0    0  0.15084454448E+02  0.33568406818E+01 -0.10576760193E+02  0.18726371820E+02  0.00000000000E+00 0.  1.
         11    1    3    3    0    0 -0.14492449256E+02 -0.19605419106E+02 -0.68033121905E+00  0.24389883038E+02  0.51100000000E-03 0. -1.
        -11    1    3    3    0    0 -0.17673841898E+02  0.12807847142E+02 -0.69144143349E+01  0.22895736759E+02  0.51100000000E-03 0.  1.
        -12    1    3    3    0    0  0.17081836706E+02  0.34407312823E+01  0.18171505747E+02  0.25176008383E+02  0.00000000000E+00 0.  1.
</event>
<event>
 7    1  0.1789107E-013  0.7246159E+02  0.7816164E-02  0.1226708E+00
        -11   -1    0    0    0    0  0.00000000000E+00  0.00000000000E+00  0.45593999997E+02  0.45594000000E+02  0.51100000000E-03 0. -1.
         11   -1    0    0    0    0 -0.00000000000E+00 -0.00000000000E+00 -0.45593999997E+02  0.45594000000E+02  0.51100000000E-03 0.  1.
    9900012    2    1    2    0    0  0.77501767398E+01  0.14202263202E+02  0.94291539513E+01  0.72461589137E+02  0.70000024547E+02 0.  0.
        -12    1    1    2    0    0 -0.77501767398E+01 -0.14202263202E+02 -0.94291539513E+01  0.18726410863E+02  0.00000000000E+00 0.  1.
         11    1    3    3    0    0 -0.51447220839E+01  0.56347207465E+01  0.39316937234E+01  0.85834992286E+01  0.51100000000E-03 0. -1.
        -11    1    3    3    0    0  0.14038138916E+02  0.30212747301E+02 -0.12623026853E+02  0.35626117539E+02  0.51100000000E-03 0.  1.
         12    1    3    3    0    0 -0.11432400924E+01 -0.21645204846E+02  0.18120487081E+02  0.28251972370E+02  0.00000000000E+00 0. -1.
</event>
<event>
 7    1  0.1789107E-013  0.7246131E+02  0.7816164E-02  0.1226709E+00
        -11   -1    0    0    0    0  0.00000000000E+00  0.00000000000E+00  0.45593999997E+02  0.45594000000E+02  0.51100000000E-03 0. -1.
         11   -1    0    0    0    0 -0.00000000000E+00 -0.00000000000E+00 -0.45593999997E+02  0.45594000000E+02  0.51100000000E-03 0.  1.
    9900012    2    1    2    0    0  0.13082545159E+02 -0.11065456982E+02 -0.75558981487E+01  0.72461309879E+02  0.69999660760E+02 0.  0.
        -12    1    1    2    0    0 -0.13082545159E+02  0.11065456982E+02  0.75558981487E+01  0.18726690121E+02  0.00000000000E+00 0.  1.
         11    1    3    3    0    0  0.22372759306E+02 -0.53567680293E+01 -0.12571224405E+02  0.26215854096E+02  0.51100000000E-03 0. -1.
        -11    1    3    3    0    0  0.12342263869E+02 -0.17437985666E+02  0.21715231657E+01  0.21473945483E+02  0.51100000000E-03 0.  1.
        -12    1    3    3    0    0 -0.21632478016E+02  0.11729296714E+02  0.28438030903E+01  0.24771510300E+02  0.00000000000E+00 0.  1.
</event>
<event>
 7    1  0.1789107E-013  0.7246145E+02  0.7816164E-02  0.1226708E+00
        -11   -1    0    0    0    0  0.00000000000E+00  0.00000000000E+00  0.45593999997E+02  0.45594000000E+02  0.51100000000E-03 0.  1.
         11   -1    0    0    0    0 -0.00000000000E+00 -0.00000000000E+00 -0.45593999997E+02  0.45594000000E+02  0.51100000000E-03 0. -1.
    9900012    2    1    2    0    0 -0.62226058279E+01 -0.15770224823E+02 -0.79538034164E+01  0.72461446579E+02  0.69999838837E+02 0.  0.
        -12    1    1    2    0    0  0.62226058279E+01  0.15770224823E+02  0.79538034164E+01  0.18726553421E+02  0.00000000000E+00 0.  1.
         11    1    3    3    0    0  0.22436701257E+02 -0.36021714820E+01 -0.16621270930E+02  0.28154002385E+02  0.51100000000E-03 0. -1.
        -11    1    3    3    0    0 -0.17385680624E+01  0.78330184533E+01 -0.33318021177E+01  0.86879055364E+01  0.51100000000E-03 0.  1.
        -12    1    3    3    0    0 -0.26920739023E+02 -0.20001071794E+02  0.11999269631E+02  0.35619538657E+02  0.00000000000E+00 0.  1.
</event>
<event>
 7    1  0.1789107E-013  0.7246157E+02  0.7816164E-02  0.1226708E+00
        -11   -1    0    0    0    0  0.00000000000E+00  0.00000000000E+00  0.45593999997E+02  0.45594000000E+02  0.51100000000E-03 0.  1.
         11   -1    0    0    0    0 -0.00000000000E+00 -0.00000000000E+00 -0.45593999997E+02  0.45594000000E+02  0.51100000000E-03 0. -1.
    9900012    2    1    2    0    0  0.11004190692E+01  0.33819153944E+01 -0.18385614893E+02  0.72461571914E+02  0.70000002110E+02 0.  0.
        -12    1    1    2    0    0 -0.11004190692E+01 -0.33819153944E+01  0.18385614893E+02  0.18726428086E+02  0.00000000000E+00 0.  1.
         11    1    3    3    0    0 -0.13313411275E+02 -0.13704799103E+02 -0.27014321628E+02  0.33088396932E+02  0.51100000000E-03 0. -1.
        -11    1    3    3    0    0 -0.96217302478E+01  0.15469001044E+01  0.30645698486E+01  0.10215781004E+02  0.51100000000E-03 0.  1.
        -12    1    3    3    0    0  0.24035560592E+02  0.15539814393E+02  0.55641368863E+01  0.29157393978E+02  0.00000000000E+00 0.  1.
</event>
<event>
 7    1  0.1789107E-013  0.7246160E+02  0.7816164E-02  0.1226708E+00
        -11   -1    0    0    0    0  0.00000000000E+00  0.00000000000E+00  0.45593999997E+02  0.45594000000E+02  0.51100000000E-03 0. -1.
         11   -1    0    0    0    0 -0.00000000000E+00 -0.00000000000E+00 -0.45593999997E+02  0.45594000000E+02  0.51100000000E-03 0.  1.
    9900012    2    1    2    0    0  0.18318102885E+01  0.50280995581E+01  0.17945493926E+02  0.72461599749E+02  0.70000038370E+02 0.  0.
        -12    1    1    2    0    0 -0.18318102885E+01 -0.50280995581E+01 -0.17945493926E+02  0.18726400251E+02  0.00000000000E+00 0.  1.
         11    1    3    3    0    0  0.22853219121E+01 -0.25800585062E+02  0.45920721027E+01  0.26305512963E+02  0.51100000000E-03 0. -1.
        -11    1    3    3    0    0  0.57481743976E+01 -0.48265228107E+01  0.49857334979E+01  0.90107918698E+01  0.51100000000E-03 0.  1.
        -12    1    3    3    0    0 -0.62016860212E+01  0.35655207431E+02  0.83676883259E+01  0.37145294916E+02  0.00000000000E+00 0.  1.
</event>
<event>
 7    1  0.1789107E-013  0.7246128E+02  0.7816164E-02  0.1226709E+00
        -11   -1    0    0    0    0  0.00000000000E+00  0.00000000000E+00  0.45593999997E+02  0.45594000000E+02  0.51100000000E-03 0.  1.
         11   -1    0    0    0    0 -0.00000000000E+00 -0.00000000000E+00 -0.45593999997E+02  0.45594000000E+02  0.51100000000E-03 0. -1.
    9900012    2    1    2    0    0  0.12014724306E+02  0.82711563614E-01 -0.14364180897E+02  0.72461277537E+02  0.69999618629E+02 0.  0.
        -12    1    1    2    0    0 -0.12014724306E+02 -0.82711563614E-01  0.14364180897E+02  0.18726722463E+02  0.00000000000E+00 0.  1.
         11    1    3    3    0    0  0.15416172385E+02  0.17574477275E+02 -0.13746948059E+02  0.27120088564E+02  0.51100000000E-03 0. -1.
        -11    1    3    3    0    0  0.17959155757E+02 -0.45777658323E+01  0.60663454117E+01  0.19500968244E+02  0.51100000000E-03 0.  1.
         12    1    3    3    0    0 -0.21360603836E+02 -0.12913999880E+02 -0.66835782500E+01  0.25840220730E+02  0.00000000000E+00 0. -1.
</event>
<event>
 7    1  0.1789107E-013  0.7246160E+02  0.7816164E-02  0.1226708E+00
        -11   -1    0    0    0    0  0.00000000000E+00  0.00000000000E+00  0.45593999997E+02  0.45594000000E+02  0.51100000000E-03 0.  1.
         11   -1    0    0    0    0 -0.00000000000E+00 -0.00000000000E+00 -0.45593999997E+02  0.45594000000E+02  0.51100000000E-03 0. -1.
    9900012    2    1    2    0    0  0.12633432277E+02 -0.13206024468E+02 -0.40835262995E+01  0.72461604714E+02  0.70000044838E+02 0.  0.
        -12    1    1    2    0    0 -0.12633432277E+02  0.13206024468E+02  0.40835262995E+01  0.18726395286E+02  0.00000000000E+00 0.  1.
         11    1    3    3    0    0  0.23403666730E+02 -0.10734340805E+02  0.19498439249E+00  0.25748703037E+02  0.51100000000E-03 0. -1.
        -11    1    3    3    0    0  0.15508468290E+02 -0.16692526689E+01  0.81874324412E+01  0.17616272120E+02  0.51100000000E-03 0.  1.
         12    1    3    3    0    0 -0.26278702743E+02 -0.80243099404E+00 -0.12465943133E+02  0.29096629557E+02  0.00000000000E+00 0. -1.
</event>
<event>
 7    1  0.1789107E-013  0.7246157E+02  0.7816164E-02  0.1226708E+00
        -11   -1    0    0    0    0  0.00000000000E+00  0.00000000000E+00  0.45593999997E+02  0.45594000000E+02  0.51100000000E-03 0.  1.
         11   -1    0    0    0    0 -0.00000000000E+00 -0.00000000000E+00 -0.45593999997E+02  0.45594000000E+02  0.51100000000E-03 0. -1.
    9900012    2    1    2    0    0 -0.11336459863E+02  0.10462401473E+02  0.10616128924E+02  0.72461565205E+02  0.69999993370E+02 0.  0.
        -12    1    1    2    0    0  0.11336459863E+02 -0.10462401473E+02 -0.10616128924E+02  0.18726434795E+02  0.00000000000E+00 0.  1.
         11    1    3    3    0    0 -0.11291007093E+02  0.21374468085E+02 -0.54024970631E+00  0.24179466435E+02  0.51100000000E-03 0. -1.
        -11    1    3    3    0    0 -0.54675531958E+01  0.11321663298E+02  0.20102427441E+02  0.23710372984E+02  0.51100000000E-03 0.  1.
        -12    1    3    3    0    0  0.54221004260E+01 -0.22233729911E+02 -0.89460488103E+01  0.24571725786E+02  0.00000000000E+00 0.  1.
</event>
<event>
 7    1  0.1789107E-013  0.7246157E+02  0.7816164E-02  0.1226708E+00
        -11   -1    0    0    0    0  0.00000000000E+00  0.00000000000E+00  0.45593999997E+02  0.45594000000E+02  0.51100000000E-03 0. -1.
         11   -1    0    0    0    0 -0.00000000000E+00 -0.00000000000E+00 -0.45593999997E+02  0.45594000000E+02  0.51100000000E-03 0.  1.
    9900012    2    1    2    0    0 -0.40929266950E+01  0.84511478612E+01  0.16202008339E+02  0.72461574198E+02  0.70000005085E+02 0.  0.
        -12    1    1    2    0    0  0.40929266950E+01 -0.84511478612E+01 -0.16202008339E+02  0.18726425802E+02  0.00000000000E+00 0.  1.
         11    1    3    3    0    0 -0.74682461121E+01 -0.51881222109E+01  0.16022064695E+02  0.18422754121E+02  0.51100000000E-03 0. -1.
        -11    1    3    3    0    0 -0.24435779705E+02  0.69169525759E+01  0.99245585168E+00  0.25415281459E+02  0.51100000000E-03 0.  1.
        -12    1    3    3    0    0  0.27811099122E+02  0.67223174963E+01 -0.81251220683E+00  0.28623538618E+02  0.00000000000E+00 0.  1.
</event>
<event>
 7    1  0.1789107E-013  0.7246157E+02  0.7816164E-02  0.1226708E+00
        -11   -1    0    0    0    0  0.00000000000E+00  0.00000000000E+00  0.45593999997E+02  0.45594000000E+02  0.51100000000E-03 0. -1.
         11   -1    0    0    0    0 -0.00000000000E+00 -0.00000000000E+00 -0.45593999997E+02  0.45594000000E+02  0.51100000000E-03 0.  1.
    9900012    2    1    2    0    0 -0.13937852431E+02  0.55753326428E+01  0.11195140246E+02  0.72461568691E+02  0.69999997911E+02 0.  0.
        -12    1    1    2    0    0  0.13937852431E+02 -0.55753326428E+01 -0.11195140246E+02  0.18726431309E+02  0.00000000000E+00 0.  1.
         11    1    3    3    0    0 -0.14077888606E+02 -0.35431026547E+01 -0.17489699777E+02  0.22729498951E+02  0.51100000000E-03 0. -1.
        -11    1    3    3    0    0 -0.11917129569E+02 -0.79234554100E+01  0.24600806640E+02  0.28460478042E+02  0.51100000000E-03 0.  1.
         12    1    3    3    0    0  0.12057165744E+02  0.17041890707E+02  0.40840333830E+01  0.21271591698E+02  0.00000000000E+00 0. -1.
</event>
<event>
 7    1  0.1978291E-013  0.7246157E+02  0.7816164E-02  0.1226708E+00
        -11   -1    0    0    0    0  0.00000000000E+00  0.00000000000E+00  0.45593999997E+02  0.45594000000E+02  0.51100000000E-03 0. -1.
         11   -1    0    0    0    0 -0.00000000000E+00 -0.00000000000E+00 -0.45593999997E+02  0.45594000000E+02  0.51100000000E-03 0.  1.
    9900012    2    1    2    0    0  0.90003440039E+01  0.29830832607E+01  0.16148502385E+02  0.72461571958E+02  0.70000002168E+02 0.  0.
        -12    1    1    2    0    0 -0.90003440039E+01 -0.29830832607E+01 -0.16148502385E+02  0.18726428042E+02  0.00000000000E+00 0.  1.
         11    1    3    3    0    0  0.31918426229E+02 -0.11115048055E+02  0.40008896511E+01  0.34034355355E+02  0.51100000000E-03 0. -1.
        -11    1    3    3    0    0 -0.81176942467E+01  0.67374107922E+01  0.18023764269E+02  0.20884102632E+02  0.51100000000E-03 0.  1.
        -12    1    3    3    0    0 -0.14800387978E+02  0.73607205236E+01 -0.58761515355E+01  0.17543113971E+02  0.00000000000E+00 0.  1.
</event>
<event>
 7    1  0.1789107E-013  0.7246152E+02  0.7816164E-02  0.1226708E+00
        -11   -1    0    0    0    0  0.00000000000E+00  0.00000000000E+00  0.45593999997E+02  0.45594000000E+02  0.51100000000E-03 0. -1.
         11   -1    0    0    0    0 -0.00000000000E+00 -0.00000000000E+00 -0.45593999997E+02  0.45594000000E+02  0.51100000000E-03 0.  1.
    9900012    2    1    2    0    0  0.59091722024E-01  0.15565135276E+02  0.10411726965E+02  0.72461521784E+02  0.69999936806E+02 0.  0.
        -12    1    1    2    0    0 -0.59091722024E-01 -0.15565135276E+02 -0.10411726965E+02  0.18726478216E+02  0.00000000000E+00 0.  1.
         11    1    3    3    0    0 -0.23581452711E+02  0.12650559839E+02  0.50221314956E+01  0.27227621659E+02  0.51100000000E-03 0. -1.
        -11    1    3    3    0    0 -0.70561652917E+01 -0.93437516704E+01 -0.20178868612E+00  0.11710503099E+02  0.51100000000E-03 0.  1.
         12    1    3    3    0    0  0.30696709724E+02  0.12258327107E+02  0.55913841551E+01  0.33523397026E+02  0.00000000000E+00 0. -1.
</event>
<event>
 7    1  0.1789107E-013  0.7246121E+02  0.7816164E-02  0.1226709E+00
        -11   -1    0    0    0    0  0.00000000000E+00  0.00000000000E+00  0.45593999997E+02  0.45594000000E+02  0.51100000000E-03 0.  1.
         11   -1    0    0    0    0 -0.00000000000E+00 -0.00000000000E+00 -0.45593999997E+02  0.45594000000E+02  0.51100000000E-03 0. -1.
    9900012    2    1    2    0    0 -0.35992413837E+01  0.17576002480E+02 -0.53686331059E+01  0.72461211083E+02  0.69999532058E+02 0.  0.
        -12    1    1    2    0    0  0.35992413837E+01 -0.17576002480E+02  0.53686331059E+01  0.18726788917E+02  0.00000000000E+00 0.  1.
         11    1    3    3    0    0 -0.13927844681E+01  0.12615382462E+02  0.13817511907E+02  0.18761965750E+02  0.51100000000E-03 0. -1.
        -11    1    3    3    0    0 -0.16409086192E+02  0.63728205891E+01  0.10685847851E+02  0.20592675797E+02  0.51100000000E-03 0.  1.
         12    1    3    3    0    0  0.14202629277E+02 -0.14122005703E+01 -0.29871992864E+02  0.33106569536E+02  0.00000000000E+00 0. -1.
</event>
<event>
 7    1  0.1789107E-013  0.7246158E+02  0.7816164E-02  0.1226708E+00
        -11   -1    0    0    0    0  0.00000000000E+00  0.00000000000E+00  0.45593999997E+02  0.45594000000E+02  0.51100000000E-03 0.  1.
         11   -1    0    0    0    0 -0.00000000000E+00 -0.00000000000E+00 -0.45593999997E+02  0.45594000000E+02  0.51100000000E-03 0. -1.
    9900012    2    1    2    0    0 -0.89984738964E+01 -0.97147405693E+01 -0.13241229595E+02  0.72461578079E+02  0.70000010141E+02 0.  0.
        -12    1    1    2    0    0  0.89984738964E+01  0.97147405693E+01  0.13241229595E+02  0.18726421921E+02  0.00000000000E+00 0.  1.
         11    1    3    3    0    0 -0.17538017154E+02 -0.34433038985E+01 -0.37376442788E+02  0.41429903007E+02  0.51100000000E-03 0. -1.
        -11    1    3    3    0    0 -0.35689550321E+01 -0.21626698179E+01  0.14310255529E+02  0.14906307200E+02  0.51100000000E-03 0.  1.
        -12    1    3    3    0    0  0.12108498290E+02 -0.41087668529E+01  0.98249576646E+01  0.16125367871E+02  0.00000000000E+00 0.  1.
</event>
<event>
 7    1  0.1789107E-013  0.7246157E+02  0.7816164E-02  0.1226708E+00
        -11   -1    0    0    0    0  0.00000000000E+00  0.00000000000E+00  0.45593999997E+02  0.45594000000E+02  0.51100000000E-03 0.  1.
         11   -1    0    0    0    0 -0.00000000000E+00 -0.00000000000E+00 -0.45593999997E+02  0.45594000000E+02  0.51100000000E-03 0. -1.
    9900012    2    1    2    0    0  0.14562143514E+02 -0.11615049379E+02 -0.19271085122E+01  0.72461571002E+02  0.70000000922E+02 0.  0.
        -12    1    1    2    0    0 -0.14562143514E+02  0.11615049379E+02  0.19271085122E+01  0.18726428998E+02  0.00000000000E+00 0.  1.
         11    1    3    3    0    0  0.12756745991E+01 -0.11605564022E+02 -0.24391220845E+02  0.27041599740E+02  0.51100000000E-03 0. -1.
        -11    1    3    3    0    0  0.18278666120E+02 -0.12689243627E+02  0.42195112734E+01  0.22647975949E+02  0.51100000000E-03 0.  1.
         12    1    3    3    0    0 -0.49921972049E+01  0.12679758270E+02  0.18244601059E+02  0.22771995313E+02  0.00000000000E+00 0. -1.
</event>
<event>
 7    1  0.1789107E-013  0.7246156E+02  0.7816164E-02  0.1226708E+00
        -11   -1    0    0    0    0  0.00000000000E+00  0.00000000000E+00  0.45593999997E+02  0.45594000000E+02  0.51100000000E-03 0.  1.
         11   -1    0    0    0    0 -0.00000000000E+00 -0.00000000000E+00 -0.45593999997E+02  0.45594000000E+02  0.51100000000E-03 0. -1.
    9900012    2    1    2    0    0 -0.94425108661E+01 -0.91621894095E+01 -0.13325646262E+02  0.72461559480E+02  0.69999985913E+02 0.  0.
        -12    1    1    2    0    0  0.94425108661E+01  0.91621894095E+01  0.13325646262E+02  0.18726440520E+02  0.00000000000E+00 0.  1.
         11    1    3    3    0    0  0.60389876324E+01 -0.27358027425E+01 -0.23724854868E+02  0.24633772083E+02  0.51100000000E-03 0. -1.
        -11    1    3    3    0    0 -0.20843757660E+02  0.14154192157E+02  0.33213438246E+01  0.25413278303E+02  0.51100000000E-03 0.  1.
         12    1    3    3    0    0  0.53622591619E+01 -0.20580578824E+02  0.70778647817E+01  0.22414509094E+02  0.00000000000E+00 0. -1.
</event>
<event>
 7    1  0.1789107E-013  0.7246170E+02  0.7816164E-02  0.1226708E+00
        -11   -1    0    0    0    0  0.00000000000E+00  0.00000000000E+00  0.45593999997E+02  0.45594000000E+02  0.51100000000E-03 0.  1.
         11   -1    0    0    0    0 -0.00000000000E+00 -0.00000000000E+00 -0.45593999997E+02  0.45594000000E+02  0.51100000000E-03 0. -1.
    9900012    2    1    2    0    0  0.11335293679E+02 -0.12529959016E+02 -0.80737518368E+01  0.72461702329E+02  0.70000172000E+02 0.  0.
        -12    1    1    2    0    0 -0.11335293679E+02  0.12529959016E+02  0.80737518368E+01  0.18726297671E+02  0.00000000000E+00 0.  1.
         11    1    3    3    0    0  0.15438376878E+02 -0.32844424467E+02 -0.77001362750E+01  0.37099754691E+02  0.51100000000E-03 0. -1.
        -11    1    3    3    0    0  0.83381883233E+01  0.13220611494E+01  0.75385496697E+01  0.11318257886E+02  0.51100000000E-03 0.  1.
        -12    1    3    3    0    0 -0.12441271523E+02  0.18992404301E+02 -0.79121652315E+01  0.24043689752E+02  0.00000000000E+00 0.  1.
</event>
<event>
 7    1  0.1789107E-013  0.7246157E+02  0.7816164E-02  0.1226708E+00
        -11   -1    0    0    0    0  0.00000000000E+00  0.00000000000E+00  0.45593999997E+02  0.45594000000E+02  0.51100000000E-03 0.  1.
         11   -1    0    0    0    0 -0.00000000000E+00 -0.00000000000E+00 -0.45593999997E+02  0.45594000000E+02  0.51100000000E-03 0. -1.
    9900012    2    1    2    0    0 -0.64864002172E+01  0.13021352202E+02 -0.11791958712E+02  0.72461567045E+02  0.69999995768E+02 0.  0.
        -12    1    1    2    0    0  0.64864002172E+01 -0.13021352202E+02  0.11791958712E+02  0.18726432955E+02  0.00000000000E+00 0.  1.
         11    1    3    3    0    0  0.55876415192E+01  0.76287147332E+01  0.47991903210E+01  0.10604303571E+02  0.51100000000E-03 0. -1.
        -11    1    3    3    0    0  0.45639317269E+01 -0.15136987352E+02  0.14221571231E+02  0.21265252113E+02  0.51100000000E-03 0.  1.
         12    1    3    3    0    0 -0.16637973463E+02  0.20529624820E+02 -0.30812720264E+02  0.40592011361E+02  0.00000000000E+00 0. -1.
</event>
<event>
 7    1  0.1789107E-013  0.7246171E+02  0.7816164E-02  0.1226708E+00
        -11   -1    0    0    0    0  0.00000000000E+00  0.00000000000E+00  0.45593999997E+02  0.45594000000E+02  0.51100000000E-03 0.  1.
         11   -1    0    0    0    0 -0.00000000000E+00 -0.00000000000E+00 -0.45593999997E+02  0.45594000000E+02  0.51100000000E-03 0. -1.
    9900012    2    1    2    0    0 -0.16277420999E+02 -0.90382658446E+01  0.20073020936E+01  0.72461709776E+02  0.70000181700E+02 0.  0.
        -12    1    1    2    0    0  0.16277420999E+02  0.90382658446E+01 -0.20073020936E+01  0.18726290224E+02  0.00000000000E+00 0.  1.
         11    1    3    3    0    0 -0.25572035025E+02 -0.56504903095E+01  0.25529914282E+02  0.36573672765E+02  0.51100000000E-03 0. -1.
        -11    1    3    3    0    0  0.30557170461E+01 -0.68989904080E+01  0.32199834513E+01  0.82037655380E+01  0.51100000000E-03 0.  1.
         12    1    3    3    0    0  0.62388969795E+01  0.35112148729E+01 -0.26742595639E+02  0.27684271472E+02  0.00000000000E+00 0. -1.
</event>
<event>
 7    1  0.1789107E-013  0.7246171E+02  0.7816164E-02  0.1226708E+00
        -11   -1    0    0    0    0  0.00000000000E+00  0.00000000000E+00  0.45593999997E+02  0.45594000000E+02  0.51100000000E-03 0. -1.
         11   -1    0    0    0    0 -0.00000000000E+00 -0.00000000000E+00 -0.45593999997E+02  0.45594000000E+02  0.51100000000E-03 0.  1.
    9900012    2    1    2    0    0 -0.86795372995E+00 -0.95724055447E+01  0.16071396310E+02  0.72461706428E+02  0.70000177339E+02 0.  0.
        -12    1    1    2    0    0  0.86795372995E+00  0.95724055447E+01 -0.16071396310E+02  0.18726293572E+02  0.00000000000E+00 0.  1.
         11    1    3    3    0    0 -0.20429678160E+02  0.12594384577E+01  0.35340035438E+02  0.40839638098E+02  0.51100000000E-03 0. -1.
        -11    1    3    3    0    0  0.28644870369E+01  0.13591231315E+01  0.26222320377E+00  0.31813932389E+01  0.51100000000E-03 0.  1.
        -12    1    3    3    0    0  0.16697237393E+02 -0.12190967134E+02 -0.19530862331E+02  0.28440675091E+02  0.00000000000E+00 0.  1.
</event>
<event>
 7    1  0.1789107E-013  0.7246162E+02  0.7816164E-02  0.1226708E+00
        -11   -1    0    0    0    0  0.00000000000E+00  0.00000000000E+00  0.45593999997E+02  0.45594000000E+02  0.51100000000E-03 0.  1.
         11   -1    0    0    0    0 -0.00000000000E+00 -0.00000000000E+00 -0.45593999997E+02  0.45594000000E+02  0.51100000000E-03 0. -1.
    9900012    2    1    2    0    0 -0.73711110285E+01 -0.13414677252E+02 -0.10788443559E+02  0.72461618662E+02  0.70000063008E+02 0.  0.
        -12    1    1    2    0    0  0.73711110285E+01  0.13414677252E+02  0.10788443559E+02  0.18726381338E+02  0.00000000000E+00 0.  1.
         11    1    3    3    0    0  0.37253244559E+01 -0.11800703596E+02 -0.91372486610E+01  0.15382586292E+02  0.51100000000E-03 0. -1.
        -11    1    3    3    0    0 -0.26823765748E+02  0.16246940168E+02 -0.81638553910E+01  0.32405647792E+02  0.51100000000E-03 0.  1.
         12    1    3    3    0    0  0.15727330264E+02 -0.17860913824E+02  0.65126604925E+01  0.24673384578E+02  0.00000000000E+00 0. -1.
</event>
<event>
 7    1  0.1789107E-013  0.7246142E+02  0.7816164E-02  0.1226708E+00
        -11   -1    0    0    0    0  0.00000000000E+00  0.00000000000E+00  0.45593999997E+02  0.45594000000E+02  0.51100000000E-03 0.  1.
         11   -1    0    0    0    0 -0.00000000000E+00 -0.00000000000E+00 -0.45593999997E+02  0.45594000000E+02  0.51100000000E-03 0. -1.
    9900012    2    1    2    0    0 -0.10299438458E+02  0.51137061984E+01 -0.14780268355E+02  0.72461421127E+02  0.69999805682E+02 0.  0.
        -12    1    1    2    0    0  0.10299438458E+02 -0.51137061984E+01  0.14780268355E+02  0.18726578873E+02  0.00000000000E+00 0.  1.
         11    1    3    3    0    0 -0.24442085509E+02  0.47118488949E+01  0.98935713262E+01  0.26786187073E+02  0.51100000000E-03 0.  1.
        -11    1    3    3    0    0  0.60578664496E+01  0.13914921340E+02  0.13729700819E+01  0.15238367004E+02  0.51100000000E-03 0. -1.
         12    1    3    3    0    0  0.80847806021E+01 -0.13513064037E+02 -0.26046809763E+02  0.30436867051E+02  0.00000000000E+00 0. -1.
</event>
<event>
 7    1  0.1789107E-013  0.7246150E+02  0.7816164E-02  0.1226708E+00
        -11   -1    0    0    0    0  0.00000000000E+00  0.00000000000E+00  0.45593999997E+02  0.45594000000E+02  0.51100000000E-03 0. -1.
         11   -1    0    0    0    0 -0.00000000000E+00 -0.00000000000E+00 -0.45593999997E+02  0.45594000000E+02  0.51100000000E-03 0.  1.
    9900012    2    1    2    0    0 -0.13547634225E+02  0.82759547744E+01  0.99323655403E+01  0.72461502576E+02  0.69999911785E+02 0.  0.
        -12    1    1    2    0    0  0.13547634225E+02 -0.82759547744E+01 -0.99323655403E+01  0.18726497424E+02  0.00000000000E+00 0.  1.
         11    1    3    3    0    0 -0.24548422834E+02  0.53112138597E+00  0.33727633213E+02  0.41718825438E+02  0.51100000000E-03 0. -1.
        -11    1    3    3    0    0 -0.12358582137E+01 -0.73869675185E+00  0.10467507842E+01  0.17800859195E+01  0.51100000000E-03 0.  1.
        -12    1    3    3    0    0  0.12236646823E+02  0.84835301403E+01 -0.24842018457E+02  0.28962591219E+02  0.00000000000E+00 0.  1.
</event>
