<event>
 7    1  0.2700100E-010  0.4778727E+02  0.7816164E-02  0.1312668E+00
        -11   -1    0    0    0    0  0.00000000000E+00  0.00000000000E+00  0.45593999997E+02  0.45594000000E+02  0.51100000000E-03 0.  1.
         11   -1    0    0    0    0 -0.00000000000E+00 -0.00000000000E+00 -0.45593999997E+02  0.45594000000E+02  0.51100000000E-03 0. -1.
    9900012    2    1    2    0    0 -0.37720435644E+02 -0.53411585579E+01 -0.20790960351E+02  0.47787271064E+02  0.20000000087E+02 0.  0.
        -12    1    1    2    0    0  0.37720435644E+02  0.53411585579E+01  0.20790960351E+02  0.43400728936E+02  0.00000000000E+00 0.  1.
         11    1    3    3    0    0 -0.21950262476E+02 -0.36049762917E+01 -0.31701719858E+01  0.22469086931E+02  0.51100000000E-03 0.  1.
        -11    1    3    3    0    0 -0.14357116777E+02 -0.45119563678E+01 -0.14188342453E+02  0.20683172248E+02  0.51100000000E-03 0. -1.
         12    1    3    3    0    0 -0.14130563901E+01  0.27757741016E+01 -0.34324459126E+01  0.46350118843E+01  0.00000000000E+00 0. -1.
</event>
<event>
 7    1  0.2700100E-010  0.4778727E+02  0.7816164E-02  0.1312668E+00
        -11   -1    0    0    0    0  0.00000000000E+00  0.00000000000E+00  0.45593999997E+02  0.45594000000E+02  0.51100000000E-03 0.  1.
         11   -1    0    0    0    0 -0.00000000000E+00 -0.00000000000E+00 -0.45593999997E+02  0.45594000000E+02  0.51100000000E-03 0. -1.
    9900012    2    1    2    0    0  0.12206801587E+02  0.94105384478E+01 -0.40571657636E+02  0.47787266801E+02  0.19999980652E+02 0.  0.
        -12    1    1    2    0    0 -0.12206801587E+02 -0.94105384478E+01  0.40571657636E+02  0.43400733199E+02  0.00000000000E+00 0.  1.
         11    1    3    3    0    0  0.98101695112E+01  0.81355879798E+01 -0.80410535354E+01  0.15069364945E+02  0.51100000000E-03 0. -1.
        -11    1    3    3    0    0  0.58864567133E+00  0.12648784370E+01 -0.21011793790E+02  0.21058060208E+02  0.51100000000E-03 0.  1.
         12    1    3    3    0    0  0.18079864050E+01  0.10072030960E-01 -0.11518810311E+02  0.11659841648E+02  0.00000000000E+00 0. -1.
</event>
<event>
 7    1  0.2700100E-010  0.4778727E+02  0.7816164E-02  0.1312668E+00
        -11   -1    0    0    0    0  0.00000000000E+00  0.00000000000E+00  0.45593999997E+02  0.45594000000E+02  0.51100000000E-03 0.  1.
         11   -1    0    0    0    0 -0.00000000000E+00 -0.00000000000E+00 -0.45593999997E+02  0.45594000000E+02  0.51100000000E-03 0. -1.
    9900012    2    1    2    0    0 -0.39052639839E+02 -0.13098120718E+02 -0.13673108790E+02  0.47787270182E+02  0.19999996069E+02 0.  0.
        -12    1    1    2    0    0  0.39052639839E+02  0.13098120718E+02  0.13673108790E+02  0.43400729818E+02  0.00000000000E+00 0.  1.
         11    1    3    3    0    0 -0.28585830161E+02 -0.12935285945E+02 -0.10370095976E+02  0.33045577606E+02  0.51100000000E-03 0. -1.
        -11    1    3    3    0    0 -0.69662565178E+01  0.24632810966E+01 -0.60714427779E+01  0.95634147301E+01  0.51100000000E-03 0.  1.
        -12    1    3    3    0    0 -0.35005531597E+01 -0.26261158698E+01  0.27684299642E+01  0.51782778462E+01  0.00000000000E+00 0.  1.
</event>
<event>
 7    1  0.2700100E-010  0.4778727E+02  0.7816164E-02  0.1312668E+00
        -11   -1    0    0    0    0  0.00000000000E+00  0.00000000000E+00  0.45593999997E+02  0.45594000000E+02  0.51100000000E-03 0.  1.
         11   -1    0    0    0    0 -0.00000000000E+00 -0.00000000000E+00 -0.45593999997E+02  0.45594000000E+02  0.51100000000E-03 0. -1.
    9900012    2    1    2    0    0 -0.32409012452E+02 -0.23478539950E+02 -0.16793965737E+02  0.47787271763E+02  0.20000003277E+02 0.  0.
        -12    1    1    2    0    0  0.32409012452E+02  0.23478539950E+02  0.16793965737E+02  0.43400728237E+02  0.00000000000E+00 0.  1.
         11    1    3    3    0    0 -0.20937020763E+02 -0.22316581512E+02 -0.12255745510E+02  0.32963494158E+02  0.51100000000E-03 0. -1.
        -11    1    3    3    0    0 -0.32633133444E+01  0.42019855607E+00 -0.54998279548E+01  0.64088913709E+01  0.51100000000E-03 0.  1.
         12    1    3    3    0    0 -0.82086783444E+01 -0.15821569939E+01  0.96160772729E+00  0.84148862343E+01  0.00000000000E+00 0. -1.
</event>
<event>
 7    1  0.2700100E-010  0.4778728E+02  0.7816164E-02  0.1312668E+00
        -11   -1    0    0    0    0  0.00000000000E+00  0.00000000000E+00  0.45593999997E+02  0.45594000000E+02  0.51100000000E-03 0. -1.
         11   -1    0    0    0    0 -0.00000000000E+00 -0.00000000000E+00 -0.45593999997E+02  0.45594000000E+02  0.51100000000E-03 0.  1.
    9900012    2    1    2    0    0 -0.35067045649E+02  0.15061948272E+02  0.20665490346E+02  0.47787280334E+02  0.20000042354E+02 0.  0.
        -12    1    1    2    0    0  0.35067045649E+02 -0.15061948272E+02 -0.20665490346E+02  0.43400719666E+02  0.00000000000E+00 0.  1.
         11    1    3    3    0    0 -0.21468451561E+02  0.44242710815E+01  0.13717289634E+02  0.25857931514E+02  0.51100000000E-03 0. -1.
        -11    1    3    3    0    0 -0.72141897655E+01  0.41617655820E+01  0.93521960443E+01  0.12523114542E+02  0.51100000000E-03 0.  1.
        -12    1    3    3    0    0 -0.63844043230E+01  0.64759116082E+01 -0.24039953327E+01  0.94062342771E+01  0.00000000000E+00 0.  1.
</event>
<event>
 7    1  0.2700100E-010  0.4778730E+02  0.7816164E-02  0.1312668E+00
        -11   -1    0    0    0    0  0.00000000000E+00  0.00000000000E+00  0.45593999997E+02  0.45594000000E+02  0.51100000000E-03 0. -1.
         11   -1    0    0    0    0 -0.00000000000E+00 -0.00000000000E+00 -0.45593999997E+02  0.45594000000E+02  0.51100000000E-03 0.  1.
    9900012    2    1    2    0    0  0.33376221110E+02  0.10996142554E+02 -0.25470249911E+02  0.47787298195E+02  0.20000123790E+02 0.  0.
        -12    1    1    2    0    0 -0.33376221110E+02 -0.10996142554E+02  0.25470249911E+02  0.43400701805E+02  0.00000000000E+00 0.  1.
         11    1    3    3    0    0  0.14743904049E+02  0.12769828007E+02 -0.18838481242E+02  0.27117145678E+02  0.51100000000E-03 0. -1.
        -11    1    3    3    0    0  0.74365815861E+01 -0.34799371506E+01 -0.21224958409E+01  0.84804302435E+01  0.51100000000E-03 0.  1.
         12    1    3    3    0    0  0.11195735475E+02  0.17062516978E+01 -0.45092728276E+01  0.12189722274E+02  0.00000000000E+00 0. -1.
</event>
<event>
 7    1  0.2700100E-010  0.4778727E+02  0.7816164E-02  0.1312668E+00
        -11   -1    0    0    0    0  0.00000000000E+00  0.00000000000E+00  0.45593999997E+02  0.45594000000E+02  0.51100000000E-03 0. -1.
         11   -1    0    0    0    0 -0.00000000000E+00 -0.00000000000E+00 -0.45593999997E+02  0.45594000000E+02  0.51100000000E-03 0.  1.
    9900012    2    1    2    0    0  0.20075062552E+02 -0.26248366956E+02  0.28136071470E+02  0.47787269337E+02  0.19999992216E+02 0.  0.
        -12    1    1    2    0    0 -0.20075062552E+02  0.26248366956E+02 -0.28136071470E+02  0.43400730663E+02  0.00000000000E+00 0.  1.
         11    1    3    3    0    0  0.18887148998E+02 -0.19917985142E+02  0.19616881201E+02  0.33738295122E+02  0.51100000000E-03 0. -1.
        -11    1    3    3    0    0  0.30307920507E+01 -0.42183177714E+01  0.12129724465E+00  0.51956345674E+01  0.51100000000E-03 0.  1.
         12    1    3    3    0    0 -0.18428784969E+01 -0.21120640419E+01  0.83978930247E+01  0.88533396482E+01  0.00000000000E+00 0. -1.
</event>
<event>
 7    1  0.2700100E-010  0.4778727E+02  0.7816164E-02  0.1312668E+00
        -11   -1    0    0    0    0  0.00000000000E+00  0.00000000000E+00  0.45593999997E+02  0.45594000000E+02  0.51100000000E-03 0.  1.
         11   -1    0    0    0    0 -0.00000000000E+00 -0.00000000000E+00 -0.45593999997E+02  0.45594000000E+02  0.51100000000E-03 0. -1.
    9900012    2    1    2    0    0  0.89202997004E+00 -0.42416722742E+02 -0.91459746125E+01  0.47787274923E+02  0.20000017683E+02 0.  0.
        -12    1    1    2    0    0 -0.89202997004E+00  0.42416722742E+02  0.91459746125E+01  0.43400725077E+02  0.00000000000E+00 0.  1.
         11    1    3    3    0    0  0.11964199085E+01  0.37876993411E+00  0.16552105790E+01  0.20771638314E+01  0.51100000000E-03 0. -1.
        -11    1    3    3    0    0  0.32392339685E+01 -0.36932226988E+01 -0.27526978887E+01  0.56311523273E+01  0.51100000000E-03 0.  1.
         12    1    3    3    0    0 -0.35436239070E+01 -0.39102269977E+02 -0.80484873028E+01  0.40078958764E+02  0.00000000000E+00 0. -1.
</event>
<event>
 7    1  0.2700100E-010  0.4778727E+02  0.7816164E-02  0.1312668E+00
        -11   -1    0    0    0    0  0.00000000000E+00  0.00000000000E+00  0.45593999997E+02  0.45594000000E+02  0.51100000000E-03 0. -1.
         11   -1    0    0    0    0 -0.00000000000E+00 -0.00000000000E+00 -0.45593999997E+02  0.45594000000E+02  0.51100000000E-03 0.  1.
    9900012    2    1    2    0    0  0.35135916879E+01  0.24951493347E+02  0.35336958753E+02  0.47787274191E+02  0.20000014347E+02 0.  0.
        -12    1    1    2    0    0 -0.35135916879E+01 -0.24951493347E+02 -0.35336958753E+02  0.43400725809E+02  0.00000000000E+00 0.  1.
         11    1    3    3    0    0 -0.33088275613E+01  0.18051459853E+02  0.20572669882E+02  0.27568791939E+02  0.51100000000E-03 0. -1.
        -11    1    3    3    0    0  0.51343099320E+01  0.20847182528E+01  0.14002709184E+02  0.15059317827E+02  0.51100000000E-03 0.  1.
         12    1    3    3    0    0  0.16881093173E+01  0.48153152413E+01  0.76157968720E+00  0.51591644246E+01  0.00000000000E+00 0. -1.
</event>
<event>
 7    1  0.2700100E-010  0.4778727E+02  0.7816164E-02  0.1312668E+00
        -11   -1    0    0    0    0  0.00000000000E+00  0.00000000000E+00  0.45593999997E+02  0.45594000000E+02  0.51100000000E-03 0.  1.
         11   -1    0    0    0    0 -0.00000000000E+00 -0.00000000000E+00 -0.45593999997E+02  0.45594000000E+02  0.51100000000E-03 0. -1.
    9900012    2    1    2    0    0 -0.61231624476E+01  0.29675300155E+02 -0.31072611119E+02  0.47787265911E+02  0.19999976595E+02 0.  0.
        -12    1    1    2    0    0  0.61231624476E+01 -0.29675300155E+02  0.31072611119E+02  0.43400734089E+02  0.00000000000E+00 0.  1.
         11    1    3    3    0    0  0.48919657718E+01  0.18208071889E+02 -0.13166734692E+02  0.22996263038E+02  0.51100000000E-03 0. -1.
        -11    1    3    3    0    0 -0.57748074002E+01  0.29918566206E+01 -0.38387822749E+01  0.75522086944E+01  0.51100000000E-03 0.  1.
         12    1    3    3    0    0 -0.52403208192E+01  0.84753716459E+01 -0.14067094153E+02  0.17238794178E+02  0.00000000000E+00 0. -1.
</event>
<event>
 7    1  0.2700100E-010  0.4778727E+02  0.7816164E-02  0.1312668E+00
        -11   -1    0    0    0    0  0.00000000000E+00  0.00000000000E+00  0.45593999997E+02  0.45594000000E+02  0.51100000000E-03 0. -1.
         11   -1    0    0    0    0 -0.00000000000E+00 -0.00000000000E+00 -0.45593999997E+02  0.45594000000E+02  0.51100000000E-03 0.  1.
    9900012    2    1    2    0    0 -0.37715143040E+02  0.18927087470E+02 -0.10146761551E+02  0.47787269308E+02  0.19999992083E+02 0.  0.
        -12    1    1    2    0    0  0.37715143040E+02 -0.18927087470E+02  0.10146761551E+02  0.43400730692E+02  0.00000000000E+00 0.  1.
         11    1    3    3    0    0 -0.28003334557E+02  0.68904522813E+01 -0.12960212916E+02  0.31616960607E+02  0.51100000000E-03 0. -1.
        -11    1    3    3    0    0 -0.16346607666E+00  0.12969986648E+01 -0.53891861060E+00  0.14139873495E+01  0.51100000000E-03 0.  1.
         12    1    3    3    0    0 -0.95483424064E+01  0.10739636524E+02  0.33523699753E+01  0.14756321352E+02  0.00000000000E+00 0. -1.
</event>
<event>
 7    1  0.2700100E-010  0.4778728E+02  0.7816164E-02  0.1312668E+00
        -11   -1    0    0    0    0  0.00000000000E+00  0.00000000000E+00  0.45593999997E+02  0.45594000000E+02  0.51100000000E-03 0. -1.
         11   -1    0    0    0    0 -0.00000000000E+00 -0.00000000000E+00 -0.45593999997E+02  0.45594000000E+02  0.51100000000E-03 0.  1.
    9900012    2    1    2    0    0 -0.23551032280E+02 -0.30619178403E+02  0.19784784769E+02  0.47787275168E+02  0.20000018803E+02 0.  0.
        -12    1    1    2    0    0  0.23551032280E+02  0.30619178403E+02 -0.19784784769E+02  0.43400724832E+02  0.00000000000E+00 0.  1.
         11    1    3    3    0    0 -0.45185241616E+01 -0.48542596368E+01  0.47524489268E+01  0.81588398859E+01  0.51100000000E-03 0. -1.
        -11    1    3    3    0    0 -0.19164260524E+02 -0.25327572952E+02  0.18080207332E+02  0.36546528296E+02  0.51100000000E-03 0.  1.
        -12    1    3    3    0    0  0.13175240476E+00 -0.43734581449E+00 -0.30478714897E+01  0.30819069868E+01  0.00000000000E+00 0.  1.
</event>
<event>
 7    1  0.2700100E-010  0.4778727E+02  0.7816164E-02  0.1312668E+00
        -11   -1    0    0    0    0  0.00000000000E+00  0.00000000000E+00  0.45593999997E+02  0.45594000000E+02  0.51100000000E-03 0. -1.
         11   -1    0    0    0    0 -0.00000000000E+00 -0.00000000000E+00 -0.45593999997E+02  0.45594000000E+02  0.51100000000E-03 0.  1.
    9900012    2    1    2    0    0 -0.18124785247E+02 -0.38294249442E+02  0.94162485575E+01  0.47787272846E+02  0.20000008214E+02 0.  0.
        -12    1    1    2    0    0  0.18124785247E+02  0.38294249442E+02 -0.94162485575E+01  0.43400727154E+02  0.00000000000E+00 0.  1.
         11    1    3    3    0    0 -0.10673490273E+02 -0.14862846069E+02  0.13230991066E+02  0.22580671219E+02  0.51100000000E-03 0. -1.
        -11    1    3    3    0    0  0.27126249369E+00 -0.98779311417E-01 -0.23006118207E+00  0.36914644989E+00  0.51100000000E-03 0.  1.
         12    1    3    3    0    0 -0.77225574683E+01 -0.23332624061E+02 -0.35846813259E+01  0.24837455177E+02  0.00000000000E+00 0. -1.
</event>
<event>
 7    1  0.2700100E-010  0.4778727E+02  0.7816164E-02  0.1312668E+00
        -11   -1    0    0    0    0  0.00000000000E+00  0.00000000000E+00  0.45593999997E+02  0.45594000000E+02  0.51100000000E-03 0.  1.
         11   -1    0    0    0    0 -0.00000000000E+00 -0.00000000000E+00 -0.45593999997E+02  0.45594000000E+02  0.51100000000E-03 0. -1.
    9900012    2    1    2    0    0  0.78330873783E+01  0.24330921141E+02 -0.35075238106E+02  0.47787270633E+02  0.19999998124E+02 0.  0.
        -12    1    1    2    0    0 -0.78330873783E+01 -0.24330921141E+02  0.35075238106E+02  0.43400729367E+02  0.00000000000E+00 0.  1.
         11    1    3    3    0    0 -0.28934351145E+01  0.77539352627E+01 -0.25722661394E+01  0.86667198047E+01  0.51100000000E-03 0. -1.
        -11    1    3    3    0    0  0.51889214802E+01  0.74828972291E+01 -0.70044885053E+01  0.11488320876E+02  0.51100000000E-03 0.  1.
         12    1    3    3    0    0  0.55376010126E+01  0.90940886490E+01 -0.25498483461E+02  0.27632229952E+02  0.00000000000E+00 0. -1.
</event>
<event>
 7    1  0.2700100E-010  0.4778727E+02  0.7816164E-02  0.1312668E+00
        -11   -1    0    0    0    0  0.00000000000E+00  0.00000000000E+00  0.45593999997E+02  0.45594000000E+02  0.51100000000E-03 0.  1.
         11   -1    0    0    0    0 -0.00000000000E+00 -0.00000000000E+00 -0.45593999997E+02  0.45594000000E+02  0.51100000000E-03 0. -1.
    9900012    2    1    2    0    0  0.23094227090E+02  0.30387100737E+02 -0.20661657712E+02  0.47787270565E+02  0.19999997814E+02 0.  0.
        -12    1    1    2    0    0 -0.23094227090E+02 -0.30387100737E+02  0.20661657712E+02  0.43400729435E+02  0.00000000000E+00 0.  1.
         11    1    3    3    0    0  0.57783133041E+00  0.12019856834E+02 -0.98417792245E+01  0.15545786114E+02  0.51100000000E-03 0. -1.
        -11    1    3    3    0    0  0.80339201958E+01  0.26006360553E+01 -0.45711129942E+00  0.84567211499E+01  0.51100000000E-03 0.  1.
        -12    1    3    3    0    0  0.14482475564E+02  0.15766607848E+02 -0.10362767188E+02  0.23784763301E+02  0.00000000000E+00 0.  1.
</event>
<event>
 7    1  0.2700100E-010  0.4778726E+02  0.7816164E-02  0.1312668E+00
        -11   -1    0    0    0    0  0.00000000000E+00  0.00000000000E+00  0.45593999997E+02  0.45594000000E+02  0.51100000000E-03 0. -1.
         11   -1    0    0    0    0 -0.00000000000E+00 -0.00000000000E+00 -0.45593999997E+02  0.45594000000E+02  0.51100000000E-03 0.  1.
    9900012    2    1    2    0    0 -0.34404836911E+02 -0.25870969644E+02  0.55338963973E+01  0.47787264033E+02  0.19999968031E+02 0.  0.
        -12    1    1    2    0    0  0.34404836911E+02  0.25870969644E+02 -0.55338963973E+01  0.43400735967E+02  0.00000000000E+00 0.  1.
         11    1    3    3    0    0 -0.11398071792E+02 -0.16701123554E+01 -0.39225130638E+01  0.12169282019E+02  0.51100000000E-03 0. -1.
        -11    1    3    3    0    0 -0.15018478966E+02 -0.20064521205E+02  0.89329792502E+01  0.26607101311E+02  0.51100000000E-03 0.  1.
         12    1    3    3    0    0 -0.79882861530E+01 -0.41363360836E+01  0.52343021082E+00  0.90108807030E+01  0.00000000000E+00 0. -1.
</event>
<event>
 7    1  0.2700100E-010  0.4778727E+02  0.7816164E-02  0.1312668E+00
        -11   -1    0    0    0    0  0.00000000000E+00  0.00000000000E+00  0.45593999997E+02  0.45594000000E+02  0.51100000000E-03 0.  1.
         11   -1    0    0    0    0 -0.00000000000E+00 -0.00000000000E+00 -0.45593999997E+02  0.45594000000E+02  0.51100000000E-03 0. -1.
    9900012    2    1    2    0    0  0.45692386329E+01  0.26601725799E+02 -0.33986668233E+02  0.47787269882E+02  0.19999994701E+02 0.  0.
        -12    1    1    2    0    0 -0.45692386329E+01 -0.26601725799E+02  0.33986668233E+02  0.43400730118E+02  0.00000000000E+00 0.  1.
         11    1    3    3    0    0 -0.51905041056E+00  0.39187927970E+01 -0.61291833797E+01  0.72933695558E+01  0.51100000000E-03 0. -1.
        -11    1    3    3    0    0  0.26988826746E+01  0.17645424594E+02 -0.74575910107E+01  0.19345817138E+02  0.51100000000E-03 0.  1.
        -12    1    3    3    0    0  0.23894063688E+01  0.50375084085E+01 -0.20399893843E+02  0.21148083189E+02  0.00000000000E+00 0.  1.
</event>
<event>
 7    1  0.2700100E-010  0.4778726E+02  0.7816164E-02  0.1312668E+00
        -11   -1    0    0    0    0  0.00000000000E+00  0.00000000000E+00  0.45593999997E+02  0.45594000000E+02  0.51100000000E-03 0. -1.
         11   -1    0    0    0    0 -0.00000000000E+00 -0.00000000000E+00 -0.45593999997E+02  0.45594000000E+02  0.51100000000E-03 0.  1.
    9900012    2    1    2    0    0  0.22078220681E+02  0.25870306995E+02  0.26961150246E+02  0.47787259971E+02  0.19999949512E+02 0.  0.
        -12    1    1    2    0    0 -0.22078220681E+02 -0.25870306995E+02 -0.26961150246E+02  0.43400740029E+02  0.00000000000E+00 0.  1.
         11    1    3    3    0    0  0.32624137401E+01  0.17602440225E+02  0.11971721644E+02  0.21536280196E+02  0.51100000000E-03 0. -1.
        -11    1    3    3    0    0  0.28634029987E+01  0.10834561538E+01 -0.21890117376E+00  0.30693438965E+01  0.51100000000E-03 0.  1.
         12    1    3    3    0    0  0.15952403942E+02  0.71844106162E+01  0.15208329776E+02  0.23181635879E+02  0.00000000000E+00 0. -1.
</event>
<event>
 7    1  0.2700100E-010  0.4778727E+02  0.7816164E-02  0.1312668E+00
        -11   -1    0    0    0    0  0.00000000000E+00  0.00000000000E+00  0.45593999997E+02  0.45594000000E+02  0.51100000000E-03 0.  1.
         11   -1    0    0    0    0 -0.00000000000E+00 -0.00000000000E+00 -0.45593999997E+02  0.45594000000E+02  0.51100000000E-03 0. -1.
    9900012    2    1    2    0    0  0.39528517728E+02 -0.12266628324E+01 -0.17877776373E+02  0.47787270703E+02  0.19999998445E+02 0.  0.
        -12    1    1    2    0    0 -0.39528517728E+02  0.12266628324E+01  0.17877776373E+02  0.43400729297E+02  0.00000000000E+00 0.  1.
         11    1    3    3    0    0  0.12259779423E+02  0.61836194242E+00  0.78701665547E-02  0.12275366601E+02  0.51100000000E-03 0. -1.
        -11    1    3    3    0    0  0.49073996437E+00  0.22347408783E+01 -0.50364359631E+01  0.55317790969E+01  0.51100000000E-03 0.  1.
        -12    1    3    3    0    0  0.26777998340E+02 -0.40797656532E+01 -0.12849210576E+02  0.29980125005E+02  0.00000000000E+00 0.  1.
</event>
<event>
 7    1  0.2700100E-010  0.4778727E+02  0.7816164E-02  0.1312668E+00
        -11   -1    0    0    0    0  0.00000000000E+00  0.00000000000E+00  0.45593999997E+02  0.45594000000E+02  0.51100000000E-03 0.  1.
         11   -1    0    0    0    0 -0.00000000000E+00 -0.00000000000E+00 -0.45593999997E+02  0.45594000000E+02  0.51100000000E-03 0. -1.
    9900012    2    1    2    0    0 -0.17694490696E+02 -0.11234156400E+02 -0.38004241127E+02  0.47787267119E+02  0.19999982102E+02 0.  0.
        -12    1    1    2    0    0  0.17694490696E+02  0.11234156400E+02  0.38004241127E+02  0.43400732881E+02  0.00000000000E+00 0.  1.
         11    1    3    3    0    0 -0.15986295123E+02 -0.28726797953E+01 -0.13493261975E+02  0.21115919112E+02  0.51100000000E-03 0. -1.
        -11    1    3    3    0    0  0.21145225175E+01 -0.32010838235E+01 -0.64759228262E+01  0.75269993912E+01  0.51100000000E-03 0.  1.
         12    1    3    3    0    0 -0.38227180900E+01 -0.51603927808E+01 -0.18035056325E+02  0.19144348615E+02  0.00000000000E+00 0. -1.
</event>
<event>
 7    1  0.2700100E-010  0.4778729E+02  0.7816164E-02  0.1312668E+00
        -11   -1    0    0    0    0  0.00000000000E+00  0.00000000000E+00  0.45593999997E+02  0.45594000000E+02  0.51100000000E-03 0.  1.
         11   -1    0    0    0    0 -0.00000000000E+00 -0.00000000000E+00 -0.45593999997E+02  0.45594000000E+02  0.51100000000E-03 0. -1.
    9900012    2    1    2    0    0 -0.19628159290E+02  0.30392438482E+02 -0.23971993995E+02  0.47787292055E+02  0.20000095795E+02 0.  0.
        -12    1    1    2    0    0  0.19628159290E+02 -0.30392438482E+02  0.23971993995E+02  0.43400707945E+02  0.00000000000E+00 0.  1.
         11    1    3    3    0    0 -0.96026767410E+01  0.10641907248E+02 -0.32046360526E+01  0.14687793672E+02  0.51100000000E-03 0. -1.
        -11    1    3    3    0    0 -0.59925333761E+00  0.15195357387E+02 -0.10871188156E+02  0.18693333648E+02  0.51100000000E-03 0.  1.
        -12    1    3    3    0    0 -0.94262292118E+01  0.45551738472E+01 -0.98961697860E+01  0.14406164735E+02  0.00000000000E+00 0.  1.
</event>
<event>
 7    1  0.2700100E-010  0.4778728E+02  0.7816164E-02  0.1312668E+00
        -11   -1    0    0    0    0  0.00000000000E+00  0.00000000000E+00  0.45593999997E+02  0.45594000000E+02  0.51100000000E-03 0.  1.
         11   -1    0    0    0    0 -0.00000000000E+00 -0.00000000000E+00 -0.45593999997E+02  0.45594000000E+02  0.51100000000E-03 0. -1.
    9900012    2    1    2    0    0  0.80939308985E+01  0.42311779425E+02 -0.52748869148E+01  0.47787276187E+02  0.20000023448E+02 0.  0.
        -12    1    1    2    0    0 -0.80939308985E+01 -0.42311779425E+02  0.52748869148E+01  0.43400723813E+02  0.00000000000E+00 0.  1.
         11    1    3    3    0    0  0.75928296286E+00  0.38316885683E+01 -0.29652279814E+01  0.49041742572E+01  0.51100000000E-03 0. -1.
        -11    1    3    3    0    0  0.14038867339E+01  0.26365827824E+02 -0.89108119575E+01  0.27866294063E+02  0.51100000000E-03 0.  1.
        -12    1    3    3    0    0  0.59307612018E+01  0.12114263033E+02  0.66011530241E+01  0.15016807867E+02  0.00000000000E+00 0.  1.
</event>
<event>
 7    1  0.2700100E-010  0.4778728E+02  0.7816164E-02  0.1312668E+00
        -11   -1    0    0    0    0  0.00000000000E+00  0.00000000000E+00  0.45593999997E+02  0.45594000000E+02  0.51100000000E-03 0.  1.
         11   -1    0    0    0    0 -0.00000000000E+00 -0.00000000000E+00 -0.45593999997E+02  0.45594000000E+02  0.51100000000E-03 0. -1.
    9900012    2    1    2    0    0 -0.26531158288E+02 -0.18962134956E+02 -0.28638389548E+02  0.47787282517E+02  0.20000052307E+02 0.  0.
        -12    1    1    2    0    0  0.26531158288E+02  0.18962134956E+02  0.28638389548E+02  0.43400717483E+02  0.00000000000E+00 0.  1.
         11    1    3    3    0    0 -0.27691284504E+01 -0.69925509723E+01 -0.49233735879E+01  0.89890738801E+01  0.51100000000E-03 0. -1.
        -11    1    3    3    0    0 -0.47460696681E+01 -0.68811526504E+00  0.17213692155E+01  0.50952715482E+01  0.51100000000E-03 0.  1.
        -12    1    3    3    0    0 -0.19015960169E+02 -0.11281468719E+02 -0.25436385175E+02  0.33702937088E+02  0.00000000000E+00 0.  1.
</event>
<event>
 7    1  0.2700100E-010  0.4778727E+02  0.7816164E-02  0.1312668E+00
        -11   -1    0    0    0    0  0.00000000000E+00  0.00000000000E+00  0.45593999997E+02  0.45594000000E+02  0.51100000000E-03 0. -1.
         11   -1    0    0    0    0 -0.00000000000E+00 -0.00000000000E+00 -0.45593999997E+02  0.45594000000E+02  0.51100000000E-03 0.  1.
    9900012    2    1    2    0    0  0.34665563691E+02  0.25326533250E+02  0.63630675173E+01  0.47787271657E+02  0.20000002792E+02 0.  0.
        -12    1    1    2    0    0 -0.34665563691E+02 -0.25326533250E+02 -0.63630675173E+01  0.43400728343E+02  0.00000000000E+00 0.  1.
         11    1    3    3    0    0  0.47384315933E+01  0.28290361487E+01  0.60013837011E+00  0.55512472310E+01  0.51100000000E-03 0. -1.
        -11    1    3    3    0    0  0.30200683819E+02  0.14046280245E+02  0.35526720113E+01  0.33496279951E+02  0.51100000000E-03 0.  1.
        -12    1    3    3    0    0 -0.27355172067E+00  0.84512168558E+01  0.22102571359E+01  0.87397444754E+01  0.00000000000E+00 0.  1.
</event>
<event>
 7    1  0.2700100E-010  0.4778727E+02  0.7816164E-02  0.1312668E+00
        -11   -1    0    0    0    0  0.00000000000E+00  0.00000000000E+00  0.45593999997E+02  0.45594000000E+02  0.51100000000E-03 0.  1.
         11   -1    0    0    0    0 -0.00000000000E+00 -0.00000000000E+00 -0.45593999997E+02  0.45594000000E+02  0.51100000000E-03 0. -1.
    9900012    2    1    2    0    0  0.12825324796E+02 -0.11110229878E+02 -0.39946174744E+02  0.47787273730E+02  0.20000012245E+02 0.  0.
        -12    1    1    2    0    0 -0.12825324796E+02  0.11110229878E+02  0.39946174744E+02  0.43400726270E+02  0.00000000000E+00 0.  1.
         11    1    3    3    0    0  0.40544039062E+01 -0.11932894835E+02 -0.27048763535E+02  0.29840706748E+02  0.51100000000E-03 0. -1.
        -11    1    3    3    0    0  0.51320817178E+01  0.32591954588E+01 -0.23353715486E+01  0.65126475667E+01  0.51100000000E-03 0.  1.
        -12    1    3    3    0    0  0.36388391725E+01 -0.24365305019E+01 -0.10562039661E+02  0.11433919416E+02  0.00000000000E+00 0.  1.
</event>
<event>
 7    1  0.2700100E-010  0.4778728E+02  0.7816164E-02  0.1312668E+00
        -11   -1    0    0    0    0  0.00000000000E+00  0.00000000000E+00  0.45593999997E+02  0.45594000000E+02  0.51100000000E-03 0.  1.
         11   -1    0    0    0    0 -0.00000000000E+00 -0.00000000000E+00 -0.45593999997E+02  0.45594000000E+02  0.51100000000E-03 0. -1.
    9900012    2    1    2    0    0 -0.11675752369E+02  0.10870165630E+02 -0.40362591369E+02  0.47787280234E+02  0.20000041899E+02 0.  0.
        -12    1    1    2    0    0  0.11675752369E+02 -0.10870165630E+02  0.40362591369E+02  0.43400719766E+02  0.00000000000E+00 0.  1.
         11    1    3    3    0    0 -0.54845045804E+01  0.64887646317E+01 -0.33842583247E+02  0.34892754234E+02  0.51100000000E-03 0. -1.
        -11    1    3    3    0    0 -0.64225015115E+01  0.35571341461E+01 -0.11195683177E+01  0.74266521716E+01  0.51100000000E-03 0.  1.
         12    1    3    3    0    0  0.23125372276E+00  0.82426685183E+00 -0.54004398042E+01  0.54678738287E+01  0.00000000000E+00 0. -1.
</event>
<event>
 7    1  0.2700100E-010  0.4778727E+02  0.7816164E-02  0.1312668E+00
        -11   -1    0    0    0    0  0.00000000000E+00  0.00000000000E+00  0.45593999997E+02  0.45594000000E+02  0.51100000000E-03 0. -1.
         11   -1    0    0    0    0 -0.00000000000E+00 -0.00000000000E+00 -0.45593999997E+02  0.45594000000E+02  0.51100000000E-03 0.  1.
    9900012    2    1    2    0    0  0.13728643289E+02  0.10268154163E+02  0.39871203824E+02  0.47787268084E+02  0.19999986502E+02 0.  0.
        -12    1    1    2    0    0 -0.13728643289E+02 -0.10268154163E+02 -0.39871203824E+02  0.43400731916E+02  0.00000000000E+00 0.  1.
         11    1    3    3    0    0  0.86556639338E+01  0.64143595593E+01  0.10405090746E+02  0.14977664717E+02  0.51100000000E-03 0. -1.
        -11    1    3    3    0    0  0.10238187357E+01 -0.14444339803E+00  0.26255541282E+02  0.26275892315E+02  0.51100000000E-03 0.  1.
        -12    1    3    3    0    0  0.40491606196E+01  0.39982380022E+01  0.32105717964E+01  0.65337110516E+01  0.00000000000E+00 0.  1.
</event>
<event>
 7    1  0.2700100E-010  0.4778727E+02  0.7816164E-02  0.1312668E+00
        -11   -1    0    0    0    0  0.00000000000E+00  0.00000000000E+00  0.45593999997E+02  0.45594000000E+02  0.51100000000E-03 0. -1.
         11   -1    0    0    0    0 -0.00000000000E+00 -0.00000000000E+00 -0.45593999997E+02  0.45594000000E+02  0.51100000000E-03 0.  1.
    9900012    2    1    2    0    0 -0.38026486363E+02  0.19885084133E+02  0.64956177542E+01  0.47787270904E+02  0.19999999359E+02 0.  0.
        -12    1    1    2    0    0  0.38026486363E+02 -0.19885084133E+02 -0.64956177542E+01  0.43400729096E+02  0.00000000000E+00 0.  1.
         11    1    3    3    0    0 -0.62180190683E+01  0.38727608172E+01 -0.60699976180E+01  0.95135119080E+01  0.51100000000E-03 0. -1.
        -11    1    3    3    0    0 -0.26592804732E+01  0.11445708917E+01  0.30298578266E+01  0.41906865633E+01  0.51100000000E-03 0.  1.
         12    1    3    3    0    0 -0.29149186821E+02  0.14867752424E+02  0.95357575456E+01  0.34083072433E+02  0.00000000000E+00 0. -1.
</event>
<event>
 7    1  0.2700100E-010  0.4778727E+02  0.7816164E-02  0.1312668E+00
        -11   -1    0    0    0    0  0.00000000000E+00  0.00000000000E+00  0.45593999997E+02  0.45594000000E+02  0.51100000000E-03 0. -1.
         11   -1    0    0    0    0 -0.00000000000E+00 -0.00000000000E+00 -0.45593999997E+02  0.45594000000E+02  0.51100000000E-03 0.  1.
    9900012    2    1    2    0    0  0.35373654752E+02 -0.17057662006E+02 -0.18476037275E+02  0.47787271468E+02  0.20000001933E+02 0.  0.
        -12    1    1    2    0    0 -0.35373654752E+02  0.17057662006E+02  0.18476037275E+02  0.43400728532E+02  0.00000000000E+00 0.  1.
         11    1    3    3    0    0  0.30671256358E+02 -0.10515782589E+02 -0.13218361008E+02  0.35014750007E+02  0.51100000000E-03 0. -1.
        -11    1    3    3    0    0  0.17780860956E+01 -0.37142190286E+01 -0.71771439346E+01  0.82745639447E+01  0.51100000000E-03 0.  1.
        -12    1    3    3    0    0  0.29243122993E+01 -0.28276603888E+01  0.19194676677E+01  0.44979575171E+01  0.00000000000E+00 0.  1.
</event>
<event>
 7    1  0.2700100E-010  0.4778726E+02  0.7816164E-02  0.1312668E+00
        -11   -1    0    0    0    0  0.00000000000E+00  0.00000000000E+00  0.45593999997E+02  0.45594000000E+02  0.51100000000E-03 0.  1.
         11   -1    0    0    0    0 -0.00000000000E+00 -0.00000000000E+00 -0.45593999997E+02  0.45594000000E+02  0.51100000000E-03 0. -1.
    9900012    2    1    2    0    0 -0.20876373738E+02 -0.22952385800E+02 -0.30347801389E+02  0.47787262178E+02  0.19999959573E+02 0.  0.
        -12    1    1    2    0    0  0.20876373738E+02  0.22952385800E+02  0.30347801389E+02  0.43400737822E+02  0.00000000000E+00 0.  1.
         11    1    3    3    0    0 -0.10363211334E+01  0.38517345232E+00 -0.10774745080E+01  0.15437848478E+01  0.51100000000E-03 0. -1.
        -11    1    3    3    0    0 -0.19938743904E+02 -0.10756605243E+02 -0.22612554005E+02  0.32009149687E+02  0.51100000000E-03 0.  1.
        -12    1    3    3    0    0  0.98691299432E-01 -0.12580954010E+02 -0.66577728760E+01  0.14234327643E+02  0.00000000000E+00 0.  1.
</event>
<event>
 7    1  0.2700100E-010  0.4778726E+02  0.7816164E-02  0.1312668E+00
        -11   -1    0    0    0    0  0.00000000000E+00  0.00000000000E+00  0.45593999997E+02  0.45594000000E+02  0.51100000000E-03 0.  1.
         11   -1    0    0    0    0 -0.00000000000E+00 -0.00000000000E+00 -0.45593999997E+02  0.45594000000E+02  0.51100000000E-03 0. -1.
    9900012    2    1    2    0    0 -0.84030873657E+00 -0.22544133651E+02 -0.37076677313E+02  0.47787261741E+02  0.19999957584E+02 0.  0.
        -12    1    1    2    0    0  0.84030873657E+00  0.22544133651E+02  0.37076677313E+02  0.43400738259E+02  0.00000000000E+00 0.  1.
         11    1    3    3    0    0 -0.32312557336E+01 -0.60877603148E+00  0.10014294550E+01  0.34372202558E+01  0.51100000000E-03 0. -1.
        -11    1    3    3    0    0  0.39803386223E+01 -0.17786861755E+02 -0.31909249592E+02  0.36748003434E+02  0.51100000000E-03 0.  1.
         12    1    3    3    0    0 -0.15893916253E+01 -0.41484958647E+01 -0.61688571761E+01  0.76020380515E+01  0.00000000000E+00 0. -1.
</event>
<event>
 7    1  0.2700100E-010  0.4778727E+02  0.7816164E-02  0.1312668E+00
        -11   -1    0    0    0    0  0.00000000000E+00  0.00000000000E+00  0.45593999997E+02  0.45594000000E+02  0.51100000000E-03 0.  1.
         11   -1    0    0    0    0 -0.00000000000E+00 -0.00000000000E+00 -0.45593999997E+02  0.45594000000E+02  0.51100000000E-03 0. -1.
    9900012    2    1    2    0    0 -0.35765300724E+02 -0.23529383508E+02 -0.71298427626E+01  0.47787270951E+02  0.19999999575E+02 0.  0.
        -12    1    1    2    0    0  0.35765300724E+02  0.23529383508E+02  0.71298427626E+01  0.43400729049E+02  0.00000000000E+00 0.  1.
         11    1    3    3    0    0 -0.26664260293E+02 -0.19869406965E+02 -0.90504439024E+01  0.34462829907E+02  0.51100000000E-03 0. -1.
        -11    1    3    3    0    0  0.95056901909E-01 -0.31887070570E+01  0.25654774207E+01  0.40937224096E+01  0.51100000000E-03 0.  1.
         12    1    3    3    0    0 -0.91960973333E+01 -0.47126948580E+00 -0.64487628082E+00  0.92307186345E+01  0.00000000000E+00 0. -1.
</event>
<event>
 7    1  0.2700100E-010  0.4778727E+02  0.7816164E-02  0.1312668E+00
        -11   -1    0    0    0    0  0.00000000000E+00  0.00000000000E+00  0.45593999997E+02  0.45594000000E+02  0.51100000000E-03 0.  1.
         11   -1    0    0    0    0 -0.00000000000E+00 -0.00000000000E+00 -0.45593999997E+02  0.45594000000E+02  0.51100000000E-03 0. -1.
    9900012    2    1    2    0    0 -0.18747696001E+02  0.14816339484E+01 -0.39114599536E+02  0.47787271419E+02  0.20000001707E+02 0.  0.
        -12    1    1    2    0    0  0.18747696001E+02 -0.14816339484E+01  0.39114599536E+02  0.43400728581E+02  0.00000000000E+00 0.  1.
         11    1    3    3    0    0 -0.57200947913E+01 -0.13202688599E+01 -0.13522519941E+02  0.14741816038E+02  0.51100000000E-03 0. -1.
        -11    1    3    3    0    0 -0.48772134213E+01  0.17314195049E+01 -0.24151499031E+02  0.24699796152E+02  0.51100000000E-03 0.  1.
        -12    1    3    3    0    0 -0.81503877880E+01  0.10704833034E+01 -0.14405805647E+01  0.83456592286E+01  0.00000000000E+00 0.  1.
</event>
<event>
 7    1  0.2700100E-010  0.4778727E+02  0.7816164E-02  0.1312668E+00
        -11   -1    0    0    0    0  0.00000000000E+00  0.00000000000E+00  0.45593999997E+02  0.45594000000E+02  0.51100000000E-03 0.  1.
         11   -1    0    0    0    0 -0.00000000000E+00 -0.00000000000E+00 -0.45593999997E+02  0.45594000000E+02  0.51100000000E-03 0. -1.
    9900012    2    1    2    0    0 -0.43165603369E+01 -0.22733406831E+02 -0.36717608623E+02  0.47787271178E+02  0.20000000610E+02 0.  0.
        -12    1    1    2    0    0  0.43165603369E+01  0.22733406831E+02  0.36717608623E+02  0.43400728822E+02  0.00000000000E+00 0.  1.
         11    1    3    3    0    0 -0.31464438961E+00 -0.30216143191E+01 -0.40126084041E+01  0.50329097598E+01  0.51100000000E-03 0. -1.
        -11    1    3    3    0    0 -0.90465152746E+01 -0.17035874778E+02 -0.31471496637E+02  0.36912268542E+02  0.51100000000E-03 0.  1.
        -12    1    3    3    0    0  0.50445993274E+01 -0.26759177343E+01 -0.12335035818E+01  0.58420928768E+01  0.00000000000E+00 0.  1.
</event>
<event>
 7    1  0.2700100E-010  0.4778727E+02  0.7816164E-02  0.1312668E+00
        -11   -1    0    0    0    0  0.00000000000E+00  0.00000000000E+00  0.45593999997E+02  0.45594000000E+02  0.51100000000E-03 0.  1.
         11   -1    0    0    0    0 -0.00000000000E+00 -0.00000000000E+00 -0.45593999997E+02  0.45594000000E+02  0.51100000000E-03 0. -1.
    9900012    2    1    2    0    0 -0.16162859091E+02 -0.14900591518E+02 -0.37421354151E+02  0.47787269729E+02  0.19999994001E+02 0.  0.
        -12    1    1    2    0    0  0.16162859091E+02  0.14900591518E+02  0.37421354151E+02  0.43400730271E+02  0.00000000000E+00 0.  1.
         11    1    3    3    0    0 -0.39284555439E+01  0.15182718296E+01 -0.18069068250E+02  0.18553413162E+02  0.51100000000E-03 0. -1.
        -11    1    3    3    0    0 -0.92741152132E+00 -0.52941989356E+01 -0.20277775429E+01  0.57446076040E+01  0.51100000000E-03 0.  1.
         12    1    3    3    0    0 -0.11306992026E+02 -0.11124664412E+02 -0.17324508359E+02  0.23489248962E+02  0.00000000000E+00 0. -1.
</event>
<event>
 7    1  0.2700100E-010  0.4778725E+02  0.7816164E-02  0.1312668E+00
        -11   -1    0    0    0    0  0.00000000000E+00  0.00000000000E+00  0.45593999997E+02  0.45594000000E+02  0.51100000000E-03 0.  1.
         11   -1    0    0    0    0 -0.00000000000E+00 -0.00000000000E+00 -0.45593999997E+02  0.45594000000E+02  0.51100000000E-03 0. -1.
    9900012    2    1    2    0    0 -0.91022084469E+01 -0.29303373913E+02 -0.30693440237E+02  0.47787248914E+02  0.19999899096E+02 0.  0.
        -12    1    1    2    0    0  0.91022084469E+01  0.29303373913E+02  0.30693440237E+02  0.43400751086E+02  0.00000000000E+00 0.  1.
         11    1    3    3    0    0 -0.58135249037E+01 -0.72808947272E+01 -0.68018094835E+01  0.11535731981E+02  0.51100000000E-03 0. -1.
        -11    1    3    3    0    0 -0.59559079766E+01 -0.22560113793E+02 -0.17079486903E+02  0.28916093224E+02  0.51100000000E-03 0.  1.
        -12    1    3    3    0    0  0.26672244334E+01  0.53763460732E+00 -0.68121438500E+01  0.73354237085E+01  0.00000000000E+00 0.  1.
</event>
<event>
 7    1 -0.2700100E-010  0.4778727E+02  0.7816164E-02  0.1312668E+00
        -11   -1    0    0    0    0  0.00000000000E+00  0.00000000000E+00  0.45593999997E+02  0.45594000000E+02  0.51100000000E-03 0.  1.
         11   -1    0    0    0    0 -0.00000000000E+00 -0.00000000000E+00 -0.45593999997E+02  0.45594000000E+02  0.51100000000E-03 0. -1.
    9900012    2    1    2    0    0 -0.27886722282E+02 -0.15553530119E+02 -0.29394585891E+02  0.47787271221E+02  0.20000000807E+02 0.  0.
        -12    1    1    2    0    0  0.27886722282E+02  0.15553530119E+02  0.29394585891E+02  0.43400728779E+02  0.00000000000E+00 0.  1.
         11    1    3    3    0    0 -0.20750125462E+01 -0.14883253973E+01 -0.78587042882E+01  0.82631726901E+01  0.51100000000E-03 0. -1.
        -11    1    3    3    0    0 -0.55319564466E+01 -0.10328673799E+02 -0.37786477930E+01  0.12311061042E+02  0.51100000000E-03 0.  1.
        -12    1    3    3    0    0 -0.20279753289E+02 -0.37365309223E+01 -0.17757233810E+02  0.27213037489E+02  0.00000000000E+00 0.  1.
</event>
<event>
 7    1  0.2700100E-010  0.4778727E+02  0.7816164E-02  0.1312668E+00
        -11   -1    0    0    0    0  0.00000000000E+00  0.00000000000E+00  0.45593999997E+02  0.45594000000E+02  0.51100000000E-03 0.  1.
         11   -1    0    0    0    0 -0.00000000000E+00 -0.00000000000E+00 -0.45593999997E+02  0.45594000000E+02  0.51100000000E-03 0. -1.
    9900012    2    1    2    0    0  0.17404641554E+02  0.13521695329E+02 -0.37388036500E+02  0.47787273445E+02  0.20000010945E+02 0.  0.
        -12    1    1    2    0    0 -0.17404641554E+02 -0.13521695329E+02  0.37388036500E+02  0.43400726555E+02  0.00000000000E+00 0.  1.
         11    1    3    3    0    0  0.56973768188E+01  0.14880581857E+02 -0.25894366245E+02  0.30404111934E+02  0.51100000000E-03 0. -1.
        -11    1    3    3    0    0  0.25048286308E+01 -0.22429105106E+01 -0.12562608414E+01  0.35892904021E+01  0.51100000000E-03 0.  1.
         12    1    3    3    0    0  0.92024361042E+01  0.88402398243E+00 -0.10237409414E+02  0.13793871108E+02  0.00000000000E+00 0. -1.
</event>
<event>
 7    1  0.2700100E-010  0.4778727E+02  0.7816164E-02  0.1312668E+00
        -11   -1    0    0    0    0  0.00000000000E+00  0.00000000000E+00  0.45593999997E+02  0.45594000000E+02  0.51100000000E-03 0.  1.
         11   -1    0    0    0    0 -0.00000000000E+00 -0.00000000000E+00 -0.45593999997E+02  0.45594000000E+02  0.51100000000E-03 0. -1.
    9900012    2    1    2    0    0 -0.37593704805E+02 -0.36806541095E+01 -0.21372634403E+02  0.47787270088E+02  0.19999995637E+02 0.  0.
        -12    1    1    2    0    0  0.37593704805E+02  0.36806541095E+01  0.21372634403E+02  0.43400729912E+02  0.00000000000E+00 0.  1.
         11    1    3    3    0    0 -0.28389563057E+02  0.54749115579E+01 -0.13998731277E+02  0.32123300340E+02  0.51100000000E-03 0. -1.
        -11    1    3    3    0    0 -0.71382125601E+01 -0.59279904224E+01 -0.73412345668E+01  0.11831689407E+02  0.51100000000E-03 0.  1.
         12    1    3    3    0    0 -0.20659291873E+01 -0.32275752450E+01 -0.32668559534E-01  0.38322803399E+01  0.00000000000E+00 0. -1.
</event>
<event>
 7    1  0.2700100E-010  0.4778727E+02  0.7816164E-02  0.1312668E+00
        -11   -1    0    0    0    0  0.00000000000E+00  0.00000000000E+00  0.45593999997E+02  0.45594000000E+02  0.51100000000E-03 0.  1.
         11   -1    0    0    0    0 -0.00000000000E+00 -0.00000000000E+00 -0.45593999997E+02  0.45594000000E+02  0.51100000000E-03 0. -1.
    9900012    2    1    2    0    0 -0.32608930584E+02  0.39997352147E+01 -0.28359892060E+02  0.47787265982E+02  0.19999976918E+02 0.  0.
        -12    1    1    2    0    0  0.32608930584E+02 -0.39997352147E+01  0.28359892060E+02  0.43400734018E+02  0.00000000000E+00 0.  1.
         11    1    3    3    0    0 -0.13061121131E+02  0.65273470230E+01 -0.54490967332E+01  0.15584986360E+02  0.51100000000E-03 0. -1.
        -11    1    3    3    0    0 -0.15085685712E+02 -0.57842478559E+01 -0.12540334999E+02  0.20452272216E+02  0.51100000000E-03 0.  1.
         12    1    3    3    0    0 -0.44621237407E+01  0.32566360475E+01 -0.10370460328E+02  0.11750007406E+02  0.00000000000E+00 0. -1.
</event>
<event>
 7    1  0.2700100E-010  0.4778728E+02  0.7816164E-02  0.1312668E+00
        -11   -1    0    0    0    0  0.00000000000E+00  0.00000000000E+00  0.45593999997E+02  0.45594000000E+02  0.51100000000E-03 0.  1.
         11   -1    0    0    0    0 -0.00000000000E+00 -0.00000000000E+00 -0.45593999997E+02  0.45594000000E+02  0.51100000000E-03 0. -1.
    9900012    2    1    2    0    0 -0.29121458521E+02  0.30058854007E+02  0.11490345351E+02  0.47787284719E+02  0.20000062350E+02 0.  0.
        -12    1    1    2    0    0  0.29121458521E+02 -0.30058854007E+02 -0.11490345351E+02  0.43400715281E+02  0.00000000000E+00 0.  1.
         11    1    3    3    0    0 -0.23243197047E+02  0.25819332023E+02  0.13196242679E+02  0.37162143859E+02  0.51100000000E-03 0. -1.
        -11    1    3    3    0    0 -0.16271893719E+01 -0.18664243229E+01  0.10520593695E+01  0.26903743574E+01  0.51100000000E-03 0.  1.
         12    1    3    3    0    0 -0.42510721024E+01  0.61059463065E+01 -0.27579566975E+01  0.79347665033E+01  0.00000000000E+00 0. -1.
</event>
<event>
 7    1  0.2700100E-010  0.4778727E+02  0.7816164E-02  0.1312668E+00
        -11   -1    0    0    0    0  0.00000000000E+00  0.00000000000E+00  0.45593999997E+02  0.45594000000E+02  0.51100000000E-03 0. -1.
         11   -1    0    0    0    0 -0.00000000000E+00 -0.00000000000E+00 -0.45593999997E+02  0.45594000000E+02  0.51100000000E-03 0.  1.
    9900012    2    1    2    0    0  0.10978864530E+01 -0.33000777690E+02 -0.28166767222E+02  0.47787268917E+02  0.19999990300E+02 0.  0.
        -12    1    1    2    0    0 -0.10978864530E+01  0.33000777690E+02  0.28166767222E+02  0.43400731083E+02  0.00000000000E+00 0.  1.
         11    1    3    3    0    0 -0.20969917121E+01 -0.10601854616E+02 -0.13254869107E+02  0.17102287883E+02  0.51100000000E-03 0. -1.
        -11    1    3    3    0    0  0.78302406044E+01 -0.15487015626E+02 -0.56898442503E+01  0.18262931002E+02  0.51100000000E-03 0.  1.
        -12    1    3    3    0    0 -0.46353624394E+01 -0.69119074476E+01 -0.92220538650E+01  0.12422050032E+02  0.00000000000E+00 0.  1.
</event>
<event>
 7    1  0.2700100E-010  0.4778724E+02  0.7816164E-02  0.1312668E+00
        -11   -1    0    0    0    0  0.00000000000E+00  0.00000000000E+00  0.45593999997E+02  0.45594000000E+02  0.51100000000E-03 0. -1.
         11   -1    0    0    0    0 -0.00000000000E+00 -0.00000000000E+00 -0.45593999997E+02  0.45594000000E+02  0.51100000000E-03 0.  1.
    9900012    2    1    2    0    0  0.24795422098E+02 -0.76977871238E+01  0.34778689658E+02  0.47787238048E+02  0.19999849556E+02 0.  0.
        -12    1    1    2    0    0 -0.24795422098E+02  0.76977871238E+01 -0.34778689658E+02  0.43400761952E+02  0.00000000000E+00 0.  1.
         11    1    3    3    0    0  0.12052792439E+02  0.32164742257E+01  0.15195731563E+02  0.19660258646E+02  0.51100000000E-03 0. -1.
        -11    1    3    3    0    0 -0.15005761330E+01 -0.40630052159E+01  0.50825273300E+01  0.66777110178E+01  0.51100000000E-03 0.  1.
         12    1    3    3    0    0  0.14243205793E+02 -0.68512561336E+01  0.14500430766E+02  0.21449268385E+02  0.00000000000E+00 0. -1.
</event>
<event>
 7    1  0.2700100E-010  0.4778727E+02  0.7816164E-02  0.1312668E+00
        -11   -1    0    0    0    0  0.00000000000E+00  0.00000000000E+00  0.45593999997E+02  0.45594000000E+02  0.51100000000E-03 0. -1.
         11   -1    0    0    0    0 -0.00000000000E+00 -0.00000000000E+00 -0.45593999997E+02  0.45594000000E+02  0.51100000000E-03 0.  1.
    9900012    2    1    2    0    0  0.41662066989E+02  0.39338562373E+01 -0.11507410421E+02  0.47787267917E+02  0.19999985742E+02 0.  0.
        -12    1    1    2    0    0 -0.41662066989E+02 -0.39338562373E+01  0.11507410421E+02  0.43400732083E+02  0.00000000000E+00 0.  1.
         11    1    3    3    0    0  0.16435287752E+02  0.97403265674E+01 -0.48930296089E+01  0.19721419425E+02  0.51100000000E-03 0. -1.
        -11    1    3    3    0    0  0.11524380932E+02 -0.70175419468E+01 -0.26554871600E+01  0.13751685830E+02  0.51100000000E-03 0.  1.
         12    1    3    3    0    0  0.13702398305E+02  0.12110716167E+01 -0.39588936525E+01  0.14314162663E+02  0.00000000000E+00 0. -1.
</event>
<event>
 7    1  0.2700100E-010  0.4778726E+02  0.7816164E-02  0.1312668E+00
        -11   -1    0    0    0    0  0.00000000000E+00  0.00000000000E+00  0.45593999997E+02  0.45594000000E+02  0.51100000000E-03 0.  1.
         11   -1    0    0    0    0 -0.00000000000E+00 -0.00000000000E+00 -0.45593999997E+02  0.45594000000E+02  0.51100000000E-03 0. -1.
    9900012    2    1    2    0    0  0.35944900113E+02  0.20101074979E+02 -0.13694351385E+02  0.47787259000E+02  0.19999945085E+02 0.  0.
        -12    1    1    2    0    0 -0.35944900113E+02 -0.20101074979E+02  0.13694351385E+02  0.43400741000E+02  0.00000000000E+00 0.  1.
         11    1    3    3    0    0  0.55129872814E+01  0.54533653651E+01 -0.72344976628E+01  0.10605195862E+02  0.51100000000E-03 0. -1.
        -11    1    3    3    0    0  0.10824052014E+02 -0.11819203593E+01  0.91012057944E+00  0.10926360669E+02  0.51100000000E-03 0.  1.
        -12    1    3    3    0    0  0.19607860818E+02  0.15829629974E+02 -0.73699743020E+01  0.26255702470E+02  0.00000000000E+00 0.  1.
</event>
<event>
 7    1  0.2700100E-010  0.4778727E+02  0.7816164E-02  0.1312668E+00
        -11   -1    0    0    0    0  0.00000000000E+00  0.00000000000E+00  0.45593999997E+02  0.45594000000E+02  0.51100000000E-03 0. -1.
         11   -1    0    0    0    0 -0.00000000000E+00 -0.00000000000E+00 -0.45593999997E+02  0.45594000000E+02  0.51100000000E-03 0.  1.
    9900012    2    1    2    0    0 -0.20562808672E+02  0.35026373341E+02  0.15295328804E+02  0.47787274049E+02  0.20000013697E+02 0.  0.
        -12    1    1    2    0    0  0.20562808672E+02 -0.35026373341E+02 -0.15295328804E+02  0.43400725951E+02  0.00000000000E+00 0.  1.
         11    1    3    3    0    0 -0.49863754600E+01  0.17927688460E+02 -0.11617564501E+01  0.18644453118E+02  0.51100000000E-03 0. -1.
        -11    1    3    3    0    0 -0.37863229535E+01  0.45266576517E+01  0.80084662378E+01  0.99479848586E+01  0.51100000000E-03 0.  1.
         12    1    3    3    0    0 -0.11790110259E+02  0.12572027229E+02  0.84486190162E+01  0.19194836072E+02  0.00000000000E+00 0. -1.
</event>
<event>
 7    1  0.2700100E-010  0.4778727E+02  0.7816164E-02  0.1312668E+00
        -11   -1    0    0    0    0  0.00000000000E+00  0.00000000000E+00  0.45593999997E+02  0.45594000000E+02  0.51100000000E-03 0. -1.
         11   -1    0    0    0    0 -0.00000000000E+00 -0.00000000000E+00 -0.45593999997E+02  0.45594000000E+02  0.51100000000E-03 0.  1.
    9900012    2    1    2    0    0 -0.26755137660E+02 -0.33594238900E+02  0.62620559052E+01  0.47787267027E+02  0.19999981683E+02 0.  0.
        -12    1    1    2    0    0  0.26755137660E+02  0.33594238900E+02 -0.62620559052E+01  0.43400732973E+02  0.00000000000E+00 0.  1.
         11    1    3    3    0    0 -0.11254396176E+02 -0.10039893609E+02  0.16624313727E+01  0.15173153110E+02  0.51100000000E-03 0. -1.
        -11    1    3    3    0    0 -0.18563764360E+02 -0.19415868176E+02  0.22556054920E+01  0.26956947910E+02  0.51100000000E-03 0.  1.
        -12    1    3    3    0    0  0.30630228763E+01 -0.41384771143E+01  0.23440190405E+01  0.56571660068E+01  0.00000000000E+00 0.  1.
</event>
<event>
 7    1  0.2700100E-010  0.4778727E+02  0.7816164E-02  0.1312668E+00
        -11   -1    0    0    0    0  0.00000000000E+00  0.00000000000E+00  0.45593999997E+02  0.45594000000E+02  0.51100000000E-03 0.  1.
         11   -1    0    0    0    0 -0.00000000000E+00 -0.00000000000E+00 -0.45593999997E+02  0.45594000000E+02  0.51100000000E-03 0. -1.
    9900012    2    1    2    0    0 -0.36906667890E+02 -0.99854879166E+01 -0.20538041537E+02  0.47787271275E+02  0.20000001053E+02 0.  0.
        -12    1    1    2    0    0  0.36906667890E+02  0.99854879166E+01  0.20538041537E+02  0.43400728725E+02  0.00000000000E+00 0.  1.
         11    1    3    3    0    0 -0.24489746963E+02 -0.14295071589E+02 -0.12399731058E+02  0.30949153601E+02  0.51100000000E-03 0. -1.
        -11    1    3    3    0    0 -0.74718398183E+01  0.45367773077E+01 -0.20267275034E+01  0.89732025077E+01  0.51100000000E-03 0.  1.
         12    1    3    3    0    0 -0.49450811088E+01 -0.22719363547E+00 -0.61115829753E+01  0.78649151670E+01  0.00000000000E+00 0. -1.
</event>
<event>
 7    1  0.2700100E-010  0.4778727E+02  0.7816164E-02  0.1312668E+00
        -11   -1    0    0    0    0  0.00000000000E+00  0.00000000000E+00  0.45593999997E+02  0.45594000000E+02  0.51100000000E-03 0. -1.
         11   -1    0    0    0    0 -0.00000000000E+00 -0.00000000000E+00 -0.45593999997E+02  0.45594000000E+02  0.51100000000E-03 0.  1.
    9900012    2    1    2    0    0  0.28879312650E+02 -0.31776501638E+02  0.63136967416E+01  0.47787268185E+02  0.19999986963E+02 0.  0.
        -12    1    1    2    0    0 -0.28879312650E+02  0.31776501638E+02 -0.63136967416E+01  0.43400731815E+02  0.00000000000E+00 0.  1.
         11    1    3    3    0    0  0.24183960343E+02 -0.25846957698E+02  0.10343826981E+01  0.35411849823E+02  0.51100000000E-03 0. -1.
        -11    1    3    3    0    0  0.91050647496E+00  0.20593804161E+01  0.42932355090E+00  0.22922453428E+01  0.51100000000E-03 0.  1.
         12    1    3    3    0    0  0.37848458327E+01 -0.79889243568E+01  0.48499904926E+01  0.10083173019E+02  0.00000000000E+00 0. -1.
</event>
<event>
 7    1  0.2700100E-010  0.4778727E+02  0.7816164E-02  0.1312668E+00
        -11   -1    0    0    0    0  0.00000000000E+00  0.00000000000E+00  0.45593999997E+02  0.45594000000E+02  0.51100000000E-03 0.  1.
         11   -1    0    0    0    0 -0.00000000000E+00 -0.00000000000E+00 -0.45593999997E+02  0.45594000000E+02  0.51100000000E-03 0. -1.
    9900012    2    1    2    0    0 -0.22169873586E+02 -0.36851070590E+02  0.58411482724E+01  0.47787266001E+02  0.19999977006E+02 0.  0.
        -12    1    1    2    0    0  0.22169873586E+02  0.36851070590E+02 -0.58411482724E+01  0.43400733999E+02  0.00000000000E+00 0.  1.
         11    1    3    3    0    0 -0.41171172354E+01 -0.12959079544E+02  0.19897508496E+01  0.13742179800E+02  0.51100000000E-03 0. -1.
        -11    1    3    3    0    0  0.82410028712E+00 -0.90493918988E+01  0.42428917897E+01  0.10028597410E+02  0.51100000000E-03 0.  1.
        -12    1    3    3    0    0 -0.18876856638E+02 -0.14842599147E+02 -0.39149436696E+00  0.24016488790E+02  0.00000000000E+00 0.  1.
</event>
<event>
 7    1  0.2700100E-010  0.4778723E+02  0.7816164E-02  0.1312668E+00
        -11   -1    0    0    0    0  0.00000000000E+00  0.00000000000E+00  0.45593999997E+02  0.45594000000E+02  0.51100000000E-03 0.  1.
         11   -1    0    0    0    0 -0.00000000000E+00 -0.00000000000E+00 -0.45593999997E+02  0.45594000000E+02  0.51100000000E-03 0. -1.
    9900012    2    1    2    0    0 -0.20346333263E+02  0.65361148805E+01 -0.37774763865E+02  0.47787229730E+02  0.19999811631E+02 0.  0.
        -12    1    1    2    0    0  0.20346333263E+02 -0.65361148805E+01  0.37774763865E+02  0.43400770270E+02  0.00000000000E+00 0.  1.
         11    1    3    3    0    0  0.10147764601E+01  0.14352515356E+00 -0.17686327529E+02  0.17715997078E+02  0.51100000000E-03 0. -1.
        -11    1    3    3    0    0 -0.16280862363E+02  0.56409635769E+01 -0.15869288525E+02  0.23424800275E+02  0.51100000000E-03 0.  1.
         12    1    3    3    0    0 -0.50802473598E+01  0.75162614998E+00 -0.42191478109E+01  0.66464323780E+01  0.00000000000E+00 0. -1.
</event>
<event>
 7    1  0.2700100E-010  0.4778727E+02  0.7816164E-02  0.1312668E+00
        -11   -1    0    0    0    0  0.00000000000E+00  0.00000000000E+00  0.45593999997E+02  0.45594000000E+02  0.51100000000E-03 0.  1.
         11   -1    0    0    0    0 -0.00000000000E+00 -0.00000000000E+00 -0.45593999997E+02  0.45594000000E+02  0.51100000000E-03 0. -1.
    9900012    2    1    2    0    0 -0.40908957150E+02 -0.12618591378E+02 -0.71310331369E+01  0.47787271238E+02  0.20000000884E+02 0.  0.
        -12    1    1    2    0    0  0.40908957150E+02  0.12618591378E+02  0.71310331369E+01  0.43400728762E+02  0.00000000000E+00 0.  1.
         11    1    3    3    0    0 -0.31932367645E+01  0.37346341529E+01  0.21565994694E+01  0.53661135678E+01  0.51100000000E-03 0.  1.
        -11    1    3    3    0    0 -0.20938791518E+02 -0.11611475607E+02 -0.48103119325E+01  0.24421270588E+02  0.51100000000E-03 0. -1.
        -12    1    3    3    0    0 -0.16776928868E+02 -0.47417499237E+01 -0.44773206737E+01  0.17999887083E+02  0.00000000000E+00 0.  1.
</event>
<event>
 7    1  0.2700100E-010  0.4778727E+02  0.7816164E-02  0.1312668E+00
        -11   -1    0    0    0    0  0.00000000000E+00  0.00000000000E+00  0.45593999997E+02  0.45594000000E+02  0.51100000000E-03 0. -1.
         11   -1    0    0    0    0 -0.00000000000E+00 -0.00000000000E+00 -0.45593999997E+02  0.45594000000E+02  0.51100000000E-03 0.  1.
    9900012    2    1    2    0    0 -0.13129907289E+02 -0.37993680774E+02  0.16361815241E+02  0.47787271410E+02  0.20000001666E+02 0.  0.
        -12    1    1    2    0    0  0.13129907289E+02  0.37993680774E+02 -0.16361815241E+02  0.43400728590E+02  0.00000000000E+00 0.  1.
         11    1    3    3    0    0 -0.11821190766E+01 -0.13681147425E+02  0.72058567489E+01  0.15507919658E+02  0.51100000000E-03 0. -1.
        -11    1    3    3    0    0 -0.93580003222E+01 -0.91527196401E+01  0.10584412907E+02  0.16833723405E+02  0.51100000000E-03 0.  1.
        -12    1    3    3    0    0 -0.25897878905E+01 -0.15159813709E+02 -0.14284544147E+01  0.15445628347E+02  0.00000000000E+00 0.  1.
</event>
<event>
 7    1  0.2700100E-010  0.4778727E+02  0.7816164E-02  0.1312668E+00
        -11   -1    0    0    0    0  0.00000000000E+00  0.00000000000E+00  0.45593999997E+02  0.45594000000E+02  0.51100000000E-03 0. -1.
         11   -1    0    0    0    0 -0.00000000000E+00 -0.00000000000E+00 -0.45593999997E+02  0.45594000000E+02  0.51100000000E-03 0.  1.
    9900012    2    1    2    0    0  0.42486886644E+02 -0.69240711181E+01  0.55267675471E+01  0.47787268933E+02  0.19999990375E+02 0.  0.
        -12    1    1    2    0    0 -0.42486886644E+02  0.69240711181E+01 -0.55267675471E+01  0.43400731067E+02  0.00000000000E+00 0.  1.
         11    1    3    3    0    0  0.21289041097E+02 -0.59727534206E+01  0.58489746018E+01  0.22871544732E+02  0.51100000000E-03 0. -1.
        -11    1    3    3    0    0  0.12504422307E+02 -0.14485741246E+00 -0.66211123948E+01  0.14149936060E+02  0.51100000000E-03 0.  1.
        -12    1    3    3    0    0  0.86934232401E+01 -0.80646028505E+00  0.62989053401E+01  0.10765788141E+02  0.00000000000E+00 0.  1.
</event>
<event>
 7    1  0.2700100E-010  0.4778727E+02  0.7816164E-02  0.1312668E+00
        -11   -1    0    0    0    0  0.00000000000E+00  0.00000000000E+00  0.45593999997E+02  0.45594000000E+02  0.51100000000E-03 0.  1.
         11   -1    0    0    0    0 -0.00000000000E+00 -0.00000000000E+00 -0.45593999997E+02  0.45594000000E+02  0.51100000000E-03 0. -1.
    9900012    2    1    2    0    0 -0.27114776517E+02 -0.33533503101E+01 -0.33721906742E+02  0.47787273529E+02  0.20000011329E+02 0.  0.
        -12    1    1    2    0    0  0.27114776517E+02  0.33533503101E+01  0.33721906742E+02  0.43400726471E+02  0.00000000000E+00 0.  1.
         11    1    3    3    0    0 -0.10482360505E+02 -0.53770809300E+01 -0.10999538324E+02  0.16117776667E+02  0.51100000000E-03 0. -1.
        -11    1    3    3    0    0 -0.17934453549E+02  0.49367933308E+01 -0.17441243576E+02  0.25499284897E+02  0.51100000000E-03 0.  1.
        -12    1    3    3    0    0  0.13020375368E+01 -0.29130627109E+01 -0.52811248418E+01  0.61702119656E+01  0.00000000000E+00 0.  1.
</event>
<event>
 7    1  0.2700100E-010  0.4778727E+02  0.7816164E-02  0.1312668E+00
        -11   -1    0    0    0    0  0.00000000000E+00  0.00000000000E+00  0.45593999997E+02  0.45594000000E+02  0.51100000000E-03 0. -1.
         11   -1    0    0    0    0 -0.00000000000E+00 -0.00000000000E+00 -0.45593999997E+02  0.45594000000E+02  0.51100000000E-03 0.  1.
    9900012    2    1    2    0    0  0.40706797589E+02  0.13833303111E+02 -0.59346147856E+01  0.47787270771E+02  0.19999998756E+02 0.  0.
        -12    1    1    2    0    0 -0.40706797589E+02 -0.13833303111E+02  0.59346147856E+01  0.43400729229E+02  0.00000000000E+00 0.  1.
         11    1    3    3    0    0  0.33658209356E+01 -0.29089906233E+01  0.28305993197E+01  0.52728805967E+01  0.51100000000E-03 0. -1.
        -11    1    3    3    0    0  0.22996348155E+02  0.14170022666E+02 -0.62562613593E+01  0.27726564469E+02  0.51100000000E-03 0.  1.
         12    1    3    3    0    0  0.14344628499E+02  0.25722710680E+01 -0.25089527461E+01  0.14787825705E+02  0.00000000000E+00 0. -1.
</event>
<event>
 7    1  0.2700100E-010  0.4778727E+02  0.7816164E-02  0.1312668E+00
        -11   -1    0    0    0    0  0.00000000000E+00  0.00000000000E+00  0.45593999997E+02  0.45594000000E+02  0.51100000000E-03 0.  1.
         11   -1    0    0    0    0 -0.00000000000E+00 -0.00000000000E+00 -0.45593999997E+02  0.45594000000E+02  0.51100000000E-03 0. -1.
    9900012    2    1    2    0    0 -0.35564719948E+02  0.22602618046E+02 -0.10387277833E+02  0.47787272031E+02  0.20000004497E+02 0.  0.
        -12    1    1    2    0    0  0.35564719948E+02 -0.22602618046E+02  0.10387277833E+02  0.43400727969E+02  0.00000000000E+00 0.  1.
         11    1    3    3    0    0 -0.29645090669E+02  0.22157338108E+02 -0.60751841912E+01  0.37505824828E+02  0.51100000000E-03 0. -1.
        -11    1    3    3    0    0  0.95102523716E+00  0.63818768652E+00  0.10578506249E+01  0.15590961262E+01  0.51100000000E-03 0.  1.
         12    1    3    3    0    0 -0.68706545153E+01 -0.19290774896E+00 -0.53699442670E+01  0.87223510763E+01  0.00000000000E+00 0. -1.
</event>
<event>
 7    1  0.2700100E-010  0.4778727E+02  0.7816164E-02  0.1312668E+00
        -11   -1    0    0    0    0  0.00000000000E+00  0.00000000000E+00  0.45593999997E+02  0.45594000000E+02  0.51100000000E-03 0. -1.
         11   -1    0    0    0    0 -0.00000000000E+00 -0.00000000000E+00 -0.45593999997E+02  0.45594000000E+02  0.51100000000E-03 0.  1.
    9900012    2    1    2    0    0 -0.16112276286E+02  0.39715271095E+02 -0.68348428486E+01  0.47787270951E+02  0.19999999574E+02 0.  0.
        -12    1    1    2    0    0  0.16112276286E+02 -0.39715271095E+02  0.68348428486E+01  0.43400729049E+02  0.00000000000E+00 0.  1.
         11    1    3    3    0    0 -0.16743575848E+02  0.33161279665E+02 -0.46426338121E+00  0.37151491786E+02  0.51100000000E-03 0. -1.
        -11    1    3    3    0    0 -0.31160134253E+00  0.37101258043E+01 -0.66555333269E+01  0.76261558473E+01  0.51100000000E-03 0.  1.
        -12    1    3    3    0    0  0.94290090461E+00  0.28438656251E+01  0.28495385952E+00  0.30096233173E+01  0.00000000000E+00 0.  1.
</event>
<event>
 7    1  0.2700100E-010  0.4778726E+02  0.7816164E-02  0.1312668E+00
        -11   -1    0    0    0    0  0.00000000000E+00  0.00000000000E+00  0.45593999997E+02  0.45594000000E+02  0.51100000000E-03 0.  1.
         11   -1    0    0    0    0 -0.00000000000E+00 -0.00000000000E+00 -0.45593999997E+02  0.45594000000E+02  0.51100000000E-03 0. -1.
    9900012    2    1    2    0    0 -0.15948622014E+02 -0.39383219936E+02 -0.88446165859E+01  0.47787264992E+02  0.19999972404E+02 0.  0.
        -12    1    1    2    0    0  0.15948622014E+02  0.39383219936E+02  0.88446165859E+01  0.43400735008E+02  0.00000000000E+00 0.  1.
         11    1    3    3    0    0 -0.67622340878E+01 -0.32286010900E+02 -0.11344621373E+02  0.34882871786E+02  0.51100000000E-03 0. -1.
        -11    1    3    3    0    0 -0.49409322424E+01 -0.58945432974E+01  0.33860500683E+01  0.84037960134E+01  0.51100000000E-03 0.  1.
         12    1    3    3    0    0 -0.42454556842E+01 -0.12026657384E+01 -0.88604528119E+00  0.45005971921E+01  0.00000000000E+00 0. -1.
</event>
<event>
 7    1  0.2700100E-010  0.4778727E+02  0.7816164E-02  0.1312668E+00
        -11   -1    0    0    0    0  0.00000000000E+00  0.00000000000E+00  0.45593999997E+02  0.45594000000E+02  0.51100000000E-03 0. -1.
         11   -1    0    0    0    0 -0.00000000000E+00 -0.00000000000E+00 -0.45593999997E+02  0.45594000000E+02  0.51100000000E-03 0.  1.
    9900012    2    1    2    0    0 -0.33664384798E+02  0.18726169837E+02  0.19991572925E+02  0.47787271566E+02  0.20000002377E+02 0.  0.
        -12    1    1    2    0    0  0.33664384798E+02 -0.18726169837E+02 -0.19991572925E+02  0.43400728434E+02  0.00000000000E+00 0.  1.
         11    1    3    3    0    0 -0.59835731767E+01  0.22145273020E+01  0.41610281832E+01  0.76171802483E+01  0.51100000000E-03 0. -1.
        -11    1    3    3    0    0 -0.21213058637E+02  0.51633102281E+01  0.16064860591E+02  0.27105965678E+02  0.51100000000E-03 0.  1.
        -12    1    3    3    0    0 -0.64677529839E+01  0.11348332307E+02 -0.23431584881E+00  0.13064125640E+02  0.00000000000E+00 0.  1.
</event>
<event>
 7    1  0.2700100E-010  0.4778727E+02  0.7816164E-02  0.1312668E+00
        -11   -1    0    0    0    0  0.00000000000E+00  0.00000000000E+00  0.45593999997E+02  0.45594000000E+02  0.51100000000E-03 0.  1.
         11   -1    0    0    0    0 -0.00000000000E+00 -0.00000000000E+00 -0.45593999997E+02  0.45594000000E+02  0.51100000000E-03 0. -1.
    9900012    2    1    2    0    0  0.17499365927E+02 -0.23712989160E+02 -0.31860470489E+02  0.47787271406E+02  0.20000001648E+02 0.  0.
        -12    1    1    2    0    0 -0.17499365927E+02  0.23712989160E+02  0.31860470489E+02  0.43400728594E+02  0.00000000000E+00 0.  1.
         11    1    3    3    0    0  0.50077611623E+01 -0.11429240509E+02 -0.13203946128E+02  0.18167261877E+02  0.51100000000E-03 0. -1.
        -11    1    3    3    0    0  0.14880261284E+02 -0.69845032257E+01 -0.16833516198E+02  0.23528126339E+02  0.51100000000E-03 0.  1.
        -12    1    3    3    0    0 -0.23886565195E+01 -0.52992454247E+01 -0.18230081626E+01  0.60918831900E+01  0.00000000000E+00 0.  1.
</event>
<event>
 7    1  0.2700100E-010  0.4778727E+02  0.7816164E-02  0.1312668E+00
        -11   -1    0    0    0    0  0.00000000000E+00  0.00000000000E+00  0.45593999997E+02  0.45594000000E+02  0.51100000000E-03 0.  1.
         11   -1    0    0    0    0 -0.00000000000E+00 -0.00000000000E+00 -0.45593999997E+02  0.45594000000E+02  0.51100000000E-03 0. -1.
    9900012    2    1    2    0    0 -0.22643108730E+02  0.37024887429E+02  0.26569494654E+00  0.47787271251E+02  0.20000000942E+02 0.  0.
        -12    1    1    2    0    0  0.22643108730E+02 -0.37024887429E+02 -0.26569494654E+00  0.43400728749E+02  0.00000000000E+00 0.  1.
         11    1    3    3    0    0 -0.22994311713E+02  0.30178687397E+02 -0.19171756572E+01  0.37989039300E+02  0.51100000000E-03 0. -1.
        -11    1    3    3    0    0 -0.15370092239E+01  0.44560560609E+00 -0.14851748356E+01  0.21832787875E+01  0.51100000000E-03 0.  1.
         12    1    3    3    0    0  0.18882122062E+01  0.64005944262E+01  0.36680454394E+01  0.76149531640E+01  0.00000000000E+00 0. -1.
</event>
<event>
 7    1  0.2700100E-010  0.4778727E+02  0.7816164E-02  0.1312668E+00
        -11   -1    0    0    0    0  0.00000000000E+00  0.00000000000E+00  0.45593999997E+02  0.45594000000E+02  0.51100000000E-03 0. -1.
         11   -1    0    0    0    0 -0.00000000000E+00 -0.00000000000E+00 -0.45593999997E+02  0.45594000000E+02  0.51100000000E-03 0.  1.
    9900012    2    1    2    0    0 -0.93622919600E+01  0.27275604010E+02  0.32434734626E+02  0.47787273104E+02  0.20000009388E+02 0.  0.
        -12    1    1    2    0    0  0.93622919600E+01 -0.27275604010E+02 -0.32434734626E+02  0.43400726896E+02  0.00000000000E+00 0.  1.
         11    1    3    3    0    0  0.92581208850E+00  0.11872249817E+02  0.15765787172E+02  0.19757719736E+02  0.51100000000E-03 0. -1.
        -11    1    3    3    0    0 -0.13109339431E+02  0.13768410867E+02  0.15617574753E+02  0.24603507058E+02  0.51100000000E-03 0.  1.
        -12    1    3    3    0    0  0.28212353823E+01  0.16349433266E+01  0.10513727014E+01  0.34260463104E+01  0.00000000000E+00 0.  1.
</event>
<event>
 7    1  0.2700100E-010  0.4778727E+02  0.7816164E-02  0.1312668E+00
        -11   -1    0    0    0    0  0.00000000000E+00  0.00000000000E+00  0.45593999997E+02  0.45594000000E+02  0.51100000000E-03 0. -1.
         11   -1    0    0    0    0 -0.00000000000E+00 -0.00000000000E+00 -0.45593999997E+02  0.45594000000E+02  0.51100000000E-03 0.  1.
    9900012    2    1    2    0    0  0.16323621999E+02 -0.22779701822E+02  0.33139824490E+02  0.47787269390E+02  0.19999992456E+02 0.  0.
        -12    1    1    2    0    0 -0.16323621999E+02  0.22779701822E+02 -0.33139824490E+02  0.43400730610E+02  0.00000000000E+00 0.  1.
         11    1    3    3    0    0  0.81288456600E+00 -0.13385136123E+02  0.62867491877E+01  0.14810329705E+02  0.51100000000E-03 0. -1.
        -11    1    3    3    0    0  0.21255319428E+01 -0.25126164803E+01  0.18015767249E+01  0.37519070582E+01  0.51100000000E-03 0.  1.
         12    1    3    3    0    0  0.13385205490E+02 -0.68819492181E+01  0.25051498578E+02  0.29225032627E+02  0.00000000000E+00 0. -1.
</event>
<event>
 7    1  0.2700100E-010  0.4778727E+02  0.7816164E-02  0.1312668E+00
        -11   -1    0    0    0    0  0.00000000000E+00  0.00000000000E+00  0.45593999997E+02  0.45594000000E+02  0.51100000000E-03 0.  1.
         11   -1    0    0    0    0 -0.00000000000E+00 -0.00000000000E+00 -0.45593999997E+02  0.45594000000E+02  0.51100000000E-03 0. -1.
    9900012    2    1    2    0    0  0.41426920824E+02  0.12345746320E+02  0.38750190945E+01  0.47787274267E+02  0.20000014693E+02 0.  0.
        -12    1    1    2    0    0 -0.41426920824E+02 -0.12345746320E+02 -0.38750190945E+01  0.43400725733E+02  0.00000000000E+00 0.  1.
         11    1    3    3    0    0  0.21372736003E+02  0.29959311395E+01 -0.57883441769E+00  0.21589453378E+02  0.51100000000E-03 0. -1.
        -11    1    3    3    0    0  0.81713958903E+01  0.11107695425E+02  0.19384299216E+01  0.13925161373E+02  0.51100000000E-03 0.  1.
        -12    1    3    3    0    0  0.11882788931E+02 -0.17578802449E+01  0.25154235906E+01  0.12272659515E+02  0.00000000000E+00 0.  1.
</event>
<event>
 7    1  0.2700100E-010  0.4778727E+02  0.7816164E-02  0.1312668E+00
        -11   -1    0    0    0    0  0.00000000000E+00  0.00000000000E+00  0.45593999997E+02  0.45594000000E+02  0.51100000000E-03 0. -1.
         11   -1    0    0    0    0 -0.00000000000E+00 -0.00000000000E+00 -0.45593999997E+02  0.45594000000E+02  0.51100000000E-03 0.  1.
    9900012    2    1    2    0    0 -0.31962216886E+02 -0.13536106501E+02  0.26054056154E+02  0.47787270403E+02  0.19999997075E+02 0.  0.
        -12    1    1    2    0    0  0.31962216886E+02  0.13536106501E+02 -0.26054056154E+02  0.43400729597E+02  0.00000000000E+00 0.  1.
         11    1    3    3    0    0 -0.13352616239E+02 -0.11394312279E+02  0.30459020608E+01  0.17815729914E+02  0.51100000000E-03 0. -1.
        -11    1    3    3    0    0 -0.84360066387E+01  0.63974028506E+00  0.12411563042E+02  0.15020731442E+02  0.51100000000E-03 0.  1.
         12    1    3    3    0    0 -0.10173594008E+02 -0.27815345078E+01  0.10596591050E+02  0.14950809047E+02  0.00000000000E+00 0. -1.
</event>
<event>
 7    1  0.2700100E-010  0.4778727E+02  0.7816164E-02  0.1312668E+00
        -11   -1    0    0    0    0  0.00000000000E+00  0.00000000000E+00  0.45593999997E+02  0.45594000000E+02  0.51100000000E-03 0. -1.
         11   -1    0    0    0    0 -0.00000000000E+00 -0.00000000000E+00 -0.45593999997E+02  0.45594000000E+02  0.51100000000E-03 0.  1.
    9900012    2    1    2    0    0  0.24227351992E+02 -0.35929171667E+02 -0.23986069281E+01  0.47787271015E+02  0.19999999867E+02 0.  0.
        -12    1    1    2    0    0 -0.24227351992E+02  0.35929171667E+02  0.23986069281E+01  0.43400728985E+02  0.00000000000E+00 0.  1.
         11    1    3    3    0    0  0.11829403438E+01 -0.82249320235E+01  0.72968981784E-01  0.83098844385E+01  0.51100000000E-03 0. -1.
        -11    1    3    3    0    0  0.20010337597E+02 -0.28569100521E+02  0.85805096261E+00  0.34890448078E+02  0.51100000000E-03 0.  1.
        -12    1    3    3    0    0  0.30340740508E+01  0.86486087801E+00 -0.33296268725E+01  0.45869384990E+01  0.00000000000E+00 0.  1.
</event>
<event>
 7    1  0.2700100E-010  0.4778727E+02  0.7816164E-02  0.1312668E+00
        -11   -1    0    0    0    0  0.00000000000E+00  0.00000000000E+00  0.45593999997E+02  0.45594000000E+02  0.51100000000E-03 0. -1.
         11   -1    0    0    0    0 -0.00000000000E+00 -0.00000000000E+00 -0.45593999997E+02  0.45594000000E+02  0.51100000000E-03 0.  1.
    9900012    2    1    2    0    0 -0.33294980757E+02 -0.84746195005E+01  0.26518835537E+02  0.47787267776E+02  0.19999985100E+02 0.  0.
        -12    1    1    2    0    0  0.33294980757E+02  0.84746195005E+01 -0.26518835537E+02  0.43400732224E+02  0.00000000000E+00 0.  1.
         11    1    3    3    0    0  0.19512423861E+01 -0.61700901535E+00  0.19127022753E+00  0.20553908473E+01  0.51100000000E-03 0. -1.
        -11    1    3    3    0    0 -0.19401956635E+02  0.56349611646E+00  0.12621787847E+02  0.23153033880E+02  0.51100000000E-03 0.  1.
         12    1    3    3    0    0 -0.15844266509E+02 -0.84211066016E+01  0.13705777462E+02  0.22578843049E+02  0.00000000000E+00 0. -1.
</event>
<event>
 7    1  0.2700100E-010  0.4778727E+02  0.7816164E-02  0.1312668E+00
        -11   -1    0    0    0    0  0.00000000000E+00  0.00000000000E+00  0.45593999997E+02  0.45594000000E+02  0.51100000000E-03 0.  1.
         11   -1    0    0    0    0 -0.00000000000E+00 -0.00000000000E+00 -0.45593999997E+02  0.45594000000E+02  0.51100000000E-03 0. -1.
    9900012    2    1    2    0    0 -0.12257685470E+02  0.87103767424E+01 -0.40712425771E+02  0.47787272722E+02  0.20000007649E+02 0.  0.
        -12    1    1    2    0    0  0.12257685470E+02 -0.87103767424E+01  0.40712425771E+02  0.43400727278E+02  0.00000000000E+00 0.  1.
         11    1    3    3    0    0 -0.20411357769E+01  0.12531748535E+02 -0.26289463135E+02  0.29194979513E+02  0.51100000000E-03 0. -1.
        -11    1    3    3    0    0 -0.82940484511E+01 -0.14951830022E+01 -0.86422133931E+01  0.12071232933E+02  0.51100000000E-03 0.  1.
         12    1    3    3    0    0 -0.19225012417E+01 -0.23261887903E+01 -0.57807492436E+01  0.65210602765E+01  0.00000000000E+00 0. -1.
</event>
<event>
 7    1  0.2700100E-010  0.4778728E+02  0.7816164E-02  0.1312668E+00
        -11   -1    0    0    0    0  0.00000000000E+00  0.00000000000E+00  0.45593999997E+02  0.45594000000E+02  0.51100000000E-03 0. -1.
         11   -1    0    0    0    0 -0.00000000000E+00 -0.00000000000E+00 -0.45593999997E+02  0.45594000000E+02  0.51100000000E-03 0.  1.
    9900012    2    1    2    0    0 -0.37370914851E+02  0.19166429054E+02  0.10940069143E+02  0.47787281200E+02  0.20000046305E+02 0.  0.
        -12    1    1    2    0    0  0.37370914851E+02 -0.19166429054E+02 -0.10940069143E+02  0.43400718800E+02  0.00000000000E+00 0.  1.
         11    1    3    3    0    0 -0.31850635941E+02  0.18648770488E+02  0.57499734120E+01  0.37353739372E+02  0.51100000000E-03 0. -1.
        -11    1    3    3    0    0 -0.16104563951E+01  0.60572218383E+00  0.61670274961E+01  0.64025539875E+01  0.51100000000E-03 0.  1.
         12    1    3    3    0    0 -0.39098225146E+01 -0.88063618444E-01 -0.97693176530E+00  0.40309878405E+01  0.00000000000E+00 0. -1.
</event>
<event>
 7    1  0.2700100E-010  0.4778728E+02  0.7816164E-02  0.1312668E+00
        -11   -1    0    0    0    0  0.00000000000E+00  0.00000000000E+00  0.45593999997E+02  0.45594000000E+02  0.51100000000E-03 0. -1.
         11   -1    0    0    0    0 -0.00000000000E+00 -0.00000000000E+00 -0.45593999997E+02  0.45594000000E+02  0.51100000000E-03 0.  1.
    9900012    2    1    2    0    0 -0.13020299133E+01 -0.43256449918E+02  0.32873256432E+01  0.47787282825E+02  0.20000053713E+02 0.  0.
        -12    1    1    2    0    0  0.13020299133E+01  0.43256449918E+02 -0.32873256432E+01  0.43400717175E+02  0.00000000000E+00 0.  1.
         11    1    3    3    0    0 -0.21427877306E+01 -0.26772579123E+02  0.28340841567E+01  0.27007305779E+02  0.51100000000E-03 0. -1.
        -11    1    3    3    0    0  0.37204188247E+01 -0.34460776856E+00 -0.19434466017E+01  0.42115621449E+01  0.51100000000E-03 0.  1.
        -12    1    3    3    0    0 -0.28796610075E+01 -0.16139263026E+02  0.23966880882E+01  0.16568414901E+02  0.00000000000E+00 0.  1.
</event>
<event>
 7    1  0.2700100E-010  0.4778727E+02  0.7816164E-02  0.1312668E+00
        -11   -1    0    0    0    0  0.00000000000E+00  0.00000000000E+00  0.45593999997E+02  0.45594000000E+02  0.51100000000E-03 0.  1.
         11   -1    0    0    0    0 -0.00000000000E+00 -0.00000000000E+00 -0.45593999997E+02  0.45594000000E+02  0.51100000000E-03 0. -1.
    9900012    2    1    2    0    0  0.37978644526E+01 -0.30200252792E+02 -0.30937747437E+02  0.47787271209E+02  0.20000000750E+02 0.  0.
        -12    1    1    2    0    0 -0.37978644526E+01  0.30200252792E+02  0.30937747437E+02  0.43400728791E+02  0.00000000000E+00 0.  1.
         11    1    3    3    0    0  0.14202147934E+01  0.14971897634E+01 -0.69214843530E+01  0.72225710904E+01  0.51100000000E-03 0. -1.
        -11    1    3    3    0    0  0.32771977920E+00 -0.22527968421E+02 -0.12725245070E+02  0.25875637649E+02  0.51100000000E-03 0.  1.
         12    1    3    3    0    0  0.20499298800E+01 -0.91694741352E+01 -0.11291018014E+02  0.14689062469E+02  0.00000000000E+00 0. -1.
</event>
<event>
 7    1  0.2700100E-010  0.4778727E+02  0.7816164E-02  0.1312668E+00
        -11   -1    0    0    0    0  0.00000000000E+00  0.00000000000E+00  0.45593999997E+02  0.45594000000E+02  0.51100000000E-03 0.  1.
         11   -1    0    0    0    0 -0.00000000000E+00 -0.00000000000E+00 -0.45593999997E+02  0.45594000000E+02  0.51100000000E-03 0. -1.
    9900012    2    1    2    0    0  0.13716648796E+02  0.12636660078E+02 -0.39189175697E+02  0.47787272771E+02  0.20000007874E+02 0.  0.
        -12    1    1    2    0    0 -0.13716648796E+02 -0.12636660078E+02  0.39189175697E+02  0.43400727229E+02  0.00000000000E+00 0.  1.
         11    1    3    3    0    0  0.54703958211E+01 -0.38707813274E+01 -0.54153742299E+01  0.86159420167E+01  0.51100000000E-03 0. -1.
        -11    1    3    3    0    0  0.52509163473E+01  0.11162693917E+02 -0.28618831850E+02  0.31164328882E+02  0.51100000000E-03 0.  1.
        -12    1    3    3    0    0  0.29953366280E+01  0.53447474884E+01 -0.51549696176E+01  0.80070018726E+01  0.00000000000E+00 0.  1.
</event>
<event>
 7    1  0.2700100E-010  0.4778727E+02  0.7816164E-02  0.1312668E+00
        -11   -1    0    0    0    0  0.00000000000E+00  0.00000000000E+00  0.45593999997E+02  0.45594000000E+02  0.51100000000E-03 0.  1.
         11   -1    0    0    0    0 -0.00000000000E+00 -0.00000000000E+00 -0.45593999997E+02  0.45594000000E+02  0.51100000000E-03 0. -1.
    9900012    2    1    2    0    0 -0.31537283798E+02 -0.25363420139E+02 -0.15675449823E+02  0.47787273305E+02  0.20000010305E+02 0.  0.
        -12    1    1    2    0    0  0.31537283798E+02  0.25363420139E+02  0.15675449823E+02  0.43400726695E+02  0.00000000000E+00 0.  1.
         11    1    3    3    0    0 -0.90929094807E+01 -0.13619920398E+02 -0.72548048619E+01  0.17911321233E+02  0.51100000000E-03 0. -1.
        -11    1    3    3    0    0 -0.40894704020E+01  0.28560376489E+01 -0.29433833280E+01  0.57917376406E+01  0.51100000000E-03 0.  1.
        -12    1    3    3    0    0 -0.18354903916E+02 -0.14599537389E+02 -0.54772616334E+01  0.24084214431E+02  0.00000000000E+00 0.  1.
</event>
<event>
 7    1  0.2700100E-010  0.4778727E+02  0.7816164E-02  0.1312668E+00
        -11   -1    0    0    0    0  0.00000000000E+00  0.00000000000E+00  0.45593999997E+02  0.45594000000E+02  0.51100000000E-03 0. -1.
         11   -1    0    0    0    0 -0.00000000000E+00 -0.00000000000E+00 -0.45593999997E+02  0.45594000000E+02  0.51100000000E-03 0.  1.
    9900012    2    1    2    0    0  0.31736025783E+02  0.25540816077E+02  0.14970464949E+02  0.47787269140E+02  0.19999991317E+02 0.  0.
        -12    1    1    2    0    0 -0.31736025783E+02 -0.25540816077E+02 -0.14970464949E+02  0.43400730860E+02  0.00000000000E+00 0.  1.
         11    1    3    3    0    0  0.29907602800E+02  0.23628672532E+02  0.17639711076E+02  0.41999265208E+02  0.51100000000E-03 0. -1.
        -11    1    3    3    0    0 -0.57611303310E+00 -0.11204718642E+01 -0.77389601788E+00  0.14786070246E+01  0.51100000000E-03 0.  1.
         12    1    3    3    0    0  0.24045360156E+01  0.30326154092E+01 -0.18953501091E+01  0.43093969076E+01  0.00000000000E+00 0. -1.
</event>
<event>
 7    1  0.2700100E-010  0.4778727E+02  0.7816164E-02  0.1312668E+00
        -11   -1    0    0    0    0  0.00000000000E+00  0.00000000000E+00  0.45593999997E+02  0.45594000000E+02  0.51100000000E-03 0. -1.
         11   -1    0    0    0    0 -0.00000000000E+00 -0.00000000000E+00 -0.45593999997E+02  0.45594000000E+02  0.51100000000E-03 0.  1.
    9900012    2    1    2    0    0  0.26308730838E+02  0.34426024792E+02  0.25145968986E+01  0.47787266148E+02  0.19999977675E+02 0.  0.
        -12    1    1    2    0    0 -0.26308730838E+02 -0.34426024792E+02 -0.25145968986E+01  0.43400733852E+02  0.00000000000E+00 0.  1.
         11    1    3    3    0    0  0.10634527367E+02  0.17605555217E+01  0.11958279987E+01  0.10845401465E+02  0.51100000000E-03 0. -1.
        -11    1    3    3    0    0  0.44193598431E+01  0.13812616596E+02 -0.23162640242E+01  0.14686190723E+02  0.51100000000E-03 0.  1.
         12    1    3    3    0    0  0.11254843628E+02  0.18852852675E+02  0.36350329241E+01  0.22255673960E+02  0.00000000000E+00 0. -1.
</event>
<event>
 7    1  0.2700100E-010  0.4778727E+02  0.7816164E-02  0.1312668E+00
        -11   -1    0    0    0    0  0.00000000000E+00  0.00000000000E+00  0.45593999997E+02  0.45594000000E+02  0.51100000000E-03 0.  1.
         11   -1    0    0    0    0 -0.00000000000E+00 -0.00000000000E+00 -0.45593999997E+02  0.45594000000E+02  0.51100000000E-03 0. -1.
    9900012    2    1    2    0    0 -0.13657433498E+02  0.34241982230E+02 -0.22903808601E+02  0.47787270914E+02  0.19999999403E+02 0.  0.
        -12    1    1    2    0    0  0.13657433498E+02 -0.34241982230E+02  0.22903808601E+02  0.43400729086E+02  0.00000000000E+00 0.  1.
         11    1    3    3    0    0 -0.51114606191E+01  0.23041679024E+02 -0.20048979292E+02  0.30967847403E+02  0.51100000000E-03 0. -1.
        -11    1    3    3    0    0 -0.59983874090E+01  0.12689324554E+01  0.15746807854E+00  0.61331588551E+01  0.51100000000E-03 0.  1.
        -12    1    3    3    0    0 -0.25475854702E+01  0.99313707513E+01 -0.30122973871E+01  0.10686264655E+02  0.00000000000E+00 0.  1.
</event>
<event>
 7    1  0.2700100E-010  0.4778727E+02  0.7816164E-02  0.1312668E+00
        -11   -1    0    0    0    0  0.00000000000E+00  0.00000000000E+00  0.45593999997E+02  0.45594000000E+02  0.51100000000E-03 0.  1.
         11   -1    0    0    0    0 -0.00000000000E+00 -0.00000000000E+00 -0.45593999997E+02  0.45594000000E+02  0.51100000000E-03 0. -1.
    9900012    2    1    2    0    0 -0.29133538954E+02  0.31667544604E+02 -0.56592346271E+01  0.47787269478E+02  0.19999992860E+02 0.  0.
        -12    1    1    2    0    0  0.29133538954E+02 -0.31667544604E+02  0.56592346271E+01  0.43400730522E+02  0.00000000000E+00 0.  1.
         11    1    3    3    0    0 -0.30157174910E+02  0.24852550300E+02 -0.64889935262E+01  0.39613274192E+02  0.51100000000E-03 0. -1.
        -11    1    3    3    0    0  0.15592624246E+01  0.72651165769E+01  0.71324077777E+00  0.74647123758E+01  0.51100000000E-03 0.  1.
         12    1    3    3    0    0 -0.53562646848E+00 -0.45012227290E+00  0.11651812127E+00  0.70928291033E+00  0.00000000000E+00 0. -1.
</event>
<event>
 7    1  0.2700100E-010  0.4778727E+02  0.7816164E-02  0.1312668E+00
        -11   -1    0    0    0    0  0.00000000000E+00  0.00000000000E+00  0.45593999997E+02  0.45594000000E+02  0.51100000000E-03 0.  1.
         11   -1    0    0    0    0 -0.00000000000E+00 -0.00000000000E+00 -0.45593999997E+02  0.45594000000E+02  0.51100000000E-03 0. -1.
    9900012    2    1    2    0    0  0.10720568951E+02 -0.33360117163E+02 -0.25608496128E+02  0.47787273166E+02  0.20000009673E+02 0.  0.
        -12    1    1    2    0    0 -0.10720568951E+02  0.33360117163E+02  0.25608496128E+02  0.43400726834E+02  0.00000000000E+00 0.  1.
         11    1    3    3    0    0  0.69204559141E+01 -0.98500561355E+01 -0.14544913392E+02  0.18880434894E+02  0.51100000000E-03 0. -1.
        -11    1    3    3    0    0 -0.38973600619E+01 -0.11987603774E+02 -0.33294649098E+01  0.13037537978E+02  0.51100000000E-03 0.  1.
        -12    1    3    3    0    0  0.76974730983E+01 -0.11522457255E+02 -0.77341178256E+01  0.15869300294E+02  0.00000000000E+00 0.  1.
</event>
<event>
 7    1  0.2700100E-010  0.4778727E+02  0.7816164E-02  0.1312668E+00
        -11   -1    0    0    0    0  0.00000000000E+00  0.00000000000E+00  0.45593999997E+02  0.45594000000E+02  0.51100000000E-03 0. -1.
         11   -1    0    0    0    0 -0.00000000000E+00 -0.00000000000E+00 -0.45593999997E+02  0.45594000000E+02  0.51100000000E-03 0.  1.
    9900012    2    1    2    0    0 -0.26766249963E+02  0.32237238272E+02  0.11311569744E+02  0.47787270990E+02  0.19999999753E+02 0.  0.
        -12    1    1    2    0    0  0.26766249963E+02 -0.32237238272E+02 -0.11311569744E+02  0.43400729010E+02  0.00000000000E+00 0.  1.
         11    1    3    3    0    0 -0.18626038612E+02  0.91392474467E+01  0.70600566227E+01  0.21915737680E+02  0.51100000000E-03 0.  1.
        -11    1    3    3    0    0 -0.80505432485E+01  0.19310195285E+02  0.59035981942E+01  0.21738154485E+02  0.51100000000E-03 0. -1.
        -12    1    3    3    0    0 -0.89668102482E-01  0.37877955407E+01 -0.16520850724E+01  0.41333788253E+01  0.00000000000E+00 0.  1.
</event>
<event>
 7    1  0.2700100E-010  0.4778727E+02  0.7816164E-02  0.1312668E+00
        -11   -1    0    0    0    0  0.00000000000E+00  0.00000000000E+00  0.45593999997E+02  0.45594000000E+02  0.51100000000E-03 0.  1.
         11   -1    0    0    0    0 -0.00000000000E+00 -0.00000000000E+00 -0.45593999997E+02  0.45594000000E+02  0.51100000000E-03 0. -1.
    9900012    2    1    2    0    0 -0.68320748730E+01  0.26277683853E+02 -0.33858963496E+02  0.47787270458E+02  0.19999997328E+02 0.  0.
        -12    1    1    2    0    0  0.68320748730E+01 -0.26277683853E+02  0.33858963496E+02  0.43400729542E+02  0.00000000000E+00 0.  1.
         11    1    3    3    0    0 -0.10113882966E+02  0.11527189115E+02 -0.14914189281E+02  0.21391581515E+02  0.51100000000E-03 0. -1.
        -11    1    3    3    0    0  0.36058589482E+01  0.15586473777E+02 -0.13663388509E+02  0.21038739729E+02  0.51100000000E-03 0.  1.
         12    1    3    3    0    0 -0.32405085479E+00 -0.83597903963E+00 -0.52813857059E+01  0.53569492144E+01  0.00000000000E+00 0. -1.
</event>
<event>
 7    1  0.2700100E-010  0.4778727E+02  0.7816164E-02  0.1312668E+00
        -11   -1    0    0    0    0  0.00000000000E+00  0.00000000000E+00  0.45593999997E+02  0.45594000000E+02  0.51100000000E-03 0.  1.
         11   -1    0    0    0    0 -0.00000000000E+00 -0.00000000000E+00 -0.45593999997E+02  0.45594000000E+02  0.51100000000E-03 0. -1.
    9900012    2    1    2    0    0 -0.17343171581E+02  0.53170335304E+01 -0.39427994871E+02  0.47787271601E+02  0.20000002536E+02 0.  0.
        -12    1    1    2    0    0  0.17343171581E+02 -0.53170335304E+01  0.39427994871E+02  0.43400728399E+02  0.00000000000E+00 0.  1.
         11    1    3    3    0    0 -0.16190807515E+02  0.72744027225E+01 -0.25248290645E+02  0.30863171640E+02  0.51100000000E-03 0. -1.
        -11    1    3    3    0    0 -0.49984718305E+01 -0.18464462149E+01 -0.91906982580E+01  0.10623700815E+02  0.51100000000E-03 0.  1.
         12    1    3    3    0    0  0.38461077649E+01 -0.11092297724E+00 -0.49890059683E+01  0.63003991459E+01  0.00000000000E+00 0. -1.
</event>
<event>
 7    1  0.2700100E-010  0.4778728E+02  0.7816164E-02  0.1312668E+00
        -11   -1    0    0    0    0  0.00000000000E+00  0.00000000000E+00  0.45593999997E+02  0.45594000000E+02  0.51100000000E-03 0.  1.
         11   -1    0    0    0    0 -0.00000000000E+00 -0.00000000000E+00 -0.45593999997E+02  0.45594000000E+02  0.51100000000E-03 0. -1.
    9900012    2    1    2    0    0 -0.34497825511E+02 -0.14874505090E+02 -0.21731811527E+02  0.47787279973E+02  0.20000040707E+02 0.  0.
        -12    1    1    2    0    0  0.34497825511E+02  0.14874505090E+02  0.21731811527E+02  0.43400720027E+02  0.00000000000E+00 0.  1.
         11    1    3    3    0    0 -0.19993413297E+02 -0.80353811398E+01 -0.15843205927E+02  0.26745300515E+02  0.51100000000E-03 0. -1.
        -11    1    3    3    0    0 -0.40418072064E+01 -0.71092928260E+01  0.13880440795E+01  0.82948729108E+01  0.51100000000E-03 0.  1.
        -12    1    3    3    0    0 -0.10462605007E+02  0.27016887536E+00 -0.72766496789E+01  0.12747106546E+02  0.00000000000E+00 0.  1.
</event>
<event>
 7    1  0.2700100E-010  0.4778724E+02  0.7816164E-02  0.1312668E+00
        -11   -1    0    0    0    0  0.00000000000E+00  0.00000000000E+00  0.45593999997E+02  0.45594000000E+02  0.51100000000E-03 0.  1.
         11   -1    0    0    0    0 -0.00000000000E+00 -0.00000000000E+00 -0.45593999997E+02  0.45594000000E+02  0.51100000000E-03 0. -1.
    9900012    2    1    2    0    0 -0.31123024089E+02  0.27672593215E+02 -0.12215178386E+02  0.47787243939E+02  0.19999876415E+02 0.  0.
        -12    1    1    2    0    0  0.31123024089E+02 -0.27672593215E+02  0.12215178386E+02  0.43400756061E+02  0.00000000000E+00 0.  1.
         11    1    3    3    0    0 -0.12275984495E+02  0.14507584820E+02 -0.69046453133E+01  0.20219889707E+02  0.51100000000E-03 0. -1.
        -11    1    3    3    0    0 -0.91490361846E+00 -0.28450087802E+01 -0.23128197567E+00  0.29974347706E+01  0.51100000000E-03 0.  1.
        -12    1    3    3    0    0 -0.17932135976E+02  0.16010017175E+02 -0.50792510971E+01  0.24569919461E+02  0.00000000000E+00 0.  1.
</event>
<event>
 7    1  0.2700100E-010  0.4778726E+02  0.7816164E-02  0.1312668E+00
        -11   -1    0    0    0    0  0.00000000000E+00  0.00000000000E+00  0.45593999997E+02  0.45594000000E+02  0.51100000000E-03 0. -1.
         11   -1    0    0    0    0 -0.00000000000E+00 -0.00000000000E+00 -0.45593999997E+02  0.45594000000E+02  0.51100000000E-03 0.  1.
    9900012    2    1    2    0    0 -0.13244728935E+02 -0.20694902887E+02  0.35775998376E+02  0.47787263717E+02  0.19999966593E+02 0.  0.
        -12    1    1    2    0    0  0.13244728935E+02  0.20694902887E+02 -0.35775998376E+02  0.43400736283E+02  0.00000000000E+00 0.  1.
         11    1    3    3    0    0  0.15813180201E+01 -0.60829682842E+01  0.39901235007E+01  0.74447401324E+01  0.51100000000E-03 0. -1.
        -11    1    3    3    0    0 -0.69159402329E+01  0.13329393093E+01  0.88746845411E+01  0.11329915378E+02  0.51100000000E-03 0.  1.
        -12    1    3    3    0    0 -0.79101067224E+01 -0.15944873912E+02  0.22911190334E+02  0.29012608207E+02  0.00000000000E+00 0.  1.
</event>
<event>
 7    1  0.2700100E-010  0.4778727E+02  0.7816164E-02  0.1312668E+00
        -11   -1    0    0    0    0  0.00000000000E+00  0.00000000000E+00  0.45593999997E+02  0.45594000000E+02  0.51100000000E-03 0.  1.
         11   -1    0    0    0    0 -0.00000000000E+00 -0.00000000000E+00 -0.45593999997E+02  0.45594000000E+02  0.51100000000E-03 0. -1.
    9900012    2    1    2    0    0  0.28585011968E+02  0.17481370354E+02 -0.27584816767E+02  0.47787270343E+02  0.19999996803E+02 0.  0.
        -12    1    1    2    0    0 -0.28585011968E+02 -0.17481370354E+02  0.27584816767E+02  0.43400729657E+02  0.00000000000E+00 0.  1.
         11    1    3    3    0    0  0.39037570485E+01  0.32985462067E+01  0.98318266317E-01  0.51116917859E+01  0.51100000000E-03 0. -1.
        -11    1    3    3    0    0  0.84135348504E+01 -0.15797783624E+01 -0.27547037269E+01  0.89928672423E+01  0.51100000000E-03 0.  1.
        -12    1    3    3    0    0  0.16267720069E+02  0.15762602509E+02 -0.24928431307E+02  0.33682711315E+02  0.00000000000E+00 0.  1.
</event>
<event>
 7    1  0.2700100E-010  0.4778726E+02  0.7816164E-02  0.1312668E+00
        -11   -1    0    0    0    0  0.00000000000E+00  0.00000000000E+00  0.45593999997E+02  0.45594000000E+02  0.51100000000E-03 0. -1.
         11   -1    0    0    0    0 -0.00000000000E+00 -0.00000000000E+00 -0.45593999997E+02  0.45594000000E+02  0.51100000000E-03 0.  1.
    9900012    2    1    2    0    0 -0.43114679865E+02  0.41125352502E+01  0.27991786268E+01  0.47787263059E+02  0.19999963590E+02 0.  0.
        -12    1    1    2    0    0  0.43114679865E+02 -0.41125352502E+01 -0.27991786268E+01  0.43400736941E+02  0.00000000000E+00 0.  1.
         11    1    3    3    0    0 -0.11519919197E+02  0.95622989060E+01  0.23934126305E+01  0.15161613468E+02  0.51100000000E-03 0. -1.
        -11    1    3    3    0    0 -0.81359514161E+01 -0.38511603473E+01 -0.10777194110E+01  0.90656836949E+01  0.51100000000E-03 0.  1.
         12    1    3    3    0    0 -0.23458809252E+02 -0.15986033085E+01  0.14834854073E+01  0.23559965896E+02  0.00000000000E+00 0. -1.
</event>
<event>
 7    1  0.2700100E-010  0.4778727E+02  0.7816164E-02  0.1312668E+00
        -11   -1    0    0    0    0  0.00000000000E+00  0.00000000000E+00  0.45593999997E+02  0.45594000000E+02  0.51100000000E-03 0.  1.
         11   -1    0    0    0    0 -0.00000000000E+00 -0.00000000000E+00 -0.45593999997E+02  0.45594000000E+02  0.51100000000E-03 0. -1.
    9900012    2    1    2    0    0  0.15240828388E+01  0.11298904336E+02 -0.41876428315E+02  0.47787270558E+02  0.19999997780E+02 0.  0.
        -12    1    1    2    0    0 -0.15240828388E+01 -0.11298904336E+02  0.41876428315E+02  0.43400729442E+02  0.00000000000E+00 0.  1.
         11    1    3    3    0    0  0.46040653817E+01 -0.10920208467E+00 -0.13486832142E+01  0.47987800333E+01  0.51100000000E-03 0. -1.
        -11    1    3    3    0    0  0.11875037052E+00  0.14162160305E+01 -0.35014121249E+00  0.14636832394E+01  0.51100000000E-03 0.  1.
         12    1    3    3    0    0 -0.31987329134E+01  0.99918903898E+01 -0.40177603889E+02  0.41524807285E+02  0.00000000000E+00 0. -1.
</event>
<event>
 7    1  0.2700100E-010  0.4778727E+02  0.7816164E-02  0.1312668E+00
        -11   -1    0    0    0    0  0.00000000000E+00  0.00000000000E+00  0.45593999997E+02  0.45594000000E+02  0.51100000000E-03 0. -1.
         11   -1    0    0    0    0 -0.00000000000E+00 -0.00000000000E+00 -0.45593999997E+02  0.45594000000E+02  0.51100000000E-03 0.  1.
    9900012    2    1    2    0    0  0.17295008572E+02  0.22861029611E+02  0.32586484976E+02  0.47787274205E+02  0.20000014411E+02 0.  0.
        -12    1    1    2    0    0 -0.17295008572E+02 -0.22861029611E+02 -0.32586484976E+02  0.43400725795E+02  0.00000000000E+00 0.  1.
         11    1    3    3    0    0 -0.23480152735E+01  0.49129550140E+01  0.10541954184E+02  0.11865205476E+02  0.51100000000E-03 0. -1.
        -11    1    3    3    0    0  0.17009604109E+02  0.17410020148E+02  0.15523742646E+02  0.28869049508E+02  0.51100000000E-03 0.  1.
        -12    1    3    3    0    0  0.26334197368E+01  0.53805444989E+00  0.65207881454E+01  0.70530192214E+01  0.00000000000E+00 0.  1.
</event>
<event>
 7    1  0.3205070E-010  0.4778727E+02  0.7816164E-02  0.1312668E+00
        -11   -1    0    0    0    0  0.00000000000E+00  0.00000000000E+00  0.45593999997E+02  0.45594000000E+02  0.51100000000E-03 0.  1.
         11   -1    0    0    0    0 -0.00000000000E+00 -0.00000000000E+00 -0.45593999997E+02  0.45594000000E+02  0.51100000000E-03 0. -1.
    9900012    2    1    2    0    0 -0.31483295411E+02  0.29754277962E+02  0.26661455068E+01  0.47787270987E+02  0.19999999737E+02 0.  0.
        -12    1    1    2    0    0  0.31483295411E+02 -0.29754277962E+02 -0.26661455068E+01  0.43400729013E+02  0.00000000000E+00 0.  1.
         11    1    3    3    0    0 -0.11731190814E+02  0.17940425150E+02  0.17126816675E+00  0.21436161633E+02  0.51100000000E-03 0. -1.
        -11    1    3    3    0    0 -0.16874802503E+02  0.54588697890E+01  0.57615218400E+01  0.18648146103E+02  0.51100000000E-03 0.  1.
        -12    1    3    3    0    0 -0.28773020940E+01  0.63549830229E+01 -0.32666445000E+01  0.77029632513E+01  0.00000000000E+00 0.  1.
</event>
<event>
 7    1  0.2700100E-010  0.4778726E+02  0.7816164E-02  0.1312668E+00
        -11   -1    0    0    0    0  0.00000000000E+00  0.00000000000E+00  0.45593999997E+02  0.45594000000E+02  0.51100000000E-03 0.  1.
         11   -1    0    0    0    0 -0.00000000000E+00 -0.00000000000E+00 -0.45593999997E+02  0.45594000000E+02  0.51100000000E-03 0. -1.
    9900012    2    1    2    0    0  0.74954835252E+01  0.27869839178E+02 -0.32414718274E+02  0.47787260723E+02  0.19999952938E+02 0.  0.
        -12    1    1    2    0    0 -0.74954835252E+01 -0.27869839178E+02  0.32414718274E+02  0.43400739277E+02  0.00000000000E+00 0.  1.
         11    1    3    3    0    0  0.29488516461E+01  0.10455346111E+02 -0.11694940368E+02  0.15961880177E+02  0.51100000000E-03 0. -1.
        -11    1    3    3    0    0  0.74372209688E+01  0.19035693587E+02 -0.15531827679E+02  0.25669194716E+02  0.51100000000E-03 0.  1.
        -12    1    3    3    0    0 -0.28905890897E+01 -0.16212005194E+01 -0.51879502264E+01  0.61561858290E+01  0.00000000000E+00 0.  1.
</event>
<event>
 7    1  0.2700100E-010  0.4778727E+02  0.7816164E-02  0.1312668E+00
        -11   -1    0    0    0    0  0.00000000000E+00  0.00000000000E+00  0.45593999997E+02  0.45594000000E+02  0.51100000000E-03 0.  1.
         11   -1    0    0    0    0 -0.00000000000E+00 -0.00000000000E+00 -0.45593999997E+02  0.45594000000E+02  0.51100000000E-03 0. -1.
    9900012    2    1    2    0    0 -0.51973198935E+01 -0.41711548032E+02 -0.10805470750E+02  0.47787267616E+02  0.19999984370E+02 0.  0.
        -12    1    1    2    0    0  0.51973198935E+01  0.41711548032E+02  0.10805470750E+02  0.43400732384E+02  0.00000000000E+00 0.  1.
         11    1    3    3    0    0  0.47888909050E+01 -0.28479224962E+02 -0.74741887440E+01  0.29830575391E+02  0.51100000000E-03 0. -1.
        -11    1    3    3    0    0 -0.65351393855E+01 -0.46616776454E+01  0.29090103680E+00  0.80326775693E+01  0.51100000000E-03 0.  1.
         12    1    3    3    0    0 -0.34510714130E+01 -0.85706454249E+01 -0.36221830432E+01  0.99240146562E+01  0.00000000000E+00 0. -1.
</event>
<event>
 7    1  0.2700100E-010  0.4778727E+02  0.7816164E-02  0.1312668E+00
        -11   -1    0    0    0    0  0.00000000000E+00  0.00000000000E+00  0.45593999997E+02  0.45594000000E+02  0.51100000000E-03 0.  1.
         11   -1    0    0    0    0 -0.00000000000E+00 -0.00000000000E+00 -0.45593999997E+02  0.45594000000E+02  0.51100000000E-03 0. -1.
    9900012    2    1    2    0    0  0.37740999959E+02  0.21194477771E+02  0.31677100238E+01  0.47787270136E+02  0.19999995859E+02 0.  0.
        -12    1    1    2    0    0 -0.37740999959E+02 -0.21194477771E+02 -0.31677100238E+01  0.43400729864E+02  0.00000000000E+00 0.  1.
         11    1    3    3    0    0  0.20857367865E+02  0.62321318873E+01 -0.58213622880E+01  0.22533475570E+02  0.51100000000E-03 0. -1.
        -11    1    3    3    0    0  0.14707280560E+02  0.15042249218E+02  0.66630798520E+01  0.22067396683E+02  0.51100000000E-03 0.  1.
         12    1    3    3    0    0  0.21763515338E+01 -0.79903334433E-01  0.23259924598E+01  0.31863978824E+01  0.00000000000E+00 0. -1.
</event>
<event>
 7    1  0.2700100E-010  0.4778727E+02  0.7816164E-02  0.1312668E+00
        -11   -1    0    0    0    0  0.00000000000E+00  0.00000000000E+00  0.45593999997E+02  0.45594000000E+02  0.51100000000E-03 0.  1.
         11   -1    0    0    0    0 -0.00000000000E+00 -0.00000000000E+00 -0.45593999997E+02  0.45594000000E+02  0.51100000000E-03 0. -1.
    9900012    2    1    2    0    0 -0.69999740533E+01  0.29698864657E+02 -0.30864232369E+02  0.47787273757E+02  0.20000012369E+02 0.  0.
        -12    1    1    2    0    0  0.69999740533E+01 -0.29698864657E+02  0.30864232369E+02  0.43400726243E+02  0.00000000000E+00 0.  1.
         11    1    3    3    0    0  0.40581073719E+01  0.13717955165E+02 -0.94414467080E+01  0.17140345549E+02  0.51100000000E-03 0. -1.
        -11    1    3    3    0    0 -0.66207010259E+01  0.26141113357E+01 -0.37404622747E+01  0.80410396367E+01  0.51100000000E-03 0.  1.
        -12    1    3    3    0    0 -0.44373803994E+01  0.13366798156E+02 -0.17682323386E+02  0.22605888571E+02  0.00000000000E+00 0.  1.
</event>
<event>
 7    1  0.2700100E-010  0.4778727E+02  0.7816164E-02  0.1312668E+00
        -11   -1    0    0    0    0  0.00000000000E+00  0.00000000000E+00  0.45593999997E+02  0.45594000000E+02  0.51100000000E-03 0.  1.
         11   -1    0    0    0    0 -0.00000000000E+00 -0.00000000000E+00 -0.45593999997E+02  0.45594000000E+02  0.51100000000E-03 0. -1.
    9900012    2    1    2    0    0  0.12951258554E+02  0.37187628198E+02 -0.18247416748E+02  0.47787274118E+02  0.20000014013E+02 0.  0.
        -12    1    1    2    0    0 -0.12951258554E+02 -0.37187628198E+02  0.18247416748E+02  0.43400725882E+02  0.00000000000E+00 0.  1.
         11    1    3    3    0    0  0.26945711249E+01  0.10010156211E+02 -0.12235533598E+02  0.16036590149E+02  0.51100000000E-03 0. -1.
        -11    1    3    3    0    0  0.45304710976E+01  0.24312102691E+02 -0.40995694230E+01  0.25068106736E+02  0.51100000000E-03 0.  1.
         12    1    3    3    0    0  0.57262163320E+01  0.28653692962E+01 -0.19123137262E+01  0.66825772328E+01  0.00000000000E+00 0. -1.
</event>
<event>
 7    1  0.2700100E-010  0.4778727E+02  0.7816164E-02  0.1312668E+00
        -11   -1    0    0    0    0  0.00000000000E+00  0.00000000000E+00  0.45593999997E+02  0.45594000000E+02  0.51100000000E-03 0.  1.
         11   -1    0    0    0    0 -0.00000000000E+00 -0.00000000000E+00 -0.45593999997E+02  0.45594000000E+02  0.51100000000E-03 0. -1.
    9900012    2    1    2    0    0 -0.20811541067E+02  0.28196262596E+02 -0.25602225106E+02  0.47787269634E+02  0.19999993567E+02 0.  0.
        -12    1    1    2    0    0  0.20811541067E+02 -0.28196262596E+02  0.25602225106E+02  0.43400730366E+02  0.00000000000E+00 0.  1.
         11    1    3    3    0    0 -0.73781792476E+01  0.14646560087E+02 -0.18380073708E+02  0.24633033941E+02  0.51100000000E-03 0. -1.
        -11    1    3    3    0    0 -0.14292548522E+02  0.14729704515E+02 -0.65232012451E+01  0.21535860630E+02  0.51100000000E-03 0.  1.
        -12    1    3    3    0    0  0.85918670293E+00 -0.11800020057E+01 -0.69895015315E+00  0.16183750617E+01  0.00000000000E+00 0.  1.
</event>
<event>
 7    1  0.2700100E-010  0.4778728E+02  0.7816164E-02  0.1312668E+00
        -11   -1    0    0    0    0  0.00000000000E+00  0.00000000000E+00  0.45593999997E+02  0.45594000000E+02  0.51100000000E-03 0.  1.
         11   -1    0    0    0    0 -0.00000000000E+00 -0.00000000000E+00 -0.45593999997E+02  0.45594000000E+02  0.51100000000E-03 0. -1.
    9900012    2    1    2    0    0  0.36850362778E+02  0.10096668228E+02 -0.20584712593E+02  0.47787281818E+02  0.20000049123E+02 0.  0.
        -12    1    1    2    0    0 -0.36850362778E+02 -0.10096668228E+02  0.20584712593E+02  0.43400718182E+02  0.00000000000E+00 0.  1.
         11    1    3    3    0    0  0.76865464476E+01 -0.32900594369E+01 -0.81581262343E+01  0.11681716967E+02  0.51100000000E-03 0. -1.
        -11    1    3    3    0    0 -0.87320200838E+00 -0.15781176150E+00 -0.70427123978E+00  0.11328656318E+01  0.51100000000E-03 0.  1.
         12    1    3    3    0    0  0.30037018338E+02  0.13544539426E+02 -0.11722315119E+02  0.34972699219E+02  0.00000000000E+00 0. -1.
</event>
<event>
 7    1  0.2700100E-010  0.4778728E+02  0.7816164E-02  0.1312668E+00
        -11   -1    0    0    0    0  0.00000000000E+00  0.00000000000E+00  0.45593999997E+02  0.45594000000E+02  0.51100000000E-03 0.  1.
         11   -1    0    0    0    0 -0.00000000000E+00 -0.00000000000E+00 -0.45593999997E+02  0.45594000000E+02  0.51100000000E-03 0. -1.
    9900012    2    1    2    0    0 -0.28668448187E+02  0.21080583213E+02 -0.24846555045E+02  0.47787283329E+02  0.20000056008E+02 0.  0.
        -12    1    1    2    0    0  0.28668448187E+02 -0.21080583213E+02  0.24846555045E+02  0.43400716671E+02  0.00000000000E+00 0.  1.
         11    1    3    3    0    0 -0.66254465310E+01  0.16539617563E+02 -0.89327177281E+01  0.19931104764E+02  0.51100000000E-03 0. -1.
        -11    1    3    3    0    0 -0.11780202123E+02  0.41348606172E+00 -0.86936539014E+01  0.14646629346E+02  0.51100000000E-03 0.  1.
         12    1    3    3    0    0 -0.10262799532E+02  0.41274795882E+01 -0.72201834150E+01  0.13209549218E+02  0.00000000000E+00 0. -1.
</event>
<event>
 7    1  0.2700100E-010  0.4778727E+02  0.7816164E-02  0.1312668E+00
        -11   -1    0    0    0    0  0.00000000000E+00  0.00000000000E+00  0.45593999997E+02  0.45594000000E+02  0.51100000000E-03 0.  1.
         11   -1    0    0    0    0 -0.00000000000E+00 -0.00000000000E+00 -0.45593999997E+02  0.45594000000E+02  0.51100000000E-03 0. -1.
    9900012    2    1    2    0    0 -0.65367240167E+01 -0.37554873623E+02 -0.20749124288E+02  0.47787268988E+02  0.19999990622E+02 0.  0.
        -12    1    1    2    0    0  0.65367240167E+01  0.37554873623E+02  0.20749124288E+02  0.43400731012E+02  0.00000000000E+00 0.  1.
         11    1    3    3    0    0 -0.73403658027E+00 -0.17333855184E+02 -0.20014059739E+02  0.26487052171E+02  0.51100000000E-03 0. -1.
        -11    1    3    3    0    0 -0.37383123405E+01 -0.74114452565E+01  0.59072370565E-01  0.83010836493E+01  0.51100000000E-03 0.  1.
         12    1    3    3    0    0 -0.20643750959E+01 -0.12809573182E+02 -0.79413692024E+00  0.12999133167E+02  0.00000000000E+00 0. -1.
</event>
<event>
 7    1  0.2700100E-010  0.4778727E+02  0.7816164E-02  0.1312668E+00
        -11   -1    0    0    0    0  0.00000000000E+00  0.00000000000E+00  0.45593999997E+02  0.45594000000E+02  0.51100000000E-03 0. -1.
         11   -1    0    0    0    0 -0.00000000000E+00 -0.00000000000E+00 -0.45593999997E+02  0.45594000000E+02  0.51100000000E-03 0.  1.
    9900012    2    1    2    0    0  0.41363986010E+02 -0.26895513265E+01  0.12861195033E+02  0.47787270022E+02  0.19999995339E+02 0.  0.
        -12    1    1    2    0    0 -0.41363986010E+02  0.26895513265E+01 -0.12861195033E+02  0.43400729978E+02  0.00000000000E+00 0.  1.
         11    1    3    3    0    0  0.58615983429E+01 -0.16364855179E+01  0.73174726827E+01  0.95174485397E+01  0.51100000000E-03 0. -1.
        -11    1    3    3    0    0  0.29638623814E+02 -0.49716999358E+01  0.13898669972E+01  0.30084839245E+02  0.51100000000E-03 0.  1.
        -12    1    3    3    0    0  0.58637638526E+01  0.39186341272E+01  0.41538553529E+01  0.81849822379E+01  0.00000000000E+00 0.  1.
</event>
<event>
 7    1  0.2700100E-010  0.4778727E+02  0.7816164E-02  0.1312668E+00
        -11   -1    0    0    0    0  0.00000000000E+00  0.00000000000E+00  0.45593999997E+02  0.45594000000E+02  0.51100000000E-03 0.  1.
         11   -1    0    0    0    0 -0.00000000000E+00 -0.00000000000E+00 -0.45593999997E+02  0.45594000000E+02  0.51100000000E-03 0. -1.
    9900012    2    1    2    0    0 -0.25740293235E+02  0.15571516349E+02 -0.31282404323E+02  0.47787266856E+02  0.19999980904E+02 0.  0.
        -12    1    1    2    0    0  0.25740293235E+02 -0.15571516349E+02  0.31282404323E+02  0.43400733144E+02  0.00000000000E+00 0.  1.
         11    1    3    3    0    0 -0.41063007808E+01  0.57571516358E+01 -0.11498774422E+02  0.13499196810E+02  0.51100000000E-03 0. -1.
        -11    1    3    3    0    0 -0.10416514372E+02  0.28367946687E+01 -0.36523092081E+00  0.10802063208E+02  0.51100000000E-03 0.  1.
        -12    1    3    3    0    0 -0.11217478081E+02  0.69775700448E+01 -0.19418398980E+02  0.23486006838E+02  0.00000000000E+00 0.  1.
</event>
<event>
 7    1  0.2700100E-010  0.4778726E+02  0.7816164E-02  0.1312668E+00
        -11   -1    0    0    0    0  0.00000000000E+00  0.00000000000E+00  0.45593999997E+02  0.45594000000E+02  0.51100000000E-03 0. -1.
         11   -1    0    0    0    0 -0.00000000000E+00 -0.00000000000E+00 -0.45593999997E+02  0.45594000000E+02  0.51100000000E-03 0.  1.
    9900012    2    1    2    0    0  0.12667569688E+02  0.33543988858E+02  0.24453165420E+02  0.47787264876E+02  0.19999971875E+02 0.  0.
        -12    1    1    2    0    0 -0.12667569688E+02 -0.33543988858E+02 -0.24453165420E+02  0.43400735124E+02  0.00000000000E+00 0.  1.
         11    1    3    3    0    0 -0.20343399103E+01  0.11942876163E+02  0.13561331632E+02  0.18184623884E+02  0.51100000000E-03 0. -1.
        -11    1    3    3    0    0  0.59478057628E+01  0.83678048499E+01  0.89456533641E+01  0.13616947741E+02  0.51100000000E-03 0.  1.
         12    1    3    3    0    0  0.87541038353E+01  0.13233307845E+02  0.19461804230E+01  0.15985693251E+02  0.00000000000E+00 0. -1.
</event>
<event>
 7    1  0.2700100E-010  0.4778726E+02  0.7816164E-02  0.1312668E+00
        -11   -1    0    0    0    0  0.00000000000E+00  0.00000000000E+00  0.45593999997E+02  0.45594000000E+02  0.51100000000E-03 0.  1.
         11   -1    0    0    0    0 -0.00000000000E+00 -0.00000000000E+00 -0.45593999997E+02  0.45594000000E+02  0.51100000000E-03 0. -1.
    9900012    2    1    2    0    0 -0.25137864070E+02 -0.13547612956E+02 -0.32682928925E+02  0.47787264178E+02  0.19999968691E+02 0.  0.
        -12    1    1    2    0    0  0.25137864070E+02  0.13547612956E+02  0.32682928925E+02  0.43400735822E+02  0.00000000000E+00 0.  1.
         11    1    3    3    0    0 -0.74541853010E+01 -0.66766467248E+01 -0.90204563699E+01  0.13472606406E+02  0.51100000000E-03 0. -1.
        -11    1    3    3    0    0 -0.20533285527E+02 -0.75264420052E+01 -0.21587657255E+02  0.30729303439E+02  0.51100000000E-03 0.  1.
        -12    1    3    3    0    0  0.28496067578E+01  0.65547577392E+00 -0.20748152998E+01  0.35853543329E+01  0.00000000000E+00 0.  1.
</event>
<event>
 7    1  0.2700100E-010  0.4778727E+02  0.7816164E-02  0.1312668E+00
        -11   -1    0    0    0    0  0.00000000000E+00  0.00000000000E+00  0.45593999997E+02  0.45594000000E+02  0.51100000000E-03 0.  1.
         11   -1    0    0    0    0 -0.00000000000E+00 -0.00000000000E+00 -0.45593999997E+02  0.45594000000E+02  0.51100000000E-03 0. -1.
    9900012    2    1    2    0    0 -0.10820190775E+02  0.41849555086E+02 -0.38938226796E+01  0.47787266776E+02  0.19999980540E+02 0.  0.
        -12    1    1    2    0    0  0.10820190775E+02 -0.41849555086E+02  0.38938226796E+01  0.43400733224E+02  0.00000000000E+00 0.  1.
         11    1    3    3    0    0 -0.31576236629E+01  0.19320428319E+02 -0.25991195143E+01  0.19748543241E+02  0.51100000000E-03 0. -1.
        -11    1    3    3    0    0 -0.44547121832E+01  0.48866080349E+01 -0.65959917199E+01  0.93397272847E+01  0.51100000000E-03 0.  1.
        -12    1    3    3    0    0 -0.32078549293E+01  0.17642518732E+02  0.53012885547E+01  0.18698996251E+02  0.00000000000E+00 0.  1.
</event>
<event>
 7    1  0.2700100E-010  0.4778727E+02  0.7816164E-02  0.1312668E+00
        -11   -1    0    0    0    0  0.00000000000E+00  0.00000000000E+00  0.45593999997E+02  0.45594000000E+02  0.51100000000E-03 0. -1.
         11   -1    0    0    0    0 -0.00000000000E+00 -0.00000000000E+00 -0.45593999997E+02  0.45594000000E+02  0.51100000000E-03 0.  1.
    9900012    2    1    2    0    0  0.33305450604E+02 -0.48481368675E+01  0.27401929234E+02  0.47787271933E+02  0.20000004051E+02 0.  0.
        -12    1    1    2    0    0 -0.33305450604E+02  0.48481368675E+01 -0.27401929234E+02  0.43400728067E+02  0.00000000000E+00 0.  1.
         11    1    3    3    0    0  0.10417615279E+02 -0.62909968173E+01  0.16995288210E+02  0.20903185658E+02  0.51100000000E-03 0. -1.
        -11    1    3    3    0    0  0.21150399415E+02 -0.16774332054E+01  0.89008909764E+01  0.23008238481E+02  0.51100000000E-03 0.  1.
         12    1    3    3    0    0  0.17374359105E+01  0.31202931552E+01  0.15057500475E+01  0.38758477941E+01  0.00000000000E+00 0. -1.
</event>
<event>
 7    1  0.2700100E-010  0.4778728E+02  0.7816164E-02  0.1312668E+00
        -11   -1    0    0    0    0  0.00000000000E+00  0.00000000000E+00  0.45593999997E+02  0.45594000000E+02  0.51100000000E-03 0.  1.
         11   -1    0    0    0    0 -0.00000000000E+00 -0.00000000000E+00 -0.45593999997E+02  0.45594000000E+02  0.51100000000E-03 0. -1.
    9900012    2    1    2    0    0  0.11533846205E+02 -0.38211368085E+02 -0.17043601989E+02  0.47787278485E+02  0.20000033927E+02 0.  0.
        -12    1    1    2    0    0 -0.11533846205E+02  0.38211368085E+02  0.17043601989E+02  0.43400721515E+02  0.00000000000E+00 0.  1.
         11    1    3    3    0    0  0.38760224770E+01 -0.13166433479E+02  0.28270809635E+00  0.13728016788E+02  0.51100000000E-03 0. -1.
        -11    1    3    3    0    0  0.86990413454E+01 -0.91476233133E+01 -0.11558850840E+02  0.17116055784E+02  0.51100000000E-03 0.  1.
        -12    1    3    3    0    0 -0.10412176176E+01 -0.15897311293E+02 -0.57674592451E+01  0.16943205913E+02  0.00000000000E+00 0.  1.
</event>
<event>
 7    1  0.2700100E-010  0.4778727E+02  0.7816164E-02  0.1312668E+00
        -11   -1    0    0    0    0  0.00000000000E+00  0.00000000000E+00  0.45593999997E+02  0.45594000000E+02  0.51100000000E-03 0. -1.
         11   -1    0    0    0    0 -0.00000000000E+00 -0.00000000000E+00 -0.45593999997E+02  0.45594000000E+02  0.51100000000E-03 0.  1.
    9900012    2    1    2    0    0  0.81489007642E+01 -0.38130663283E+02  0.19059675807E+02  0.47787270652E+02  0.19999998211E+02 0.  0.
        -12    1    1    2    0    0 -0.81489007642E+01  0.38130663283E+02 -0.19059675807E+02  0.43400729348E+02  0.00000000000E+00 0.  1.
         11    1    3    3    0    0  0.74358327116E+01 -0.30618516339E+02  0.10030502583E+02  0.33066540993E+02  0.51100000000E-03 0. -1.
        -11    1    3    3    0    0  0.45152809912E+01 -0.38352543826E+01  0.66936112525E+01  0.89387566513E+01  0.51100000000E-03 0.  1.
         12    1    3    3    0    0 -0.38022129386E+01 -0.36768925617E+01  0.23355619715E+01  0.57819730079E+01  0.00000000000E+00 0. -1.
</event>
<event>
 7    1  0.2700100E-010  0.4778728E+02  0.7816164E-02  0.1312668E+00
        -11   -1    0    0    0    0  0.00000000000E+00  0.00000000000E+00  0.45593999997E+02  0.45594000000E+02  0.51100000000E-03 0.  1.
         11   -1    0    0    0    0 -0.00000000000E+00 -0.00000000000E+00 -0.45593999997E+02  0.45594000000E+02  0.51100000000E-03 0. -1.
    9900012    2    1    2    0    0  0.14780257260E+02  0.12156352509E+02 -0.38953689517E+02  0.47787276066E+02  0.20000022894E+02 0.  0.
        -12    1    1    2    0    0 -0.14780257260E+02 -0.12156352509E+02  0.38953689517E+02  0.43400723934E+02  0.00000000000E+00 0.  1.
         11    1    3    3    0    0  0.16095050404E+02  0.94715120088E+01 -0.19779398927E+02  0.27202661808E+02  0.51100000000E-03 0. -1.
        -11    1    3    3    0    0 -0.79444734648E+00 -0.35699260190E+00 -0.16435437765E+02  0.16458499479E+02  0.51100000000E-03 0.  1.
        -12    1    3    3    0    0 -0.52034579831E+00  0.30418331023E+01 -0.27388528254E+01  0.41261147792E+01  0.00000000000E+00 0.  1.
</event>
<event>
 7    1  0.2700100E-010  0.4778727E+02  0.7816164E-02  0.1312668E+00
        -11   -1    0    0    0    0  0.00000000000E+00  0.00000000000E+00  0.45593999997E+02  0.45594000000E+02  0.51100000000E-03 0.  1.
         11   -1    0    0    0    0 -0.00000000000E+00 -0.00000000000E+00 -0.45593999997E+02  0.45594000000E+02  0.51100000000E-03 0. -1.
    9900012    2    1    2    0    0  0.14646074164E+02 -0.35785758786E+02 -0.19710282990E+02  0.47787271021E+02  0.19999999895E+02 0.  0.
        -12    1    1    2    0    0 -0.14646074164E+02  0.35785758786E+02  0.19710282990E+02  0.43400728979E+02  0.00000000000E+00 0.  1.
         11    1    3    3    0    0  0.13560175001E+02 -0.16619975971E+02 -0.11053480006E+02  0.24130506995E+02  0.51100000000E-03 0. -1.
        -11    1    3    3    0    0 -0.31810537515E+01 -0.63496797746E+01 -0.71291219352E+01  0.10062897994E+02  0.51100000000E-03 0.  1.
        -12    1    3    3    0    0  0.42669529152E+01 -0.12816103040E+02 -0.15276810488E+01  0.13593866033E+02  0.00000000000E+00 0.  1.
</event>
<event>
 7    1  0.2700100E-010  0.4778727E+02  0.7816164E-02  0.1312668E+00
        -11   -1    0    0    0    0  0.00000000000E+00  0.00000000000E+00  0.45593999997E+02  0.45594000000E+02  0.51100000000E-03 0.  1.
         11   -1    0    0    0    0 -0.00000000000E+00 -0.00000000000E+00 -0.45593999997E+02  0.45594000000E+02  0.51100000000E-03 0. -1.
    9900012    2    1    2    0    0 -0.28867104254E+02  0.83894335930E+01 -0.31303852055E+02  0.47787268929E+02  0.19999990354E+02 0.  0.
        -12    1    1    2    0    0  0.28867104254E+02 -0.83894335930E+01  0.31303852055E+02  0.43400731071E+02  0.00000000000E+00 0.  1.
         11    1    3    3    0    0 -0.67038258664E+01  0.77841957450E+00 -0.36149330675E+01  0.76560407277E+01  0.51100000000E-03 0. -1.
        -11    1    3    3    0    0 -0.34572241448E+01 -0.52101883808E+01 -0.75373776702E+01  0.97933918616E+01  0.51100000000E-03 0.  1.
        -12    1    3    3    0    0 -0.18706054243E+02  0.12821202399E+02 -0.20151541317E+02  0.30337836340E+02  0.00000000000E+00 0.  1.
</event>
<event>
 7    1  0.2700100E-010  0.4778726E+02  0.7816164E-02  0.1312668E+00
        -11   -1    0    0    0    0  0.00000000000E+00  0.00000000000E+00  0.45593999997E+02  0.45594000000E+02  0.51100000000E-03 0.  1.
         11   -1    0    0    0    0 -0.00000000000E+00 -0.00000000000E+00 -0.45593999997E+02  0.45594000000E+02  0.51100000000E-03 0. -1.
    9900012    2    1    2    0    0 -0.19123769862E+02  0.28561256948E+01 -0.38855479195E+02  0.47787259325E+02  0.19999946565E+02 0.  0.
        -12    1    1    2    0    0  0.19123769862E+02 -0.28561256948E+01  0.38855479195E+02  0.43400740675E+02  0.00000000000E+00 0.  1.
         11    1    3    3    0    0 -0.11742334442E+02 -0.51223786387E+01 -0.11462340910E+02  0.17190300767E+02  0.51100000000E-03 0.  1.
        -11    1    3    3    0    0 -0.31368793896E+01 -0.94518143700E-01 -0.22808084463E+01  0.38795661374E+01  0.51100000000E-03 0. -1.
         12    1    3    3    0    0 -0.42445560299E+01  0.80730224773E+01 -0.25112329839E+02  0.26717392420E+02  0.00000000000E+00 0. -1.
</event>
<event>
 7    1  0.2700100E-010  0.4778722E+02  0.7816164E-02  0.1312668E+00
        -11   -1    0    0    0    0  0.00000000000E+00  0.00000000000E+00  0.45593999997E+02  0.45594000000E+02  0.51100000000E-03 0.  1.
         11   -1    0    0    0    0 -0.00000000000E+00 -0.00000000000E+00 -0.45593999997E+02  0.45594000000E+02  0.51100000000E-03 0. -1.
    9900012    2    1    2    0    0  0.24417527227E+02  0.24727596875E+02 -0.25999188738E+02  0.47787222378E+02  0.19999778110E+02 0.  0.
        -12    1    1    2    0    0 -0.24417527227E+02 -0.24727596875E+02  0.25999188738E+02  0.43400777622E+02  0.00000000000E+00 0.  1.
         11    1    3    3    0    0  0.25561966625E+01  0.13575761603E+02 -0.91201739010E+01  0.16553338537E+02  0.51100000000E-03 0. -1.
        -11    1    3    3    0    0  0.76519427317E+01 -0.75686830674E+00 -0.40741577597E+01  0.87019445479E+01  0.51100000000E-03 0.  1.
         12    1    3    3    0    0  0.14209387833E+02  0.11908703578E+02 -0.12804857078E+02  0.22531939293E+02  0.00000000000E+00 0. -1.
</event>
<event>
 7    1  0.2700100E-010  0.4778727E+02  0.7816164E-02  0.1312668E+00
        -11   -1    0    0    0    0  0.00000000000E+00  0.00000000000E+00  0.45593999997E+02  0.45594000000E+02  0.51100000000E-03 0.  1.
         11   -1    0    0    0    0 -0.00000000000E+00 -0.00000000000E+00 -0.45593999997E+02  0.45594000000E+02  0.51100000000E-03 0. -1.
    9900012    2    1    2    0    0  0.20007891686E+02  0.10249262700E+02 -0.37124927058E+02  0.47787270459E+02  0.19999997331E+02 0.  0.
        -12    1    1    2    0    0 -0.20007891686E+02 -0.10249262700E+02  0.37124927058E+02  0.43400729541E+02  0.00000000000E+00 0.  1.
         11    1    3    3    0    0  0.48139581381E+01 -0.55561530771E+00 -0.22176247604E+02  0.22699534343E+02  0.51100000000E-03 0. -1.
        -11    1    3    3    0    0  0.63660496942E+01  0.27369748214E+01 -0.14984368282E+01  0.70896356092E+01  0.51100000000E-03 0.  1.
         12    1    3    3    0    0  0.88278838540E+01  0.80679031863E+01 -0.13450242626E+02  0.17998100507E+02  0.00000000000E+00 0. -1.
</event>
<event>
 7    1  0.2700100E-010  0.4778727E+02  0.7816164E-02  0.1312668E+00
        -11   -1    0    0    0    0  0.00000000000E+00  0.00000000000E+00  0.45593999997E+02  0.45594000000E+02  0.51100000000E-03 0.  1.
         11   -1    0    0    0    0 -0.00000000000E+00 -0.00000000000E+00 -0.45593999997E+02  0.45594000000E+02  0.51100000000E-03 0. -1.
    9900012    2    1    2    0    0 -0.37846164328E+02 -0.57594408728E+01 -0.20447973768E+02  0.47787274837E+02  0.20000017290E+02 0.  0.
        -12    1    1    2    0    0  0.37846164328E+02  0.57594408728E+01  0.20447973768E+02  0.43400725163E+02  0.00000000000E+00 0.  1.
         11    1    3    3    0    0 -0.20780041038E+01 -0.41865581866E+01 -0.71231246376E+01  0.85196405657E+01  0.51100000000E-03 0. -1.
        -11    1    3    3    0    0 -0.12872419712E+02  0.18745835593E+01 -0.10222814362E+01  0.13048306877E+02  0.51100000000E-03 0.  1.
         12    1    3    3    0    0 -0.22895740512E+02 -0.34474662455E+01 -0.12302567695E+02  0.26219327394E+02  0.00000000000E+00 0. -1.
</event>
<event>
 7    1  0.2700100E-010  0.4778727E+02  0.7816164E-02  0.1312668E+00
        -11   -1    0    0    0    0  0.00000000000E+00  0.00000000000E+00  0.45593999997E+02  0.45594000000E+02  0.51100000000E-03 0.  1.
         11   -1    0    0    0    0 -0.00000000000E+00 -0.00000000000E+00 -0.45593999997E+02  0.45594000000E+02  0.51100000000E-03 0. -1.
    9900012    2    1    2    0    0 -0.23336135528E+02  0.27210222336E+02 -0.24467362818E+02  0.47787271156E+02  0.20000000507E+02 0.  0.
        -12    1    1    2    0    0  0.23336135528E+02 -0.27210222336E+02  0.24467362818E+02  0.43400728844E+02  0.00000000000E+00 0.  1.
         11    1    3    3    0    0 -0.16877292886E+02  0.86028594585E+01 -0.12814038762E+02  0.22870325657E+02  0.51100000000E-03 0. -1.
        -11    1    3    3    0    0  0.74154879156E-01 -0.11151370993E+01 -0.12657686598E+01  0.16885497498E+01  0.51100000000E-03 0.  1.
         12    1    3    3    0    0 -0.65329975217E+01  0.19722499977E+02 -0.10387555396E+02  0.23228395749E+02  0.00000000000E+00 0. -1.
</event>
<event>
 7    1  0.2700100E-010  0.4778727E+02  0.7816164E-02  0.1312668E+00
        -11   -1    0    0    0    0  0.00000000000E+00  0.00000000000E+00  0.45593999997E+02  0.45594000000E+02  0.51100000000E-03 0. -1.
         11   -1    0    0    0    0 -0.00000000000E+00 -0.00000000000E+00 -0.45593999997E+02  0.45594000000E+02  0.51100000000E-03 0.  1.
    9900012    2    1    2    0    0  0.88708495287E+01 -0.49348523815E+01  0.42196902876E+02  0.47787270148E+02  0.19999995912E+02 0.  0.
        -12    1    1    2    0    0 -0.88708495287E+01  0.49348523815E+01 -0.42196902876E+02  0.43400729852E+02  0.00000000000E+00 0.  1.
         11    1    3    3    0    0  0.11193864429E+02 -0.61957603540E+01  0.27936105584E+02  0.30726471367E+02  0.51100000000E-03 0. -1.
        -11    1    3    3    0    0  0.50502266086E+00 -0.12252489431E+01  0.13033008097E+02  0.13100213096E+02  0.51100000000E-03 0.  1.
         12    1    3    3    0    0 -0.28280375612E+01  0.24861569156E+01  0.12277891955E+01  0.39605856846E+01  0.00000000000E+00 0. -1.
</event>
<event>
 7    1 -0.2700100E-010  0.4778728E+02  0.7816164E-02  0.1312668E+00
        -11   -1    0    0    0    0  0.00000000000E+00  0.00000000000E+00  0.45593999997E+02  0.45594000000E+02  0.51100000000E-03 0.  1.
         11   -1    0    0    0    0 -0.00000000000E+00 -0.00000000000E+00 -0.45593999997E+02  0.45594000000E+02  0.51100000000E-03 0. -1.
    9900012    2    1    2    0    0 -0.10734334021E+02 -0.22709938607E+02 -0.35392872061E+02  0.47787278449E+02  0.20000033762E+02 0.  0.
        -12    1    1    2    0    0  0.10734334021E+02  0.22709938607E+02  0.35392872061E+02  0.43400721551E+02  0.00000000000E+00 0.  1.
         11    1    3    3    0    0 -0.52897875301E+01 -0.88235648490E+01 -0.16207283967E+02  0.19196697701E+02  0.51100000000E-03 0. -1.
        -11    1    3    3    0    0  0.31228030222E+01 -0.11893117943E+02 -0.12571003244E+02  0.17584887715E+02  0.51100000000E-03 0.  1.
        -12    1    3    3    0    0 -0.85673495133E+01 -0.19932558150E+01 -0.66145848495E+01  0.11005693034E+02  0.00000000000E+00 0.  1.
</event>
<event>
 7    1  0.2700100E-010  0.4778726E+02  0.7816164E-02  0.1312668E+00
        -11   -1    0    0    0    0  0.00000000000E+00  0.00000000000E+00  0.45593999997E+02  0.45594000000E+02  0.51100000000E-03 0.  1.
         11   -1    0    0    0    0 -0.00000000000E+00 -0.00000000000E+00 -0.45593999997E+02  0.45594000000E+02  0.51100000000E-03 0. -1.
    9900012    2    1    2    0    0 -0.32826821785E+02 -0.12223732381E+01 -0.28364227450E+02  0.47787264710E+02  0.19999971120E+02 0.  0.
        -12    1    1    2    0    0  0.32826821785E+02  0.12223732381E+01  0.28364227450E+02  0.43400735290E+02  0.00000000000E+00 0.  1.
         11    1    3    3    0    0 -0.22011950211E+02 -0.49105059183E+01 -0.11551175993E+02  0.25339074323E+02  0.51100000000E-03 0. -1.
        -11    1    3    3    0    0 -0.25700602267E+01  0.58121352238E+01 -0.68928292613E+01  0.93753517755E+01  0.51100000000E-03 0.  1.
        -12    1    3    3    0    0 -0.82448113481E+01 -0.21240025436E+01 -0.99202221952E+01  0.13072838612E+02  0.00000000000E+00 0.  1.
</event>
<event>
 7    1  0.2700100E-010  0.4778724E+02  0.7816164E-02  0.1312668E+00
        -11   -1    0    0    0    0  0.00000000000E+00  0.00000000000E+00  0.45593999997E+02  0.45594000000E+02  0.51100000000E-03 0.  1.
         11   -1    0    0    0    0 -0.00000000000E+00 -0.00000000000E+00 -0.45593999997E+02  0.45594000000E+02  0.51100000000E-03 0. -1.
    9900012    2    1    2    0    0 -0.27329636471E+02 -0.16331825365E+02 -0.29495561488E+02  0.47787243130E+02  0.19999872724E+02 0.  0.
        -12    1    1    2    0    0  0.27329636471E+02  0.16331825365E+02  0.29495561488E+02  0.43400756870E+02  0.00000000000E+00 0.  1.
         11    1    3    3    0    0 -0.51194275998E+01  0.24813793395E+00  0.17942465068E+01  0.54304173111E+01  0.51100000000E-03 0. -1.
        -11    1    3    3    0    0 -0.15658430498E+02 -0.94238971456E+01 -0.24269636377E+02  0.30381104872E+02  0.51100000000E-03 0.  1.
        -12    1    3    3    0    0 -0.65517783736E+01 -0.71560661536E+01 -0.70201716179E+01  0.11975720947E+02  0.00000000000E+00 0.  1.
</event>
<event>
 7    1  0.2700100E-010  0.4778731E+02  0.7816164E-02  0.1312668E+00
        -11   -1    0    0    0    0  0.00000000000E+00  0.00000000000E+00  0.45593999997E+02  0.45594000000E+02  0.51100000000E-03 0.  1.
         11   -1    0    0    0    0 -0.00000000000E+00 -0.00000000000E+00 -0.45593999997E+02  0.45594000000E+02  0.51100000000E-03 0. -1.
    9900012    2    1    2    0    0 -0.18856238519E+02 -0.24572470241E+02 -0.30401580409E+02  0.47787307423E+02  0.20000165863E+02 0.  0.
        -12    1    1    2    0    0  0.18856238519E+02  0.24572470241E+02  0.30401580409E+02  0.43400692577E+02  0.00000000000E+00 0.  1.
         11    1    3    3    0    0 -0.13216830000E+02 -0.10664527480E+02 -0.25209946764E+02  0.30396680045E+02  0.51100000000E-03 0. -1.
        -11    1    3    3    0    0 -0.69344887408E+01 -0.11505479197E+02 -0.27152620137E+01  0.13705321365E+02  0.51100000000E-03 0.  1.
         12    1    3    3    0    0  0.12950802221E+01 -0.24024635637E+01 -0.24763716309E+01  0.36853060132E+01  0.00000000000E+00 0. -1.
</event>
<event>
 7    1  0.2700100E-010  0.4778728E+02  0.7816164E-02  0.1312668E+00
        -11   -1    0    0    0    0  0.00000000000E+00  0.00000000000E+00  0.45593999997E+02  0.45594000000E+02  0.51100000000E-03 0.  1.
         11   -1    0    0    0    0 -0.00000000000E+00 -0.00000000000E+00 -0.45593999997E+02  0.45594000000E+02  0.51100000000E-03 0. -1.
    9900012    2    1    2    0    0  0.18665922170E+02  0.39180451030E+02  0.31254888642E+00  0.47787284796E+02  0.20000062699E+02 0.  0.
        -12    1    1    2    0    0 -0.18665922170E+02 -0.39180451030E+02 -0.31254888642E+00  0.43400715204E+02  0.00000000000E+00 0.  1.
         11    1    3    3    0    0  0.11192508025E+02  0.27339873261E+02 -0.70268767234E+01  0.30366394296E+02  0.51100000000E-03 0. -1.
        -11    1    3    3    0    0 -0.71163231828E+00  0.29653856498E+01  0.37333850702E+01  0.48205909338E+01  0.51100000000E-03 0.  1.
         12    1    3    3    0    0  0.81850464638E+01  0.88751921201E+01  0.36060405397E+01  0.12600299566E+02  0.00000000000E+00 0. -1.
</event>
<event>
 7    1  0.2700100E-010  0.4778727E+02  0.7816164E-02  0.1312668E+00
        -11   -1    0    0    0    0  0.00000000000E+00  0.00000000000E+00  0.45593999997E+02  0.45594000000E+02  0.51100000000E-03 0. -1.
         11   -1    0    0    0    0 -0.00000000000E+00 -0.00000000000E+00 -0.45593999997E+02  0.45594000000E+02  0.51100000000E-03 0.  1.
    9900012    2    1    2    0    0  0.25548598090E+02  0.31959093568E+02  0.14474411383E+02  0.47787272921E+02  0.20000008558E+02 0.  0.
        -12    1    1    2    0    0 -0.25548598090E+02 -0.31959093568E+02 -0.14474411383E+02  0.43400727079E+02  0.00000000000E+00 0.  1.
         11    1    3    3    0    0  0.70062341701E+01  0.21292214107E+02  0.13463892606E+02  0.26148080297E+02  0.51100000000E-03 0. -1.
        -11    1    3    3    0    0  0.16854514992E+02  0.10519248401E+02  0.13408840166E+01  0.19912991557E+02  0.51100000000E-03 0.  1.
         12    1    3    3    0    0  0.16878489280E+01  0.14763105915E+00 -0.33036523952E+00  0.17262010673E+01  0.00000000000E+00 0. -1.
</event>
<event>
 7    1  0.2700100E-010  0.4778728E+02  0.7816164E-02  0.1312668E+00
        -11   -1    0    0    0    0  0.00000000000E+00  0.00000000000E+00  0.45593999997E+02  0.45594000000E+02  0.51100000000E-03 0.  1.
         11   -1    0    0    0    0 -0.00000000000E+00 -0.00000000000E+00 -0.45593999997E+02  0.45594000000E+02  0.51100000000E-03 0. -1.
    9900012    2    1    2    0    0 -0.30828356081E+02 -0.13441747561E+02 -0.27432728474E+02  0.47787277568E+02  0.20000029742E+02 0.  0.
        -12    1    1    2    0    0  0.30828356081E+02  0.13441747561E+02  0.27432728474E+02  0.43400722432E+02  0.00000000000E+00 0.  1.
         11    1    3    3    0    0 -0.15912927710E+02 -0.95872587623E+01 -0.15570315377E+02  0.24239874589E+02  0.51100000000E-03 0. -1.
        -11    1    3    3    0    0 -0.62283702010E+01  0.48689913816E+01 -0.59235689048E+01  0.98786811502E+01  0.51100000000E-03 0.  1.
        -12    1    3    3    0    0 -0.86870581700E+01 -0.87234801800E+01 -0.59388441915E+01  0.13668721829E+02  0.00000000000E+00 0.  1.
</event>
<event>
 7    1  0.2700100E-010  0.4778727E+02  0.7816164E-02  0.1312668E+00
        -11   -1    0    0    0    0  0.00000000000E+00  0.00000000000E+00  0.45593999997E+02  0.45594000000E+02  0.51100000000E-03 0. -1.
         11   -1    0    0    0    0 -0.00000000000E+00 -0.00000000000E+00 -0.45593999997E+02  0.45594000000E+02  0.51100000000E-03 0.  1.
    9900012    2    1    2    0    0 -0.10565869845E+02  0.24070996031E+02  0.34533646729E+02  0.47787271758E+02  0.20000003255E+02 0.  0.
        -12    1    1    2    0    0  0.10565869845E+02 -0.24070996031E+02 -0.34533646729E+02  0.43400728242E+02  0.00000000000E+00 0.  1.
         11    1    3    3    0    0 -0.16609427586E+01  0.69071436572E+01  0.22804199599E+02  0.23885118462E+02  0.51100000000E-03 0. -1.
        -11    1    3    3    0    0 -0.19445502631E+01  0.13651345688E+01 -0.86922796153E+00  0.25299062486E+01  0.51100000000E-03 0.  1.
         12    1    3    3    0    0 -0.69603768232E+01  0.15798717805E+02  0.12598675092E+02  0.21372247048E+02  0.00000000000E+00 0. -1.
</event>
<event>
 7    1  0.2700100E-010  0.4778727E+02  0.7816164E-02  0.1312668E+00
        -11   -1    0    0    0    0  0.00000000000E+00  0.00000000000E+00  0.45593999997E+02  0.45594000000E+02  0.51100000000E-03 0.  1.
         11   -1    0    0    0    0 -0.00000000000E+00 -0.00000000000E+00 -0.45593999997E+02  0.45594000000E+02  0.51100000000E-03 0. -1.
    9900012    2    1    2    0    0 -0.43943157175E+01 -0.43031540423E+02 -0.35496032585E+01  0.47787272297E+02  0.20000005712E+02 0.  0.
        -12    1    1    2    0    0  0.43943157175E+01  0.43031540423E+02  0.35496032585E+01  0.43400727703E+02  0.00000000000E+00 0.  1.
         11    1    3    3    0    0 -0.11175239105E+01 -0.88784102439E+01 -0.69384678635E+00  0.89753246054E+01  0.51100000000E-03 0. -1.
        -11    1    3    3    0    0  0.45830036206E+01 -0.28037687904E+02  0.14790257058E+00  0.28410169669E+02  0.51100000000E-03 0.  1.
        -12    1    3    3    0    0 -0.78597954277E+01 -0.61154422759E+01 -0.30036590428E+01  0.10401778023E+02  0.00000000000E+00 0.  1.
</event>
<event>
 7    1  0.2700100E-010  0.4778729E+02  0.7816164E-02  0.1312668E+00
        -11   -1    0    0    0    0  0.00000000000E+00  0.00000000000E+00  0.45593999997E+02  0.45594000000E+02  0.51100000000E-03 0.  1.
         11   -1    0    0    0    0 -0.00000000000E+00 -0.00000000000E+00 -0.45593999997E+02  0.45594000000E+02  0.51100000000E-03 0. -1.
    9900012    2    1    2    0    0  0.96938337308E+01  0.42244231687E+02 -0.22531171381E+01  0.47787285028E+02  0.20000063757E+02 0.  0.
        -12    1    1    2    0    0 -0.96938337308E+01 -0.42244231687E+02  0.22531171381E+01  0.43400714972E+02  0.00000000000E+00 0.  1.
         11    1    3    3    0    0  0.56740205114E+01  0.37850998120E+02  0.25128936584E+00  0.38274739895E+02  0.51100000000E-03 0. -1.
        -11    1    3    3    0    0  0.14539609949E+01  0.40709251411E+01 -0.45046230864E+01  0.62432414250E+01  0.51100000000E-03 0.  1.
         12    1    3    3    0    0  0.25658522245E+01  0.32230842641E+00  0.20002165824E+01  0.32693037082E+01  0.00000000000E+00 0. -1.
</event>
<event>
 7    1  0.2700100E-010  0.4778727E+02  0.7816164E-02  0.1312668E+00
        -11   -1    0    0    0    0  0.00000000000E+00  0.00000000000E+00  0.45593999997E+02  0.45594000000E+02  0.51100000000E-03 0.  1.
         11   -1    0    0    0    0 -0.00000000000E+00 -0.00000000000E+00 -0.45593999997E+02  0.45594000000E+02  0.51100000000E-03 0. -1.
    9900012    2    1    2    0    0  0.10999447750E+01  0.27922405121E+02 -0.33207718827E+02  0.47787272173E+02  0.20000005144E+02 0.  0.
        -12    1    1    2    0    0 -0.10999447750E+01 -0.27922405121E+02  0.33207718827E+02  0.43400727827E+02  0.00000000000E+00 0.  1.
         11    1    3    3    0    0 -0.31456324605E+01  0.14837642922E+02 -0.26749628375E+02  0.30750500314E+02  0.51100000000E-03 0. -1.
        -11    1    3    3    0    0  0.48854272267E+01  0.34037051884E+01 -0.34375868138E+01  0.68752899255E+01  0.51100000000E-03 0.  1.
         12    1    3    3    0    0 -0.63984999125E+00  0.96810570108E+01 -0.30205036378E+01  0.10161481933E+02  0.00000000000E+00 0. -1.
</event>
<event>
 7    1  0.2700100E-010  0.4778727E+02  0.7816164E-02  0.1312668E+00
        -11   -1    0    0    0    0  0.00000000000E+00  0.00000000000E+00  0.45593999997E+02  0.45594000000E+02  0.51100000000E-03 0. -1.
         11   -1    0    0    0    0 -0.00000000000E+00 -0.00000000000E+00 -0.45593999997E+02  0.45594000000E+02  0.51100000000E-03 0.  1.
    9900012    2    1    2    0    0 -0.16042266384E+02 -0.32225200130E+02  0.24244697629E+02  0.47787271927E+02  0.20000004025E+02 0.  0.
        -12    1    1    2    0    0  0.16042266384E+02  0.32225200130E+02 -0.24244697629E+02  0.43400728073E+02  0.00000000000E+00 0.  1.
         11    1    3    3    0    0  0.32200575515E-01  0.20338536968E+01  0.19025669094E+01  0.27852035550E+01  0.51100000000E-03 0. -1.
        -11    1    3    3    0    0 -0.12495598888E+00 -0.37221876870E+00 -0.85958598298E+00  0.94501276933E+00  0.51100000000E-03 0.  1.
         12    1    3    3    0    0 -0.15949510971E+02 -0.33886835058E+02  0.23201716703E+02  0.44057055603E+02  0.00000000000E+00 0. -1.
</event>
<event>
 7    1  0.2700100E-010  0.4778727E+02  0.7816164E-02  0.1312668E+00
        -11   -1    0    0    0    0  0.00000000000E+00  0.00000000000E+00  0.45593999997E+02  0.45594000000E+02  0.51100000000E-03 0.  1.
         11   -1    0    0    0    0 -0.00000000000E+00 -0.00000000000E+00 -0.45593999997E+02  0.45594000000E+02  0.51100000000E-03 0. -1.
    9900012    2    1    2    0    0  0.29730012689E+02  0.10995523138E+02 -0.29645374554E+02  0.47787269407E+02  0.19999992536E+02 0.  0.
        -12    1    1    2    0    0 -0.29730012689E+02 -0.10995523138E+02  0.29645374554E+02  0.43400730593E+02  0.00000000000E+00 0.  1.
         11    1    3    3    0    0  0.23666908034E+01  0.78833188593E+01 -0.21234788772E+01  0.85004178956E+01  0.51100000000E-03 0. -1.
        -11    1    3    3    0    0  0.15255092568E+02 -0.49378498109E+00 -0.16989202524E+02  0.22838447310E+02  0.51100000000E-03 0.  1.
         12    1    3    3    0    0  0.12108229317E+02  0.36059892600E+01 -0.10532693153E+02  0.16448404202E+02  0.00000000000E+00 0. -1.
</event>
<event>
 7    1  0.2700100E-010  0.4778727E+02  0.7816164E-02  0.1312668E+00
        -11   -1    0    0    0    0  0.00000000000E+00  0.00000000000E+00  0.45593999997E+02  0.45594000000E+02  0.51100000000E-03 0. -1.
         11   -1    0    0    0    0 -0.00000000000E+00 -0.00000000000E+00 -0.45593999997E+02  0.45594000000E+02  0.51100000000E-03 0.  1.
    9900012    2    1    2    0    0 -0.35172871196E+02  0.84172913198E+01  0.23992529147E+02  0.47787272861E+02  0.20000008281E+02 0.  0.
        -12    1    1    2    0    0  0.35172871196E+02 -0.84172913198E+01 -0.23992529147E+02  0.43400727139E+02  0.00000000000E+00 0.  1.
         11    1    3    3    0    0 -0.14584208844E+02  0.46807078836E+01  0.19103531182E+02  0.24485772966E+02  0.51100000000E-03 0. -1.
        -11    1    3    3    0    0 -0.91320445131E+01  0.32901306004E+01 -0.20210901868E+01  0.99148374752E+01  0.51100000000E-03 0.  1.
        -12    1    3    3    0    0 -0.11456617839E+02  0.44645283580E+00  0.69100881525E+01  0.13386662419E+02  0.00000000000E+00 0.  1.
</event>
<event>
 7    1  0.2700100E-010  0.4778727E+02  0.7816164E-02  0.1312668E+00
        -11   -1    0    0    0    0  0.00000000000E+00  0.00000000000E+00  0.45593999997E+02  0.45594000000E+02  0.51100000000E-03 0.  1.
         11   -1    0    0    0    0 -0.00000000000E+00 -0.00000000000E+00 -0.45593999997E+02  0.45594000000E+02  0.51100000000E-03 0. -1.
    9900012    2    1    2    0    0  0.13303438536E+02  0.30220787912E+02 -0.28166394120E+02  0.47787271243E+02  0.20000000907E+02 0.  0.
        -12    1    1    2    0    0 -0.13303438536E+02 -0.30220787912E+02  0.28166394120E+02  0.43400728757E+02  0.00000000000E+00 0.  1.
         11    1    3    3    0    0 -0.22850506029E+01  0.13845478292E+02 -0.11486726779E+02  0.18134597259E+02  0.51100000000E-03 0. -1.
        -11    1    3    3    0    0  0.11720202264E+02  0.16720355534E+02 -0.12471888104E+02  0.23926584032E+02  0.51100000000E-03 0.  1.
        -12    1    3    3    0    0  0.38682868752E+01 -0.34504591504E+00 -0.42077792376E+01  0.57260899526E+01  0.00000000000E+00 0.  1.
</event>
<event>
 7    1  0.2700100E-010  0.4778727E+02  0.7816164E-02  0.1312668E+00
        -11   -1    0    0    0    0  0.00000000000E+00  0.00000000000E+00  0.45593999997E+02  0.45594000000E+02  0.51100000000E-03 0.  1.
         11   -1    0    0    0    0 -0.00000000000E+00 -0.00000000000E+00 -0.45593999997E+02  0.45594000000E+02  0.51100000000E-03 0. -1.
    9900012    2    1    2    0    0  0.94775278987E+01  0.40434027597E+02 -0.12605118980E+02  0.47787272503E+02  0.20000006651E+02 0.  0.
        -12    1    1    2    0    0 -0.94775278987E+01 -0.40434027597E+02  0.12605118980E+02  0.43400727497E+02  0.00000000000E+00 0.  1.
         11    1    3    3    0    0  0.37728084679E+01 -0.26811803004E+00 -0.22921015040E+00  0.37892622722E+01  0.51100000000E-03 0. -1.
        -11    1    3    3    0    0  0.28091040088E+01  0.37490316147E+02 -0.12645689240E+02  0.39665202971E+02  0.51100000000E-03 0.  1.
         12    1    3    3    0    0  0.28956154220E+01  0.32118294796E+01  0.26978041095E+00  0.43328072596E+01  0.00000000000E+00 0. -1.
</event>
<event>
 7    1  0.2700100E-010  0.4778730E+02  0.7816164E-02  0.1312668E+00
        -11   -1    0    0    0    0  0.00000000000E+00  0.00000000000E+00  0.45593999997E+02  0.45594000000E+02  0.51100000000E-03 0. -1.
         11   -1    0    0    0    0 -0.00000000000E+00 -0.00000000000E+00 -0.45593999997E+02  0.45594000000E+02  0.51100000000E-03 0.  1.
    9900012    2    1    2    0    0  0.36786728613E+02  0.30656715983E+01  0.22824522902E+02  0.47787301963E+02  0.20000140970E+02 0.  0.
        -12    1    1    2    0    0 -0.36786728613E+02 -0.30656715983E+01 -0.22824522902E+02  0.43400698037E+02  0.00000000000E+00 0.  1.
         11    1    3    3    0    0  0.11478982233E+02  0.17295575948E+01  0.14742210306E+02  0.18764092505E+02  0.51100000000E-03 0. -1.
        -11    1    3    3    0    0  0.26464652273E+02  0.19157669015E+01  0.80524615841E+01  0.27728868000E+02  0.51100000000E-03 0.  1.
        -12    1    3    3    0    0 -0.11569058930E+01 -0.57965289789E+00  0.29851012260E-01  0.12943414581E+01  0.00000000000E+00 0.  1.
</event>
<event>
 7    1  0.2700100E-010  0.4778727E+02  0.7816164E-02  0.1312668E+00
        -11   -1    0    0    0    0  0.00000000000E+00  0.00000000000E+00  0.45593999997E+02  0.45594000000E+02  0.51100000000E-03 0.  1.
         11   -1    0    0    0    0 -0.00000000000E+00 -0.00000000000E+00 -0.45593999997E+02  0.45594000000E+02  0.51100000000E-03 0. -1.
    9900012    2    1    2    0    0 -0.26194233195E+02 -0.11181069269E+02 -0.32748571227E+02  0.47787273277E+02  0.20000010181E+02 0.  0.
        -12    1    1    2    0    0  0.26194233195E+02  0.11181069269E+02  0.32748571227E+02  0.43400726723E+02  0.00000000000E+00 0.  1.
         11    1    3    3    0    0 -0.16988407405E+02 -0.25428158777E+01 -0.72624575810E+01  0.18649803997E+02  0.51100000000E-03 0. -1.
        -11    1    3    3    0    0 -0.61448870540E+01 -0.17829475505E+01 -0.14292110147E+02  0.15658957551E+02  0.51100000000E-03 0.  1.
         12    1    3    3    0    0 -0.30609387359E+01 -0.68553058404E+01 -0.11194003499E+02  0.13478511730E+02  0.00000000000E+00 0. -1.
</event>
<event>
 7    1  0.2700100E-010  0.4778729E+02  0.7816164E-02  0.1312668E+00
        -11   -1    0    0    0    0  0.00000000000E+00  0.00000000000E+00  0.45593999997E+02  0.45594000000E+02  0.51100000000E-03 0.  1.
         11   -1    0    0    0    0 -0.00000000000E+00 -0.00000000000E+00 -0.45593999997E+02  0.45594000000E+02  0.51100000000E-03 0. -1.
    9900012    2    1    2    0    0  0.27542431656E+02  0.15608832120E+02 -0.29688384525E+02  0.47787293124E+02  0.20000100668E+02 0.  0.
        -12    1    1    2    0    0 -0.27542431656E+02 -0.15608832120E+02  0.29688384525E+02  0.43400706876E+02  0.00000000000E+00 0.  1.
         11    1    3    3    0    0  0.11797954032E+02  0.16120191249E+02 -0.10865181101E+02  0.22739930648E+02  0.51100000000E-03 0. -1.
        -11    1    3    3    0    0  0.13905706796E+02 -0.15807621434E+01 -0.14096146983E+02  0.19863757209E+02  0.51100000000E-03 0.  1.
        -12    1    3    3    0    0  0.18387708281E+01  0.10694030140E+01 -0.47270564413E+01  0.51836052669E+01  0.00000000000E+00 0.  1.
</event>
<event>
 7    1  0.2700100E-010  0.4778727E+02  0.7816164E-02  0.1312668E+00
        -11   -1    0    0    0    0  0.00000000000E+00  0.00000000000E+00  0.45593999997E+02  0.45594000000E+02  0.51100000000E-03 0. -1.
         11   -1    0    0    0    0 -0.00000000000E+00 -0.00000000000E+00 -0.45593999997E+02  0.45594000000E+02  0.51100000000E-03 0.  1.
    9900012    2    1    2    0    0 -0.20559885765E+02 -0.15445899829E+02  0.34961962196E+02  0.47787268154E+02  0.19999986821E+02 0.  0.
        -12    1    1    2    0    0  0.20559885765E+02  0.15445899829E+02 -0.34961962196E+02  0.43400731846E+02  0.00000000000E+00 0.  1.
         11    1    3    3    0    0 -0.95877119655E+01 -0.10348318708E+02  0.25753070535E+02  0.29363796809E+02  0.51100000000E-03 0. -1.
        -11    1    3    3    0    0 -0.20933993330E+00  0.26329793310E+01  0.93891311157E+00  0.28032055681E+01  0.51100000000E-03 0.  1.
         12    1    3    3    0    0 -0.10762833866E+02 -0.77305604518E+01  0.82699785496E+01  0.15620265777E+02  0.00000000000E+00 0. -1.
</event>
<event>
 7    1  0.2700100E-010  0.4778727E+02  0.7816164E-02  0.1312668E+00
        -11   -1    0    0    0    0  0.00000000000E+00  0.00000000000E+00  0.45593999997E+02  0.45594000000E+02  0.51100000000E-03 0.  1.
         11   -1    0    0    0    0 -0.00000000000E+00 -0.00000000000E+00 -0.45593999997E+02  0.45594000000E+02  0.51100000000E-03 0. -1.
    9900012    2    1    2    0    0 -0.28366696433E+02  0.16727651064E+02 -0.28269060729E+02  0.47787267620E+02  0.19999984385E+02 0.  0.
        -12    1    1    2    0    0  0.28366696433E+02 -0.16727651064E+02  0.28269060729E+02  0.43400732380E+02  0.00000000000E+00 0.  1.
         11    1    3    3    0    0 -0.28445821939E+01 -0.15219113933E+01 -0.26950406581E+01  0.42037015304E+01  0.51100000000E-03 0. -1.
        -11    1    3    3    0    0 -0.23139755467E+01  0.90378909591E+01 -0.11880493157E+02  0.15105762931E+02  0.51100000000E-03 0.  1.
        -12    1    3    3    0    0 -0.23208138693E+02  0.92116714985E+01 -0.13693526914E+02  0.28477803158E+02  0.00000000000E+00 0.  1.
</event>
<event>
 7    1  0.2700100E-010  0.4778727E+02  0.7816164E-02  0.1312668E+00
        -11   -1    0    0    0    0  0.00000000000E+00  0.00000000000E+00  0.45593999997E+02  0.45594000000E+02  0.51100000000E-03 0.  1.
         11   -1    0    0    0    0 -0.00000000000E+00 -0.00000000000E+00 -0.45593999997E+02  0.45594000000E+02  0.51100000000E-03 0. -1.
    9900012    2    1    2    0    0  0.15122910798E+02  0.28103973264E+02 -0.29412374050E+02  0.47787268537E+02  0.19999988569E+02 0.  0.
        -12    1    1    2    0    0 -0.15122910798E+02 -0.28103973264E+02  0.29412374050E+02  0.43400731463E+02  0.00000000000E+00 0.  1.
         11    1    3    3    0    0  0.60625064844E+01  0.85061153725E+01 -0.17653116210E+02  0.20511959823E+02  0.51100000000E-03 0. -1.
        -11    1    3    3    0    0  0.13822781711E+01  0.16108794607E+02 -0.73860988976E+01  0.17775219094E+02  0.51100000000E-03 0.  1.
        -12    1    3    3    0    0  0.76781261424E+01  0.34890632843E+01 -0.43731589427E+01  0.95000896205E+01  0.00000000000E+00 0.  1.
</event>
<event>
 7    1  0.2700100E-010  0.4778726E+02  0.7816164E-02  0.1312668E+00
        -11   -1    0    0    0    0  0.00000000000E+00  0.00000000000E+00  0.45593999997E+02  0.45594000000E+02  0.51100000000E-03 0.  1.
         11   -1    0    0    0    0 -0.00000000000E+00 -0.00000000000E+00 -0.45593999997E+02  0.45594000000E+02  0.51100000000E-03 0. -1.
    9900012    2    1    2    0    0 -0.22505264594E+02 -0.95086667035E+01 -0.35870909838E+02  0.47787264413E+02  0.19999969763E+02 0.  0.
        -12    1    1    2    0    0  0.22505264594E+02  0.95086667035E+01  0.35870909838E+02  0.43400735587E+02  0.00000000000E+00 0.  1.
         11    1    3    3    0    0 -0.10067327652E+02 -0.52500296590E+01 -0.54322312066E+01  0.12586621215E+02  0.51100000000E-03 0. -1.
        -11    1    3    3    0    0 -0.33420711762E+01  0.25612384936E+01 -0.17397737789E+02  0.17900018514E+02  0.51100000000E-03 0.  1.
         12    1    3    3    0    0 -0.90958657653E+01 -0.68198755382E+01 -0.13040940842E+02  0.17300624683E+02  0.00000000000E+00 0. -1.
</event>
<event>
 7    1  0.2700100E-010  0.4778727E+02  0.7816164E-02  0.1312668E+00
        -11   -1    0    0    0    0  0.00000000000E+00  0.00000000000E+00  0.45593999997E+02  0.45594000000E+02  0.51100000000E-03 0.  1.
         11   -1    0    0    0    0 -0.00000000000E+00 -0.00000000000E+00 -0.45593999997E+02  0.45594000000E+02  0.51100000000E-03 0. -1.
    9900012    2    1    2    0    0 -0.13912547339E+02 -0.93715850595E+01 -0.40027959912E+02  0.47787272417E+02  0.20000006257E+02 0.  0.
        -12    1    1    2    0    0  0.13912547339E+02  0.93715850595E+01  0.40027959912E+02  0.43400727583E+02  0.00000000000E+00 0.  1.
         11    1    3    3    0    0 -0.85558217224E+01 -0.10815938764E+02 -0.28651170695E+02  0.31797424410E+02  0.51100000000E-03 0. -1.
        -11    1    3    3    0    0 -0.69289268822E+01  0.41673904019E+01 -0.84213207458E+01  0.11674579815E+02  0.51100000000E-03 0.  1.
        -12    1    3    3    0    0  0.15722012653E+01 -0.27230366969E+01 -0.29554684719E+01  0.43152681910E+01  0.00000000000E+00 0.  1.
</event>
<event>
 7    1  0.2700100E-010  0.4778727E+02  0.7816164E-02  0.1312668E+00
        -11   -1    0    0    0    0  0.00000000000E+00  0.00000000000E+00  0.45593999997E+02  0.45594000000E+02  0.51100000000E-03 0.  1.
         11   -1    0    0    0    0 -0.00000000000E+00 -0.00000000000E+00 -0.45593999997E+02  0.45594000000E+02  0.51100000000E-03 0. -1.
    9900012    2    1    2    0    0  0.28273027092E+02  0.23356453472E+02 -0.23210668822E+02  0.47787272737E+02  0.20000007719E+02 0.  0.
        -12    1    1    2    0    0 -0.28273027092E+02 -0.23356453472E+02  0.23210668822E+02  0.43400727263E+02  0.00000000000E+00 0.  1.
         11    1    3    3    0    0  0.26943795644E+02  0.22297416394E+02 -0.23331270879E+02  0.42041540203E+02  0.51100000000E-03 0. -1.
        -11    1    3    3    0    0  0.55068908415E+00  0.10526306255E+01  0.27541874476E+01  0.29994730302E+01  0.51100000000E-03 0.  1.
         12    1    3    3    0    0  0.77854236342E+00  0.64064529404E-02 -0.26335853904E+01  0.27462595039E+01  0.00000000000E+00 0. -1.
</event>
<event>
 7    1  0.2700100E-010  0.4778726E+02  0.7816164E-02  0.1312668E+00
        -11   -1    0    0    0    0  0.00000000000E+00  0.00000000000E+00  0.45593999997E+02  0.45594000000E+02  0.51100000000E-03 0. -1.
         11   -1    0    0    0    0 -0.00000000000E+00 -0.00000000000E+00 -0.45593999997E+02  0.45594000000E+02  0.51100000000E-03 0.  1.
    9900012    2    1    2    0    0  0.39153649993E+02  0.12875584049E+02  0.13595402554E+02  0.47787263336E+02  0.19999964853E+02 0.  0.
        -12    1    1    2    0    0 -0.39153649993E+02 -0.12875584049E+02 -0.13595402554E+02  0.43400736664E+02  0.00000000000E+00 0.  1.
         11    1    3    3    0    0  0.26335090873E+02  0.11598951712E+02  0.10188121547E+02  0.30526554228E+02  0.51100000000E-03 0. -1.
        -11    1    3    3    0    0  0.11398052993E+02 -0.32043081088E+01  0.40561824444E+01  0.12515423235E+02  0.51100000000E-03 0.  1.
        -12    1    3    3    0    0  0.14205061281E+01  0.44809404458E+01 -0.64890143798E+00  0.47452858728E+01  0.00000000000E+00 0.  1.
</event>
<event>
 7    1  0.2700100E-010  0.4778727E+02  0.7816164E-02  0.1312668E+00
        -11   -1    0    0    0    0  0.00000000000E+00  0.00000000000E+00  0.45593999997E+02  0.45594000000E+02  0.51100000000E-03 0.  1.
         11   -1    0    0    0    0 -0.00000000000E+00 -0.00000000000E+00 -0.45593999997E+02  0.45594000000E+02  0.51100000000E-03 0. -1.
    9900012    2    1    2    0    0  0.25722674075E+02  0.34952684091E+02  0.52659914455E+00  0.47787269667E+02  0.19999993721E+02 0.  0.
        -12    1    1    2    0    0 -0.25722674075E+02 -0.34952684091E+02 -0.52659914455E+00  0.43400730333E+02  0.00000000000E+00 0.  1.
         11    1    3    3    0    0  0.11369563199E+02  0.18956576514E+02 -0.20982064032E+01  0.22204081400E+02  0.51100000000E-03 0. -1.
        -11    1    3    3    0    0 -0.65287000587E+00  0.59570660421E+01  0.44103413181E+01  0.74406979429E+01  0.51100000000E-03 0.  1.
        -12    1    3    3    0    0  0.15005980882E+02  0.10039041535E+02 -0.17855357703E+01  0.18142490324E+02  0.00000000000E+00 0.  1.
</event>
<event>
 7    1  0.2700100E-010  0.4778727E+02  0.7816164E-02  0.1312668E+00
        -11   -1    0    0    0    0  0.00000000000E+00  0.00000000000E+00  0.45593999997E+02  0.45594000000E+02  0.51100000000E-03 0.  1.
         11   -1    0    0    0    0 -0.00000000000E+00 -0.00000000000E+00 -0.45593999997E+02  0.45594000000E+02  0.51100000000E-03 0. -1.
    9900012    2    1    2    0    0 -0.56544608081E+01  0.17552371323E+02 -0.39288227668E+02  0.47787268446E+02  0.19999988154E+02 0.  0.
        -12    1    1    2    0    0  0.56544608081E+01 -0.17552371323E+02  0.39288227668E+02  0.43400731554E+02  0.00000000000E+00 0.  1.
         11    1    3    3    0    0 -0.22275560517E-01  0.14185042562E+02 -0.12918496326E+02  0.19186022940E+02  0.51100000000E-03 0.  1.
        -11    1    3    3    0    0 -0.35925697162E+01 -0.14230578964E+01 -0.20021664392E+02  0.20391142592E+02  0.51100000000E-03 0. -1.
         12    1    3    3    0    0 -0.20396155314E+01  0.47903866576E+01 -0.63480669507E+01  0.82101029138E+01  0.00000000000E+00 0. -1.
</event>
<event>
 7    1  0.2700100E-010  0.4778727E+02  0.7816164E-02  0.1312668E+00
        -11   -1    0    0    0    0  0.00000000000E+00  0.00000000000E+00  0.45593999997E+02  0.45594000000E+02  0.51100000000E-03 0.  1.
         11   -1    0    0    0    0 -0.00000000000E+00 -0.00000000000E+00 -0.45593999997E+02  0.45594000000E+02  0.51100000000E-03 0. -1.
    9900012    2    1    2    0    0 -0.42306720021E+01  0.43087646383E+02 -0.30297561546E+01  0.47787270988E+02  0.19999999741E+02 0.  0.
        -12    1    1    2    0    0  0.42306720021E+01 -0.43087646383E+02  0.30297561546E+01  0.43400729012E+02  0.00000000000E+00 0.  1.
         11    1    3    3    0    0  0.11987869256E+01  0.38305354070E+02 -0.37432308987E+01  0.38506480212E+02  0.51100000000E-03 0. -1.
        -11    1    3    3    0    0 -0.14638468720E+01  0.12388799979E+01  0.29443075457E+01  0.35137755333E+01  0.51100000000E-03 0.  1.
         12    1    3    3    0    0 -0.39656120557E+01  0.35434123156E+01 -0.22308328016E+01  0.57670152421E+01  0.00000000000E+00 0. -1.
</event>
<event>
 7    1  0.2700100E-010  0.4778726E+02  0.7816164E-02  0.1312668E+00
        -11   -1    0    0    0    0  0.00000000000E+00  0.00000000000E+00  0.45593999997E+02  0.45594000000E+02  0.51100000000E-03 0. -1.
         11   -1    0    0    0    0 -0.00000000000E+00 -0.00000000000E+00 -0.45593999997E+02  0.45594000000E+02  0.51100000000E-03 0.  1.
    9900012    2    1    2    0    0 -0.40383326737E+02 -0.15894553891E+02  0.41740851657E+00  0.47787260932E+02  0.19999953894E+02 0.  0.
        -12    1    1    2    0    0  0.40383326737E+02  0.15894553891E+02 -0.41740851657E+00  0.43400739068E+02  0.00000000000E+00 0.  1.
         11    1    3    3    0    0 -0.28342893186E+02 -0.11023692840E+02  0.19998765950E+00  0.30411862707E+02  0.51100000000E-03 0. -1.
        -11    1    3    3    0    0  0.13360184978E+01 -0.15731231283E+01  0.26773879841E+01  0.33805426313E+01  0.51100000000E-03 0.  1.
        -12    1    3    3    0    0 -0.13376452049E+02 -0.32977379223E+01 -0.24599671270E+01  0.13994855594E+02  0.00000000000E+00 0.  1.
</event>
<event>
 7    1  0.2700100E-010  0.4778727E+02  0.7816164E-02  0.1312668E+00
        -11   -1    0    0    0    0  0.00000000000E+00  0.00000000000E+00  0.45593999997E+02  0.45594000000E+02  0.51100000000E-03 0. -1.
         11   -1    0    0    0    0 -0.00000000000E+00 -0.00000000000E+00 -0.45593999997E+02  0.45594000000E+02  0.51100000000E-03 0.  1.
    9900012    2    1    2    0    0 -0.12236437723E+01  0.36259400893E+02  0.23819773444E+02  0.47787273461E+02  0.20000011017E+02 0.  0.
        -12    1    1    2    0    0  0.12236437723E+01 -0.36259400893E+02 -0.23819773444E+02  0.43400726539E+02  0.00000000000E+00 0.  1.
         11    1    3    3    0    0 -0.92410005497E+01  0.16999660784E+02  0.14474238131E+02  0.24163777181E+02  0.51100000000E-03 0. -1.
        -11    1    3    3    0    0  0.64321075173E+01  0.18912328959E+02  0.92036360514E+01  0.21994433628E+02  0.51100000000E-03 0.  1.
         12    1    3    3    0    0  0.15852492600E+01  0.34741114993E+00  0.14189926168E+00  0.16290626520E+01  0.00000000000E+00 0. -1.
</event>
<event>
 7    1  0.2700100E-010  0.4778727E+02  0.7816164E-02  0.1312668E+00
        -11   -1    0    0    0    0  0.00000000000E+00  0.00000000000E+00  0.45593999997E+02  0.45594000000E+02  0.51100000000E-03 0. -1.
         11   -1    0    0    0    0 -0.00000000000E+00 -0.00000000000E+00 -0.45593999997E+02  0.45594000000E+02  0.51100000000E-03 0.  1.
    9900012    2    1    2    0    0  0.41478585150E+02 -0.12454961255E+02  0.28327219312E+01  0.47787269598E+02  0.19999993405E+02 0.  0.
        -12    1    1    2    0    0 -0.41478585150E+02  0.12454961255E+02 -0.28327219312E+01  0.43400730402E+02  0.00000000000E+00 0.  1.
         11    1    3    3    0    0  0.48515233796E+01 -0.46880320976E+01 -0.50509341753E+01  0.84277434913E+01  0.51100000000E-03 0. -1.
        -11    1    3    3    0    0  0.75529677422E+00  0.13306361233E+01  0.43137987223E-01  0.15306622282E+01  0.51100000000E-03 0.  1.
         12    1    3    3    0    0  0.35871764996E+02 -0.90975652807E+01  0.78405181192E+01  0.37828863878E+02  0.00000000000E+00 0. -1.
</event>
<event>
 7    1  0.2700100E-010  0.4778727E+02  0.7816164E-02  0.1312668E+00
        -11   -1    0    0    0    0  0.00000000000E+00  0.00000000000E+00  0.45593999997E+02  0.45594000000E+02  0.51100000000E-03 0. -1.
         11   -1    0    0    0    0 -0.00000000000E+00 -0.00000000000E+00 -0.45593999997E+02  0.45594000000E+02  0.51100000000E-03 0.  1.
    9900012    2    1    2    0    0  0.38290948823E+02  0.17686180204E+02  0.10228665908E+02  0.47787270303E+02  0.19999996621E+02 0.  0.
        -12    1    1    2    0    0 -0.38290948823E+02 -0.17686180204E+02 -0.10228665908E+02  0.43400729697E+02  0.00000000000E+00 0.  1.
         11    1    3    3    0    0  0.12260321591E+02  0.15750819960E+02  0.23936829524E+01  0.20103072732E+02  0.51100000000E-03 0. -1.
        -11    1    3    3    0    0  0.19789877992E+02  0.30902447429E+01  0.72862722981E+01  0.21313813543E+02  0.51100000000E-03 0.  1.
         12    1    3    3    0    0  0.62407492402E+01 -0.11548844987E+01  0.54871065728E+00  0.63703840285E+01  0.00000000000E+00 0. -1.
</event>
<event>
 7    1  0.2700100E-010  0.4778728E+02  0.7816164E-02  0.1312668E+00
        -11   -1    0    0    0    0  0.00000000000E+00  0.00000000000E+00  0.45593999997E+02  0.45594000000E+02  0.51100000000E-03 0. -1.
         11   -1    0    0    0    0 -0.00000000000E+00 -0.00000000000E+00 -0.45593999997E+02  0.45594000000E+02  0.51100000000E-03 0.  1.
    9900012    2    1    2    0    0  0.29638211362E+02 -0.16688479595E+02  0.26957261730E+02  0.47787275537E+02  0.20000020484E+02 0.  0.
        -12    1    1    2    0    0 -0.29638211362E+02  0.16688479595E+02 -0.26957261730E+02  0.43400724463E+02  0.00000000000E+00 0.  1.
         11    1    3    3    0    0  0.14752259788E+02 -0.11626177718E+02  0.65639998021E+01  0.19896815596E+02  0.51100000000E-03 0. -1.
        -11    1    3    3    0    0  0.91440626063E+01 -0.80706043801E+01  0.10671901454E+02  0.16206110481E+02  0.51100000000E-03 0.  1.
         12    1    3    3    0    0  0.57418889670E+01  0.30083025023E+01  0.97213604740E+01  0.11684349461E+02  0.00000000000E+00 0. -1.
</event>
<event>
 7    1  0.2700100E-010  0.4778727E+02  0.7816164E-02  0.1312668E+00
        -11   -1    0    0    0    0  0.00000000000E+00  0.00000000000E+00  0.45593999997E+02  0.45594000000E+02  0.51100000000E-03 0. -1.
         11   -1    0    0    0    0 -0.00000000000E+00 -0.00000000000E+00 -0.45593999997E+02  0.45594000000E+02  0.51100000000E-03 0.  1.
    9900012    2    1    2    0    0 -0.76396033052E+01  0.41076952218E+02  0.11744946873E+02  0.47787270522E+02  0.19999997619E+02 0.  0.
        -12    1    1    2    0    0  0.76396033052E+01 -0.41076952218E+02 -0.11744946873E+02  0.43400729478E+02  0.00000000000E+00 0.  1.
         11    1    3    3    0    0 -0.13363750899E+02  0.29439962348E+02  0.73529048983E+01  0.33156695129E+02  0.51100000000E-03 0. -1.
        -11    1    3    3    0    0  0.43260671508E+01  0.31438335251E+01  0.17467046522E+01  0.56257909337E+01  0.51100000000E-03 0.  1.
         12    1    3    3    0    0  0.13980804434E+01  0.84931563446E+01  0.26453373226E+01  0.90047844599E+01  0.00000000000E+00 0. -1.
</event>
<event>
 7    1  0.2700100E-010  0.4778728E+02  0.7816164E-02  0.1312668E+00
        -11   -1    0    0    0    0  0.00000000000E+00  0.00000000000E+00  0.45593999997E+02  0.45594000000E+02  0.51100000000E-03 0.  1.
         11   -1    0    0    0    0 -0.00000000000E+00 -0.00000000000E+00 -0.45593999997E+02  0.45594000000E+02  0.51100000000E-03 0. -1.
    9900012    2    1    2    0    0 -0.20001755301E+02  0.36632357674E+02 -0.11900546301E+02  0.47787275972E+02  0.20000022467E+02 0.  0.
        -12    1    1    2    0    0  0.20001755301E+02 -0.36632357674E+02  0.11900546301E+02  0.43400724028E+02  0.00000000000E+00 0.  1.
         11    1    3    3    0    0 -0.70944175181E+01  0.11407640251E+02 -0.13203487635E+02  0.18836058558E+02  0.51100000000E-03 0. -1.
        -11    1    3    3    0    0 -0.43891972782E+01  0.52694638496E+01  0.22935321084E+01  0.72313616839E+01  0.51100000000E-03 0.  1.
         12    1    3    3    0    0 -0.85181405046E+01  0.19955253574E+02 -0.99059077409E+00  0.21719855730E+02  0.00000000000E+00 0. -1.
</event>
<event>
 7    1  0.2700100E-010  0.4778727E+02  0.7816164E-02  0.1312668E+00
        -11   -1    0    0    0    0  0.00000000000E+00  0.00000000000E+00  0.45593999997E+02  0.45594000000E+02  0.51100000000E-03 0.  1.
         11   -1    0    0    0    0 -0.00000000000E+00 -0.00000000000E+00 -0.45593999997E+02  0.45594000000E+02  0.51100000000E-03 0. -1.
    9900012    2    1    2    0    0  0.35157728485E+02  0.25335971369E+02  0.23761902256E+01  0.47787267317E+02  0.19999983006E+02 0.  0.
        -12    1    1    2    0    0 -0.35157728485E+02 -0.25335971369E+02 -0.23761902256E+01  0.43400732683E+02  0.00000000000E+00 0.  1.
         11    1    3    3    0    0  0.89687861114E+01  0.26140534443E+01 -0.47146808787E+01  0.10464254191E+02  0.51100000000E-03 0. -1.
        -11    1    3    3    0    0  0.25481322577E+02  0.22364295360E+02  0.91498527947E+01  0.35116652939E+02  0.51100000000E-03 0.  1.
        -12    1    3    3    0    0  0.70761979599E+00  0.35762256483E+00 -0.20589816903E+01  0.22063601872E+01  0.00000000000E+00 0.  1.
</event>
<event>
 7    1  0.2700100E-010  0.4778727E+02  0.7816164E-02  0.1312668E+00
        -11   -1    0    0    0    0  0.00000000000E+00  0.00000000000E+00  0.45593999997E+02  0.45594000000E+02  0.51100000000E-03 0.  1.
         11   -1    0    0    0    0 -0.00000000000E+00 -0.00000000000E+00 -0.45593999997E+02  0.45594000000E+02  0.51100000000E-03 0. -1.
    9900012    2    1    2    0    0 -0.11268261347E+02 -0.47299963406E+01 -0.41644649404E+02  0.47787269555E+02  0.19999993208E+02 0.  0.
        -12    1    1    2    0    0  0.11268261347E+02  0.47299963406E+01  0.41644649404E+02  0.43400730445E+02  0.00000000000E+00 0.  1.
         11    1    3    3    0    0 -0.77320075102E+00  0.13961228910E+01 -0.31066626881E+02  0.31107592394E+02  0.51100000000E-03 0. -1.
        -11    1    3    3    0    0 -0.10141234936E+02 -0.60680253020E+01 -0.10986642548E+02  0.16136043252E+02  0.51100000000E-03 0.  1.
         12    1    3    3    0    0 -0.35382566026E+00 -0.58093929671E-01  0.40862002470E+00  0.54363390909E+00  0.00000000000E+00 0. -1.
</event>
<event>
 7    1  0.2700100E-010  0.4778726E+02  0.7816164E-02  0.1312668E+00
        -11   -1    0    0    0    0  0.00000000000E+00  0.00000000000E+00  0.45593999997E+02  0.45594000000E+02  0.51100000000E-03 0. -1.
         11   -1    0    0    0    0 -0.00000000000E+00 -0.00000000000E+00 -0.45593999997E+02  0.45594000000E+02  0.51100000000E-03 0.  1.
    9900012    2    1    2    0    0 -0.35561619434E+02  0.24558144122E+02  0.39865712644E+01  0.47787263026E+02  0.19999963440E+02 0.  0.
        -12    1    1    2    0    0  0.35561619434E+02 -0.24558144122E+02 -0.39865712644E+01  0.43400736974E+02  0.00000000000E+00 0.  1.
         11    1    3    3    0    0 -0.13451040295E+02  0.14152981317E+02  0.57700921167E+01  0.20360042448E+02  0.51100000000E-03 0. -1.
        -11    1    3    3    0    0 -0.19835426461E+02  0.39708420867E+01  0.48663525693E+00  0.20234834912E+02  0.51100000000E-03 0.  1.
         12    1    3    3    0    0 -0.22751526769E+01  0.64343207184E+01 -0.22701561092E+01  0.71923856661E+01  0.00000000000E+00 0. -1.
</event>
<event>
 7    1  0.2700100E-010  0.4778727E+02  0.7816164E-02  0.1312668E+00
        -11   -1    0    0    0    0  0.00000000000E+00  0.00000000000E+00  0.45593999997E+02  0.45594000000E+02  0.51100000000E-03 0.  1.
         11   -1    0    0    0    0 -0.00000000000E+00 -0.00000000000E+00 -0.45593999997E+02  0.45594000000E+02  0.51100000000E-03 0. -1.
    9900012    2    1    2    0    0  0.36476503781E+02  0.64618303878E+01 -0.22612666065E+02  0.47787271359E+02  0.20000001433E+02 0.  0.
        -12    1    1    2    0    0 -0.36476503781E+02 -0.64618303878E+01  0.22612666065E+02  0.43400728641E+02  0.00000000000E+00 0.  1.
         11    1    3    3    0    0  0.22860112996E+02  0.42534289512E+01 -0.24310499725E+02  0.33640404593E+02  0.51100000000E-03 0. -1.
        -11    1    3    3    0    0  0.79919700956E+01  0.20297946262E+01 -0.77934902969E-01  0.82460733894E+01  0.51100000000E-03 0.  1.
         12    1    3    3    0    0  0.56244206888E+01  0.17860681042E+00  0.17757685633E+01  0.59007933762E+01  0.00000000000E+00 0. -1.
</event>
<event>
 7    1  0.2700100E-010  0.4778727E+02  0.7816164E-02  0.1312668E+00
        -11   -1    0    0    0    0  0.00000000000E+00  0.00000000000E+00  0.45593999997E+02  0.45594000000E+02  0.51100000000E-03 0. -1.
         11   -1    0    0    0    0 -0.00000000000E+00 -0.00000000000E+00 -0.45593999997E+02  0.45594000000E+02  0.51100000000E-03 0.  1.
    9900012    2    1    2    0    0 -0.30816410722E+02  0.70436303755E+01 -0.29738176399E+02  0.47787273805E+02  0.20000012587E+02 0.  0.
        -12    1    1    2    0    0  0.30816410722E+02 -0.70436303755E+01  0.29738176399E+02  0.43400726195E+02  0.00000000000E+00 0.  1.
         11    1    3    3    0    0 -0.29047301882E+02  0.27143137677E+01 -0.25816981398E+02  0.38956768021E+02  0.51100000000E-03 0. -1.
        -11    1    3    3    0    0 -0.15914456898E+00  0.54730552950E+01 -0.14442564738E+01  0.56626441067E+01  0.51100000000E-03 0.  1.
        -12    1    3    3    0    0 -0.16099642713E+01 -0.11437386872E+01 -0.24769385274E+01  0.31678616776E+01  0.00000000000E+00 0.  1.
</event>
<event>
 7    1  0.2700100E-010  0.4778726E+02  0.7816164E-02  0.1312668E+00
        -11   -1    0    0    0    0  0.00000000000E+00  0.00000000000E+00  0.45593999997E+02  0.45594000000E+02  0.51100000000E-03 0.  1.
         11   -1    0    0    0    0 -0.00000000000E+00 -0.00000000000E+00 -0.45593999997E+02  0.45594000000E+02  0.51100000000E-03 0. -1.
    9900012    2    1    2    0    0  0.51843524864E+01  0.11382239174E+02 -0.41559495708E+02  0.47787256195E+02  0.19999932297E+02 0.  0.
        -12    1    1    2    0    0 -0.51843524864E+01 -0.11382239174E+02  0.41559495708E+02  0.43400743805E+02  0.00000000000E+00 0.  1.
         11    1    3    3    0    0 -0.17522963487E+01  0.48336749945E+01 -0.18031257603E+02  0.18749965532E+02  0.51100000000E-03 0. -1.
        -11    1    3    3    0    0  0.10207473799E+02  0.80973069256E+00 -0.12238232377E+02  0.15956895598E+02  0.51100000000E-03 0.  1.
        -12    1    3    3    0    0 -0.32708249638E+01  0.57388334866E+01 -0.11290005728E+02  0.13080395065E+02  0.00000000000E+00 0.  1.
</event>
<event>
 7    1  0.2700100E-010  0.4778728E+02  0.7816164E-02  0.1312668E+00
        -11   -1    0    0    0    0  0.00000000000E+00  0.00000000000E+00  0.45593999997E+02  0.45594000000E+02  0.51100000000E-03 0.  1.
         11   -1    0    0    0    0 -0.00000000000E+00 -0.00000000000E+00 -0.45593999997E+02  0.45594000000E+02  0.51100000000E-03 0. -1.
    9900012    2    1    2    0    0  0.60923344337E+01 -0.20003204249E+02 -0.38031278154E+02  0.47787276076E+02  0.20000022941E+02 0.  0.
        -12    1    1    2    0    0 -0.60923344337E+01  0.20003204249E+02  0.38031278154E+02  0.43400723924E+02  0.00000000000E+00 0.  1.
         11    1    3    3    0    0 -0.28484743389E+01 -0.38787267085E+00 -0.72085229748E+01  0.77606091905E+01  0.51100000000E-03 0. -1.
        -11    1    3    3    0    0  0.45833611396E+01 -0.13355996168E+02 -0.86039474444E+01  0.16535348344E+02  0.51100000000E-03 0.  1.
        -12    1    3    3    0    0  0.43574476329E+01 -0.62593354102E+01 -0.22218807735E+02  0.23491318542E+02  0.00000000000E+00 0.  1.
</event>
<event>
 7    1  0.2700100E-010  0.4778732E+02  0.7816164E-02  0.1312668E+00
        -11   -1    0    0    0    0  0.00000000000E+00  0.00000000000E+00  0.45593999997E+02  0.45594000000E+02  0.51100000000E-03 0. -1.
         11   -1    0    0    0    0 -0.00000000000E+00 -0.00000000000E+00 -0.45593999997E+02  0.45594000000E+02  0.51100000000E-03 0.  1.
    9900012    2    1    2    0    0  0.39327217469E+02  0.18310131039E+02  0.13146936976E+01  0.47787316226E+02  0.20000206001E+02 0.  0.
        -12    1    1    2    0    0 -0.39327217469E+02 -0.18310131039E+02 -0.13146936976E+01  0.43400683774E+02  0.00000000000E+00 0.  1.
         11    1    3    3    0    0  0.14758538489E+02  0.84360725518E+01 -0.71026551064E+01  0.18423612247E+02  0.51100000000E-03 0. -1.
        -11    1    3    3    0    0 -0.40650694067E-03  0.10476188129E+00 -0.12181121868E+01  0.12226090045E+01  0.51100000000E-03 0.  1.
         12    1    3    3    0    0  0.24569085487E+02  0.97692966055E+01  0.96354609909E+01  0.28141094974E+02  0.00000000000E+00 0. -1.
</event>
<event>
 7    1  0.2700100E-010  0.4778727E+02  0.7816164E-02  0.1312668E+00
        -11   -1    0    0    0    0  0.00000000000E+00  0.00000000000E+00  0.45593999997E+02  0.45594000000E+02  0.51100000000E-03 0.  1.
         11   -1    0    0    0    0 -0.00000000000E+00 -0.00000000000E+00 -0.45593999997E+02  0.45594000000E+02  0.51100000000E-03 0. -1.
    9900012    2    1    2    0    0 -0.43152206845E+02  0.30929611184E+00  0.46275756952E+01  0.47787273318E+02  0.20000010368E+02 0.  0.
        -12    1    1    2    0    0  0.43152206845E+02 -0.30929611184E+00 -0.46275756952E+01  0.43400726682E+02  0.00000000000E+00 0.  1.
         11    1    3    3    0    0 -0.36388187533E+02 -0.38366947872E+01  0.91826841544E+00  0.36601415765E+02  0.51100000000E-03 0. -1.
        -11    1    3    3    0    0  0.85051300113E+00  0.15286570498E+01  0.24887843516E+01  0.30420737254E+01  0.51100000000E-03 0.  1.
        -12    1    3    3    0    0 -0.76145323131E+01  0.26173338493E+01  0.12205229282E+01  0.81437838284E+01  0.00000000000E+00 0.  1.
</event>
<event>
 7    1  0.2835691E-010  0.4778727E+02  0.7816164E-02  0.1312668E+00
        -11   -1    0    0    0    0  0.00000000000E+00  0.00000000000E+00  0.45593999997E+02  0.45594000000E+02  0.51100000000E-03 0.  1.
         11   -1    0    0    0    0 -0.00000000000E+00 -0.00000000000E+00 -0.45593999997E+02  0.45594000000E+02  0.51100000000E-03 0. -1.
    9900012    2    1    2    0    0  0.42881984142E+02 -0.64606002817E+01 -0.17375839450E+01  0.47787272841E+02  0.20000008193E+02 0.  0.
        -12    1    1    2    0    0 -0.42881984142E+02  0.64606002817E+01  0.17375839450E+01  0.43400727159E+02  0.00000000000E+00 0.  1.
         11    1    3    3    0    0  0.26240169034E+02  0.14463145649E+01 -0.36399018838E+01  0.26530872257E+02  0.51100000000E-03 0. -1.
        -11    1    3    3    0    0  0.36657500068E+00 -0.99578715038E+00  0.33513203076E+01  0.35152976183E+01  0.51100000000E-03 0.  1.
        -12    1    3    3    0    0  0.16275240108E+02 -0.69111276962E+01 -0.14490023688E+01  0.17741102966E+02  0.00000000000E+00 0.  1.
</event>
<event>
 7    1  0.2700100E-010  0.4778727E+02  0.7816164E-02  0.1312668E+00
        -11   -1    0    0    0    0  0.00000000000E+00  0.00000000000E+00  0.45593999997E+02  0.45594000000E+02  0.51100000000E-03 0. -1.
         11   -1    0    0    0    0 -0.00000000000E+00 -0.00000000000E+00 -0.45593999997E+02  0.45594000000E+02  0.51100000000E-03 0.  1.
    9900012    2    1    2    0    0  0.52882889157E+01 -0.67776486505E+01  0.42540811319E+02  0.47787272488E+02  0.20000006581E+02 0.  0.
        -12    1    1    2    0    0 -0.52882889157E+01  0.67776486505E+01 -0.42540811319E+02  0.43400727512E+02  0.00000000000E+00 0.  1.
         11    1    3    3    0    0 -0.70013468247E+00 -0.12612853635E+00  0.23505086957E+02  0.23515850189E+02  0.51100000000E-03 0. -1.
        -11    1    3    3    0    0  0.58994605324E+01 -0.38923863725E+01  0.24848636852E+01  0.74919192496E+01  0.51100000000E-03 0.  1.
        -12    1    3    3    0    0  0.88963065769E-01 -0.27591337416E+01  0.16550860677E+02  0.16779503049E+02  0.00000000000E+00 0.  1.
</event>
<event>
 7    1  0.2700100E-010  0.4778727E+02  0.7816164E-02  0.1312668E+00
        -11   -1    0    0    0    0  0.00000000000E+00  0.00000000000E+00  0.45593999997E+02  0.45594000000E+02  0.51100000000E-03 0.  1.
         11   -1    0    0    0    0 -0.00000000000E+00 -0.00000000000E+00 -0.45593999997E+02  0.45594000000E+02  0.51100000000E-03 0. -1.
    9900012    2    1    2    0    0  0.27102733045E+02  0.31580730356E+02  0.12317574558E+02  0.47787270613E+02  0.19999998032E+02 0.  0.
        -12    1    1    2    0    0 -0.27102733045E+02 -0.31580730356E+02 -0.12317574558E+02  0.43400729387E+02  0.00000000000E+00 0.  1.
         11    1    3    3    0    0  0.65294330838E+01  0.14236869193E+02 -0.23676028567E+01  0.15840690779E+02  0.51100000000E-03 0. -1.
        -11    1    3    3    0    0  0.16051039257E+02  0.16757997343E+02  0.14540636514E+02  0.27384237194E+02  0.51100000000E-03 0.  1.
        -12    1    3    3    0    0  0.45222607042E+01  0.58586382051E+00  0.14454090037E+00  0.45623426400E+01  0.00000000000E+00 0.  1.
</event>
<event>
 7    1  0.2700100E-010  0.4778728E+02  0.7816164E-02  0.1312668E+00
        -11   -1    0    0    0    0  0.00000000000E+00  0.00000000000E+00  0.45593999997E+02  0.45594000000E+02  0.51100000000E-03 0. -1.
         11   -1    0    0    0    0 -0.00000000000E+00 -0.00000000000E+00 -0.45593999997E+02  0.45594000000E+02  0.51100000000E-03 0.  1.
    9900012    2    1    2    0    0 -0.36420794434E+02  0.95929934201E+01  0.21566694591E+02  0.47787284504E+02  0.20000061369E+02 0.  0.
        -12    1    1    2    0    0  0.36420794434E+02 -0.95929934201E+01 -0.21566694591E+02  0.43400715496E+02  0.00000000000E+00 0.  1.
         11    1    3    3    0    0 -0.13556127348E+02  0.92181308092E+01  0.16122087463E+02  0.22992699466E+02  0.51100000000E-03 0. -1.
        -11    1    3    3    0    0 -0.21865355312E+02  0.12040821905E+01  0.67877691467E+01  0.22926347007E+02  0.51100000000E-03 0.  1.
        -12    1    3    3    0    0 -0.99931177431E+00 -0.82921957950E+00 -0.13431620192E+01  0.18682380317E+01  0.00000000000E+00 0.  1.
</event>
<event>
 7    1  0.2700100E-010  0.4778728E+02  0.7816164E-02  0.1312668E+00
        -11   -1    0    0    0    0  0.00000000000E+00  0.00000000000E+00  0.45593999997E+02  0.45594000000E+02  0.51100000000E-03 0.  1.
         11   -1    0    0    0    0 -0.00000000000E+00 -0.00000000000E+00 -0.45593999997E+02  0.45594000000E+02  0.51100000000E-03 0. -1.
    9900012    2    1    2    0    0  0.13554926389E+02 -0.21580857696E+02 -0.35130517679E+02  0.47787277417E+02  0.20000029055E+02 0.  0.
        -12    1    1    2    0    0 -0.13554926389E+02  0.21580857696E+02  0.35130517679E+02  0.43400722583E+02  0.00000000000E+00 0.  1.
         11    1    3    3    0    0 -0.45189130506E+01 -0.55897770638E+01 -0.79126867642E+01  0.10690032501E+02  0.51100000000E-03 0. -1.
        -11    1    3    3    0    0  0.15261841244E+02 -0.11922896312E+02 -0.17101524356E+02  0.25836822370E+02  0.51100000000E-03 0.  1.
         12    1    3    3    0    0  0.28119981949E+01 -0.40681843208E+01 -0.10116306559E+02  0.11260422546E+02  0.00000000000E+00 0. -1.
</event>
<event>
 7    1  0.2700100E-010  0.4778726E+02  0.7816164E-02  0.1312668E+00
        -11   -1    0    0    0    0  0.00000000000E+00  0.00000000000E+00  0.45593999997E+02  0.45594000000E+02  0.51100000000E-03 0.  1.
         11   -1    0    0    0    0 -0.00000000000E+00 -0.00000000000E+00 -0.45593999997E+02  0.45594000000E+02  0.51100000000E-03 0. -1.
    9900012    2    1    2    0    0 -0.42205202764E+02  0.91599224021E+01 -0.42942602647E+01  0.47787262795E+02  0.19999962387E+02 0.  0.
        -12    1    1    2    0    0  0.42205202764E+02 -0.91599224021E+01  0.42942602647E+01  0.43400737205E+02  0.00000000000E+00 0.  1.
         11    1    3    3    0    0 -0.23695139773E+02  0.21217894944E+01  0.34464831222E+01  0.24038300391E+02  0.51100000000E-03 0. -1.
        -11    1    3    3    0    0 -0.82233104361E+01 -0.10400893286E+01 -0.66449872009E+01  0.10623581105E+02  0.51100000000E-03 0.  1.
        -12    1    3    3    0    0 -0.10286752555E+02  0.80782222362E+01 -0.10957561860E+01  0.13125381299E+02  0.00000000000E+00 0.  1.
</event>
<event>
 7    1  0.2700100E-010  0.4778726E+02  0.7816164E-02  0.1312668E+00
        -11   -1    0    0    0    0  0.00000000000E+00  0.00000000000E+00  0.45593999997E+02  0.45594000000E+02  0.51100000000E-03 0.  1.
         11   -1    0    0    0    0 -0.00000000000E+00 -0.00000000000E+00 -0.45593999997E+02  0.45594000000E+02  0.51100000000E-03 0. -1.
    9900012    2    1    2    0    0 -0.89122048088E+01 -0.38274429204E+02 -0.18419136917E+02  0.47787263483E+02  0.19999965523E+02 0.  0.
        -12    1    1    2    0    0  0.89122048088E+01  0.38274429204E+02  0.18419136917E+02  0.43400736517E+02  0.00000000000E+00 0.  1.
         11    1    3    3    0    0  0.29521971663E+01 -0.10376952322E+02 -0.10024632796E+02  0.14727181352E+02  0.51100000000E-03 0. -1.
        -11    1    3    3    0    0 -0.52588995651E+01 -0.83193516470E+01 -0.75075221681E+01  0.12378631824E+02  0.51100000000E-03 0.  1.
         12    1    3    3    0    0 -0.66055024100E+01 -0.19578125236E+02 -0.88698195259E+00  0.20681450307E+02  0.00000000000E+00 0. -1.
</event>
<event>
 7    1  0.2700100E-010  0.4778726E+02  0.7816164E-02  0.1312668E+00
        -11   -1    0    0    0    0  0.00000000000E+00  0.00000000000E+00  0.45593999997E+02  0.45594000000E+02  0.51100000000E-03 0.  1.
         11   -1    0    0    0    0 -0.00000000000E+00 -0.00000000000E+00 -0.45593999997E+02  0.45594000000E+02  0.51100000000E-03 0. -1.
    9900012    2    1    2    0    0  0.28570932796E+02  0.30618625248E+01 -0.32526164343E+02  0.47787256115E+02  0.19999931928E+02 0.  0.
        -12    1    1    2    0    0 -0.28570932796E+02 -0.30618625248E+01  0.32526164343E+02  0.43400743885E+02  0.00000000000E+00 0.  1.
         11    1    3    3    0    0 -0.56458789222E+00  0.18862939218E+00 -0.40019976646E+01  0.40460259643E+01  0.51100000000E-03 0. -1.
        -11    1    3    3    0    0  0.93359870267E+01  0.28526909111E+00 -0.53009645246E+00  0.93553746439E+01  0.51100000000E-03 0.  1.
        -12    1    3    3    0    0  0.19799533662E+02  0.25879640416E+01 -0.27994070226E+02  0.34385855506E+02  0.00000000000E+00 0.  1.
</event>
<event>
 7    1  0.2700100E-010  0.4778727E+02  0.7816164E-02  0.1312668E+00
        -11   -1    0    0    0    0  0.00000000000E+00  0.00000000000E+00  0.45593999997E+02  0.45594000000E+02  0.51100000000E-03 0. -1.
         11   -1    0    0    0    0 -0.00000000000E+00 -0.00000000000E+00 -0.45593999997E+02  0.45594000000E+02  0.51100000000E-03 0.  1.
    9900012    2    1    2    0    0 -0.27950732193E+01  0.22411134530E+02  0.37061457489E+02  0.47787274010E+02  0.20000013522E+02 0.  0.
        -12    1    1    2    0    0  0.27950732193E+01 -0.22411134530E+02 -0.37061457489E+02  0.43400725990E+02  0.00000000000E+00 0.  1.
         11    1    3    3    0    0 -0.10331598670E+02  0.15211164214E+02  0.28057294933E+02  0.33545987049E+02  0.51100000000E-03 0. -1.
        -11    1    3    3    0    0  0.38330990991E+01  0.60361153459E+01  0.57345857736E+01  0.91658502841E+01  0.51100000000E-03 0.  1.
         12    1    3    3    0    0  0.37034263517E+01  0.11638549706E+01  0.32695767819E+01  0.50754366775E+01  0.00000000000E+00 0. -1.
</event>
<event>
 7    1  0.2700100E-010  0.4778727E+02  0.7816164E-02  0.1312668E+00
        -11   -1    0    0    0    0  0.00000000000E+00  0.00000000000E+00  0.45593999997E+02  0.45594000000E+02  0.51100000000E-03 0.  1.
         11   -1    0    0    0    0 -0.00000000000E+00 -0.00000000000E+00 -0.45593999997E+02  0.45594000000E+02  0.51100000000E-03 0. -1.
    9900012    2    1    2    0    0  0.41129277987E+02  0.86698878597E+01 -0.10809193216E+02  0.47787272803E+02  0.20000008017E+02 0.  0.
        -12    1    1    2    0    0 -0.41129277987E+02 -0.86698878597E+01  0.10809193216E+02  0.43400727197E+02  0.00000000000E+00 0.  1.
         11    1    3    3    0    0  0.13984629052E+02  0.28380954442E+01  0.39095914938E+01  0.14795591958E+02  0.51100000000E-03 0. -1.
        -11    1    3    3    0    0  0.10371117229E+02  0.11324478510E+01 -0.11037042138E+02  0.15187455683E+02  0.51100000000E-03 0.  1.
         12    1    3    3    0    0  0.16773531707E+02  0.46993445645E+01 -0.36817425716E+01  0.17804225162E+02  0.00000000000E+00 0. -1.
</event>
<event>
 7    1  0.2700100E-010  0.4778727E+02  0.7816164E-02  0.1312668E+00
        -11   -1    0    0    0    0  0.00000000000E+00  0.00000000000E+00  0.45593999997E+02  0.45594000000E+02  0.51100000000E-03 0. -1.
         11   -1    0    0    0    0 -0.00000000000E+00 -0.00000000000E+00 -0.45593999997E+02  0.45594000000E+02  0.51100000000E-03 0.  1.
    9900012    2    1    2    0    0 -0.43858037596E+00 -0.37893107450E+02  0.21155222632E+02  0.47787269711E+02  0.19999993920E+02 0.  0.
        -12    1    1    2    0    0  0.43858037596E+00  0.37893107450E+02 -0.21155222632E+02  0.43400730289E+02  0.00000000000E+00 0.  1.
         11    1    3    3    0    0 -0.51298901850E+01 -0.27695995258E+02  0.12916337453E+02  0.30987347420E+02  0.51100000000E-03 0. -1.
        -11    1    3    3    0    0  0.52818633450E+01 -0.41837822517E+01  0.83837842518E+01  0.10755926411E+02  0.51100000000E-03 0.  1.
        -12    1    3    3    0    0 -0.59055353590E+00 -0.60133299408E+01 -0.14489907270E+00  0.60439958800E+01  0.00000000000E+00 0.  1.
</event>
<event>
 7    1  0.2700100E-010  0.4778727E+02  0.7816164E-02  0.1312668E+00
        -11   -1    0    0    0    0  0.00000000000E+00  0.00000000000E+00  0.45593999997E+02  0.45594000000E+02  0.51100000000E-03 0.  1.
         11   -1    0    0    0    0 -0.00000000000E+00 -0.00000000000E+00 -0.45593999997E+02  0.45594000000E+02  0.51100000000E-03 0. -1.
    9900012    2    1    2    0    0 -0.73448025546E+01  0.37666930208E+02 -0.20270171212E+02  0.47787267323E+02  0.19999983034E+02 0.  0.
        -12    1    1    2    0    0  0.73448025546E+01 -0.37666930208E+02  0.20270171212E+02  0.43400732677E+02  0.00000000000E+00 0.  1.
         11    1    3    3    0    0  0.32540649038E+01  0.10571518957E+02 -0.10060304402E+02  0.14951778369E+02  0.51100000000E-03 0. -1.
        -11    1    3    3    0    0 -0.84837915127E+01  0.86667998867E+01 -0.11232698429E+01  0.12179896309E+02  0.51100000000E-03 0.  1.
        -12    1    3    3    0    0 -0.21150759457E+01  0.18428611364E+02 -0.90865969672E+01  0.20655592645E+02  0.00000000000E+00 0.  1.
</event>
<event>
 7    1  0.2700100E-010  0.4778727E+02  0.7816164E-02  0.1312668E+00
        -11   -1    0    0    0    0  0.00000000000E+00  0.00000000000E+00  0.45593999997E+02  0.45594000000E+02  0.51100000000E-03 0.  1.
         11   -1    0    0    0    0 -0.00000000000E+00 -0.00000000000E+00 -0.45593999997E+02  0.45594000000E+02  0.51100000000E-03 0. -1.
    9900012    2    1    2    0    0 -0.52030392363E+01  0.28753063416E+02 -0.32090700634E+02  0.47787270279E+02  0.19999996511E+02 0.  0.
        -12    1    1    2    0    0  0.52030392363E+01 -0.28753063416E+02  0.32090700634E+02  0.43400729721E+02  0.00000000000E+00 0.  1.
         11    1    3    3    0    0  0.38031493118E+01  0.12280776366E+02 -0.19053627427E+02  0.22985258998E+02  0.51100000000E-03 0. -1.
        -11    1    3    3    0    0 -0.78956575865E+01  0.17653977829E+02 -0.12726296669E+02  0.23150874046E+02  0.51100000000E-03 0.  1.
        -12    1    3    3    0    0 -0.11105309616E+01 -0.11816907786E+01 -0.31077653858E+00  0.16511372353E+01  0.00000000000E+00 0.  1.
</event>
<event>
 7    1  0.2700100E-010  0.4778727E+02  0.7816164E-02  0.1312668E+00
        -11   -1    0    0    0    0  0.00000000000E+00  0.00000000000E+00  0.45593999997E+02  0.45594000000E+02  0.51100000000E-03 0.  1.
         11   -1    0    0    0    0 -0.00000000000E+00 -0.00000000000E+00 -0.45593999997E+02  0.45594000000E+02  0.51100000000E-03 0. -1.
    9900012    2    1    2    0    0 -0.80502103052E+01 -0.35920562803E+02 -0.22989793207E+02  0.47787270631E+02  0.19999998117E+02 0.  0.
        -12    1    1    2    0    0  0.80502103052E+01  0.35920562803E+02  0.22989793207E+02  0.43400729369E+02  0.00000000000E+00 0.  1.
         11    1    3    3    0    0 -0.37275810855E+01 -0.26241046238E+02 -0.10467846834E+02  0.28496722374E+02  0.51100000000E-03 0. -1.
        -11    1    3    3    0    0 -0.72817829727E+01 -0.47032634849E+01 -0.58554340590E+01  0.10460934898E+02  0.51100000000E-03 0.  1.
         12    1    3    3    0    0  0.29591537531E+01 -0.49762530795E+01 -0.66665123138E+01  0.88296133593E+01  0.00000000000E+00 0. -1.
</event>
<event>
 7    1  0.2700100E-010  0.4778727E+02  0.7816164E-02  0.1312668E+00
        -11   -1    0    0    0    0  0.00000000000E+00  0.00000000000E+00  0.45593999997E+02  0.45594000000E+02  0.51100000000E-03 0.  1.
         11   -1    0    0    0    0 -0.00000000000E+00 -0.00000000000E+00 -0.45593999997E+02  0.45594000000E+02  0.51100000000E-03 0. -1.
    9900012    2    1    2    0    0 -0.36484746946E+02 -0.18079207658E+02 -0.15020943362E+02  0.47787271334E+02  0.20000001319E+02 0.  0.
        -12    1    1    2    0    0  0.36484746946E+02  0.18079207658E+02  0.15020943362E+02  0.43400728666E+02  0.00000000000E+00 0.  1.
         11    1    3    3    0    0 -0.11236582100E+02 -0.18477598437E+01 -0.10820075160E+02  0.15708246893E+02  0.51100000000E-03 0. -1.
        -11    1    3    3    0    0 -0.79300860018E+01 -0.79611783554E+01  0.29183432888E+01  0.11609623276E+02  0.51100000000E-03 0.  1.
        -12    1    3    3    0    0 -0.17318078845E+02 -0.82702694590E+01 -0.71192114908E+01  0.20469401165E+02  0.00000000000E+00 0.  1.
</event>
<event>
 7    1  0.2700100E-010  0.4778727E+02  0.7816164E-02  0.1312668E+00
        -11   -1    0    0    0    0  0.00000000000E+00  0.00000000000E+00  0.45593999997E+02  0.45594000000E+02  0.51100000000E-03 0.  1.
         11   -1    0    0    0    0 -0.00000000000E+00 -0.00000000000E+00 -0.45593999997E+02  0.45594000000E+02  0.51100000000E-03 0. -1.
    9900012    2    1    2    0    0  0.22667279514E+01  0.86803174399E+01 -0.42463364757E+02  0.47787270594E+02  0.19999997947E+02 0.  0.
        -12    1    1    2    0    0 -0.22667279514E+01 -0.86803174399E+01  0.42463364757E+02  0.43400729406E+02  0.00000000000E+00 0.  1.
         11    1    3    3    0    0 -0.40612125780E+01  0.30979166135E+00 -0.69720191138E+01  0.80745569080E+01  0.51100000000E-03 0. -1.
        -11    1    3    3    0    0  0.36969353267E+01  0.10350372892E+02 -0.13187168440E+02  0.17166798232E+02  0.51100000000E-03 0.  1.
        -12    1    3    3    0    0  0.26310052027E+01 -0.19798471131E+01 -0.22304177203E+02  0.22545915454E+02  0.00000000000E+00 0.  1.
</event>
<event>
 7    1  0.2700100E-010  0.4778727E+02  0.7816164E-02  0.1312668E+00
        -11   -1    0    0    0    0  0.00000000000E+00  0.00000000000E+00  0.45593999997E+02  0.45594000000E+02  0.51100000000E-03 0.  1.
         11   -1    0    0    0    0 -0.00000000000E+00 -0.00000000000E+00 -0.45593999997E+02  0.45594000000E+02  0.51100000000E-03 0. -1.
    9900012    2    1    2    0    0  0.11624876698E+02  0.26354022270E+02 -0.32464611983E+02  0.47787270983E+02  0.19999999719E+02 0.  0.
        -12    1    1    2    0    0 -0.11624876698E+02 -0.26354022270E+02  0.32464611983E+02  0.43400729017E+02  0.00000000000E+00 0.  1.
         11    1    3    3    0    0  0.19513306617E+01  0.18187809049E+02 -0.13562674266E+02  0.22771697847E+02  0.51100000000E-03 0. -1.
        -11    1    3    3    0    0  0.22401329360E+01 -0.25006208165E+01 -0.33159206065E+01  0.47187529887E+01  0.51100000000E-03 0.  1.
        -12    1    3    3    0    0  0.74334130999E+01  0.10666834037E+02 -0.15586017111E+02  0.20296820147E+02  0.00000000000E+00 0.  1.
</event>
<event>
 7    1  0.2700100E-010  0.4778726E+02  0.7816164E-02  0.1312668E+00
        -11   -1    0    0    0    0  0.00000000000E+00  0.00000000000E+00  0.45593999997E+02  0.45594000000E+02  0.51100000000E-03 0.  1.
         11   -1    0    0    0    0 -0.00000000000E+00 -0.00000000000E+00 -0.45593999997E+02  0.45594000000E+02  0.51100000000E-03 0. -1.
    9900012    2    1    2    0    0  0.30010606576E+02  0.25180047070E+02 -0.18680288019E+02  0.47787257634E+02  0.19999938855E+02 0.  0.
        -12    1    1    2    0    0 -0.30010606576E+02 -0.25180047070E+02  0.18680288019E+02  0.43400742366E+02  0.00000000000E+00 0.  1.
         11    1    3    3    0    0  0.58243125388E+01  0.13167724653E+02 -0.83543453310E+01  0.16646521416E+02  0.51100000000E-03 0. -1.
        -11    1    3    3    0    0  0.64431813734E+01 -0.65370194518E+00  0.10340825414E+01  0.65582954650E+01  0.51100000000E-03 0.  1.
         12    1    3    3    0    0  0.17743112664E+02  0.12666024362E+02 -0.11360025229E+02  0.24582440752E+02  0.00000000000E+00 0. -1.
</event>
<event>
 7    1  0.2700100E-010  0.4778727E+02  0.7816164E-02  0.1312668E+00
        -11   -1    0    0    0    0  0.00000000000E+00  0.00000000000E+00  0.45593999997E+02  0.45594000000E+02  0.51100000000E-03 0.  1.
         11   -1    0    0    0    0 -0.00000000000E+00 -0.00000000000E+00 -0.45593999997E+02  0.45594000000E+02  0.51100000000E-03 0. -1.
    9900012    2    1    2    0    0  0.73916061582E+00  0.33432264273E+02 -0.27665155077E+02  0.47787268920E+02  0.19999990312E+02 0.  0.
        -12    1    1    2    0    0 -0.73916061582E+00 -0.33432264273E+02  0.27665155077E+02  0.43400731080E+02  0.00000000000E+00 0.  1.
         11    1    3    3    0    0 -0.74336508596E+00  0.25883645000E+01 -0.10841131301E+02  0.11170602069E+02  0.51100000000E-03 0. -1.
        -11    1    3    3    0    0  0.15660438883E+01  0.27752093318E+02 -0.18207237940E+02  0.33228522246E+02  0.51100000000E-03 0.  1.
        -12    1    3    3    0    0 -0.83518186493E-01  0.30918064551E+01  0.13832141630E+01  0.33881446049E+01  0.00000000000E+00 0.  1.
</event>
<event>
 7    1  0.2700100E-010  0.4778727E+02  0.7816164E-02  0.1312668E+00
        -11   -1    0    0    0    0  0.00000000000E+00  0.00000000000E+00  0.45593999997E+02  0.45594000000E+02  0.51100000000E-03 0.  1.
         11   -1    0    0    0    0 -0.00000000000E+00 -0.00000000000E+00 -0.45593999997E+02  0.45594000000E+02  0.51100000000E-03 0. -1.
    9900012    2    1    2    0    0  0.35433175358E+02  0.25116821456E+01 -0.24936016947E+02  0.47787269542E+02  0.19999993149E+02 0.  0.
        -12    1    1    2    0    0 -0.35433175358E+02 -0.25116821456E+01  0.24936016947E+02  0.43400730458E+02  0.00000000000E+00 0.  1.
         11    1    3    3    0    0  0.12329706701E+02  0.73272368560E+01 -0.10174769129E+02  0.17585107175E+02  0.51100000000E-03 0. -1.
        -11    1    3    3    0    0  0.80300270094E+01 -0.44726878163E+01 -0.11594409161E+02  0.14795830296E+02  0.51100000000E-03 0.  1.
        -12    1    3    3    0    0  0.15073441648E+02 -0.34286689412E+00 -0.31668386565E+01  0.15406332071E+02  0.00000000000E+00 0.  1.
</event>
<event>
 7    1  0.2700100E-010  0.4778726E+02  0.7816164E-02  0.1312668E+00
        -11   -1    0    0    0    0  0.00000000000E+00  0.00000000000E+00  0.45593999997E+02  0.45594000000E+02  0.51100000000E-03 0. -1.
         11   -1    0    0    0    0 -0.00000000000E+00 -0.00000000000E+00 -0.45593999997E+02  0.45594000000E+02  0.51100000000E-03 0.  1.
    9900012    2    1    2    0    0  0.33645082137E+02 -0.24452838418E+02  0.12397218927E+02  0.47787263879E+02  0.19999967329E+02 0.  0.
        -12    1    1    2    0    0 -0.33645082137E+02  0.24452838418E+02 -0.12397218927E+02  0.43400736121E+02  0.00000000000E+00 0.  1.
         11    1    3    3    0    0  0.14957446289E+02 -0.16712469372E+02  0.86090374305E+01  0.24023891395E+02  0.51100000000E-03 0. -1.
        -11    1    3    3    0    0  0.14816672419E+02 -0.12205768244E+01  0.57356694262E+01  0.15934914289E+02  0.51100000000E-03 0.  1.
         12    1    3    3    0    0  0.38709634287E+01 -0.65197922215E+01 -0.19474879295E+01  0.78284581952E+01  0.00000000000E+00 0. -1.
</event>
<event>
 7    1  0.2700100E-010  0.4778727E+02  0.7816164E-02  0.1312668E+00
        -11   -1    0    0    0    0  0.00000000000E+00  0.00000000000E+00  0.45593999997E+02  0.45594000000E+02  0.51100000000E-03 0.  1.
         11   -1    0    0    0    0 -0.00000000000E+00 -0.00000000000E+00 -0.45593999997E+02  0.45594000000E+02  0.51100000000E-03 0. -1.
    9900012    2    1    2    0    0 -0.35217501882E+02 -0.10107129505E+02  0.23263632958E+02  0.47787272771E+02  0.20000007872E+02 0.  0.
        -12    1    1    2    0    0  0.35217501882E+02  0.10107129505E+02 -0.23263632958E+02  0.43400727229E+02  0.00000000000E+00 0.  1.
         11    1    3    3    0    0 -0.17887017928E+02  0.13684837679E+01  0.49358687792E+01  0.18605938811E+02  0.51100000000E-03 0. -1.
        -11    1    3    3    0    0 -0.11153597580E+00 -0.38261569184E+01  0.24789763822E+01  0.45603992372E+01  0.51100000000E-03 0.  1.
         12    1    3    3    0    0 -0.17218947978E+02 -0.76494563542E+01  0.15848787797E+02  0.24620934722E+02  0.00000000000E+00 0. -1.
</event>
<event>
 7    1  0.2700100E-010  0.4778727E+02  0.7816164E-02  0.1312668E+00
        -11   -1    0    0    0    0  0.00000000000E+00  0.00000000000E+00  0.45593999997E+02  0.45594000000E+02  0.51100000000E-03 0.  1.
         11   -1    0    0    0    0 -0.00000000000E+00 -0.00000000000E+00 -0.45593999997E+02  0.45594000000E+02  0.51100000000E-03 0. -1.
    9900012    2    1    2    0    0  0.40779649438E+02 -0.14736174257E+02 -0.18678648725E+01  0.47787267757E+02  0.19999985013E+02 0.  0.
        -12    1    1    2    0    0 -0.40779649438E+02  0.14736174257E+02  0.18678648725E+01  0.43400732243E+02  0.00000000000E+00 0.  1.
         11    1    3    3    0    0  0.29828612674E+02 -0.11085015099E+02  0.51288007876E-02  0.31821749172E+02  0.51100000000E-03 0. -1.
        -11    1    3    3    0    0  0.87958150862E+00 -0.25519170193E+01  0.35614361411E+01  0.44687550562E+01  0.51100000000E-03 0.  1.
        -12    1    3    3    0    0  0.10071455255E+02 -0.10992421381E+01 -0.54344298144E+01  0.11496763529E+02  0.00000000000E+00 0.  1.
</event>
<event>
 7    1  0.2700100E-010  0.4778728E+02  0.7816164E-02  0.1312668E+00
        -11   -1    0    0    0    0  0.00000000000E+00  0.00000000000E+00  0.45593999997E+02  0.45594000000E+02  0.51100000000E-03 0. -1.
         11   -1    0    0    0    0 -0.00000000000E+00 -0.00000000000E+00 -0.45593999997E+02  0.45594000000E+02  0.51100000000E-03 0.  1.
    9900012    2    1    2    0    0  0.29784905112E+02 -0.31421853417E+02 -0.30246736987E+01  0.47787284618E+02  0.20000061886E+02 0.  0.
        -12    1    1    2    0    0 -0.29784905112E+02  0.31421853417E+02  0.30246736987E+01  0.43400715382E+02  0.00000000000E+00 0.  1.
         11    1    3    3    0    0  0.17696449672E+02 -0.21543872287E+02 -0.11183665373E+02  0.30039592799E+02  0.51100000000E-03 0. -1.
        -11    1    3    3    0    0  0.97888566689E+01 -0.89604694848E+01  0.71481201220E+01  0.15073398748E+02  0.51100000000E-03 0.  1.
         12    1    3    3    0    0  0.22995987718E+01 -0.91751164500E+00  0.10108715528E+01  0.26742930704E+01  0.00000000000E+00 0. -1.
</event>
<event>
 7    1  0.2700100E-010  0.4778727E+02  0.7816164E-02  0.1312668E+00
        -11   -1    0    0    0    0  0.00000000000E+00  0.00000000000E+00  0.45593999997E+02  0.45594000000E+02  0.51100000000E-03 0.  1.
         11   -1    0    0    0    0 -0.00000000000E+00 -0.00000000000E+00 -0.45593999997E+02  0.45594000000E+02  0.51100000000E-03 0. -1.
    9900012    2    1    2    0    0  0.41343925175E+00 -0.31264512416E+02 -0.30099546637E+02  0.47787269864E+02  0.19999994617E+02 0.  0.
        -12    1    1    2    0    0 -0.41343925175E+00  0.31264512416E+02  0.30099546637E+02  0.43400730136E+02  0.00000000000E+00 0.  1.
         11    1    3    3    0    0 -0.37414669111E-01 -0.73144115686E+01 -0.42356669675E+01  0.84523896842E+01  0.51100000000E-03 0. -1.
        -11    1    3    3    0    0 -0.14162329740E+01 -0.10558370696E+02 -0.58737041213E+00  0.10669110172E+02  0.51100000000E-03 0.  1.
        -12    1    3    3    0    0  0.18670868948E+01 -0.13391730151E+02 -0.25276509257E+02  0.28665770008E+02  0.00000000000E+00 0.  1.
</event>
<event>
 7    1  0.2700100E-010  0.4778727E+02  0.7816164E-02  0.1312668E+00
        -11   -1    0    0    0    0  0.00000000000E+00  0.00000000000E+00  0.45593999997E+02  0.45594000000E+02  0.51100000000E-03 0.  1.
         11   -1    0    0    0    0 -0.00000000000E+00 -0.00000000000E+00 -0.45593999997E+02  0.45594000000E+02  0.51100000000E-03 0. -1.
    9900012    2    1    2    0    0 -0.53823396373E+01  0.11931578224E+02 -0.41379839327E+02  0.47787271416E+02  0.20000001693E+02 0.  0.
        -12    1    1    2    0    0  0.53823396373E+01 -0.11931578224E+02  0.41379839327E+02  0.43400728584E+02  0.00000000000E+00 0.  1.
         11    1    3    3    0    0  0.24459935317E+01 -0.24271780123E+01 -0.88145466270E+01  0.94641592316E+01  0.51100000000E-03 0. -1.
        -11    1    3    3    0    0 -0.67041625144E+01  0.91578925306E+01 -0.99603989464E+01  0.15100408539E+02  0.51100000000E-03 0.  1.
         12    1    3    3    0    0 -0.11241706545E+01  0.52008637060E+01 -0.22604893754E+02  0.23222703645E+02  0.00000000000E+00 0. -1.
</event>
<event>
 7    1  0.2700100E-010  0.4778727E+02  0.7816164E-02  0.1312668E+00
        -11   -1    0    0    0    0  0.00000000000E+00  0.00000000000E+00  0.45593999997E+02  0.45594000000E+02  0.51100000000E-03 0. -1.
         11   -1    0    0    0    0 -0.00000000000E+00 -0.00000000000E+00 -0.45593999997E+02  0.45594000000E+02  0.51100000000E-03 0.  1.
    9900012    2    1    2    0    0 -0.33091295385E+02 -0.23306712191E+02 -0.15664818264E+02  0.47787271957E+02  0.20000004160E+02 0.  0.
        -12    1    1    2    0    0  0.33091295385E+02  0.23306712191E+02  0.15664818264E+02  0.43400728043E+02  0.00000000000E+00 0.  1.
         11    1    3    3    0    0  0.16568945901E+01 -0.11705403820E+00 -0.28618869281E+01  0.33089875160E+01  0.51100000000E-03 0.  1.
        -11    1    3    3    0    0 -0.20702813956E+02 -0.15920134033E+02 -0.41288228692E+01  0.26440581535E+02  0.51100000000E-03 0. -1.
        -12    1    3    3    0    0 -0.14045376019E+02 -0.72695241193E+01 -0.86741084667E+01  0.18037702906E+02  0.00000000000E+00 0.  1.
</event>
<event>
 7    1  0.2700100E-010  0.4778727E+02  0.7816164E-02  0.1312668E+00
        -11   -1    0    0    0    0  0.00000000000E+00  0.00000000000E+00  0.45593999997E+02  0.45594000000E+02  0.51100000000E-03 0.  1.
         11   -1    0    0    0    0 -0.00000000000E+00 -0.00000000000E+00 -0.45593999997E+02  0.45594000000E+02  0.51100000000E-03 0. -1.
    9900012    2    1    2    0    0 -0.11231682249E+02  0.36660410559E+02 -0.20334376812E+02  0.47787271103E+02  0.20000000267E+02 0.  0.
        -12    1    1    2    0    0  0.11231682249E+02 -0.36660410559E+02  0.20334376812E+02  0.43400728897E+02  0.00000000000E+00 0.  1.
         11    1    3    3    0    0 -0.94472539362E+01  0.76730227099E+01 -0.81331287996E+00  0.12197842536E+02  0.51100000000E-03 0. -1.
        -11    1    3    3    0    0  0.17392254605E+01  0.18626299033E+02 -0.13751584278E+02  0.23217880852E+02  0.51100000000E-03 0.  1.
         12    1    3    3    0    0 -0.35236537729E+01  0.10361088816E+02 -0.57694796544E+01  0.12371547715E+02  0.00000000000E+00 0. -1.
</event>
<event>
 7    1  0.2700100E-010  0.4778727E+02  0.7816164E-02  0.1312668E+00
        -11   -1    0    0    0    0  0.00000000000E+00  0.00000000000E+00  0.45593999997E+02  0.45594000000E+02  0.51100000000E-03 0.  1.
         11   -1    0    0    0    0 -0.00000000000E+00 -0.00000000000E+00 -0.45593999997E+02  0.45594000000E+02  0.51100000000E-03 0. -1.
    9900012    2    1    2    0    0  0.12456781429E+02  0.11199990059E+01 -0.41559565978E+02  0.47787270448E+02  0.19999997280E+02 0.  0.
        -12    1    1    2    0    0 -0.12456781429E+02 -0.11199990059E+01  0.41559565978E+02  0.43400729552E+02  0.00000000000E+00 0.  1.
         11    1    3    3    0    0  0.45023529711E+01 -0.39075715441E+01 -0.18728480044E+02  0.19654420944E+02  0.51100000000E-03 0. -1.
        -11    1    3    3    0    0  0.12694529639E+00  0.74490151194E+01 -0.66092686617E+01  0.99592356063E+01  0.51100000000E-03 0.  1.
        -12    1    3    3    0    0  0.78274831616E+01 -0.24214445693E+01 -0.16221817273E+02  0.18173613897E+02  0.00000000000E+00 0.  1.
</event>
<event>
 7    1  0.2700100E-010  0.4778723E+02  0.7816164E-02  0.1312668E+00
        -11   -1    0    0    0    0  0.00000000000E+00  0.00000000000E+00  0.45593999997E+02  0.45594000000E+02  0.51100000000E-03 0.  1.
         11   -1    0    0    0    0 -0.00000000000E+00 -0.00000000000E+00 -0.45593999997E+02  0.45594000000E+02  0.51100000000E-03 0. -1.
    9900012    2    1    2    0    0 -0.10640196392E+02 -0.21216354266E+02  0.36335651034E+02  0.47787228075E+02  0.19999804086E+02 0.  0.
        -12    1    1    2    0    0  0.10640196392E+02  0.21216354266E+02 -0.36335651034E+02  0.43400771925E+02  0.00000000000E+00 0.  1.
         11    1    3    3    0    0  0.35418039028E+01 -0.60087854329E+01  0.15356891572E+02  0.16866653382E+02  0.51100000000E-03 0. -1.
        -11    1    3    3    0    0 -0.99583186384E+01 -0.40228909381E+01  0.10564088257E+02  0.15064916946E+02  0.51100000000E-03 0.  1.
         12    1    3    3    0    0 -0.42236816565E+01 -0.11184677895E+02  0.10414671204E+02  0.15855657748E+02  0.00000000000E+00 0. -1.
</event>
<event>
 7    1  0.2700100E-010  0.4778727E+02  0.7816164E-02  0.1312668E+00
        -11   -1    0    0    0    0  0.00000000000E+00  0.00000000000E+00  0.45593999997E+02  0.45594000000E+02  0.51100000000E-03 0.  1.
         11   -1    0    0    0    0 -0.00000000000E+00 -0.00000000000E+00 -0.45593999997E+02  0.45594000000E+02  0.51100000000E-03 0. -1.
    9900012    2    1    2    0    0  0.21226486448E+02 -0.27764739908E+01 -0.37753815772E+02  0.47787272585E+02  0.20000007026E+02 0.  0.
        -12    1    1    2    0    0 -0.21226486448E+02  0.27764739908E+01  0.37753815772E+02  0.43400727415E+02  0.00000000000E+00 0.  1.
         11    1    3    3    0    0  0.69348060978E+00  0.18134320054E+01 -0.45946340510E+01  0.49879969245E+01  0.51100000000E-03 0. -1.
        -11    1    3    3    0    0  0.32736157249E+01 -0.52901436755E+01 -0.20391233590E+02  0.21319113200E+02  0.51100000000E-03 0.  1.
        -12    1    3    3    0    0  0.17259390114E+02  0.70023767941E+00 -0.12767948131E+02  0.21480162461E+02  0.00000000000E+00 0.  1.
</event>
<event>
 7    1  0.2700100E-010  0.4778726E+02  0.7816164E-02  0.1312668E+00
        -11   -1    0    0    0    0  0.00000000000E+00  0.00000000000E+00  0.45593999997E+02  0.45594000000E+02  0.51100000000E-03 0.  1.
         11   -1    0    0    0    0 -0.00000000000E+00 -0.00000000000E+00 -0.45593999997E+02  0.45594000000E+02  0.51100000000E-03 0. -1.
    9900012    2    1    2    0    0 -0.34570008719E+02  0.26238520269E+02  0.28092954474E+00  0.47787258415E+02  0.19999942417E+02 0.  0.
        -12    1    1    2    0    0  0.34570008719E+02 -0.26238520269E+02 -0.28092954474E+00  0.43400741585E+02  0.00000000000E+00 0.  1.
         11    1    3    3    0    0  0.17549972258E+00  0.29537411044E+01  0.44577980369E+01  0.53504532764E+01  0.51100000000E-03 0.  1.
        -11    1    3    3    0    0 -0.19305358518E+02  0.13130101026E+02  0.57911384219E+00  0.23354481231E+02  0.51100000000E-03 0. -1.
         12    1    3    3    0    0 -0.15440149923E+02  0.10154678138E+02 -0.47559823344E+01  0.19082323908E+02  0.00000000000E+00 0. -1.
</event>
<event>
 7    1  0.2700100E-010  0.4778727E+02  0.7816164E-02  0.1312668E+00
        -11   -1    0    0    0    0  0.00000000000E+00  0.00000000000E+00  0.45593999997E+02  0.45594000000E+02  0.51100000000E-03 0.  1.
         11   -1    0    0    0    0 -0.00000000000E+00 -0.00000000000E+00 -0.45593999997E+02  0.45594000000E+02  0.51100000000E-03 0. -1.
    9900012    2    1    2    0    0  0.50388623527E+01  0.12028440815E+02 -0.41395047479E+02  0.47787268693E+02  0.19999989277E+02 0.  0.
        -12    1    1    2    0    0 -0.50388623527E+01 -0.12028440815E+02  0.41395047479E+02  0.43400731307E+02  0.00000000000E+00 0.  1.
         11    1    3    3    0    0  0.53675896282E+01  0.45795953265E+01 -0.11115714021E+02  0.13165971678E+02  0.51100000000E-03 0. -1.
        -11    1    3    3    0    0 -0.14260190808E+01  0.11904966862E+02 -0.19296508410E+02  0.22718208632E+02  0.51100000000E-03 0.  1.
        -12    1    3    3    0    0  0.10972918053E+01 -0.44561213731E+01 -0.10982825048E+02  0.11903088382E+02  0.00000000000E+00 0.  1.
</event>
<event>
 7    1  0.2700100E-010  0.4778728E+02  0.7816164E-02  0.1312668E+00
        -11   -1    0    0    0    0  0.00000000000E+00  0.00000000000E+00  0.45593999997E+02  0.45594000000E+02  0.51100000000E-03 0.  1.
         11   -1    0    0    0    0 -0.00000000000E+00 -0.00000000000E+00 -0.45593999997E+02  0.45594000000E+02  0.51100000000E-03 0. -1.
    9900012    2    1    2    0    0 -0.12494042094E+01 -0.23110092109E+01 -0.43321139149E+02  0.47787275678E+02  0.20000021128E+02 0.  0.
        -12    1    1    2    0    0  0.12494042094E+01  0.23110092109E+01  0.43321139149E+02  0.43400724322E+02  0.00000000000E+00 0.  1.
         11    1    3    3    0    0  0.67940564669E+01  0.33930429884E+01 -0.21865103784E+02  0.23146375694E+02  0.51100000000E-03 0. -1.
        -11    1    3    3    0    0 -0.64310229612E+01 -0.71980306764E+01 -0.15159027980E+02  0.17971250138E+02  0.51100000000E-03 0.  1.
        -12    1    3    3    0    0 -0.16124377151E+01  0.14939784771E+01 -0.62970073851E+01  0.66696498471E+01  0.00000000000E+00 0.  1.
</event>
<event>
 7    1  0.2700100E-010  0.4778727E+02  0.7816164E-02  0.1312668E+00
        -11   -1    0    0    0    0  0.00000000000E+00  0.00000000000E+00  0.45593999997E+02  0.45594000000E+02  0.51100000000E-03 0. -1.
         11   -1    0    0    0    0 -0.00000000000E+00 -0.00000000000E+00 -0.45593999997E+02  0.45594000000E+02  0.51100000000E-03 0.  1.
    9900012    2    1    2    0    0  0.29096534332E+02  0.25669026253E+02  0.19445210567E+02  0.47787269212E+02  0.19999991646E+02 0.  0.
        -12    1    1    2    0    0 -0.29096534332E+02 -0.25669026253E+02 -0.19445210567E+02  0.43400730788E+02  0.00000000000E+00 0.  1.
         11    1    3    3    0    0  0.15522700730E+02  0.21285876021E+02  0.14805123249E+02  0.30219768871E+02  0.51100000000E-03 0. -1.
        -11    1    3    3    0    0  0.30051940358E+01 -0.86000889765E+00  0.48474943253E+01  0.57679292638E+01  0.51100000000E-03 0.  1.
        -12    1    3    3    0    0  0.10568639567E+02  0.52431591300E+01 -0.20740700749E+00  0.11799571078E+02  0.00000000000E+00 0.  1.
</event>
<event>
 7    1  0.2700100E-010  0.4778727E+02  0.7816164E-02  0.1312668E+00
        -11   -1    0    0    0    0  0.00000000000E+00  0.00000000000E+00  0.45593999997E+02  0.45594000000E+02  0.51100000000E-03 0.  1.
         11   -1    0    0    0    0 -0.00000000000E+00 -0.00000000000E+00 -0.45593999997E+02  0.45594000000E+02  0.51100000000E-03 0. -1.
    9900012    2    1    2    0    0  0.74792077916E+01  0.22349622739E+02 -0.36444191257E+02  0.47787271180E+02  0.20000000616E+02 0.  0.
        -12    1    1    2    0    0 -0.74792077916E+01 -0.22349622739E+02  0.36444191257E+02  0.43400728820E+02  0.00000000000E+00 0.  1.
         11    1    3    3    0    0  0.53307686823E+01  0.15931598432E+02 -0.36897967644E+02  0.40542483149E+02  0.51100000000E-03 0. -1.
        -11    1    3    3    0    0 -0.42912240001E-01  0.36588300783E+01  0.64758462506E+00  0.37159447129E+01  0.51100000000E-03 0.  1.
        -12    1    3    3    0    0  0.21913513494E+01  0.27591942289E+01 -0.19380823770E+00  0.35288433179E+01  0.00000000000E+00 0.  1.
</event>
<event>
 7    1  0.2700100E-010  0.4778727E+02  0.7816164E-02  0.1312668E+00
        -11   -1    0    0    0    0  0.00000000000E+00  0.00000000000E+00  0.45593999997E+02  0.45594000000E+02  0.51100000000E-03 0.  1.
         11   -1    0    0    0    0 -0.00000000000E+00 -0.00000000000E+00 -0.45593999997E+02  0.45594000000E+02  0.51100000000E-03 0. -1.
    9900012    2    1    2    0    0 -0.94489938352E+01  0.19832218981E+02 -0.37430240226E+02  0.47787271002E+02  0.19999999806E+02 0.  0.
        -12    1    1    2    0    0  0.94489938352E+01 -0.19832218981E+02  0.37430240226E+02  0.43400728998E+02  0.00000000000E+00 0.  1.
         11    1    3    3    0    0 -0.97562683341E+01  0.10753476061E+02 -0.12928514816E+02  0.19441412367E+02  0.51100000000E-03 0. -1.
        -11    1    3    3    0    0  0.30859172192E+01  0.46911233449E+01 -0.21760610907E+02  0.22473400068E+02  0.51100000000E-03 0.  1.
         12    1    3    3    0    0 -0.27786427203E+01  0.43876195750E+01 -0.27411145026E+01  0.58724585668E+01  0.00000000000E+00 0. -1.
</event>
<event>
 7    1  0.2700100E-010  0.4778727E+02  0.7816164E-02  0.1312668E+00
        -11   -1    0    0    0    0  0.00000000000E+00  0.00000000000E+00  0.45593999997E+02  0.45594000000E+02  0.51100000000E-03 0. -1.
         11   -1    0    0    0    0 -0.00000000000E+00 -0.00000000000E+00 -0.45593999997E+02  0.45594000000E+02  0.51100000000E-03 0.  1.
    9900012    2    1    2    0    0 -0.17796787069E+02 -0.99425379256E+01  0.38315056124E+02  0.47787271710E+02  0.20000003034E+02 0.  0.
        -12    1    1    2    0    0  0.17796787069E+02  0.99425379256E+01 -0.38315056124E+02  0.43400728290E+02  0.00000000000E+00 0.  1.
         11    1    3    3    0    0 -0.57951275676E+01  0.46475348391E+01  0.10856365308E+02  0.13154609518E+02  0.51100000000E-03 0. -1.
        -11    1    3    3    0    0 -0.11732255918E+02 -0.15904162905E+02  0.25640797214E+02  0.32373425964E+02  0.51100000000E-03 0.  1.
         12    1    3    3    0    0 -0.26940358301E+00  0.13140901399E+01  0.18178936013E+01  0.22592362275E+01  0.00000000000E+00 0. -1.
</event>
<event>
 7    1  0.2700100E-010  0.4778727E+02  0.7816164E-02  0.1312668E+00
        -11   -1    0    0    0    0  0.00000000000E+00  0.00000000000E+00  0.45593999997E+02  0.45594000000E+02  0.51100000000E-03 0.  1.
         11   -1    0    0    0    0 -0.00000000000E+00 -0.00000000000E+00 -0.45593999997E+02  0.45594000000E+02  0.51100000000E-03 0. -1.
    9900012    2    1    2    0    0  0.31060955377E+02 -0.10060357993E+02 -0.28594222288E+02  0.47787270742E+02  0.19999998622E+02 0.  0.
        -12    1    1    2    0    0 -0.31060955377E+02  0.10060357993E+02  0.28594222288E+02  0.43400729258E+02  0.00000000000E+00 0.  1.
         11    1    3    3    0    0  0.21995091783E+02 -0.75113964408E+01 -0.27968369874E+02  0.36365297369E+02  0.51100000000E-03 0. -1.
        -11    1    3    3    0    0  0.10085443410E+02 -0.24609136318E+01 -0.55619706015E+00  0.10396231053E+02  0.51100000000E-03 0.  1.
        -12    1    3    3    0    0 -0.10195798168E+01 -0.88047920880E-01 -0.69655353611E-01  0.10257423202E+01  0.00000000000E+00 0.  1.
</event>
<event>
 7    1  0.2700100E-010  0.4778724E+02  0.7816164E-02  0.1312668E+00
        -11   -1    0    0    0    0  0.00000000000E+00  0.00000000000E+00  0.45593999997E+02  0.45594000000E+02  0.51100000000E-03 0.  1.
         11   -1    0    0    0    0 -0.00000000000E+00 -0.00000000000E+00 -0.45593999997E+02  0.45594000000E+02  0.51100000000E-03 0. -1.
    9900012    2    1    2    0    0  0.93413414832E+01 -0.39027595886E+02 -0.16529140596E+02  0.47787235143E+02  0.19999836310E+02 0.  0.
        -12    1    1    2    0    0 -0.93413414832E+01  0.39027595886E+02  0.16529140596E+02  0.43400764857E+02  0.00000000000E+00 0.  1.
         11    1    3    3    0    0 -0.32682291129E+01 -0.14906050496E+02 -0.49470249265E+01  0.16041967424E+02  0.51100000000E-03 0. -1.
        -11    1    3    3    0    0  0.13687804460E+02 -0.21021377563E+02 -0.68808399365E+01  0.26011540979E+02  0.51100000000E-03 0.  1.
        -12    1    3    3    0    0 -0.10782338643E+01 -0.31001678264E+01 -0.47012757328E+01  0.57337267404E+01  0.00000000000E+00 0.  1.
</event>
<event>
 7    1  0.2700100E-010  0.4778727E+02  0.7816164E-02  0.1312668E+00
        -11   -1    0    0    0    0  0.00000000000E+00  0.00000000000E+00  0.45593999997E+02  0.45594000000E+02  0.51100000000E-03 0.  1.
         11   -1    0    0    0    0 -0.00000000000E+00 -0.00000000000E+00 -0.45593999997E+02  0.45594000000E+02  0.51100000000E-03 0. -1.
    9900012    2    1    2    0    0  0.17801934846E+02  0.16994209431E+02 -0.35747881616E+02  0.47787273296E+02  0.20000010265E+02 0.  0.
        -12    1    1    2    0    0 -0.17801934846E+02 -0.16994209431E+02  0.35747881616E+02  0.43400726704E+02  0.00000000000E+00 0.  1.
         11    1    3    3    0    0  0.57391537020E+01  0.99068698288E+01 -0.25782190537E+02  0.28210021343E+02  0.51100000000E-03 0. -1.
        -11    1    3    3    0    0  0.11070415477E+01  0.14619032549E+01  0.17821507281E+01  0.25571006225E+01  0.51100000000E-03 0.  1.
         12    1    3    3    0    0  0.10955739596E+02  0.56254363471E+01 -0.11747841807E+02  0.17020151330E+02  0.00000000000E+00 0. -1.
</event>
<event>
 7    1  0.2700100E-010  0.4778727E+02  0.7816164E-02  0.1312668E+00
        -11   -1    0    0    0    0  0.00000000000E+00  0.00000000000E+00  0.45593999997E+02  0.45594000000E+02  0.51100000000E-03 0.  1.
         11   -1    0    0    0    0 -0.00000000000E+00 -0.00000000000E+00 -0.45593999997E+02  0.45594000000E+02  0.51100000000E-03 0. -1.
    9900012    2    1    2    0    0 -0.40686873280E+02  0.76975986814E+01 -0.12998012633E+02  0.47787274025E+02  0.20000013590E+02 0.  0.
        -12    1    1    2    0    0  0.40686873280E+02 -0.76975986814E+01  0.12998012633E+02  0.43400725975E+02  0.00000000000E+00 0.  1.
         11    1    3    3    0    0 -0.30384071838E+02  0.98317400257E+01 -0.14011835067E+02  0.34873864936E+02  0.51100000000E-03 0. -1.
        -11    1    3    3    0    0 -0.44305381793E+01 -0.37720125052E+01 -0.19472787102E+01  0.61359303724E+01  0.51100000000E-03 0.  1.
         12    1    3    3    0    0 -0.58722632629E+01  0.16378711610E+01  0.29611011443E+01  0.67774787167E+01  0.00000000000E+00 0. -1.
</event>
<event>
 7    1  0.2700100E-010  0.4778728E+02  0.7816164E-02  0.1312668E+00
        -11   -1    0    0    0    0  0.00000000000E+00  0.00000000000E+00  0.45593999997E+02  0.45594000000E+02  0.51100000000E-03 0. -1.
         11   -1    0    0    0    0 -0.00000000000E+00 -0.00000000000E+00 -0.45593999997E+02  0.45594000000E+02  0.51100000000E-03 0.  1.
    9900012    2    1    2    0    0  0.61281340537E+01 -0.12319415747E+02  0.41161882057E+02  0.47787279202E+02  0.20000037193E+02 0.  0.
        -12    1    1    2    0    0 -0.61281340537E+01  0.12319415747E+02 -0.41161882057E+02  0.43400720798E+02  0.00000000000E+00 0.  1.
         11    1    3    3    0    0  0.23919884188E+01 -0.61891004621E+01  0.13792087293E+02  0.15305170541E+02  0.51100000000E-03 0. -1.
        -11    1    3    3    0    0  0.94008994909E+01 -0.70210961379E+01  0.17563280619E+02  0.21122062602E+02  0.51100000000E-03 0.  1.
        -12    1    3    3    0    0 -0.56647538560E+01  0.89078085314E+00  0.98065141449E+01  0.11360046059E+02  0.00000000000E+00 0.  1.
</event>
<event>
 7    1  0.2700100E-010  0.4778727E+02  0.7816164E-02  0.1312668E+00
        -11   -1    0    0    0    0  0.00000000000E+00  0.00000000000E+00  0.45593999997E+02  0.45594000000E+02  0.51100000000E-03 0. -1.
         11   -1    0    0    0    0 -0.00000000000E+00 -0.00000000000E+00 -0.45593999997E+02  0.45594000000E+02  0.51100000000E-03 0.  1.
    9900012    2    1    2    0    0 -0.18341010053E+02 -0.39286060795E+02  0.19587059683E+01  0.47787265540E+02  0.19999974905E+02 0.  0.
        -12    1    1    2    0    0  0.18341010053E+02  0.39286060795E+02 -0.19587059683E+01  0.43400734460E+02  0.00000000000E+00 0.  1.
         11    1    3    3    0    0 -0.94407804112E+01 -0.38831459696E+01 -0.29248957853E+01  0.10618953480E+02  0.51100000000E-03 0. -1.
        -11    1    3    3    0    0 -0.96070695030E+00 -0.13580804317E+02  0.13918055461E+01  0.13685697888E+02  0.51100000000E-03 0.  1.
         12    1    3    3    0    0 -0.79395226914E+01 -0.21822110509E+02  0.34917962075E+01  0.23482614173E+02  0.00000000000E+00 0. -1.
</event>
<event>
 7    1  0.2700100E-010  0.4778727E+02  0.7816164E-02  0.1312668E+00
        -11   -1    0    0    0    0  0.00000000000E+00  0.00000000000E+00  0.45593999997E+02  0.45594000000E+02  0.51100000000E-03 0. -1.
         11   -1    0    0    0    0 -0.00000000000E+00 -0.00000000000E+00 -0.45593999997E+02  0.45594000000E+02  0.51100000000E-03 0.  1.
    9900012    2    1    2    0    0  0.21487380752E+02  0.32518605977E+02  0.19090729433E+02  0.47787271705E+02  0.20000003013E+02 0.  0.
        -12    1    1    2    0    0 -0.21487380752E+02 -0.32518605977E+02 -0.19090729433E+02  0.43400728295E+02  0.00000000000E+00 0.  1.
         11    1    3    3    0    0  0.12062944839E+02  0.57367898400E+01  0.21190410400E+01  0.13524634230E+02  0.51100000000E-03 0. -1.
        -11    1    3    3    0    0  0.93478413490E+01  0.25930324907E+02  0.13509441262E+02  0.30696398668E+02  0.51100000000E-03 0.  1.
        -12    1    3    3    0    0  0.76594563974E-01  0.85149122910E+00  0.34622471303E+01  0.35662388075E+01  0.00000000000E+00 0.  1.
</event>
<event>
 7    1  0.2700100E-010  0.4778728E+02  0.7816164E-02  0.1312668E+00
        -11   -1    0    0    0    0  0.00000000000E+00  0.00000000000E+00  0.45593999997E+02  0.45594000000E+02  0.51100000000E-03 0. -1.
         11   -1    0    0    0    0 -0.00000000000E+00 -0.00000000000E+00 -0.45593999997E+02  0.45594000000E+02  0.51100000000E-03 0.  1.
    9900012    2    1    2    0    0 -0.35312969561E+02  0.68797919975E+01  0.24275202839E+02  0.47787276157E+02  0.20000023312E+02 0.  0.
        -12    1    1    2    0    0  0.35312969561E+02 -0.68797919975E+01 -0.24275202839E+02  0.43400723843E+02  0.00000000000E+00 0.  1.
         11    1    3    3    0    0 -0.49694375689E+01  0.26754565749E+01  0.48313690604E+01  0.74293677318E+01  0.51100000000E-03 0. -1.
        -11    1    3    3    0    0 -0.15631222539E+02  0.91338071337E+01  0.16641562142E+02  0.24590712507E+02  0.51100000000E-03 0.  1.
        -12    1    3    3    0    0 -0.14712309454E+02 -0.49294717111E+01  0.28022716374E+01  0.15767195919E+02  0.00000000000E+00 0.  1.
</event>
<event>
 7    1  0.2700100E-010  0.4778727E+02  0.7816164E-02  0.1312668E+00
        -11   -1    0    0    0    0  0.00000000000E+00  0.00000000000E+00  0.45593999997E+02  0.45594000000E+02  0.51100000000E-03 0. -1.
         11   -1    0    0    0    0 -0.00000000000E+00 -0.00000000000E+00 -0.45593999997E+02  0.45594000000E+02  0.51100000000E-03 0.  1.
    9900012    2    1    2    0    0 -0.68079802078E+01 -0.15474334495E+02  0.39972733284E+02  0.47787273868E+02  0.20000012875E+02 0.  0.
        -12    1    1    2    0    0  0.68079802078E+01  0.15474334495E+02 -0.39972733284E+02  0.43400726132E+02  0.00000000000E+00 0.  1.
         11    1    3    3    0    0 -0.55780735500E+01 -0.15051338133E+02  0.15441518464E+02  0.22273261478E+02  0.51100000000E-03 0. -1.
        -11    1    3    3    0    0 -0.31638304753E+01  0.12704310674E+01  0.68995282173E+01  0.76959280309E+01  0.51100000000E-03 0.  1.
         12    1    3    3    0    0  0.19339238175E+01 -0.16934274293E+01  0.17631686603E+02  0.17818084359E+02  0.00000000000E+00 0. -1.
</event>
<event>
 7    1  0.2700100E-010  0.4778727E+02  0.7816164E-02  0.1312668E+00
        -11   -1    0    0    0    0  0.00000000000E+00  0.00000000000E+00  0.45593999997E+02  0.45594000000E+02  0.51100000000E-03 0. -1.
         11   -1    0    0    0    0 -0.00000000000E+00 -0.00000000000E+00 -0.45593999997E+02  0.45594000000E+02  0.51100000000E-03 0.  1.
    9900012    2    1    2    0    0 -0.19467457848E+02  0.23062219418E+02  0.31189345871E+02  0.47787272179E+02  0.20000005173E+02 0.  0.
        -12    1    1    2    0    0  0.19467457848E+02 -0.23062219418E+02 -0.31189345871E+02  0.43400727821E+02  0.00000000000E+00 0.  1.
         11    1    3    3    0    0 -0.74561172518E+01  0.27058725675E+00  0.17070895072E+01  0.76538262838E+01  0.51100000000E-03 0. -1.
        -11    1    3    3    0    0 -0.46322616747E+01  0.18415359921E+01  0.62008218845E+01  0.79560854280E+01  0.51100000000E-03 0.  1.
         12    1    3    3    0    0 -0.73790789213E+01  0.20950096169E+02  0.23281434479E+02  0.32177360467E+02  0.00000000000E+00 0. -1.
</event>
<event>
 7    1  0.2700100E-010  0.4778727E+02  0.7816164E-02  0.1312668E+00
        -11   -1    0    0    0    0  0.00000000000E+00  0.00000000000E+00  0.45593999997E+02  0.45594000000E+02  0.51100000000E-03 0. -1.
         11   -1    0    0    0    0 -0.00000000000E+00 -0.00000000000E+00 -0.45593999997E+02  0.45594000000E+02  0.51100000000E-03 0.  1.
    9900012    2    1    2    0    0  0.16900008965E+02  0.34833993104E+02  0.19611366435E+02  0.47787273369E+02  0.20000010601E+02 0.  0.
        -12    1    1    2    0    0 -0.16900008965E+02 -0.34833993104E+02 -0.19611366435E+02  0.43400726631E+02  0.00000000000E+00 0.  1.
         11    1    3    3    0    0  0.90966334252E+01  0.12841637838E+02  0.92714365684E+01  0.18265156401E+02  0.51100000000E-03 0. -1.
        -11    1    3    3    0    0 -0.24409399877E+01  0.14960976599E+02  0.46493397459E+01  0.15855767694E+02  0.51100000000E-03 0.  1.
        -12    1    3    3    0    0  0.10244315528E+02  0.70313786674E+01  0.56905901202E+01  0.13666349275E+02  0.00000000000E+00 0.  1.
</event>
<event>
 7    1  0.2700100E-010  0.4778727E+02  0.7816164E-02  0.1312668E+00
        -11   -1    0    0    0    0  0.00000000000E+00  0.00000000000E+00  0.45593999997E+02  0.45594000000E+02  0.51100000000E-03 0.  1.
         11   -1    0    0    0    0 -0.00000000000E+00 -0.00000000000E+00 -0.45593999997E+02  0.45594000000E+02  0.51100000000E-03 0. -1.
    9900012    2    1    2    0    0 -0.37577357271E+02 -0.71945082823E+01 -0.20489138723E+02  0.47787268041E+02  0.19999986308E+02 0.  0.
        -12    1    1    2    0    0  0.37577357271E+02  0.71945082823E+01  0.20489138723E+02  0.43400731959E+02  0.00000000000E+00 0.  1.
         11    1    3    3    0    0 -0.24533656577E+02 -0.29150818624E+01 -0.82090910408E+01  0.26034346224E+02  0.51100000000E-03 0. -1.
        -11    1    3    3    0    0 -0.50811515235E+01 -0.24572784886E+01 -0.12356126602E+02  0.13584188722E+02  0.51100000000E-03 0.  1.
        -12    1    3    3    0    0 -0.79625491706E+01 -0.18221479314E+01  0.76078919863E-01  0.81687330952E+01  0.00000000000E+00 0.  1.
</event>
<event>
 7    1  0.2700100E-010  0.4778727E+02  0.7816164E-02  0.1312668E+00
        -11   -1    0    0    0    0  0.00000000000E+00  0.00000000000E+00  0.45593999997E+02  0.45594000000E+02  0.51100000000E-03 0. -1.
         11   -1    0    0    0    0 -0.00000000000E+00 -0.00000000000E+00 -0.45593999997E+02  0.45594000000E+02  0.51100000000E-03 0.  1.
    9900012    2    1    2    0    0  0.33717296713E+02  0.15887418501E+01  0.27280815623E+02  0.47787273055E+02  0.20000009167E+02 0.  0.
        -12    1    1    2    0    0 -0.33717296713E+02 -0.15887418501E+01 -0.27280815623E+02  0.43400726945E+02  0.00000000000E+00 0.  1.
         11    1    3    3    0    0  0.10440414083E+02  0.54892909489E+01  0.16997306638E+02  0.20689199950E+02  0.51100000000E-03 0. -1.
        -11    1    3    3    0    0  0.10743710129E+02 -0.17258293189E+00  0.48096087971E+00  0.10755854956E+02  0.51100000000E-03 0.  1.
         12    1    3    3    0    0  0.12533172502E+02 -0.37279661669E+01  0.98025481047E+01  0.16342218150E+02  0.00000000000E+00 0. -1.
</event>
<event>
 7    1  0.2700100E-010  0.4778729E+02  0.7816164E-02  0.1312668E+00
        -11   -1    0    0    0    0  0.00000000000E+00  0.00000000000E+00  0.45593999997E+02  0.45594000000E+02  0.51100000000E-03 0. -1.
         11   -1    0    0    0    0 -0.00000000000E+00 -0.00000000000E+00 -0.45593999997E+02  0.45594000000E+02  0.51100000000E-03 0.  1.
    9900012    2    1    2    0    0 -0.35953863692E+02 -0.55336827491E+01 -0.23671069100E+02  0.47787291809E+02  0.20000094672E+02 0.  0.
        -12    1    1    2    0    0  0.35953863692E+02  0.55336827491E+01  0.23671069100E+02  0.43400708191E+02  0.00000000000E+00 0.  1.
         11    1    3    3    0    0 -0.53979702474E+01 -0.33674647686E+01 -0.46278319402E+01  0.78673204135E+01  0.51100000000E-03 0. -1.
        -11    1    3    3    0    0 -0.26693690318E+02 -0.75083902877E+01 -0.11828078420E+02  0.30146848374E+02  0.51100000000E-03 0.  1.
        -12    1    3    3    0    0 -0.38622031268E+01  0.53421723072E+01 -0.72151587396E+01  0.97731230214E+01  0.00000000000E+00 0.  1.
</event>
<event>
 7    1  0.2700100E-010  0.4778726E+02  0.7816164E-02  0.1312668E+00
        -11   -1    0    0    0    0  0.00000000000E+00  0.00000000000E+00  0.45593999997E+02  0.45594000000E+02  0.51100000000E-03 0.  1.
         11   -1    0    0    0    0 -0.00000000000E+00 -0.00000000000E+00 -0.45593999997E+02  0.45594000000E+02  0.51100000000E-03 0. -1.
    9900012    2    1    2    0    0 -0.65315549195E+01  0.33879454377E+02 -0.26327653856E+02  0.47787262724E+02  0.19999962064E+02 0.  0.
        -12    1    1    2    0    0  0.65315549195E+01 -0.33879454377E+02  0.26327653856E+02  0.43400737276E+02  0.00000000000E+00 0.  1.
         11    1    3    3    0    0 -0.48901728856E-01  0.51718256076E+01 -0.45020118336E+01  0.68569878449E+01  0.51100000000E-03 0. -1.
        -11    1    3    3    0    0  0.47256871638E+01  0.14721793870E+02 -0.15581017744E+02  0.21950659401E+02  0.51100000000E-03 0.  1.
        -12    1    3    3    0    0 -0.11208340354E+02  0.13985834899E+02 -0.62446242781E+01  0.18979615478E+02  0.00000000000E+00 0.  1.
</event>
<event>
 7    1  0.2700100E-010  0.4778727E+02  0.7816164E-02  0.1312668E+00
        -11   -1    0    0    0    0  0.00000000000E+00  0.00000000000E+00  0.45593999997E+02  0.45594000000E+02  0.51100000000E-03 0.  1.
         11   -1    0    0    0    0 -0.00000000000E+00 -0.00000000000E+00 -0.45593999997E+02  0.45594000000E+02  0.51100000000E-03 0. -1.
    9900012    2    1    2    0    0 -0.67246622187E+01 -0.42869446229E+02  0.78267645179E+00  0.47787273227E+02  0.20000009952E+02 0.  0.
        -12    1    1    2    0    0  0.67246622187E+01  0.42869446229E+02 -0.78267645179E+00  0.43400726773E+02  0.00000000000E+00 0.  1.
         11    1    3    3    0    0 -0.10452259144E+02 -0.29726725425E+02  0.20920821801E+01  0.31580131947E+02  0.51100000000E-03 0. -1.
        -11    1    3    3    0    0 -0.64326930054E+00 -0.43079508577E+01  0.31630810573E+01  0.53830584263E+01  0.51100000000E-03 0.  1.
         12    1    3    3    0    0  0.43708662255E+01 -0.88347699470E+01 -0.44724867856E+01  0.10824082854E+02  0.00000000000E+00 0. -1.
</event>
<event>
 7    1  0.2700100E-010  0.4778727E+02  0.7816164E-02  0.1312668E+00
        -11   -1    0    0    0    0  0.00000000000E+00  0.00000000000E+00  0.45593999997E+02  0.45594000000E+02  0.51100000000E-03 0. -1.
         11   -1    0    0    0    0 -0.00000000000E+00 -0.00000000000E+00 -0.45593999997E+02  0.45594000000E+02  0.51100000000E-03 0.  1.
    9900012    2    1    2    0    0  0.88809227637E+00 -0.41292796539E+02 -0.13331906355E+02  0.47787268659E+02  0.19999989124E+02 0.  0.
        -12    1    1    2    0    0 -0.88809227637E+00  0.41292796539E+02  0.13331906355E+02  0.43400731341E+02  0.00000000000E+00 0.  1.
         11    1    3    3    0    0  0.35547264907E+01 -0.13870070033E+02  0.27994281896E+01  0.14589438700E+02  0.51100000000E-03 0. -1.
        -11    1    3    3    0    0 -0.52655162936E+01 -0.99090725546E+01 -0.75311187295E+01  0.13514182562E+02  0.51100000000E-03 0.  1.
         12    1    3    3    0    0  0.25988820792E+01 -0.17513653951E+02 -0.86002158150E+01  0.19683647397E+02  0.00000000000E+00 0. -1.
</event>
<event>
 7    1  0.2700100E-010  0.4778727E+02  0.7816164E-02  0.1312668E+00
        -11   -1    0    0    0    0  0.00000000000E+00  0.00000000000E+00  0.45593999997E+02  0.45594000000E+02  0.51100000000E-03 0.  1.
         11   -1    0    0    0    0 -0.00000000000E+00 -0.00000000000E+00 -0.45593999997E+02  0.45594000000E+02  0.51100000000E-03 0. -1.
    9900012    2    1    2    0    0 -0.11050079374E+02 -0.29660287086E+02 -0.29694889258E+02  0.47787270372E+02  0.19999996934E+02 0.  0.
        -12    1    1    2    0    0  0.11050079374E+02  0.29660287086E+02  0.29694889258E+02  0.43400729628E+02  0.00000000000E+00 0.  1.
         11    1    3    3    0    0  0.18567663030E+01 -0.13031474966E+02 -0.20481646204E+02  0.24346760614E+02  0.51100000000E-03 0. -1.
        -11    1    3    3    0    0 -0.10073142095E+02 -0.96154460879E+01 -0.50993962648E+01  0.14829997898E+02  0.51100000000E-03 0.  1.
        -12    1    3    3    0    0 -0.28337035815E+01 -0.70133660321E+01 -0.41138467890E+01  0.86105118600E+01  0.00000000000E+00 0.  1.
</event>
<event>
 7    1  0.2700100E-010  0.4778727E+02  0.7816164E-02  0.1312668E+00
        -11   -1    0    0    0    0  0.00000000000E+00  0.00000000000E+00  0.45593999997E+02  0.45594000000E+02  0.51100000000E-03 0.  1.
         11   -1    0    0    0    0 -0.00000000000E+00 -0.00000000000E+00 -0.45593999997E+02  0.45594000000E+02  0.51100000000E-03 0. -1.
    9900012    2    1    2    0    0 -0.56000740846E-01 -0.53916780216E+01 -0.43064491114E+02  0.47787265872E+02  0.19999976415E+02 0.  0.
        -12    1    1    2    0    0  0.56000740846E-01  0.53916780216E+01  0.43064491114E+02  0.43400734128E+02  0.00000000000E+00 0.  1.
         11    1    3    3    0    0 -0.20368417471E+01  0.24581682871E+01 -0.19203666616E+02  0.19467206460E+02  0.51100000000E-03 0. -1.
        -11    1    3    3    0    0  0.65086873428E+01 -0.84321297841E+01 -0.15775631051E+02  0.19035082320E+02  0.51100000000E-03 0.  1.
        -12    1    3    3    0    0 -0.45278463366E+01  0.58228347534E+00 -0.80851934479E+01  0.92849770911E+01  0.00000000000E+00 0.  1.
</event>
<event>
 7    1  0.2700100E-010  0.4778727E+02  0.7816164E-02  0.1312668E+00
        -11   -1    0    0    0    0  0.00000000000E+00  0.00000000000E+00  0.45593999997E+02  0.45594000000E+02  0.51100000000E-03 0. -1.
         11   -1    0    0    0    0 -0.00000000000E+00 -0.00000000000E+00 -0.45593999997E+02  0.45594000000E+02  0.51100000000E-03 0.  1.
    9900012    2    1    2    0    0 -0.10480238923E+02  0.36271133583E+02  0.21405434603E+02  0.47787272243E+02  0.20000005466E+02 0.  0.
        -12    1    1    2    0    0  0.10480238923E+02 -0.36271133583E+02 -0.21405434603E+02  0.43400727757E+02  0.00000000000E+00 0.  1.
         11    1    3    3    0    0 -0.88600391915E+01  0.30737656734E+02  0.24276793803E+02  0.40158019791E+02  0.51100000000E-03 0. -1.
        -11    1    3    3    0    0 -0.30639160360E+00  0.31176635565E+01 -0.36120667851E+01  0.47812894273E+01  0.51100000000E-03 0.  1.
        -12    1    3    3    0    0 -0.13138081277E+01  0.24158132929E+01  0.74070758538E+00  0.28479630246E+01  0.00000000000E+00 0.  1.
</event>
<event>
 7    1  0.2700100E-010  0.4778727E+02  0.7816164E-02  0.1312668E+00
        -11   -1    0    0    0    0  0.00000000000E+00  0.00000000000E+00  0.45593999997E+02  0.45594000000E+02  0.51100000000E-03 0.  1.
         11   -1    0    0    0    0 -0.00000000000E+00 -0.00000000000E+00 -0.45593999997E+02  0.45594000000E+02  0.51100000000E-03 0. -1.
    9900012    2    1    2    0    0 -0.33841423758E+02 -0.20097836197E+02 -0.18288201107E+02  0.47787270957E+02  0.19999999601E+02 0.  0.
        -12    1    1    2    0    0  0.33841423758E+02  0.20097836197E+02  0.18288201107E+02  0.43400729043E+02  0.00000000000E+00 0.  1.
         11    1    3    3    0    0  0.21382369552E+01 -0.60690896968E+00  0.10570280261E+01  0.24612403953E+01  0.51100000000E-03 0. -1.
        -11    1    3    3    0    0 -0.39869985061E+01 -0.16629799331E+01 -0.13988338401E+01  0.45407483655E+01  0.51100000000E-03 0.  1.
         12    1    3    3    0    0 -0.31992662207E+02 -0.17827947294E+02 -0.17946395293E+02  0.40785282196E+02  0.00000000000E+00 0. -1.
</event>
<event>
 7    1  0.2700100E-010  0.4778726E+02  0.7816164E-02  0.1312668E+00
        -11   -1    0    0    0    0  0.00000000000E+00  0.00000000000E+00  0.45593999997E+02  0.45594000000E+02  0.51100000000E-03 0. -1.
         11   -1    0    0    0    0 -0.00000000000E+00 -0.00000000000E+00 -0.45593999997E+02  0.45594000000E+02  0.51100000000E-03 0.  1.
    9900012    2    1    2    0    0  0.31903560475E+02 -0.17020238292E+02 -0.24002052673E+02  0.47787260202E+02  0.19999950567E+02 0.  0.
        -12    1    1    2    0    0 -0.31903560475E+02  0.17020238292E+02  0.24002052673E+02  0.43400739798E+02  0.00000000000E+00 0.  1.
         11    1    3    3    0    0  0.31558374253E+01 -0.23746617538E+01  0.31215814371E+01  0.50341433461E+01  0.51100000000E-03 0. -1.
        -11    1    3    3    0    0  0.21011088274E+02 -0.93645022073E+01 -0.22963699704E+02  0.32503711118E+02  0.51100000000E-03 0.  1.
         12    1    3    3    0    0  0.77366347757E+01 -0.52810743306E+01 -0.41599344054E+01  0.10249405739E+02  0.00000000000E+00 0. -1.
</event>
<event>
 7    1  0.2788291E-010  0.4778727E+02  0.7816164E-02  0.1312668E+00
        -11   -1    0    0    0    0  0.00000000000E+00  0.00000000000E+00  0.45593999997E+02  0.45594000000E+02  0.51100000000E-03 0. -1.
         11   -1    0    0    0    0 -0.00000000000E+00 -0.00000000000E+00 -0.45593999997E+02  0.45594000000E+02  0.51100000000E-03 0.  1.
    9900012    2    1    2    0    0  0.36193622362E+02  0.21624224900E+02  0.10297473907E+02  0.47787269925E+02  0.19999994895E+02 0.  0.
        -12    1    1    2    0    0 -0.36193622362E+02 -0.21624224900E+02 -0.10297473907E+02  0.43400730075E+02  0.00000000000E+00 0.  1.
         11    1    3    3    0    0  0.18604999429E+02  0.13538100499E+02  0.91752808283E+01  0.24771191885E+02  0.51100000000E-03 0. -1.
        -11    1    3    3    0    0  0.80969896114E+00 -0.26412383565E+01 -0.11081670652E+01  0.29765394284E+01  0.51100000000E-03 0.  1.
        -12    1    3    3    0    0  0.16778923972E+02  0.10727362758E+02  0.22303601441E+01  0.20039538611E+02  0.00000000000E+00 0.  1.
</event>
<event>
 7    1  0.2700100E-010  0.4778727E+02  0.7816164E-02  0.1312668E+00
        -11   -1    0    0    0    0  0.00000000000E+00  0.00000000000E+00  0.45593999997E+02  0.45594000000E+02  0.51100000000E-03 0. -1.
         11   -1    0    0    0    0 -0.00000000000E+00 -0.00000000000E+00 -0.45593999997E+02  0.45594000000E+02  0.51100000000E-03 0.  1.
    9900012    2    1    2    0    0 -0.23004830157E+02 -0.24973615942E+01  0.36717358165E+02  0.47787269406E+02  0.19999992530E+02 0.  0.
        -12    1    1    2    0    0  0.23004830157E+02  0.24973615942E+01 -0.36717358165E+02  0.43400730594E+02  0.00000000000E+00 0.  1.
         11    1    3    3    0    0 -0.52963536146E+01  0.24455362575E+00 -0.58548774788E+00  0.53342257405E+01  0.51100000000E-03 0.  1.
        -11    1    3    3    0    0 -0.17425602200E+02 -0.48604309498E+01  0.34117569014E+02  0.38617145372E+02  0.51100000000E-03 0. -1.
         12    1    3    3    0    0 -0.28287434265E+00  0.21185157299E+01  0.31852768990E+01  0.38358982930E+01  0.00000000000E+00 0. -1.
</event>
<event>
 7    1  0.2700100E-010  0.4778727E+02  0.7816164E-02  0.1312668E+00
        -11   -1    0    0    0    0  0.00000000000E+00  0.00000000000E+00  0.45593999997E+02  0.45594000000E+02  0.51100000000E-03 0.  1.
         11   -1    0    0    0    0 -0.00000000000E+00 -0.00000000000E+00 -0.45593999997E+02  0.45594000000E+02  0.51100000000E-03 0. -1.
    9900012    2    1    2    0    0 -0.40445912485E+02 -0.15708557460E+02  0.99629480843E+00  0.47787271694E+02  0.20000002960E+02 0.  0.
        -12    1    1    2    0    0  0.40445912485E+02  0.15708557460E+02 -0.99629480843E+00  0.43400728306E+02  0.00000000000E+00 0.  1.
         11    1    3    3    0    0 -0.25635506262E+01 -0.72199495798E+01 -0.12845233636E+01  0.77684917636E+01  0.51100000000E-03 0. -1.
        -11    1    3    3    0    0 -0.20037991756E+02 -0.17639720931E+01  0.50748616370E+01  0.20745769016E+02  0.51100000000E-03 0.  1.
         12    1    3    3    0    0 -0.17844370102E+02 -0.67246357869E+01 -0.27940434649E+01  0.19273010914E+02  0.00000000000E+00 0. -1.
</event>
<event>
 7    1  0.2700100E-010  0.4778727E+02  0.7816164E-02  0.1312668E+00
        -11   -1    0    0    0    0  0.00000000000E+00  0.00000000000E+00  0.45593999997E+02  0.45594000000E+02  0.51100000000E-03 0.  1.
         11   -1    0    0    0    0 -0.00000000000E+00 -0.00000000000E+00 -0.45593999997E+02  0.45594000000E+02  0.51100000000E-03 0. -1.
    9900012    2    1    2    0    0  0.36823011375E+01 -0.16140930565E+02 -0.40119001598E+02  0.47787271085E+02  0.20000000186E+02 0.  0.
        -12    1    1    2    0    0 -0.36823011375E+01  0.16140930565E+02  0.40119001598E+02  0.43400728915E+02  0.00000000000E+00 0.  1.
         11    1    3    3    0    0 -0.51600507772E+00 -0.18598461086E+02 -0.36012039496E+02  0.40534380530E+02  0.51100000000E-03 0. -1.
        -11    1    3    3    0    0  0.20988770303E+01  0.10238894941E+01  0.10001988030E+00  0.23374427741E+01  0.51100000000E-03 0.  1.
         12    1    3    3    0    0  0.20994291849E+01  0.14336410270E+01 -0.42069819819E+01  0.49154477815E+01  0.00000000000E+00 0. -1.
</event>
<event>
 7    1  0.2700100E-010  0.4778727E+02  0.7816164E-02  0.1312668E+00
        -11   -1    0    0    0    0  0.00000000000E+00  0.00000000000E+00  0.45593999997E+02  0.45594000000E+02  0.51100000000E-03 0.  1.
         11   -1    0    0    0    0 -0.00000000000E+00 -0.00000000000E+00 -0.45593999997E+02  0.45594000000E+02  0.51100000000E-03 0. -1.
    9900012    2    1    2    0    0 -0.37708124660E+02  0.16633844488E+02 -0.13602776788E+02  0.47787274382E+02  0.20000015215E+02 0.  0.
        -12    1    1    2    0    0  0.37708124660E+02 -0.16633844488E+02  0.13602776788E+02  0.43400725618E+02  0.00000000000E+00 0.  1.
         11    1    3    3    0    0 -0.73673442496E+01 -0.30216160009E+01 -0.17093101821E+01  0.81443026779E+01  0.51100000000E-03 0. -1.
        -11    1    3    3    0    0 -0.11089718836E+02  0.12106474817E+02 -0.91160893770E+01  0.18779022396E+02  0.51100000000E-03 0.  1.
        -12    1    3    3    0    0 -0.19251061575E+02  0.75489856718E+01 -0.27773772289E+01  0.20863949308E+02  0.00000000000E+00 0.  1.
</event>
<event>
 7    1  0.2700100E-010  0.4778727E+02  0.7816164E-02  0.1312668E+00
        -11   -1    0    0    0    0  0.00000000000E+00  0.00000000000E+00  0.45593999997E+02  0.45594000000E+02  0.51100000000E-03 0.  1.
         11   -1    0    0    0    0 -0.00000000000E+00 -0.00000000000E+00 -0.45593999997E+02  0.45594000000E+02  0.51100000000E-03 0. -1.
    9900012    2    1    2    0    0 -0.28895663438E+02  0.10170400481E+02 -0.30744537451E+02  0.47787274262E+02  0.20000014671E+02 0.  0.
        -12    1    1    2    0    0  0.28895663438E+02 -0.10170400481E+02  0.30744537451E+02  0.43400725738E+02  0.00000000000E+00 0.  1.
         11    1    3    3    0    0 -0.14187951267E+02  0.23104949496E+01 -0.20896250731E+02  0.25363155224E+02  0.51100000000E-03 0. -1.
        -11    1    3    3    0    0 -0.91472356831E+01  0.47902322640E+01  0.43799116588E+00  0.10334896338E+02  0.51100000000E-03 0.  1.
        -12    1    3    3    0    0 -0.55604764879E+01  0.30696732676E+01 -0.10286277887E+02  0.12089222701E+02  0.00000000000E+00 0.  1.
</event>
<event>
 7    1  0.2700100E-010  0.4778728E+02  0.7816164E-02  0.1312668E+00
        -11   -1    0    0    0    0  0.00000000000E+00  0.00000000000E+00  0.45593999997E+02  0.45594000000E+02  0.51100000000E-03 0. -1.
         11   -1    0    0    0    0 -0.00000000000E+00 -0.00000000000E+00 -0.45593999997E+02  0.45594000000E+02  0.51100000000E-03 0.  1.
    9900012    2    1    2    0    0  0.26495673671E+01  0.14163454579E+02  0.40938967125E+02  0.47787277862E+02  0.20000031083E+02 0.  0.
        -12    1    1    2    0    0 -0.26495673671E+01 -0.14163454579E+02 -0.40938967125E+02  0.43400722138E+02  0.00000000000E+00 0.  1.
         11    1    3    3    0    0 -0.86608735353E-01  0.48549857164E+01  0.30397349895E+02  0.30782743028E+02  0.51100000000E-03 0. -1.
        -11    1    3    3    0    0  0.43752148770E+01  0.10005778555E+02  0.10604611166E+02  0.15222216920E+02  0.51100000000E-03 0.  1.
        -12    1    3    3    0    0 -0.16390387746E+01 -0.69730969303E+00 -0.62993935786E-01  0.17823179145E+01  0.00000000000E+00 0.  1.
</event>
<event>
 7    1  0.2700100E-010  0.4778727E+02  0.7816164E-02  0.1312668E+00
        -11   -1    0    0    0    0  0.00000000000E+00  0.00000000000E+00  0.45593999997E+02  0.45594000000E+02  0.51100000000E-03 0.  1.
         11   -1    0    0    0    0 -0.00000000000E+00 -0.00000000000E+00 -0.45593999997E+02  0.45594000000E+02  0.51100000000E-03 0. -1.
    9900012    2    1    2    0    0 -0.28772597136E+01  0.42140452026E+02 -0.99763258027E+01  0.47787269626E+02  0.19999993534E+02 0.  0.
        -12    1    1    2    0    0  0.28772597136E+01 -0.42140452026E+02  0.99763258027E+01  0.43400730374E+02  0.00000000000E+00 0.  1.
         11    1    3    3    0    0 -0.12012316300E+01  0.47197654736E+01 -0.46594618204E+01  0.67401578818E+01  0.51100000000E-03 0. -1.
        -11    1    3    3    0    0 -0.64891331642E+01  0.87279269303E+01 -0.49543638829E+01  0.11951204101E+02  0.51100000000E-03 0.  1.
        -12    1    3    3    0    0  0.48131050806E+01  0.28692759622E+02 -0.36250009943E+00  0.29095907643E+02  0.00000000000E+00 0.  1.
</event>
<event>
 7    1  0.2700100E-010  0.4778727E+02  0.7816164E-02  0.1312668E+00
        -11   -1    0    0    0    0  0.00000000000E+00  0.00000000000E+00  0.45593999997E+02  0.45594000000E+02  0.51100000000E-03 0. -1.
         11   -1    0    0    0    0 -0.00000000000E+00 -0.00000000000E+00 -0.45593999997E+02  0.45594000000E+02  0.51100000000E-03 0.  1.
    9900012    2    1    2    0    0 -0.39333388163E+02 -0.17057330191E+02  0.67494666960E+01  0.47787271454E+02  0.20000001868E+02 0.  0.
        -12    1    1    2    0    0  0.39333388163E+02  0.17057330191E+02 -0.67494666960E+01  0.43400728546E+02  0.00000000000E+00 0.  1.
         11    1    3    3    0    0 -0.24618929414E+02 -0.49311903882E+01  0.10507530248E+02  0.27217944748E+02  0.51100000000E-03 0. -1.
        -11    1    3    3    0    0 -0.12567496556E+01 -0.30215520355E+01 -0.27763041582E+01  0.42915103914E+01  0.51100000000E-03 0.  1.
         12    1    3    3    0    0 -0.13457709093E+02 -0.91045877674E+01 -0.98175939396E+00  0.16277816314E+02  0.00000000000E+00 0. -1.
</event>
<event>
 7    1  0.2700100E-010  0.4778727E+02  0.7816164E-02  0.1312668E+00
        -11   -1    0    0    0    0  0.00000000000E+00  0.00000000000E+00  0.45593999997E+02  0.45594000000E+02  0.51100000000E-03 0.  1.
         11   -1    0    0    0    0 -0.00000000000E+00 -0.00000000000E+00 -0.45593999997E+02  0.45594000000E+02  0.51100000000E-03 0. -1.
    9900012    2    1    2    0    0 -0.61991298536E+00 -0.77350123117E+01 -0.42701387143E+02  0.47787272224E+02  0.20000005379E+02 0.  0.
        -12    1    1    2    0    0  0.61991298536E+00  0.77350123117E+01  0.42701387143E+02  0.43400727776E+02  0.00000000000E+00 0.  1.
         11    1    3    3    0    0  0.18218930196E+01 -0.18816194512E+00 -0.46526334740E+01  0.50001697569E+01  0.51100000000E-03 0. -1.
        -11    1    3    3    0    0  0.77039785948E+01 -0.36792232929E+01 -0.19628967349E+02  0.21405240706E+02  0.51100000000E-03 0.  1.
        -12    1    3    3    0    0 -0.10145784600E+02 -0.38676270737E+01 -0.18419786320E+02  0.21381861762E+02  0.00000000000E+00 0.  1.
</event>
<event>
 7    1  0.2700100E-010  0.4778727E+02  0.7816164E-02  0.1312668E+00
        -11   -1    0    0    0    0  0.00000000000E+00  0.00000000000E+00  0.45593999997E+02  0.45594000000E+02  0.51100000000E-03 0.  1.
         11   -1    0    0    0    0 -0.00000000000E+00 -0.00000000000E+00 -0.45593999997E+02  0.45594000000E+02  0.51100000000E-03 0. -1.
    9900012    2    1    2    0    0  0.86421300500E+01  0.37408676639E+02 -0.20236790682E+02  0.47787271932E+02  0.20000004049E+02 0.  0.
        -12    1    1    2    0    0 -0.86421300500E+01 -0.37408676639E+02  0.20236790682E+02  0.43400728068E+02  0.00000000000E+00 0.  1.
         11    1    3    3    0    0  0.10811260163E+02  0.11755403718E+02 -0.11351428196E+02  0.19594075259E+02  0.51100000000E-03 0. -1.
        -11    1    3    3    0    0  0.81882242215E+00  0.21484887979E+02 -0.60619410553E+01  0.22338711048E+02  0.51100000000E-03 0.  1.
         12    1    3    3    0    0 -0.29879525352E+01  0.41683849418E+01 -0.28234214305E+01  0.58544856264E+01  0.00000000000E+00 0. -1.
</event>
<event>
 7    1  0.2700100E-010  0.4778727E+02  0.7816164E-02  0.1312668E+00
        -11   -1    0    0    0    0  0.00000000000E+00  0.00000000000E+00  0.45593999997E+02  0.45594000000E+02  0.51100000000E-03 0.  1.
         11   -1    0    0    0    0 -0.00000000000E+00 -0.00000000000E+00 -0.45593999997E+02  0.45594000000E+02  0.51100000000E-03 0. -1.
    9900012    2    1    2    0    0 -0.28509607035E+02 -0.29914299274E+02  0.13265008122E+02  0.47787269190E+02  0.19999991546E+02 0.  0.
        -12    1    1    2    0    0  0.28509607035E+02  0.29914299274E+02 -0.13265008122E+02  0.43400730810E+02  0.00000000000E+00 0.  1.
         11    1    3    3    0    0 -0.14672670430E+02 -0.10146622600E+02  0.14032851438E+02  0.22697183250E+02  0.51100000000E-03 0. -1.
        -11    1    3    3    0    0 -0.13068081646E+02 -0.13741882554E+02  0.28111541493E-01  0.18963514562E+02  0.51100000000E-03 0.  1.
        -12    1    3    3    0    0 -0.76885495947E+00 -0.60257941198E+01 -0.79595485706E+00  0.61265713786E+01  0.00000000000E+00 0.  1.
</event>
<event>
 7    1  0.2700100E-010  0.4778727E+02  0.7816164E-02  0.1312668E+00
        -11   -1    0    0    0    0  0.00000000000E+00  0.00000000000E+00  0.45593999997E+02  0.45594000000E+02  0.51100000000E-03 0.  1.
         11   -1    0    0    0    0 -0.00000000000E+00 -0.00000000000E+00 -0.45593999997E+02  0.45594000000E+02  0.51100000000E-03 0. -1.
    9900012    2    1    2    0    0 -0.89152805654E+01  0.24426588645E+02 -0.34748852315E+02  0.47787271923E+02  0.20000004007E+02 0.  0.
        -12    1    1    2    0    0  0.89152805654E+01 -0.24426588645E+02  0.34748852315E+02  0.43400728077E+02  0.00000000000E+00 0.  1.
         11    1    3    3    0    0 -0.32007057747E+00  0.23797999430E+02 -0.27779047844E+02  0.36580359777E+02  0.51100000000E-03 0. -1.
        -11    1    3    3    0    0 -0.45300362435E+01  0.95444657405E+00 -0.43980155701E+01  0.63855099911E+01  0.51100000000E-03 0.  1.
         12    1    3    3    0    0 -0.40651737444E+01 -0.32585735894E+00 -0.25717889012E+01  0.48214021553E+01  0.00000000000E+00 0. -1.
</event>
<event>
 7    1  0.2700100E-010  0.4778727E+02  0.7816164E-02  0.1312668E+00
        -11   -1    0    0    0    0  0.00000000000E+00  0.00000000000E+00  0.45593999997E+02  0.45594000000E+02  0.51100000000E-03 0.  1.
         11   -1    0    0    0    0 -0.00000000000E+00 -0.00000000000E+00 -0.45593999997E+02  0.45594000000E+02  0.51100000000E-03 0. -1.
    9900012    2    1    2    0    0 -0.68204024882E+01 -0.14604802929E+02 -0.40296464715E+02  0.47787271582E+02  0.20000002452E+02 0.  0.
        -12    1    1    2    0    0  0.68204024882E+01  0.14604802929E+02  0.40296464715E+02  0.43400728418E+02  0.00000000000E+00 0.  1.
         11    1    3    3    0    0 -0.86218947963E+01 -0.16980576495E+02 -0.33019273320E+02  0.38117574146E+02  0.51100000000E-03 0. -1.
        -11    1    3    3    0    0  0.30162699133E+01  0.16547318615E+01 -0.74888356010E+01  0.82412790660E+01  0.51100000000E-03 0.  1.
         12    1    3    3    0    0 -0.12147776053E+01  0.72104170463E+00  0.21164420599E+00  0.14284183701E+01  0.00000000000E+00 0. -1.
</event>
<event>
 7    1  0.2700100E-010  0.4778727E+02  0.7816164E-02  0.1312668E+00
        -11   -1    0    0    0    0  0.00000000000E+00  0.00000000000E+00  0.45593999997E+02  0.45594000000E+02  0.51100000000E-03 0.  1.
         11   -1    0    0    0    0 -0.00000000000E+00 -0.00000000000E+00 -0.45593999997E+02  0.45594000000E+02  0.51100000000E-03 0. -1.
    9900012    2    1    2    0    0 -0.39726037659E+02  0.14362486975E+02 -0.99591346434E+01  0.47787268865E+02  0.19999990063E+02 0.  0.
        -12    1    1    2    0    0  0.39726037659E+02 -0.14362486975E+02  0.99591346434E+01  0.43400731135E+02  0.00000000000E+00 0.  1.
         11    1    3    3    0    0 -0.15220855663E+02  0.54242181289E+01 -0.27231757923E+01  0.16386344195E+02  0.51100000000E-03 0. -1.
        -11    1    3    3    0    0 -0.21952866078E+02  0.10248773390E+01 -0.70645887688E+01  0.23084347886E+02  0.51100000000E-03 0.  1.
        -12    1    3    3    0    0 -0.25523159187E+01  0.79133915076E+01 -0.17137008233E+00  0.83165767841E+01  0.00000000000E+00 0.  1.
</event>
<event>
 7    1  0.2724104E-010  0.4778727E+02  0.7816164E-02  0.1312668E+00
        -11   -1    0    0    0    0  0.00000000000E+00  0.00000000000E+00  0.45593999997E+02  0.45594000000E+02  0.51100000000E-03 0. -1.
         11   -1    0    0    0    0 -0.00000000000E+00 -0.00000000000E+00 -0.45593999997E+02  0.45594000000E+02  0.51100000000E-03 0.  1.
    9900012    2    1    2    0    0 -0.39145425196E+02 -0.18720886028E+02  0.88737093787E+00  0.47787270575E+02  0.19999997858E+02 0.  0.
        -12    1    1    2    0    0  0.39145425196E+02  0.18720886028E+02 -0.88737093787E+00  0.43400729425E+02  0.00000000000E+00 0.  1.
         11    1    3    3    0    0 -0.21095263359E+02 -0.37363504783E+01 -0.49992837496E+01  0.21999165651E+02  0.51100000000E-03 0.  1.
        -11    1    3    3    0    0 -0.18851794696E+02 -0.14543507002E+02  0.46660279777E+01  0.24262637460E+02  0.51100000000E-03 0. -1.
        -12    1    3    3    0    0  0.80163285779E+00 -0.44102854684E+00  0.12206267098E+01  0.15254674636E+01  0.00000000000E+00 0.  1.
</event>
<event>
 7    1  0.2700100E-010  0.4778727E+02  0.7816164E-02  0.1312668E+00
        -11   -1    0    0    0    0  0.00000000000E+00  0.00000000000E+00  0.45593999997E+02  0.45594000000E+02  0.51100000000E-03 0.  1.
         11   -1    0    0    0    0 -0.00000000000E+00 -0.00000000000E+00 -0.45593999997E+02  0.45594000000E+02  0.51100000000E-03 0. -1.
    9900012    2    1    2    0    0 -0.24491641144E+02 -0.10828803300E+02 -0.34154349090E+02  0.47787273870E+02  0.20000012882E+02 0.  0.
        -12    1    1    2    0    0  0.24491641144E+02  0.10828803300E+02  0.34154349090E+02  0.43400726130E+02  0.00000000000E+00 0.  1.
         11    1    3    3    0    0 -0.19762657337E+02 -0.47928156080E+01 -0.16093930766E+02  0.25933536478E+02  0.51100000000E-03 0. -1.
        -11    1    3    3    0    0  0.26175688836E+01 -0.37118071878E+01 -0.77381324593E+01  0.89726179947E+01  0.51100000000E-03 0.  1.
        -12    1    3    3    0    0 -0.73465526909E+01 -0.23241805041E+01 -0.10322285865E+02  0.12881119398E+02  0.00000000000E+00 0.  1.
</event>
<event>
 7    1  0.2700100E-010  0.4778727E+02  0.7816164E-02  0.1312668E+00
        -11   -1    0    0    0    0  0.00000000000E+00  0.00000000000E+00  0.45593999997E+02  0.45594000000E+02  0.51100000000E-03 0.  1.
         11   -1    0    0    0    0 -0.00000000000E+00 -0.00000000000E+00 -0.45593999997E+02  0.45594000000E+02  0.51100000000E-03 0. -1.
    9900012    2    1    2    0    0  0.21594484880E+02  0.23257061142E+02 -0.29604233116E+02  0.47787270875E+02  0.19999999227E+02 0.  0.
        -12    1    1    2    0    0 -0.21594484880E+02 -0.23257061142E+02  0.29604233116E+02  0.43400729125E+02  0.00000000000E+00 0.  1.
         11    1    3    3    0    0  0.15522230964E+02  0.53755818096E+01 -0.17921930039E+02  0.24311151977E+02  0.51100000000E-03 0. -1.
        -11    1    3    3    0    0  0.56459899643E+00  0.11763485265E+02 -0.89865553749E+01  0.14814065457E+02  0.51100000000E-03 0.  1.
         12    1    3    3    0    0  0.55076549199E+01  0.61179940672E+01 -0.26957477023E+01  0.86620534400E+01  0.00000000000E+00 0. -1.
</event>
<event>
 7    1  0.2700100E-010  0.4778727E+02  0.7816164E-02  0.1312668E+00
        -11   -1    0    0    0    0  0.00000000000E+00  0.00000000000E+00  0.45593999997E+02  0.45594000000E+02  0.51100000000E-03 0.  1.
         11   -1    0    0    0    0 -0.00000000000E+00 -0.00000000000E+00 -0.45593999997E+02  0.45594000000E+02  0.51100000000E-03 0. -1.
    9900012    2    1    2    0    0  0.69409357542E+01 -0.18525721240E+02 -0.38629582976E+02  0.47787267086E+02  0.19999981951E+02 0.  0.
        -12    1    1    2    0    0 -0.69409357542E+01  0.18525721240E+02  0.38629582976E+02  0.43400732914E+02  0.00000000000E+00 0.  1.
         11    1    3    3    0    0 -0.24916112347E+01 -0.44822194649E+01 -0.12847421543E+02  0.13833100102E+02  0.51100000000E-03 0. -1.
        -11    1    3    3    0    0  0.95120576414E+01 -0.19087016628E+01 -0.14057720275E+02  0.17080453220E+02  0.51100000000E-03 0.  1.
        -12    1    3    3    0    0 -0.79510652495E-01 -0.12134800112E+02 -0.11724441158E+02  0.16873713763E+02  0.00000000000E+00 0.  1.
</event>
<event>
 7    1  0.2700100E-010  0.4778726E+02  0.7816164E-02  0.1312668E+00
        -11   -1    0    0    0    0  0.00000000000E+00  0.00000000000E+00  0.45593999997E+02  0.45594000000E+02  0.51100000000E-03 0.  1.
         11   -1    0    0    0    0 -0.00000000000E+00 -0.00000000000E+00 -0.45593999997E+02  0.45594000000E+02  0.51100000000E-03 0. -1.
    9900012    2    1    2    0    0  0.32653189241E+02 -0.23061669896E+02  0.16898303033E+02  0.47787262317E+02  0.19999960209E+02 0.  0.
        -12    1    1    2    0    0 -0.32653189241E+02  0.23061669896E+02 -0.16898303033E+02  0.43400737683E+02  0.00000000000E+00 0.  1.
         11    1    3    3    0    0  0.11381954277E+02 -0.63163664340E+01 -0.10526543972E+01  0.13059611389E+02  0.51100000000E-03 0. -1.
        -11    1    3    3    0    0  0.11498698529E+02 -0.13416257853E+02  0.16727216161E+02  0.24331374877E+02  0.51100000000E-03 0.  1.
        -12    1    3    3    0    0  0.97725364350E+01 -0.33290456094E+01  0.12237412695E+01  0.10396276051E+02  0.00000000000E+00 0.  1.
</event>
<event>
 7    1  0.2700100E-010  0.4778727E+02  0.7816164E-02  0.1312668E+00
        -11   -1    0    0    0    0  0.00000000000E+00  0.00000000000E+00  0.45593999997E+02  0.45594000000E+02  0.51100000000E-03 0. -1.
         11   -1    0    0    0    0 -0.00000000000E+00 -0.00000000000E+00 -0.45593999997E+02  0.45594000000E+02  0.51100000000E-03 0.  1.
    9900012    2    1    2    0    0  0.27558994258E+02  0.15184234239E+02  0.29892540127E+02  0.47787273172E+02  0.20000009701E+02 0.  0.
        -12    1    1    2    0    0 -0.27558994258E+02 -0.15184234239E+02 -0.29892540127E+02  0.43400726828E+02  0.00000000000E+00 0.  1.
         11    1    3    3    0    0  0.19415781919E+02  0.66247551906E+01  0.96175637830E+01  0.22657393986E+02  0.51100000000E-03 0. -1.
        -11    1    3    3    0    0 -0.11282075526E+01  0.37072505164E+01  0.28732060168E+01  0.48240928421E+01  0.51100000000E-03 0.  1.
         12    1    3    3    0    0  0.92714198921E+01  0.48522285322E+01  0.17401770327E+02  0.20305786344E+02  0.00000000000E+00 0. -1.
</event>
<event>
 7    1  0.2700100E-010  0.4778727E+02  0.7816164E-02  0.1312668E+00
        -11   -1    0    0    0    0  0.00000000000E+00  0.00000000000E+00  0.45593999997E+02  0.45594000000E+02  0.51100000000E-03 0. -1.
         11   -1    0    0    0    0 -0.00000000000E+00 -0.00000000000E+00 -0.45593999997E+02  0.45594000000E+02  0.51100000000E-03 0.  1.
    9900012    2    1    2    0    0  0.29896467738E+02  0.30958181400E+02  0.56049308591E+01  0.47787273868E+02  0.20000012875E+02 0.  0.
        -12    1    1    2    0    0 -0.29896467738E+02 -0.30958181400E+02 -0.56049308591E+01  0.43400726132E+02  0.00000000000E+00 0.  1.
         11    1    3    3    0    0 -0.10689019767E+01  0.34375288263E+01 -0.24434212294E+01  0.43508003210E+01  0.51100000000E-03 0.  1.
        -11    1    3    3    0    0  0.20036180233E+02  0.11760953057E+02  0.68447933463E+01  0.24220233924E+02  0.51100000000E-03 0. -1.
        -12    1    3    3    0    0  0.10929189482E+02  0.15759699517E+02  0.12035587422E+01  0.19216239623E+02  0.00000000000E+00 0.  1.
</event>
<event>
 7    1  0.2700100E-010  0.4778728E+02  0.7816164E-02  0.1312668E+00
        -11   -1    0    0    0    0  0.00000000000E+00  0.00000000000E+00  0.45593999997E+02  0.45594000000E+02  0.51100000000E-03 0.  1.
         11   -1    0    0    0    0 -0.00000000000E+00 -0.00000000000E+00 -0.45593999997E+02  0.45594000000E+02  0.51100000000E-03 0. -1.
    9900012    2    1    2    0    0 -0.36119209937E+02  0.17164605748E+02 -0.16864218796E+02  0.47787275437E+02  0.20000020027E+02 0.  0.
        -12    1    1    2    0    0  0.36119209937E+02 -0.17164605748E+02  0.16864218796E+02  0.43400724563E+02  0.00000000000E+00 0.  1.
         11    1    3    3    0    0 -0.25058200152E+02  0.35855105063E+01 -0.96423644111E+01  0.27087718105E+02  0.51100000000E-03 0. -1.
        -11    1    3    3    0    0 -0.20539577993E+01  0.73309674068E+01 -0.75162003435E-01  0.76136374584E+01  0.51100000000E-03 0.  1.
        -12    1    3    3    0    0 -0.90070519861E+01  0.62481278355E+01 -0.71466923818E+01  0.13085919873E+02  0.00000000000E+00 0.  1.
</event>
<event>
 7    1  0.2700100E-010  0.4778726E+02  0.7816164E-02  0.1312668E+00
        -11   -1    0    0    0    0  0.00000000000E+00  0.00000000000E+00  0.45593999997E+02  0.45594000000E+02  0.51100000000E-03 0.  1.
         11   -1    0    0    0    0 -0.00000000000E+00 -0.00000000000E+00 -0.45593999997E+02  0.45594000000E+02  0.51100000000E-03 0. -1.
    9900012    2    1    2    0    0 -0.92338142452E+01  0.12632697227E+02 -0.40481793566E+02  0.47787262966E+02  0.19999963167E+02 0.  0.
        -12    1    1    2    0    0  0.92338142452E+01 -0.12632697227E+02  0.40481793566E+02  0.43400737034E+02  0.00000000000E+00 0.  1.
         11    1    3    3    0    0 -0.10853256282E+02  0.46935989271E+01 -0.34188566688E+02  0.36175698131E+02  0.51100000000E-03 0. -1.
        -11    1    3    3    0    0 -0.15677596812E+01  0.33658775657E+01 -0.82636711142E+00  0.38039302135E+01  0.51100000000E-03 0.  1.
         12    1    3    3    0    0  0.31872017177E+01  0.45732207346E+01 -0.54668597665E+01  0.78076346216E+01  0.00000000000E+00 0. -1.
</event>
<event>
 7    1  0.2700100E-010  0.4778726E+02  0.7816164E-02  0.1312668E+00
        -11   -1    0    0    0    0  0.00000000000E+00  0.00000000000E+00  0.45593999997E+02  0.45594000000E+02  0.51100000000E-03 0.  1.
         11   -1    0    0    0    0 -0.00000000000E+00 -0.00000000000E+00 -0.45593999997E+02  0.45594000000E+02  0.51100000000E-03 0. -1.
    9900012    2    1    2    0    0 -0.14163071420E+02  0.40601283939E+02 -0.58794027580E+01  0.47787260071E+02  0.19999949969E+02 0.  0.
        -12    1    1    2    0    0  0.14163071420E+02 -0.40601283939E+02  0.58794027580E+01  0.43400739929E+02  0.00000000000E+00 0.  1.
         11    1    3    3    0    0 -0.31146375594E+01  0.18024836847E+02 -0.30379195605E+00  0.18294480050E+02  0.51100000000E-03 0. -1.
        -11    1    3    3    0    0 -0.12260783370E+02  0.20388342413E+02 -0.88399043181E+01  0.25380213234E+02  0.51100000000E-03 0.  1.
        -12    1    3    3    0    0  0.12123495093E+01  0.21881046798E+01  0.32642935161E+01  0.41125667876E+01  0.00000000000E+00 0.  1.
</event>
<event>
 7    1  0.2700100E-010  0.4778728E+02  0.7816164E-02  0.1312668E+00
        -11   -1    0    0    0    0  0.00000000000E+00  0.00000000000E+00  0.45593999997E+02  0.45594000000E+02  0.51100000000E-03 0. -1.
         11   -1    0    0    0    0 -0.00000000000E+00 -0.00000000000E+00 -0.45593999997E+02  0.45594000000E+02  0.51100000000E-03 0.  1.
    9900012    2    1    2    0    0  0.30597651064E+02 -0.29960700645E+02  0.70542666477E+01  0.47787279824E+02  0.20000040032E+02 0.  0.
        -12    1    1    2    0    0 -0.30597651064E+02  0.29960700645E+02 -0.70542666477E+01  0.43400720176E+02  0.00000000000E+00 0.  1.
         11    1    3    3    0    0  0.56584985846E+00 -0.27463214864E+01 -0.41037559793E+01  0.49702395483E+01  0.51100000000E-03 0. -1.
        -11    1    3    3    0    0  0.20920095413E+00 -0.90547644293E+00  0.17026897564E+01  0.19397951684E+01  0.51100000000E-03 0.  1.
         12    1    3    3    0    0  0.29822600252E+02 -0.26308902716E+02  0.94553328707E+01  0.40877245108E+02  0.00000000000E+00 0. -1.
</event>
<event>
 7    1  0.2700100E-010  0.4778727E+02  0.7816164E-02  0.1312668E+00
        -11   -1    0    0    0    0  0.00000000000E+00  0.00000000000E+00  0.45593999997E+02  0.45594000000E+02  0.51100000000E-03 0. -1.
         11   -1    0    0    0    0 -0.00000000000E+00 -0.00000000000E+00 -0.45593999997E+02  0.45594000000E+02  0.51100000000E-03 0.  1.
    9900012    2    1    2    0    0 -0.32434824391E+02  0.18087269572E+02  0.22460098787E+02  0.47787271995E+02  0.20000004334E+02 0.  0.
        -12    1    1    2    0    0  0.32434824391E+02 -0.18087269572E+02 -0.22460098787E+02  0.43400728005E+02  0.00000000000E+00 0.  1.
         11    1    3    3    0    0 -0.17768056183E+02  0.68618621654E+01  0.19206571323E+02  0.27049609150E+02  0.51100000000E-03 0. -1.
        -11    1    3    3    0    0 -0.25769353895E+01  0.71363420710E+01  0.85999472511E-01  0.75878435887E+01  0.51100000000E-03 0.  1.
         12    1    3    3    0    0 -0.12089832818E+02  0.40890653360E+01  0.31675279908E+01  0.13149819256E+02  0.00000000000E+00 0. -1.
</event>
<event>
 7    1  0.2700100E-010  0.4778727E+02  0.7816164E-02  0.1312668E+00
        -11   -1    0    0    0    0  0.00000000000E+00  0.00000000000E+00  0.45593999997E+02  0.45594000000E+02  0.51100000000E-03 0.  1.
         11   -1    0    0    0    0 -0.00000000000E+00 -0.00000000000E+00 -0.45593999997E+02  0.45594000000E+02  0.51100000000E-03 0. -1.
    9900012    2    1    2    0    0 -0.27596945738E+02  0.48669600357E+01 -0.33141278648E+02  0.47787273457E+02  0.20000010999E+02 0.  0.
        -12    1    1    2    0    0  0.27596945738E+02 -0.48669600357E+01  0.33141278648E+02  0.43400726543E+02  0.00000000000E+00 0.  1.
         11    1    3    3    0    0 -0.10952083506E+02 -0.37810053348E+01 -0.22247281539E+02  0.25083573721E+02  0.51100000000E-03 0. -1.
        -11    1    3    3    0    0 -0.11585926791E+02  0.35026574089E+01 -0.40633310079E+01  0.12767653178E+02  0.51100000000E-03 0.  1.
         12    1    3    3    0    0 -0.50589354405E+01  0.51453079616E+01 -0.68306661009E+01  0.99360465575E+01  0.00000000000E+00 0. -1.
</event>
<event>
 7    1  0.2700100E-010  0.4778728E+02  0.7816164E-02  0.1312668E+00
        -11   -1    0    0    0    0  0.00000000000E+00  0.00000000000E+00  0.45593999997E+02  0.45594000000E+02  0.51100000000E-03 0.  1.
         11   -1    0    0    0    0 -0.00000000000E+00 -0.00000000000E+00 -0.45593999997E+02  0.45594000000E+02  0.51100000000E-03 0. -1.
    9900012    2    1    2    0    0 -0.13041025094E+02 -0.94375811882E+01 -0.40304914418E+02  0.47787281107E+02  0.20000045880E+02 0.  0.
        -12    1    1    2    0    0  0.13041025094E+02  0.94375811882E+01  0.40304914418E+02  0.43400718893E+02  0.00000000000E+00 0.  1.
         11    1    3    3    0    0  0.25059116538E+01 -0.86478530190E+01 -0.14757564234E+02  0.17287297575E+02  0.51100000000E-03 0. -1.
        -11    1    3    3    0    0 -0.15246317430E+02 -0.40419127499E+00 -0.21150238392E+02  0.26075777075E+02  0.51100000000E-03 0.  1.
        -12    1    3    3    0    0 -0.30061931807E+00 -0.38553689420E+00 -0.43971117913E+01  0.44242064572E+01  0.00000000000E+00 0.  1.
</event>
<event>
 7    1  0.2700100E-010  0.4778727E+02  0.7816164E-02  0.1312668E+00
        -11   -1    0    0    0    0  0.00000000000E+00  0.00000000000E+00  0.45593999997E+02  0.45594000000E+02  0.51100000000E-03 0.  1.
         11   -1    0    0    0    0 -0.00000000000E+00 -0.00000000000E+00 -0.45593999997E+02  0.45594000000E+02  0.51100000000E-03 0. -1.
    9900012    2    1    2    0    0  0.17911940525E+02  0.45385412372E+01 -0.39270692678E+02  0.47787271050E+02  0.20000000027E+02 0.  0.
        -12    1    1    2    0    0 -0.17911940525E+02 -0.45385412372E+01  0.39270692678E+02  0.43400728950E+02  0.00000000000E+00 0.  1.
         11    1    3    3    0    0  0.15028940253E+02  0.10133244383E+02 -0.25658481753E+02  0.31415113767E+02  0.51100000000E-03 0. -1.
        -11    1    3    3    0    0 -0.18511167484E+01 -0.33154742220E+01 -0.65290339986E+01  0.75529654937E+01  0.51100000000E-03 0.  1.
         12    1    3    3    0    0  0.47341170209E+01 -0.22792289239E+01 -0.70831769264E+01  0.88191917898E+01  0.00000000000E+00 0. -1.
</event>
<event>
 7    1  0.2700100E-010  0.4778727E+02  0.7816164E-02  0.1312668E+00
        -11   -1    0    0    0    0  0.00000000000E+00  0.00000000000E+00  0.45593999997E+02  0.45594000000E+02  0.51100000000E-03 0. -1.
         11   -1    0    0    0    0 -0.00000000000E+00 -0.00000000000E+00 -0.45593999997E+02  0.45594000000E+02  0.51100000000E-03 0.  1.
    9900012    2    1    2    0    0 -0.11891967083E+02 -0.40835176816E+02  0.86425062809E+01  0.47787268883E+02  0.19999990145E+02 0.  0.
        -12    1    1    2    0    0  0.11891967083E+02  0.40835176816E+02 -0.86425062809E+01  0.43400731117E+02  0.00000000000E+00 0.  1.
         11    1    3    3    0    0  0.17452648922E+01 -0.17529524806E+02  0.27482315249E+01  0.17829272734E+02  0.51100000000E-03 0. -1.
        -11    1    3    3    0    0 -0.15399912909E+02 -0.22799338495E+02  0.52189574431E+01  0.28003654591E+02  0.51100000000E-03 0.  1.
        -12    1    3    3    0    0  0.17626809338E+01 -0.50631351507E+00  0.67531731299E+00  0.19543415575E+01  0.00000000000E+00 0.  1.
</event>
<event>
 7    1  0.2700100E-010  0.4778727E+02  0.7816164E-02  0.1312668E+00
        -11   -1    0    0    0    0  0.00000000000E+00  0.00000000000E+00  0.45593999997E+02  0.45594000000E+02  0.51100000000E-03 0.  1.
         11   -1    0    0    0    0 -0.00000000000E+00 -0.00000000000E+00 -0.45593999997E+02  0.45594000000E+02  0.51100000000E-03 0. -1.
    9900012    2    1    2    0    0  0.37883368095E+02 -0.15217153926E+02 -0.14727930950E+02  0.47787270722E+02  0.19999998529E+02 0.  0.
        -12    1    1    2    0    0 -0.37883368095E+02  0.15217153926E+02  0.14727930950E+02  0.43400729278E+02  0.00000000000E+00 0.  1.
         11    1    3    3    0    0  0.10901597304E+02 -0.30397592845E+01  0.32624294340E+01  0.11778302355E+02  0.51100000000E-03 0. -1.
        -11    1    3    3    0    0  0.14207691331E+02 -0.52599069885E+01 -0.14709594336E+02  0.21116279982E+02  0.51100000000E-03 0.  1.
         12    1    3    3    0    0  0.12774079460E+02 -0.69174876525E+01 -0.32807660480E+01  0.14892688385E+02  0.00000000000E+00 0. -1.
</event>
<event>
 7    1  0.2700100E-010  0.4778727E+02  0.7816164E-02  0.1312668E+00
        -11   -1    0    0    0    0  0.00000000000E+00  0.00000000000E+00  0.45593999997E+02  0.45594000000E+02  0.51100000000E-03 0. -1.
         11   -1    0    0    0    0 -0.00000000000E+00 -0.00000000000E+00 -0.45593999997E+02  0.45594000000E+02  0.51100000000E-03 0.  1.
    9900012    2    1    2    0    0  0.33524648066E+02 -0.27562971211E+02  0.63293477096E-01  0.47787269407E+02  0.19999992536E+02 0.  0.
        -12    1    1    2    0    0 -0.33524648066E+02  0.27562971211E+02 -0.63293477096E-01  0.43400730593E+02  0.00000000000E+00 0.  1.
         11    1    3    3    0    0  0.90851328570E+01 -0.17511216731E+02 -0.13596212809E+01  0.19774501782E+02  0.51100000000E-03 0. -1.
        -11    1    3    3    0    0  0.50179084183E+01 -0.37441513826E+01  0.40015809913E+01  0.74303919924E+01  0.51100000000E-03 0.  1.
         12    1    3    3    0    0  0.19421606791E+02 -0.63076030968E+01 -0.25786662332E+01  0.20582375633E+02  0.00000000000E+00 0. -1.
</event>
<event>
 7    1  0.2700100E-010  0.4778727E+02  0.7816164E-02  0.1312668E+00
        -11   -1    0    0    0    0  0.00000000000E+00  0.00000000000E+00  0.45593999997E+02  0.45594000000E+02  0.51100000000E-03 0. -1.
         11   -1    0    0    0    0 -0.00000000000E+00 -0.00000000000E+00 -0.45593999997E+02  0.45594000000E+02  0.51100000000E-03 0.  1.
    9900012    2    1    2    0    0 -0.27864765631E+02  0.10223150896E+02  0.31664891450E+02  0.47787270415E+02  0.19999997132E+02 0.  0.
        -12    1    1    2    0    0  0.27864765631E+02 -0.10223150896E+02 -0.31664891450E+02  0.43400729585E+02  0.00000000000E+00 0.  1.
         11    1    3    3    0    0 -0.16147103496E+02  0.12886014703E+02  0.24364657401E+02  0.31943933019E+02  0.51100000000E-03 0. -1.
        -11    1    3    3    0    0  0.54781967045E+00 -0.65265779164E+00 -0.66506828697E+00  0.10809184390E+01  0.51100000000E-03 0.  1.
         12    1    3    3    0    0 -0.12265481806E+02 -0.20102060153E+01  0.79653023367E+01  0.14762418957E+02  0.00000000000E+00 0. -1.
</event>
<event>
 7    1  0.2700100E-010  0.4778727E+02  0.7816164E-02  0.1312668E+00
        -11   -1    0    0    0    0  0.00000000000E+00  0.00000000000E+00  0.45593999997E+02  0.45594000000E+02  0.51100000000E-03 0. -1.
         11   -1    0    0    0    0 -0.00000000000E+00 -0.00000000000E+00 -0.45593999997E+02  0.45594000000E+02  0.51100000000E-03 0.  1.
    9900012    2    1    2    0    0 -0.14547512531E+00 -0.21256781840E+02  0.37838495468E+02  0.47787266406E+02  0.19999978851E+02 0.  0.
        -12    1    1    2    0    0  0.14547512531E+00  0.21256781840E+02 -0.37838495468E+02  0.43400733594E+02  0.00000000000E+00 0.  1.
         11    1    3    3    0    0 -0.40825179754E+01 -0.18901464526E+02  0.24401727612E+02  0.31134813713E+02  0.51100000000E-03 0. -1.
        -11    1    3    3    0    0 -0.71144521036E+00  0.26823380521E+01  0.55359363290E+01  0.61925506064E+01  0.51100000000E-03 0.  1.
         12    1    3    3    0    0  0.46484880604E+01 -0.50376553665E+01  0.79008315269E+01  0.10459902086E+02  0.00000000000E+00 0. -1.
</event>
<event>
 7    1  0.2700100E-010  0.4778722E+02  0.7816164E-02  0.1312668E+00
        -11   -1    0    0    0    0  0.00000000000E+00  0.00000000000E+00  0.45593999997E+02  0.45594000000E+02  0.51100000000E-03 0.  1.
         11   -1    0    0    0    0 -0.00000000000E+00 -0.00000000000E+00 -0.45593999997E+02  0.45594000000E+02  0.51100000000E-03 0. -1.
    9900012    2    1    2    0    0  0.84975963263E+01 -0.29189500513E+02 -0.30974045762E+02  0.47787221269E+02  0.19999773054E+02 0.  0.
        -12    1    1    2    0    0 -0.84975963263E+01  0.29189500513E+02  0.30974045762E+02  0.43400778731E+02  0.00000000000E+00 0.  1.
         11    1    3    3    0    0  0.41047904130E+01 -0.95670557976E+01 -0.14520513006E+02  0.17866817265E+02  0.51100000000E-03 0. -1.
        -11    1    3    3    0    0 -0.72967702938E-01 -0.87449264461E+01 -0.15903023022E+02  0.18148972543E+02  0.51100000000E-03 0.  1.
        -12    1    3    3    0    0  0.44657736162E+01 -0.10877518270E+02 -0.55050973416E+00  0.11771431462E+02  0.00000000000E+00 0.  1.
</event>
<event>
 7    1  0.2700100E-010  0.4778727E+02  0.7816164E-02  0.1312668E+00
        -11   -1    0    0    0    0  0.00000000000E+00  0.00000000000E+00  0.45593999997E+02  0.45594000000E+02  0.51100000000E-03 0. -1.
         11   -1    0    0    0    0 -0.00000000000E+00 -0.00000000000E+00 -0.45593999997E+02  0.45594000000E+02  0.51100000000E-03 0.  1.
    9900012    2    1    2    0    0 -0.26043458068E+02  0.20022192275E+02  0.28363243263E+02  0.47787268900E+02  0.19999990223E+02 0.  0.
        -12    1    1    2    0    0  0.26043458068E+02 -0.20022192275E+02 -0.28363243263E+02  0.43400731100E+02  0.00000000000E+00 0.  1.
         11    1    3    3    0    0 -0.85292593944E+01  0.36758439708E+01  0.11491647137E+02  0.14775589629E+02  0.51100000000E-03 0. -1.
        -11    1    3    3    0    0 -0.95650862475E+01  0.17631630822E+02  0.14004707773E+02  0.24464200793E+02  0.51100000000E-03 0.  1.
        -12    1    3    3    0    0 -0.79491124256E+01 -0.12852825174E+01  0.28668883525E+01  0.85474784779E+01  0.00000000000E+00 0.  1.
</event>
<event>
 7    1  0.2700100E-010  0.4778727E+02  0.7816164E-02  0.1312668E+00
        -11   -1    0    0    0    0  0.00000000000E+00  0.00000000000E+00  0.45593999997E+02  0.45594000000E+02  0.51100000000E-03 0.  1.
         11   -1    0    0    0    0 -0.00000000000E+00 -0.00000000000E+00 -0.45593999997E+02  0.45594000000E+02  0.51100000000E-03 0. -1.
    9900012    2    1    2    0    0  0.24799314558E+01 -0.37718666485E+02 -0.21325465669E+02  0.47787270197E+02  0.19999996136E+02 0.  0.
        -12    1    1    2    0    0 -0.24799314558E+01  0.37718666485E+02  0.21325465669E+02  0.43400729803E+02  0.00000000000E+00 0.  1.
         11    1    3    3    0    0 -0.26877178953E+01 -0.33667239056E+02 -0.22229547443E+02  0.40433396999E+02  0.51100000000E-03 0. -1.
        -11    1    3    3    0    0  0.55866700079E+01 -0.39719908061E+01  0.96753159886E+00  0.69226953130E+01  0.51100000000E-03 0.  1.
         12    1    3    3    0    0 -0.41902065682E+00 -0.79436623464E-01 -0.63449824969E-01  0.43117788473E+00  0.00000000000E+00 0. -1.
</event>
<event>
 7    1  0.2700100E-010  0.4778727E+02  0.7816164E-02  0.1312668E+00
        -11   -1    0    0    0    0  0.00000000000E+00  0.00000000000E+00  0.45593999997E+02  0.45594000000E+02  0.51100000000E-03 0. -1.
         11   -1    0    0    0    0 -0.00000000000E+00 -0.00000000000E+00 -0.45593999997E+02  0.45594000000E+02  0.51100000000E-03 0.  1.
    9900012    2    1    2    0    0 -0.35824531002E+02 -0.12205853922E+02 -0.21242490468E+02  0.47787270827E+02  0.19999999011E+02 0.  0.
        -12    1    1    2    0    0  0.35824531002E+02  0.12205853922E+02  0.21242490468E+02  0.43400729173E+02  0.00000000000E+00 0.  1.
         11    1    3    3    0    0 -0.23387546376E+02  0.13899614223E+01 -0.11546671717E+02  0.26119627606E+02  0.51100000000E-03 0. -1.
        -11    1    3    3    0    0 -0.69322267155E+01 -0.11580180868E+02 -0.71915816622E+01  0.15292978887E+02  0.51100000000E-03 0.  1.
         12    1    3    3    0    0 -0.55047579098E+01 -0.20156344759E+01 -0.25042370883E+01  0.63746643347E+01  0.00000000000E+00 0. -1.
</event>
<event>
 7    1  0.2700100E-010  0.4778727E+02  0.7816164E-02  0.1312668E+00
        -11   -1    0    0    0    0  0.00000000000E+00  0.00000000000E+00  0.45593999997E+02  0.45594000000E+02  0.51100000000E-03 0.  1.
         11   -1    0    0    0    0 -0.00000000000E+00 -0.00000000000E+00 -0.45593999997E+02  0.45594000000E+02  0.51100000000E-03 0. -1.
    9900012    2    1    2    0    0  0.16816622534E+02  0.13228701942E+02 -0.37760115792E+02  0.47787266214E+02  0.19999977978E+02 0.  0.
        -12    1    1    2    0    0 -0.16816622534E+02 -0.13228701942E+02  0.37760115792E+02  0.43400733786E+02  0.00000000000E+00 0.  1.
         11    1    3    3    0    0  0.11143267628E+02  0.87831725295E+01 -0.19184261486E+02  0.23861106892E+02  0.51100000000E-03 0. -1.
        -11    1    3    3    0    0 -0.27913752163E+01 -0.31697923871E+00  0.16909828706E+00  0.28143997456E+01  0.51100000000E-03 0.  1.
        -12    1    3    3    0    0  0.84647301222E+01  0.47625086515E+01 -0.18744952593E+02  0.21111759577E+02  0.00000000000E+00 0.  1.
</event>
<event>
 7    1  0.2700100E-010  0.4778726E+02  0.7816164E-02  0.1312668E+00
        -11   -1    0    0    0    0  0.00000000000E+00  0.00000000000E+00  0.45593999997E+02  0.45594000000E+02  0.51100000000E-03 0.  1.
         11   -1    0    0    0    0 -0.00000000000E+00 -0.00000000000E+00 -0.45593999997E+02  0.45594000000E+02  0.51100000000E-03 0. -1.
    9900012    2    1    2    0    0  0.90622244034E+01  0.40307882680E+02 -0.13295658916E+02  0.47787264254E+02  0.19999969041E+02 0.  0.
        -12    1    1    2    0    0 -0.90622244034E+01 -0.40307882680E+02  0.13295658916E+02  0.43400735746E+02  0.00000000000E+00 0.  1.
         11    1    3    3    0    0  0.61196403153E+01  0.27251141336E+02 -0.69816918859E+01  0.28789211930E+02  0.51100000000E-03 0. -1.
        -11    1    3    3    0    0 -0.19878082682E+01  0.20497218005E+01  0.27087631664E+01  0.39357514305E+01  0.51100000000E-03 0.  1.
        -12    1    3    3    0    0  0.49303923562E+01  0.11007019543E+02 -0.90227301968E+01  0.15062300893E+02  0.00000000000E+00 0.  1.
</event>
<event>
 7    1  0.2700100E-010  0.4778728E+02  0.7816164E-02  0.1312668E+00
        -11   -1    0    0    0    0  0.00000000000E+00  0.00000000000E+00  0.45593999997E+02  0.45594000000E+02  0.51100000000E-03 0.  1.
         11   -1    0    0    0    0 -0.00000000000E+00 -0.00000000000E+00 -0.45593999997E+02  0.45594000000E+02  0.51100000000E-03 0. -1.
    9900012    2    1    2    0    0  0.36772174311E+02 -0.14895026969E+02 -0.17594539305E+02  0.47787280590E+02  0.20000043521E+02 0.  0.
        -12    1    1    2    0    0 -0.36772174311E+02  0.14895026969E+02  0.17594539305E+02  0.43400719410E+02  0.00000000000E+00 0.  1.
         11    1    3    3    0    0  0.24790664042E+02 -0.82644579121E+00 -0.71832231135E+01  0.25823608014E+02  0.51100000000E-03 0. -1.
        -11    1    3    3    0    0  0.48192846315E+01 -0.99961477940E+01 -0.61654861822E+01  0.12694947625E+02  0.51100000000E-03 0.  1.
         12    1    3    3    0    0  0.71622256375E+01 -0.40724333840E+01 -0.42458300096E+01  0.92687249512E+01  0.00000000000E+00 0. -1.
</event>
<event>
 7    1  0.2700100E-010  0.4778727E+02  0.7816164E-02  0.1312668E+00
        -11   -1    0    0    0    0  0.00000000000E+00  0.00000000000E+00  0.45593999997E+02  0.45594000000E+02  0.51100000000E-03 0.  1.
         11   -1    0    0    0    0 -0.00000000000E+00 -0.00000000000E+00 -0.45593999997E+02  0.45594000000E+02  0.51100000000E-03 0. -1.
    9900012    2    1    2    0    0  0.32953704295E+02  0.25855895937E+02 -0.11364389469E+02  0.47787270404E+02  0.19999997080E+02 0.  0.
        -12    1    1    2    0    0 -0.32953704295E+02 -0.25855895937E+02  0.11364389469E+02  0.43400729596E+02  0.00000000000E+00 0.  1.
         11    1    3    3    0    0  0.28952398700E+01  0.35225549398E+01 -0.26520113857E+01  0.52748433019E+01  0.51100000000E-03 0. -1.
        -11    1    3    3    0    0  0.88056424213E+01  0.11639172663E+02 -0.11468332872E+02  0.18561582310E+02  0.51100000000E-03 0.  1.
        -12    1    3    3    0    0  0.21252822003E+02  0.10694168334E+02  0.27559547885E+01  0.23950844792E+02  0.00000000000E+00 0.  1.
</event>
<event>
 7    1  0.2700100E-010  0.4778727E+02  0.7816164E-02  0.1312668E+00
        -11   -1    0    0    0    0  0.00000000000E+00  0.00000000000E+00  0.45593999997E+02  0.45594000000E+02  0.51100000000E-03 0.  1.
         11   -1    0    0    0    0 -0.00000000000E+00 -0.00000000000E+00 -0.45593999997E+02  0.45594000000E+02  0.51100000000E-03 0. -1.
    9900012    2    1    2    0    0  0.15209644381E+02  0.21579201962E+02 -0.34447465151E+02  0.47787273107E+02  0.20000009405E+02 0.  0.
        -12    1    1    2    0    0 -0.15209644381E+02 -0.21579201962E+02  0.34447465151E+02  0.43400726893E+02  0.00000000000E+00 0.  1.
         11    1    3    3    0    0  0.11591820556E+02  0.16598723653E+02 -0.16256010387E+02  0.25964317913E+02  0.51100000000E-03 0. -1.
        -11    1    3    3    0    0  0.41725319891E+01  0.48843351516E+01 -0.19428958658E+02  0.20463410954E+02  0.51100000000E-03 0.  1.
         12    1    3    3    0    0 -0.55470816415E+00  0.96143157346E-01  0.12375038942E+01  0.13595442406E+01  0.00000000000E+00 0. -1.
</event>
<event>
 7    1  0.2700100E-010  0.4778727E+02  0.7816164E-02  0.1312668E+00
        -11   -1    0    0    0    0  0.00000000000E+00  0.00000000000E+00  0.45593999997E+02  0.45594000000E+02  0.51100000000E-03 0. -1.
         11   -1    0    0    0    0 -0.00000000000E+00 -0.00000000000E+00 -0.45593999997E+02  0.45594000000E+02  0.51100000000E-03 0.  1.
    9900012    2    1    2    0    0 -0.32640748778E+02 -0.16039407083E+02  0.23684216757E+02  0.47787272083E+02  0.20000004734E+02 0.  0.
        -12    1    1    2    0    0  0.32640748778E+02  0.16039407083E+02 -0.23684216757E+02  0.43400727917E+02  0.00000000000E+00 0.  1.
         11    1    3    3    0    0 -0.15341880267E+02 -0.66635307901E+01  0.59206315195E+00  0.16736979171E+02  0.51100000000E-03 0.  1.
        -11    1    3    3    0    0 -0.51392935892E+01 -0.62265306543E+01  0.10713594707E+02  0.13415033895E+02  0.51100000000E-03 0. -1.
        -12    1    3    3    0    0 -0.12159574921E+02 -0.31493456386E+01  0.12378558898E+02  0.17635259018E+02  0.00000000000E+00 0.  1.
</event>
<event>
 7    1  0.2700100E-010  0.4778727E+02  0.7816164E-02  0.1312668E+00
        -11   -1    0    0    0    0  0.00000000000E+00  0.00000000000E+00  0.45593999997E+02  0.45594000000E+02  0.51100000000E-03 0.  1.
         11   -1    0    0    0    0 -0.00000000000E+00 -0.00000000000E+00 -0.45593999997E+02  0.45594000000E+02  0.51100000000E-03 0. -1.
    9900012    2    1    2    0    0  0.25230017915E+02 -0.18952183556E+02 -0.29797382322E+02  0.47787273522E+02  0.20000011298E+02 0.  0.
        -12    1    1    2    0    0 -0.25230017915E+02  0.18952183556E+02  0.29797382322E+02  0.43400726478E+02  0.00000000000E+00 0.  1.
         11    1    3    3    0    0  0.16571397507E+02 -0.25938835643E+01 -0.10031937486E+02  0.19544288610E+02  0.51100000000E-03 0. -1.
        -11    1    3    3    0    0  0.37096461600E+01 -0.49968198823E+01 -0.12275300250E+02  0.13762727929E+02  0.51100000000E-03 0.  1.
         12    1    3    3    0    0  0.49489742479E+01 -0.11361480110E+02 -0.74901445861E+01  0.14480256984E+02  0.00000000000E+00 0. -1.
</event>
<event>
 7    1  0.2700100E-010  0.4778727E+02  0.7816164E-02  0.1312668E+00
        -11   -1    0    0    0    0  0.00000000000E+00  0.00000000000E+00  0.45593999997E+02  0.45594000000E+02  0.51100000000E-03 0. -1.
         11   -1    0    0    0    0 -0.00000000000E+00 -0.00000000000E+00 -0.45593999997E+02  0.45594000000E+02  0.51100000000E-03 0.  1.
    9900012    2    1    2    0    0  0.91238599118E+01  0.24062786620E+02  0.34947972673E+02  0.47787270587E+02  0.19999997915E+02 0.  0.
        -12    1    1    2    0    0 -0.91238599118E+01 -0.24062786620E+02 -0.34947972673E+02  0.43400729413E+02  0.00000000000E+00 0.  1.
         11    1    3    3    0    0  0.11505327551E+01  0.21650821265E+02  0.25635644521E+02  0.33574812841E+02  0.51100000000E-03 0. -1.
        -11    1    3    3    0    0  0.78694405656E+01  0.25660092821E+01  0.10296446103E+02  0.13210953829E+02  0.51100000000E-03 0.  1.
        -12    1    3    3    0    0  0.10388659104E+00 -0.15404392700E+00 -0.98411795073E+00  0.10015039172E+01  0.00000000000E+00 0.  1.
</event>
<event>
 7    1  0.2700100E-010  0.4778727E+02  0.7816164E-02  0.1312668E+00
        -11   -1    0    0    0    0  0.00000000000E+00  0.00000000000E+00  0.45593999997E+02  0.45594000000E+02  0.51100000000E-03 0.  1.
         11   -1    0    0    0    0 -0.00000000000E+00 -0.00000000000E+00 -0.45593999997E+02  0.45594000000E+02  0.51100000000E-03 0. -1.
    9900012    2    1    2    0    0 -0.16523837826E+02 -0.28363096515E+02 -0.28392262399E+02  0.47787273917E+02  0.20000013097E+02 0.  0.
        -12    1    1    2    0    0  0.16523837826E+02  0.28363096515E+02  0.28392262399E+02  0.43400726083E+02  0.00000000000E+00 0.  1.
         11    1    3    3    0    0 -0.80696889591E+01 -0.20261394771E+02 -0.22039585907E+02  0.31006246873E+02  0.51100000000E-03 0. -1.
        -11    1    3    3    0    0 -0.53405287982E+01  0.85588072353E+00 -0.76929202853E-01  0.54092234212E+01  0.51100000000E-03 0.  1.
        -12    1    3    3    0    0 -0.31136200687E+01 -0.89575824675E+01 -0.62757472898E+01  0.11371803623E+02  0.00000000000E+00 0.  1.
</event>
<event>
 7    1  0.2700100E-010  0.4778727E+02  0.7816164E-02  0.1312668E+00
        -11   -1    0    0    0    0  0.00000000000E+00  0.00000000000E+00  0.45593999997E+02  0.45594000000E+02  0.51100000000E-03 0. -1.
         11   -1    0    0    0    0 -0.00000000000E+00 -0.00000000000E+00 -0.45593999997E+02  0.45594000000E+02  0.51100000000E-03 0.  1.
    9900012    2    1    2    0    0 -0.32697619606E+02  0.27650905657E+02  0.70651539931E+01  0.47787270599E+02  0.19999997970E+02 0.  0.
        -12    1    1    2    0    0  0.32697619606E+02 -0.27650905657E+02 -0.70651539931E+01  0.43400729401E+02  0.00000000000E+00 0.  1.
         11    1    3    3    0    0 -0.23717662744E+01  0.94321169055E+01  0.59915811586E+01  0.11423184741E+02  0.51100000000E-03 0. -1.
        -11    1    3    3    0    0 -0.85033374376E+01  0.23119689684E+01 -0.24101631574E+01  0.91356901653E+01  0.51100000000E-03 0.  1.
         12    1    3    3    0    0 -0.21822515894E+02  0.15906819783E+02  0.34837359918E+01  0.27228395693E+02  0.00000000000E+00 0. -1.
</event>
<event>
 7    1  0.2700100E-010  0.4778727E+02  0.7816164E-02  0.1312668E+00
        -11   -1    0    0    0    0  0.00000000000E+00  0.00000000000E+00  0.45593999997E+02  0.45594000000E+02  0.51100000000E-03 0. -1.
         11   -1    0    0    0    0 -0.00000000000E+00 -0.00000000000E+00 -0.45593999997E+02  0.45594000000E+02  0.51100000000E-03 0.  1.
    9900012    2    1    2    0    0  0.60600768726E+00  0.31047176010E+02  0.30320441764E+02  0.47787267607E+02  0.19999984327E+02 0.  0.
        -12    1    1    2    0    0 -0.60600768726E+00 -0.31047176010E+02 -0.30320441764E+02  0.43400732393E+02  0.00000000000E+00 0.  1.
         11    1    3    3    0    0  0.33537304031E+01  0.89305824556E+01  0.19382312894E+02  0.21602705016E+02  0.51100000000E-03 0. -1.
        -11    1    3    3    0    0 -0.41709536392E+01  0.15240925818E+02  0.39701214861E+01  0.16292468780E+02  0.51100000000E-03 0.  1.
         12    1    3    3    0    0  0.14232309233E+01  0.68756677359E+01  0.69680073837E+01  0.98920938115E+01  0.00000000000E+00 0. -1.
</event>
<event>
 7    1  0.2700100E-010  0.4778727E+02  0.7816164E-02  0.1312668E+00
        -11   -1    0    0    0    0  0.00000000000E+00  0.00000000000E+00  0.45593999997E+02  0.45594000000E+02  0.51100000000E-03 0.  1.
         11   -1    0    0    0    0 -0.00000000000E+00 -0.00000000000E+00 -0.45593999997E+02  0.45594000000E+02  0.51100000000E-03 0. -1.
    9900012    2    1    2    0    0  0.66149417989E+01 -0.40096376069E+02 -0.15236357886E+02  0.47787269240E+02  0.19999991775E+02 0.  0.
        -12    1    1    2    0    0 -0.66149417989E+01  0.40096376069E+02  0.15236357886E+02  0.43400730760E+02  0.00000000000E+00 0.  1.
         11    1    3    3    0    0  0.12163610150E+02 -0.30960418707E+02 -0.70295964382E+01  0.33998767106E+02  0.51100000000E-03 0. -1.
        -11    1    3    3    0    0 -0.47871790461E+01 -0.52992637430E+01 -0.48335860885E+01  0.86233887871E+01  0.51100000000E-03 0.  1.
         12    1    3    3    0    0 -0.76148930525E+00 -0.38366936190E+01 -0.33731753589E+01  0.51651133473E+01  0.00000000000E+00 0. -1.
</event>
<event>
 7    1  0.2700100E-010  0.4778727E+02  0.7816164E-02  0.1312668E+00
        -11   -1    0    0    0    0  0.00000000000E+00  0.00000000000E+00  0.45593999997E+02  0.45594000000E+02  0.51100000000E-03 0.  1.
         11   -1    0    0    0    0 -0.00000000000E+00 -0.00000000000E+00 -0.45593999997E+02  0.45594000000E+02  0.51100000000E-03 0. -1.
    9900012    2    1    2    0    0  0.81329012696E+01  0.35219703625E+02 -0.24021907638E+02  0.47787266676E+02  0.19999980083E+02 0.  0.
        -12    1    1    2    0    0 -0.81329012696E+01 -0.35219703625E+02  0.24021907638E+02  0.43400733324E+02  0.00000000000E+00 0.  1.
         11    1    3    3    0    0  0.19843115713E+00  0.18473924043E+02 -0.83352619729E+01  0.20268247011E+02  0.51100000000E-03 0. -1.
        -11    1    3    3    0    0  0.98885358346E+01  0.14831950443E+02 -0.16866016816E+02  0.24540424169E+02  0.51100000000E-03 0.  1.
        -12    1    3    3    0    0 -0.19540657221E+01  0.19138291390E+01  0.11793711509E+01  0.29785954964E+01  0.00000000000E+00 0.  1.
</event>
<event>
 7    1  0.2700100E-010  0.4778730E+02  0.7816164E-02  0.1312668E+00
        -11   -1    0    0    0    0  0.00000000000E+00  0.00000000000E+00  0.45593999997E+02  0.45594000000E+02  0.51100000000E-03 0.  1.
         11   -1    0    0    0    0 -0.00000000000E+00 -0.00000000000E+00 -0.45593999997E+02  0.45594000000E+02  0.51100000000E-03 0. -1.
    9900012    2    1    2    0    0  0.98309463043E+01  0.16425004597E+01 -0.42240689838E+02  0.47787295041E+02  0.20000109408E+02 0.  0.
        -12    1    1    2    0    0 -0.98309463043E+01 -0.16425004597E+01  0.42240689838E+02  0.43400704959E+02  0.00000000000E+00 0.  1.
         11    1    3    3    0    0 -0.26770758494E-01 -0.64957136355E+01 -0.12565729406E+02  0.14145408021E+02  0.51100000000E-03 0.  1.
        -11    1    3    3    0    0  0.98718192227E+01  0.88214503668E+01 -0.20259222252E+02  0.24201381941E+02  0.51100000000E-03 0. -1.
         12    1    3    3    0    0 -0.14102159876E-01 -0.68323627157E+00 -0.94157381802E+01  0.94405050793E+01  0.00000000000E+00 0. -1.
</event>
<event>
 7    1  0.2700100E-010  0.4778727E+02  0.7816164E-02  0.1312668E+00
        -11   -1    0    0    0    0  0.00000000000E+00  0.00000000000E+00  0.45593999997E+02  0.45594000000E+02  0.51100000000E-03 0.  1.
         11   -1    0    0    0    0 -0.00000000000E+00 -0.00000000000E+00 -0.45593999997E+02  0.45594000000E+02  0.51100000000E-03 0. -1.
    9900012    2    1    2    0    0  0.29840572939E+02 -0.31473092258E+02  0.16149073600E+01  0.47787271257E+02  0.20000000970E+02 0.  0.
        -12    1    1    2    0    0 -0.29840572939E+02  0.31473092258E+02 -0.16149073600E+01  0.43400728743E+02  0.00000000000E+00 0.  1.
         11    1    3    3    0    0  0.19484287511E+01 -0.12747642741E+02 -0.13943029382E+01  0.12970846195E+02  0.51100000000E-03 0. -1.
        -11    1    3    3    0    0  0.25325396651E+02 -0.19488133629E+02  0.22576787996E+01  0.32035295874E+02  0.51100000000E-03 0.  1.
        -12    1    3    3    0    0  0.25667475367E+01  0.76268411226E+00  0.75153149863E+00  0.27811291890E+01  0.00000000000E+00 0.  1.
</event>
<event>
 7    1  0.2700100E-010  0.4778726E+02  0.7816164E-02  0.1312668E+00
        -11   -1    0    0    0    0  0.00000000000E+00  0.00000000000E+00  0.45593999997E+02  0.45594000000E+02  0.51100000000E-03 0.  1.
         11   -1    0    0    0    0 -0.00000000000E+00 -0.00000000000E+00 -0.45593999997E+02  0.45594000000E+02  0.51100000000E-03 0. -1.
    9900012    2    1    2    0    0 -0.91575552925E+01  0.27483892035E+02 -0.32317166124E+02  0.47787258456E+02  0.19999942604E+02 0.  0.
        -12    1    1    2    0    0  0.91575552925E+01 -0.27483892035E+02  0.32317166124E+02  0.43400741544E+02  0.00000000000E+00 0.  1.
         11    1    3    3    0    0 -0.60485558567E+01  0.27584523239E+02 -0.21443285733E+02  0.35458503262E+02  0.51100000000E-03 0. -1.
        -11    1    3    3    0    0 -0.16846920823E+01 -0.19524338551E+01 -0.23445604993E+01  0.34852761106E+01  0.51100000000E-03 0.  1.
         12    1    3    3    0    0 -0.14243073535E+01  0.18518026505E+01 -0.85293198909E+01  0.88434790832E+01  0.00000000000E+00 0. -1.
</event>
<event>
 7    1  0.2700100E-010  0.4778727E+02  0.7816164E-02  0.1312668E+00
        -11   -1    0    0    0    0  0.00000000000E+00  0.00000000000E+00  0.45593999997E+02  0.45594000000E+02  0.51100000000E-03 0.  1.
         11   -1    0    0    0    0 -0.00000000000E+00 -0.00000000000E+00 -0.45593999997E+02  0.45594000000E+02  0.51100000000E-03 0. -1.
    9900012    2    1    2    0    0 -0.41466380271E+02  0.12326402268E+02 -0.34960651580E+01  0.47787270084E+02  0.19999995622E+02 0.  0.
        -12    1    1    2    0    0  0.41466380271E+02 -0.12326402268E+02  0.34960651580E+01  0.43400729916E+02  0.00000000000E+00 0.  1.
         11    1    3    3    0    0 -0.11381424569E+02 -0.17561523294E+01 -0.61466585418E+01  0.13053823490E+02  0.51100000000E-03 0. -1.
        -11    1    3    3    0    0 -0.23903053159E+02  0.97358606222E+01  0.59512643067E+01  0.26486986984E+02  0.51100000000E-03 0.  1.
         12    1    3    3    0    0 -0.61819025431E+01  0.43466939749E+01 -0.33006709228E+01  0.82464596103E+01  0.00000000000E+00 0. -1.
</event>
<event>
 7    1  0.2700100E-010  0.4778727E+02  0.7816164E-02  0.1312668E+00
        -11   -1    0    0    0    0  0.00000000000E+00  0.00000000000E+00  0.45593999997E+02  0.45594000000E+02  0.51100000000E-03 0.  1.
         11   -1    0    0    0    0 -0.00000000000E+00 -0.00000000000E+00 -0.45593999997E+02  0.45594000000E+02  0.51100000000E-03 0. -1.
    9900012    2    1    2    0    0  0.77869292847E+01  0.42420275198E+02  0.48484153656E+01  0.47787272505E+02  0.20000006659E+02 0.  0.
        -12    1    1    2    0    0 -0.77869292847E+01 -0.42420275198E+02 -0.48484153656E+01  0.43400727495E+02  0.00000000000E+00 0.  1.
         11    1    3    3    0    0  0.53036762751E+01  0.23623374970E+02 -0.23877531261E+01  0.24328875688E+02  0.51100000000E-03 0. -1.
        -11    1    3    3    0    0 -0.29244193523E+01  0.74224482491E+00  0.27553429424E+01  0.40859602201E+01  0.51100000000E-03 0.  1.
         12    1    3    3    0    0  0.54076723619E+01  0.18054655403E+02  0.44808255493E+01  0.19372436597E+02  0.00000000000E+00 0. -1.
</event>
<event>
 7    1  0.2700100E-010  0.4778727E+02  0.7816164E-02  0.1312668E+00
        -11   -1    0    0    0    0  0.00000000000E+00  0.00000000000E+00  0.45593999997E+02  0.45594000000E+02  0.51100000000E-03 0.  1.
         11   -1    0    0    0    0 -0.00000000000E+00 -0.00000000000E+00 -0.45593999997E+02  0.45594000000E+02  0.51100000000E-03 0. -1.
    9900012    2    1    2    0    0  0.15048258398E+02  0.34352406152E+02 -0.21842285456E+02  0.47787270477E+02  0.19999997411E+02 0.  0.
        -12    1    1    2    0    0 -0.15048258398E+02 -0.34352406152E+02  0.21842285456E+02  0.43400729523E+02  0.00000000000E+00 0.  1.
         11    1    3    3    0    0  0.63248108283E+01  0.15389923685E+02 -0.12440512085E+02  0.20775450037E+02  0.51100000000E-03 0. -1.
        -11    1    3    3    0    0  0.41549259064E+00  0.81909831843E+01 -0.10546940473E+02  0.13360493749E+02  0.51100000000E-03 0.  1.
        -12    1    3    3    0    0  0.83079549793E+01  0.10771499282E+02  0.11451671019E+01  0.13651326690E+02  0.00000000000E+00 0.  1.
</event>
<event>
 7    1  0.2700100E-010  0.4778727E+02  0.7816164E-02  0.1312668E+00
        -11   -1    0    0    0    0  0.00000000000E+00  0.00000000000E+00  0.45593999997E+02  0.45594000000E+02  0.51100000000E-03 0. -1.
         11   -1    0    0    0    0 -0.00000000000E+00 -0.00000000000E+00 -0.45593999997E+02  0.45594000000E+02  0.51100000000E-03 0.  1.
    9900012    2    1    2    0    0  0.28462110788E+02  0.31160679163E+02 -0.10126377064E+02  0.47787272024E+02  0.20000004464E+02 0.  0.
        -12    1    1    2    0    0 -0.28462110788E+02 -0.31160679163E+02  0.10126377064E+02  0.43400727976E+02  0.00000000000E+00 0.  1.
         11    1    3    3    0    0  0.97521894984E+01  0.34173489464E+01 -0.46011492342E+01  0.11311677522E+02  0.51100000000E-03 0.  1.
        -11    1    3    3    0    0  0.86983111154E+01  0.22250782476E+02 -0.71587685858E+01  0.24940046210E+02  0.51100000000E-03 0. -1.
        -12    1    3    3    0    0  0.10011610174E+02  0.54925477409E+01  0.16335407555E+01  0.11535548291E+02  0.00000000000E+00 0.  1.
</event>
<event>
 7    1  0.2700100E-010  0.4778726E+02  0.7816164E-02  0.1312668E+00
        -11   -1    0    0    0    0  0.00000000000E+00  0.00000000000E+00  0.45593999997E+02  0.45594000000E+02  0.51100000000E-03 0.  1.
         11   -1    0    0    0    0 -0.00000000000E+00 -0.00000000000E+00 -0.45593999997E+02  0.45594000000E+02  0.51100000000E-03 0. -1.
    9900012    2    1    2    0    0 -0.31054887644E+01  0.20084803777E+02 -0.38348154456E+02  0.47787258608E+02  0.19999943297E+02 0.  0.
        -12    1    1    2    0    0  0.31054887644E+01 -0.20084803777E+02  0.38348154456E+02  0.43400741392E+02  0.00000000000E+00 0.  1.
         11    1    3    3    0    0  0.67914749643E+01  0.17418936033E+01 -0.11929388097E+02  0.13837218873E+02  0.51100000000E-03 0. -1.
        -11    1    3    3    0    0 -0.10097825396E+02  0.16121357401E+02 -0.22735740078E+02  0.29644192000E+02  0.51100000000E-03 0.  1.
         12    1    3    3    0    0  0.20086166721E+00  0.22215527725E+01 -0.36830262811E+01  0.43058477351E+01  0.00000000000E+00 0. -1.
</event>
<event>
 7    1  0.2700100E-010  0.4778727E+02  0.7816164E-02  0.1312668E+00
        -11   -1    0    0    0    0  0.00000000000E+00  0.00000000000E+00  0.45593999997E+02  0.45594000000E+02  0.51100000000E-03 0.  1.
         11   -1    0    0    0    0 -0.00000000000E+00 -0.00000000000E+00 -0.45593999997E+02  0.45594000000E+02  0.51100000000E-03 0. -1.
    9900012    2    1    2    0    0  0.15472601558E+02 -0.90336852452E+01 -0.39529921025E+02  0.47787268159E+02  0.19999986845E+02 0.  0.
        -12    1    1    2    0    0 -0.15472601558E+02  0.90336852452E+01  0.39529921025E+02  0.43400731841E+02  0.00000000000E+00 0.  1.
         11    1    3    3    0    0  0.64688477167E+01 -0.40291498891E+01 -0.18125665588E+02  0.19662649691E+02  0.51100000000E-03 0. -1.
        -11    1    3    3    0    0 -0.17237253261E+01  0.18145950705E+01  0.72384548171E+00  0.26053669247E+01  0.51100000000E-03 0.  1.
        -12    1    3    3    0    0  0.10727479168E+02 -0.68191304266E+01 -0.22128100918E+02  0.25519251543E+02  0.00000000000E+00 0.  1.
</event>
<event>
 7    1  0.2700100E-010  0.4778727E+02  0.7816164E-02  0.1312668E+00
        -11   -1    0    0    0    0  0.00000000000E+00  0.00000000000E+00  0.45593999997E+02  0.45594000000E+02  0.51100000000E-03 0.  1.
         11   -1    0    0    0    0 -0.00000000000E+00 -0.00000000000E+00 -0.45593999997E+02  0.45594000000E+02  0.51100000000E-03 0. -1.
    9900012    2    1    2    0    0  0.25365674359E+02 -0.15669604319E+02 -0.31538377526E+02  0.47787271986E+02  0.20000004291E+02 0.  0.
        -12    1    1    2    0    0 -0.25365674359E+02  0.15669604319E+02  0.31538377526E+02  0.43400728014E+02  0.00000000000E+00 0.  1.
         11    1    3    3    0    0  0.13847916161E+02 -0.40033437378E+01 -0.27254139274E+02  0.30831471760E+02  0.51100000000E-03 0. -1.
        -11    1    3    3    0    0  0.65833127532E+01 -0.62424257040E+01 -0.22929149563E+01  0.93576356380E+01  0.51100000000E-03 0.  1.
         12    1    3    3    0    0  0.49344454450E+01 -0.54238348772E+01 -0.19913232956E+01  0.75981645871E+01  0.00000000000E+00 0. -1.
</event>
<event>
 7    1  0.2700100E-010  0.4778727E+02  0.7816164E-02  0.1312668E+00
        -11   -1    0    0    0    0  0.00000000000E+00  0.00000000000E+00  0.45593999997E+02  0.45594000000E+02  0.51100000000E-03 0.  1.
         11   -1    0    0    0    0 -0.00000000000E+00 -0.00000000000E+00 -0.45593999997E+02  0.45594000000E+02  0.51100000000E-03 0. -1.
    9900012    2    1    2    0    0  0.35028733045E+01 -0.27286243785E+01 -0.43172995152E+02  0.47787273937E+02  0.20000013189E+02 0.  0.
        -12    1    1    2    0    0 -0.35028733045E+01  0.27286243785E+01  0.43172995152E+02  0.43400726063E+02  0.00000000000E+00 0.  1.
         11    1    3    3    0    0  0.86082332365E+01 -0.47917649802E+00 -0.33639044107E+02  0.34726309598E+02  0.51100000000E-03 0. -1.
        -11    1    3    3    0    0 -0.39042466288E+01  0.10307444920E+01 -0.15126422241E+01  0.43120369555E+01  0.51100000000E-03 0.  1.
        -12    1    3    3    0    0 -0.12011133032E+01 -0.32801923725E+01 -0.80213088208E+01  0.87489273838E+01  0.00000000000E+00 0.  1.
</event>
<event>
 7    1  0.2700100E-010  0.4778727E+02  0.7816164E-02  0.1312668E+00
        -11   -1    0    0    0    0  0.00000000000E+00  0.00000000000E+00  0.45593999997E+02  0.45594000000E+02  0.51100000000E-03 0.  1.
         11   -1    0    0    0    0 -0.00000000000E+00 -0.00000000000E+00 -0.45593999997E+02  0.45594000000E+02  0.51100000000E-03 0. -1.
    9900012    2    1    2    0    0 -0.38552347123E+02 -0.19869605646E+02  0.15932628363E+01  0.47787272083E+02  0.20000004736E+02 0.  0.
        -12    1    1    2    0    0  0.38552347123E+02  0.19869605646E+02 -0.15932628363E+01  0.43400727917E+02  0.00000000000E+00 0.  1.
         11    1    3    3    0    0 -0.16933999379E+02 -0.19031669724E+02  0.43488922505E+01  0.25843328956E+02  0.51100000000E-03 0. -1.
        -11    1    3    3    0    0 -0.14539747199E+02 -0.16956988712E+01 -0.19762344818E+01  0.14771091573E+02  0.51100000000E-03 0.  1.
         12    1    3    3    0    0 -0.70786005456E+01  0.85776294943E+00 -0.77939493249E+00  0.71728515545E+01  0.00000000000E+00 0. -1.
</event>
<event>
 7    1  0.2700100E-010  0.4778727E+02  0.7816164E-02  0.1312668E+00
        -11   -1    0    0    0    0  0.00000000000E+00  0.00000000000E+00  0.45593999997E+02  0.45594000000E+02  0.51100000000E-03 0.  1.
         11   -1    0    0    0    0 -0.00000000000E+00 -0.00000000000E+00 -0.45593999997E+02  0.45594000000E+02  0.51100000000E-03 0. -1.
    9900012    2    1    2    0    0 -0.29691498993E+02 -0.53980886500E+01 -0.31191325889E+02  0.47787270925E+02  0.19999999457E+02 0.  0.
        -12    1    1    2    0    0  0.29691498993E+02  0.53980886500E+01  0.31191325889E+02  0.43400729075E+02  0.00000000000E+00 0.  1.
         11    1    3    3    0    0 -0.21385408502E+02 -0.88150409755E+01 -0.30303539115E+02  0.38122763900E+02  0.51100000000E-03 0. -1.
        -11    1    3    3    0    0 -0.40447277752E+01  0.12761513750E+00 -0.13387622807E+01  0.42624398065E+01  0.51100000000E-03 0.  1.
         12    1    3    3    0    0 -0.42613627158E+01  0.32893371880E+01  0.45097550717E+00  0.54020672192E+01  0.00000000000E+00 0. -1.
</event>
<event>
 7    1  0.2700100E-010  0.4778728E+02  0.7816164E-02  0.1312668E+00
        -11   -1    0    0    0    0  0.00000000000E+00  0.00000000000E+00  0.45593999997E+02  0.45594000000E+02  0.51100000000E-03 0.  1.
         11   -1    0    0    0    0 -0.00000000000E+00 -0.00000000000E+00 -0.45593999997E+02  0.45594000000E+02  0.51100000000E-03 0. -1.
    9900012    2    1    2    0    0 -0.17995426721E+02  0.27192941086E+02 -0.28641425391E+02  0.47787277930E+02  0.20000031395E+02 0.  0.
        -12    1    1    2    0    0  0.17995426721E+02 -0.27192941086E+02  0.28641425391E+02  0.43400722070E+02  0.00000000000E+00 0.  1.
         11    1    3    3    0    0 -0.70739197863E+01  0.14257847669E+01 -0.52838704226E+01  0.89438520923E+01  0.51100000000E-03 0. -1.
        -11    1    3    3    0    0 -0.21665899840E+00  0.78349113091E+01 -0.45884092235E+00  0.78513254674E+01  0.51100000000E-03 0.  1.
        -12    1    3    3    0    0 -0.10704847936E+02  0.17932245010E+02 -0.22898714046E+02  0.30992100371E+02  0.00000000000E+00 0.  1.
</event>
<event>
 7    1  0.2700100E-010  0.4778727E+02  0.7816164E-02  0.1312668E+00
        -11   -1    0    0    0    0  0.00000000000E+00  0.00000000000E+00  0.45593999997E+02  0.45594000000E+02  0.51100000000E-03 0.  1.
         11   -1    0    0    0    0 -0.00000000000E+00 -0.00000000000E+00 -0.45593999997E+02  0.45594000000E+02  0.51100000000E-03 0. -1.
    9900012    2    1    2    0    0  0.19138865611E+02 -0.12102730188E+02 -0.37025000727E+02  0.47787274964E+02  0.20000017869E+02 0.  0.
        -12    1    1    2    0    0 -0.19138865611E+02  0.12102730188E+02  0.37025000727E+02  0.43400725036E+02  0.00000000000E+00 0.  1.
         11    1    3    3    0    0  0.17711561220E+02 -0.97052612950E+01 -0.27702778046E+02  0.34283165101E+02  0.51100000000E-03 0. -1.
        -11    1    3    3    0    0 -0.32796802649E+01  0.11735943354E+01 -0.17459656508E+01  0.38964115054E+01  0.51100000000E-03 0.  1.
        -12    1    3    3    0    0  0.47069846564E+01 -0.35710632281E+01 -0.75762570301E+01  0.96076983571E+01  0.00000000000E+00 0.  1.
</event>
<event>
 7    1  0.2700100E-010  0.4778727E+02  0.7816164E-02  0.1312668E+00
        -11   -1    0    0    0    0  0.00000000000E+00  0.00000000000E+00  0.45593999997E+02  0.45594000000E+02  0.51100000000E-03 0. -1.
         11   -1    0    0    0    0 -0.00000000000E+00 -0.00000000000E+00 -0.45593999997E+02  0.45594000000E+02  0.51100000000E-03 0.  1.
    9900012    2    1    2    0    0  0.29435723962E+02  0.25852452215E+01  0.31788020412E+02  0.47787267520E+02  0.19999983932E+02 0.  0.
        -12    1    1    2    0    0 -0.29435723962E+02 -0.25852452215E+01 -0.31788020412E+02  0.43400732480E+02  0.00000000000E+00 0.  1.
         11    1    3    3    0    0  0.57472329695E+01 -0.19948605120E+01 -0.12100640190E+00  0.60848005783E+01  0.51100000000E-03 0. -1.
        -11    1    3    3    0    0  0.27533064165E+01  0.43896368779E+01  0.29324444611E+01  0.59538927536E+01  0.51100000000E-03 0.  1.
         12    1    3    3    0    0  0.20935184576E+02  0.19046885561E+00  0.28976582353E+02  0.35748574188E+02  0.00000000000E+00 0. -1.
</event>
<event>
 7    1  0.2700100E-010  0.4778728E+02  0.7816164E-02  0.1312668E+00
        -11   -1    0    0    0    0  0.00000000000E+00  0.00000000000E+00  0.45593999997E+02  0.45594000000E+02  0.51100000000E-03 0.  1.
         11   -1    0    0    0    0 -0.00000000000E+00 -0.00000000000E+00 -0.45593999997E+02  0.45594000000E+02  0.51100000000E-03 0. -1.
    9900012    2    1    2    0    0  0.14957326042E+02  0.37388541435E+02 -0.16186349679E+02  0.47787279397E+02  0.20000038081E+02 0.  0.
        -12    1    1    2    0    0 -0.14957326042E+02 -0.37388541435E+02  0.16186349679E+02  0.43400720603E+02  0.00000000000E+00 0.  1.
         11    1    3    3    0    0  0.19133505253E+01  0.68719231928E+00  0.18847792449E+01  0.27722800326E+01  0.51100000000E-03 0.  1.
        -11    1    3    3    0    0  0.11534086007E+02  0.35265466025E+02 -0.20021488103E+02  0.42160979828E+02  0.51100000000E-03 0. -1.
         12    1    3    3    0    0  0.15098895093E+01  0.14358830909E+01  0.19503591791E+01  0.28540195354E+01  0.00000000000E+00 0. -1.
</event>
<event>
 7    1  0.2700100E-010  0.4778727E+02  0.7816164E-02  0.1312668E+00
        -11   -1    0    0    0    0  0.00000000000E+00  0.00000000000E+00  0.45593999997E+02  0.45594000000E+02  0.51100000000E-03 0.  1.
         11   -1    0    0    0    0 -0.00000000000E+00 -0.00000000000E+00 -0.45593999997E+02  0.45594000000E+02  0.51100000000E-03 0. -1.
    9900012    2    1    2    0    0 -0.17459062961E+02  0.34969848163E+02  0.18865692008E+02  0.47787268498E+02  0.19999988389E+02 0.  0.
        -12    1    1    2    0    0  0.17459062961E+02 -0.34969848163E+02 -0.18865692008E+02  0.43400731502E+02  0.00000000000E+00 0.  1.
         11    1    3    3    0    0 -0.87629418925E+01  0.30161386981E+02  0.12881970374E+02  0.33947659362E+02  0.51100000000E-03 0. -1.
        -11    1    3    3    0    0 -0.36624960133E-01 -0.10516115201E+00  0.36001050600E+01  0.36018268920E+01  0.51100000000E-03 0.  1.
         12    1    3    3    0    0 -0.86594961084E+01  0.49136223341E+01  0.23836165737E+01  0.10237782243E+02  0.00000000000E+00 0. -1.
</event>
<event>
 7    1  0.2700100E-010  0.4778727E+02  0.7816164E-02  0.1312668E+00
        -11   -1    0    0    0    0  0.00000000000E+00  0.00000000000E+00  0.45593999997E+02  0.45594000000E+02  0.51100000000E-03 0. -1.
         11   -1    0    0    0    0 -0.00000000000E+00 -0.00000000000E+00 -0.45593999997E+02  0.45594000000E+02  0.51100000000E-03 0.  1.
    9900012    2    1    2    0    0  0.18835329175E+02 -0.36938233130E+02  0.12822650879E+02  0.47787273422E+02  0.20000010842E+02 0.  0.
        -12    1    1    2    0    0 -0.18835329175E+02  0.36938233130E+02 -0.12822650879E+02  0.43400726578E+02  0.00000000000E+00 0.  1.
         11    1    3    3    0    0  0.14848753560E+02 -0.22007675371E+02  0.39466288148E+00  0.26551440951E+02  0.51100000000E-03 0. -1.
        -11    1    3    3    0    0 -0.10925975669E+00  0.62944595430E+00  0.19074556768E+01  0.20115982014E+01  0.51100000000E-03 0.  1.
         12    1    3    3    0    0  0.40958353717E+01 -0.15560003713E+02  0.10520532321E+02  0.19224234270E+02  0.00000000000E+00 0. -1.
</event>
<event>
 7    1  0.2700100E-010  0.4778728E+02  0.7816164E-02  0.1312668E+00
        -11   -1    0    0    0    0  0.00000000000E+00  0.00000000000E+00  0.45593999997E+02  0.45594000000E+02  0.51100000000E-03 0. -1.
         11   -1    0    0    0    0 -0.00000000000E+00 -0.00000000000E+00 -0.45593999997E+02  0.45594000000E+02  0.51100000000E-03 0.  1.
    9900012    2    1    2    0    0 -0.41581025447E+02  0.11217553304E+02 -0.53672522479E+01  0.47787279084E+02  0.20000036657E+02 0.  0.
        -12    1    1    2    0    0  0.41581025447E+02 -0.11217553304E+02  0.53672522479E+01  0.43400720916E+02  0.00000000000E+00 0.  1.
         11    1    3    3    0    0 -0.25579099591E+02 -0.15940528375E+00 -0.95843572703E+01  0.27316215889E+02  0.51100000000E-03 0. -1.
        -11    1    3    3    0    0 -0.13894619420E+02  0.11313649309E+02  0.39209189845E+01  0.18342102264E+02  0.51100000000E-03 0.  1.
        -12    1    3    3    0    0 -0.21073064354E+01  0.63309278479E-01  0.29618603794E+00  0.21289609312E+01  0.00000000000E+00 0.  1.
</event>
<event>
 7    1  0.2700100E-010  0.4778727E+02  0.7816164E-02  0.1312668E+00
        -11   -1    0    0    0    0  0.00000000000E+00  0.00000000000E+00  0.45593999997E+02  0.45594000000E+02  0.51100000000E-03 0.  1.
         11   -1    0    0    0    0 -0.00000000000E+00 -0.00000000000E+00 -0.45593999997E+02  0.45594000000E+02  0.51100000000E-03 0. -1.
    9900012    2    1    2    0    0  0.34360804060E+02  0.26241265606E+02 -0.37887100631E+01  0.47787271893E+02  0.20000003870E+02 0.  0.
        -12    1    1    2    0    0 -0.34360804060E+02 -0.26241265606E+02  0.37887100631E+01  0.43400728107E+02  0.00000000000E+00 0.  1.
         11    1    3    3    0    0  0.24705947511E+02  0.14271576481E+02 -0.87861645323E+01  0.29853951583E+02  0.51100000000E-03 0. -1.
        -11    1    3    3    0    0  0.36323875350E+01 -0.49496028816E-01  0.12799671174E+00  0.36349790207E+01  0.51100000000E-03 0.  1.
         12    1    3    3    0    0  0.60224690140E+01  0.12019185154E+02  0.48694577575E+01  0.14298341290E+02  0.00000000000E+00 0. -1.
</event>
<event>
 7    1  0.2700100E-010  0.4778727E+02  0.7816164E-02  0.1312668E+00
        -11   -1    0    0    0    0  0.00000000000E+00  0.00000000000E+00  0.45593999997E+02  0.45594000000E+02  0.51100000000E-03 0.  1.
         11   -1    0    0    0    0 -0.00000000000E+00 -0.00000000000E+00 -0.45593999997E+02  0.45594000000E+02  0.51100000000E-03 0. -1.
    9900012    2    1    2    0    0 -0.42279796350E+02  0.60301950748E+01  0.77252155101E+01  0.47787269744E+02  0.19999994071E+02 0.  0.
        -12    1    1    2    0    0  0.42279796350E+02 -0.60301950748E+01 -0.77252155101E+01  0.43400730256E+02  0.00000000000E+00 0.  1.
         11    1    3    3    0    0 -0.21700748755E+02  0.10540245696E+00  0.29454323940E+01  0.21899981244E+02  0.51100000000E-03 0. -1.
        -11    1    3    3    0    0 -0.78567906906E+01  0.93921364490E+01  0.26792188959E+01  0.12534735784E+02  0.51100000000E-03 0.  1.
        -12    1    3    3    0    0 -0.12722256905E+02 -0.34673438312E+01  0.21005642202E+01  0.13352552716E+02  0.00000000000E+00 0.  1.
</event>
<event>
 7    1  0.2700100E-010  0.4778727E+02  0.7816164E-02  0.1312668E+00
        -11   -1    0    0    0    0  0.00000000000E+00  0.00000000000E+00  0.45593999997E+02  0.45594000000E+02  0.51100000000E-03 0.  1.
         11   -1    0    0    0    0 -0.00000000000E+00 -0.00000000000E+00 -0.45593999997E+02  0.45594000000E+02  0.51100000000E-03 0. -1.
    9900012    2    1    2    0    0  0.41260381781E+02  0.45280366118E+01 -0.12676796368E+02  0.47787269748E+02  0.19999994089E+02 0.  0.
        -12    1    1    2    0    0 -0.41260381781E+02 -0.45280366118E+01  0.12676796368E+02  0.43400730252E+02  0.00000000000E+00 0.  1.
         11    1    3    3    0    0  0.30395106296E+02 -0.64879635129E+00 -0.11480177578E+02  0.32497352214E+02  0.51100000000E-03 0. -1.
        -11    1    3    3    0    0 -0.31225886236E+00  0.57413440157E+00 -0.29979331645E+01  0.30683447375E+01  0.51100000000E-03 0.  1.
         12    1    3    3    0    0  0.11177534347E+02  0.46026985616E+01  0.18013143751E+01  0.12221572796E+02  0.00000000000E+00 0. -1.
</event>
<event>
 7    1  0.2700100E-010  0.4778727E+02  0.7816164E-02  0.1312668E+00
        -11   -1    0    0    0    0  0.00000000000E+00  0.00000000000E+00  0.45593999997E+02  0.45594000000E+02  0.51100000000E-03 0.  1.
         11   -1    0    0    0    0 -0.00000000000E+00 -0.00000000000E+00 -0.45593999997E+02  0.45594000000E+02  0.51100000000E-03 0. -1.
    9900012    2    1    2    0    0  0.32493627041E+02 -0.84169256725E+01 -0.27512599912E+02  0.47787267403E+02  0.19999983397E+02 0.  0.
        -12    1    1    2    0    0 -0.32493627041E+02  0.84169256725E+01  0.27512599912E+02  0.43400732597E+02  0.00000000000E+00 0.  1.
         11    1    3    3    0    0  0.13760038652E+02 -0.18188573017E+01 -0.34543458583E+01  0.14303125923E+02  0.51100000000E-03 0. -1.
        -11    1    3    3    0    0  0.15263911946E+02 -0.92566217568E+01 -0.22757461486E+02  0.28923590852E+02  0.51100000000E-03 0.  1.
        -12    1    3    3    0    0  0.34696764426E+01  0.26585533859E+01 -0.13007925675E+01  0.45605506275E+01  0.00000000000E+00 0.  1.
</event>
<event>
 7    1  0.2700100E-010  0.4778727E+02  0.7816164E-02  0.1312668E+00
        -11   -1    0    0    0    0  0.00000000000E+00  0.00000000000E+00  0.45593999997E+02  0.45594000000E+02  0.51100000000E-03 0.  1.
         11   -1    0    0    0    0 -0.00000000000E+00 -0.00000000000E+00 -0.45593999997E+02  0.45594000000E+02  0.51100000000E-03 0. -1.
    9900012    2    1    2    0    0  0.25729904216E+02  0.36223852046E+00 -0.34949451924E+02  0.47787269850E+02  0.19999994556E+02 0.  0.
        -12    1    1    2    0    0 -0.25729904216E+02 -0.36223852046E+00  0.34949451924E+02  0.43400730150E+02  0.00000000000E+00 0.  1.
         11    1    3    3    0    0  0.12198507211E+02  0.86325780142E+01 -0.14606892549E+02  0.20897040258E+02  0.51100000000E-03 0. -1.
        -11    1    3    3    0    0  0.82506929867E+01 -0.63677908054E+01 -0.18017544833E+02  0.20814769193E+02  0.51100000000E-03 0.  1.
         12    1    3    3    0    0  0.52807040178E+01 -0.19025486884E+01 -0.23250145424E+01  0.60754603988E+01  0.00000000000E+00 0. -1.
</event>
<event>
 7    1  0.2700100E-010  0.4778727E+02  0.7816164E-02  0.1312668E+00
        -11   -1    0    0    0    0  0.00000000000E+00  0.00000000000E+00  0.45593999997E+02  0.45594000000E+02  0.51100000000E-03 0.  1.
         11   -1    0    0    0    0 -0.00000000000E+00 -0.00000000000E+00 -0.45593999997E+02  0.45594000000E+02  0.51100000000E-03 0. -1.
    9900012    2    1    2    0    0  0.17709845070E+01 -0.43222343409E+02 -0.35094497983E+01  0.47787267359E+02  0.19999983199E+02 0.  0.
        -12    1    1    2    0    0 -0.17709845070E+01  0.43222343409E+02  0.35094497983E+01  0.43400732641E+02  0.00000000000E+00 0.  1.
         11    1    3    3    0    0  0.47526612472E+01 -0.10726560716E+02 -0.23508842789E+01  0.11965515070E+02  0.51100000000E-03 0. -1.
        -11    1    3    3    0    0  0.29166088078E+00 -0.20880889351E+02  0.60798463836E+01  0.21749968700E+02  0.51100000000E-03 0.  1.
        -12    1    3    3    0    0 -0.32733376209E+01 -0.11614893341E+02 -0.72384119029E+01  0.14071783589E+02  0.00000000000E+00 0.  1.
</event>
<event>
 7    1  0.2700100E-010  0.4778727E+02  0.7816164E-02  0.1312668E+00
        -11   -1    0    0    0    0  0.00000000000E+00  0.00000000000E+00  0.45593999997E+02  0.45594000000E+02  0.51100000000E-03 0. -1.
         11   -1    0    0    0    0 -0.00000000000E+00 -0.00000000000E+00 -0.45593999997E+02  0.45594000000E+02  0.51100000000E-03 0.  1.
    9900012    2    1    2    0    0 -0.34793575644E+02 -0.25856190504E+02  0.21184614059E+01  0.47787269912E+02  0.19999994837E+02 0.  0.
        -12    1    1    2    0    0  0.34793575644E+02  0.25856190504E+02 -0.21184614059E+01  0.43400730088E+02  0.00000000000E+00 0.  1.
         11    1    3    3    0    0 -0.82936276007E+01  0.20119300332E+01  0.27004784540E+01  0.89512404380E+01  0.51100000000E-03 0.  1.
        -11    1    3    3    0    0 -0.20045566560E+02 -0.17647405499E+02  0.38174854714E+00  0.26709574908E+02  0.51100000000E-03 0. -1.
        -12    1    3    3    0    0 -0.64543814831E+01 -0.10220715038E+02 -0.96376559522E+00  0.12126454566E+02  0.00000000000E+00 0.  1.
</event>
<event>
 7    1  0.2700100E-010  0.4778727E+02  0.7816164E-02  0.1312668E+00
        -11   -1    0    0    0    0  0.00000000000E+00  0.00000000000E+00  0.45593999997E+02  0.45594000000E+02  0.51100000000E-03 0. -1.
         11   -1    0    0    0    0 -0.00000000000E+00 -0.00000000000E+00 -0.45593999997E+02  0.45594000000E+02  0.51100000000E-03 0.  1.
    9900012    2    1    2    0    0 -0.27146480953E+02 -0.29722113602E+02  0.16226136178E+02  0.47787274657E+02  0.20000016469E+02 0.  0.
        -12    1    1    2    0    0  0.27146480953E+02  0.29722113602E+02 -0.16226136178E+02  0.43400725343E+02  0.00000000000E+00 0.  1.
         11    1    3    3    0    0 -0.14285377142E+02 -0.34458119999E+01  0.54897056747E+01  0.15687016577E+02  0.51100000000E-03 0. -1.
        -11    1    3    3    0    0 -0.15764560814E+01 -0.11738622825E+02  0.39473040677E+01  0.12484457909E+02  0.51100000000E-03 0.  1.
         12    1    3    3    0    0 -0.11284647730E+02 -0.14537678776E+02  0.67891264353E+01  0.19615800171E+02  0.00000000000E+00 0. -1.
</event>
<event>
 7    1  0.2700100E-010  0.4778727E+02  0.7816164E-02  0.1312668E+00
        -11   -1    0    0    0    0  0.00000000000E+00  0.00000000000E+00  0.45593999997E+02  0.45594000000E+02  0.51100000000E-03 0. -1.
         11   -1    0    0    0    0 -0.00000000000E+00 -0.00000000000E+00 -0.45593999997E+02  0.45594000000E+02  0.51100000000E-03 0.  1.
    9900012    2    1    2    0    0 -0.22501379398E+02 -0.13507246124E+02  0.34566827399E+02  0.47787270408E+02  0.19999997098E+02 0.  0.
        -12    1    1    2    0    0  0.22501379398E+02  0.13507246124E+02 -0.34566827399E+02  0.43400729592E+02  0.00000000000E+00 0.  1.
         11    1    3    3    0    0 -0.23379192865E+01 -0.46756017285E+01  0.97008802684E+01  0.11019718524E+02  0.51100000000E-03 0. -1.
        -11    1    3    3    0    0 -0.64999551639E+01  0.25039921847E+00  0.17712818531E+02  0.18869447726E+02  0.51100000000E-03 0.  1.
        -12    1    3    3    0    0 -0.13663504948E+02 -0.90820436141E+01  0.71531285992E+01  0.17898104157E+02  0.00000000000E+00 0.  1.
</event>
<event>
 7    1  0.2700100E-010  0.4778728E+02  0.7816164E-02  0.1312668E+00
        -11   -1    0    0    0    0  0.00000000000E+00  0.00000000000E+00  0.45593999997E+02  0.45594000000E+02  0.51100000000E-03 0.  1.
         11   -1    0    0    0    0 -0.00000000000E+00 -0.00000000000E+00 -0.45593999997E+02  0.45594000000E+02  0.51100000000E-03 0. -1.
    9900012    2    1    2    0    0 -0.13253621842E+02 -0.24230409575E+02 -0.33479114366E+02  0.47787281817E+02  0.20000049115E+02 0.  0.
        -12    1    1    2    0    0  0.13253621842E+02  0.24230409575E+02  0.33479114366E+02  0.43400718183E+02  0.00000000000E+00 0.  1.
         11    1    3    3    0    0  0.36720432221E+01 -0.78192739523E+01 -0.50271237818E+01  0.99948446884E+01  0.51100000000E-03 0. -1.
        -11    1    3    3    0    0 -0.11502798818E+02 -0.86603378227E+01 -0.11694301598E+02  0.18549191950E+02  0.51100000000E-03 0.  1.
        -12    1    3    3    0    0 -0.54228662459E+01 -0.77507978004E+01 -0.16757688986E+02  0.19243245179E+02  0.00000000000E+00 0.  1.
</event>
<event>
 7    1  0.2700100E-010  0.4778723E+02  0.7816164E-02  0.1312668E+00
        -11   -1    0    0    0    0  0.00000000000E+00  0.00000000000E+00  0.45593999997E+02  0.45594000000E+02  0.51100000000E-03 0. -1.
         11   -1    0    0    0    0 -0.00000000000E+00 -0.00000000000E+00 -0.45593999997E+02  0.45594000000E+02  0.51100000000E-03 0.  1.
    9900012    2    1    2    0    0  0.34586974586E+02  0.81823356104E+01  0.24908181941E+02  0.47787228640E+02  0.19999806659E+02 0.  0.
        -12    1    1    2    0    0 -0.34586974586E+02 -0.81823356104E+01 -0.24908181941E+02  0.43400771360E+02  0.00000000000E+00 0.  1.
         11    1    3    3    0    0  0.18930215484E+02  0.53836214757E+01  0.20809269583E+02  0.28641964655E+02  0.51100000000E-03 0. -1.
        -11    1    3    3    0    0  0.10562727063E+02  0.42457136487E+01 -0.14487265344E+01  0.11475891958E+02  0.51100000000E-03 0.  1.
         12    1    3    3    0    0  0.50940320396E+01 -0.14469995141E+01  0.55476388924E+01  0.76693720274E+01  0.00000000000E+00 0. -1.
</event>
<event>
 7    1  0.2700100E-010  0.4778728E+02  0.7816164E-02  0.1312668E+00
        -11   -1    0    0    0    0  0.00000000000E+00  0.00000000000E+00  0.45593999997E+02  0.45594000000E+02  0.51100000000E-03 0. -1.
         11   -1    0    0    0    0 -0.00000000000E+00 -0.00000000000E+00 -0.45593999997E+02  0.45594000000E+02  0.51100000000E-03 0.  1.
    9900012    2    1    2    0    0 -0.35342837632E+02  0.25184430816E+02 -0.50088169939E+00  0.47787278694E+02  0.20000034876E+02 0.  0.
        -12    1    1    2    0    0  0.35342837632E+02 -0.25184430816E+02  0.50088169939E+00  0.43400721306E+02  0.00000000000E+00 0.  1.
         11    1    3    3    0    0 -0.10318510559E+02  0.30583250968E+01 -0.66225972619E+01  0.12636605846E+02  0.51100000000E-03 0. -1.
        -11    1    3    3    0    0 -0.14009100325E+01  0.38373762771E+01 -0.14428189037E+01  0.43324049050E+01  0.51100000000E-03 0.  1.
         12    1    3    3    0    0 -0.23623417041E+02  0.18288729442E+02  0.75645344662E+01  0.30818267943E+02  0.00000000000E+00 0. -1.
</event>
<event>
 7    1  0.2700100E-010  0.4778728E+02  0.7816164E-02  0.1312668E+00
        -11   -1    0    0    0    0  0.00000000000E+00  0.00000000000E+00  0.45593999997E+02  0.45594000000E+02  0.51100000000E-03 0. -1.
         11   -1    0    0    0    0 -0.00000000000E+00 -0.00000000000E+00 -0.45593999997E+02  0.45594000000E+02  0.51100000000E-03 0.  1.
    9900012    2    1    2    0    0  0.19846431640E+01  0.30291825929E+02  0.31017562617E+02  0.47787277457E+02  0.20000029235E+02 0.  0.
        -12    1    1    2    0    0 -0.19846431640E+01 -0.30291825929E+02 -0.31017562617E+02  0.43400722543E+02  0.00000000000E+00 0.  1.
         11    1    3    3    0    0  0.67066726365E+01  0.28880616389E+02  0.26312228830E+02  0.39640923893E+02  0.51100000000E-03 0. -1.
        -11    1    3    3    0    0 -0.39852706528E+01  0.83249676581E+00  0.82437732984E+00  0.41539175827E+01  0.51100000000E-03 0.  1.
         12    1    3    3    0    0 -0.73675881969E+00  0.57871277395E+00  0.38809564580E+01  0.39924359809E+01  0.00000000000E+00 0. -1.
</event>
<event>
 7    1  0.2700100E-010  0.4778727E+02  0.7816164E-02  0.1312668E+00
        -11   -1    0    0    0    0  0.00000000000E+00  0.00000000000E+00  0.45593999997E+02  0.45594000000E+02  0.51100000000E-03 0.  1.
         11   -1    0    0    0    0 -0.00000000000E+00 -0.00000000000E+00 -0.45593999997E+02  0.45594000000E+02  0.51100000000E-03 0. -1.
    9900012    2    1    2    0    0  0.89051366853E+01 -0.27129396103E+01 -0.42390585627E+02  0.47787271314E+02  0.20000001228E+02 0.  0.
        -12    1    1    2    0    0 -0.89051366853E+01  0.27129396103E+01  0.42390585627E+02  0.43400728686E+02  0.00000000000E+00 0.  1.
         11    1    3    3    0    0 -0.32338127613E+01 -0.51602669753E+01 -0.17758634121E+02  0.18773784550E+02  0.51100000000E-03 0. -1.
        -11    1    3    3    0    0  0.11983377064E+02  0.39854220868E+01 -0.24366813809E+02  0.27444972773E+02  0.51100000000E-03 0.  1.
        -12    1    3    3    0    0  0.15557238296E+00 -0.15380947219E+01 -0.26513769696E+00  0.15685139904E+01  0.00000000000E+00 0.  1.
</event>
<event>
 7    1  0.2700100E-010  0.4778727E+02  0.7816164E-02  0.1312668E+00
        -11   -1    0    0    0    0  0.00000000000E+00  0.00000000000E+00  0.45593999997E+02  0.45594000000E+02  0.51100000000E-03 0.  1.
         11   -1    0    0    0    0 -0.00000000000E+00 -0.00000000000E+00 -0.45593999997E+02  0.45594000000E+02  0.51100000000E-03 0. -1.
    9900012    2    1    2    0    0  0.17927187958E+02  0.30498663876E+02 -0.25141025188E+02  0.47787265977E+02  0.19999976894E+02 0.  0.
        -12    1    1    2    0    0 -0.17927187958E+02 -0.30498663876E+02  0.25141025188E+02  0.43400734023E+02  0.00000000000E+00 0.  1.
         11    1    3    3    0    0  0.39549989709E+01  0.70104708176E+01 -0.27241117819E+01  0.84976175018E+01  0.51100000000E-03 0. -1.
        -11    1    3    3    0    0  0.15818769400E+02  0.24340610844E+02 -0.17323922691E+02  0.33805577931E+02  0.51100000000E-03 0.  1.
        -12    1    3    3    0    0 -0.18465804132E+01 -0.85241778631E+00 -0.50929907154E+01  0.54840705440E+01  0.00000000000E+00 0.  1.
</event>
<event>
 7    1  0.2927173E-010  0.4778727E+02  0.7816164E-02  0.1312668E+00
        -11   -1    0    0    0    0  0.00000000000E+00  0.00000000000E+00  0.45593999997E+02  0.45594000000E+02  0.51100000000E-03 0. -1.
         11   -1    0    0    0    0 -0.00000000000E+00 -0.00000000000E+00 -0.45593999997E+02  0.45594000000E+02  0.51100000000E-03 0.  1.
    9900012    2    1    2    0    0  0.17140454885E+02  0.17254074783E+02  0.35946142042E+02  0.47787269385E+02  0.19999992433E+02 0.  0.
        -12    1    1    2    0    0 -0.17140454885E+02 -0.17254074783E+02 -0.35946142042E+02  0.43400730615E+02  0.00000000000E+00 0.  1.
         11    1    3    3    0    0  0.99338224309E+01  0.12335695577E+02  0.29095712879E+02  0.33127190066E+02  0.51100000000E-03 0. -1.
        -11    1    3    3    0    0  0.27945424756E+01  0.58435466194E+01  0.21560970346E-01  0.64774200016E+01  0.51100000000E-03 0.  1.
        -12    1    3    3    0    0  0.44120899785E+01 -0.92516741332E+00  0.68288681918E+01  0.81826593172E+01  0.00000000000E+00 0.  1.
</event>
<event>
 7    1  0.2801394E-010  0.4778727E+02  0.7816164E-02  0.1312668E+00
        -11   -1    0    0    0    0  0.00000000000E+00  0.00000000000E+00  0.45593999997E+02  0.45594000000E+02  0.51100000000E-03 0.  1.
         11   -1    0    0    0    0 -0.00000000000E+00 -0.00000000000E+00 -0.45593999997E+02  0.45594000000E+02  0.51100000000E-03 0. -1.
    9900012    2    1    2    0    0 -0.35383127202E+02  0.13168605096E+02 -0.21406668845E+02  0.47787270492E+02  0.19999997482E+02 0.  0.
        -12    1    1    2    0    0  0.35383127202E+02 -0.13168605096E+02  0.21406668845E+02  0.43400729508E+02  0.00000000000E+00 0.  1.
         11    1    3    3    0    0 -0.23710720336E+02  0.62519125790E+01 -0.12547035252E+02  0.27544741124E+02  0.51100000000E-03 0. -1.
        -11    1    3    3    0    0 -0.10109752991E+01  0.24225306361E+01 -0.82488689932E+01  0.86564753605E+01  0.51100000000E-03 0.  1.
        -12    1    3    3    0    0 -0.10661431567E+02  0.44941618810E+01 -0.61076460071E+00  0.11586054007E+02  0.00000000000E+00 0.  1.
</event>
<event>
 7    1  0.2700100E-010  0.4778726E+02  0.7816164E-02  0.1312668E+00
        -11   -1    0    0    0    0  0.00000000000E+00  0.00000000000E+00  0.45593999997E+02  0.45594000000E+02  0.51100000000E-03 0.  1.
         11   -1    0    0    0    0 -0.00000000000E+00 -0.00000000000E+00 -0.45593999997E+02  0.45594000000E+02  0.51100000000E-03 0. -1.
    9900012    2    1    2    0    0  0.31482622286E+01  0.83339543395E+01 -0.42476554672E+02  0.47787262140E+02  0.19999959402E+02 0.  0.
        -12    1    1    2    0    0 -0.31482622286E+01 -0.83339543395E+01  0.42476554672E+02  0.43400737860E+02  0.00000000000E+00 0.  1.
         11    1    3    3    0    0  0.65187176556E+01  0.80609839308E+01 -0.10476213390E+02  0.14738527371E+02  0.51100000000E-03 0. -1.
        -11    1    3    3    0    0 -0.21115744025E+01 -0.18399423760E+01 -0.36938180308E+01  0.46355610567E+01  0.51100000000E-03 0.  1.
         12    1    3    3    0    0 -0.12588810245E+01  0.21129127848E+01 -0.28306523251E+02  0.28413173713E+02  0.00000000000E+00 0. -1.
</event>
<event>
 7    1  0.2700100E-010  0.4778727E+02  0.7816164E-02  0.1312668E+00
        -11   -1    0    0    0    0  0.00000000000E+00  0.00000000000E+00  0.45593999997E+02  0.45594000000E+02  0.51100000000E-03 0.  1.
         11   -1    0    0    0    0 -0.00000000000E+00 -0.00000000000E+00 -0.45593999997E+02  0.45594000000E+02  0.51100000000E-03 0. -1.
    9900012    2    1    2    0    0  0.21180723872E+02  0.85748494137E+00 -0.37871691054E+02  0.47787270428E+02  0.19999997187E+02 0.  0.
        -12    1    1    2    0    0 -0.21180723872E+02 -0.85748494137E+00  0.37871691054E+02  0.43400729572E+02  0.00000000000E+00 0.  1.
         11    1    3    3    0    0  0.13862208264E+02 -0.43561054324E+01 -0.23137883775E+02  0.27322118116E+02  0.51100000000E-03 0. -1.
        -11    1    3    3    0    0  0.54829414286E+01  0.22056174177E+01 -0.64811262180E+00  0.59453717406E+01  0.51100000000E-03 0.  1.
         12    1    3    3    0    0  0.18355741798E+01  0.30079729560E+01 -0.14085694656E+02  0.14519780571E+02  0.00000000000E+00 0. -1.
</event>
<event>
 7    1  0.2700100E-010  0.4778727E+02  0.7816164E-02  0.1312668E+00
        -11   -1    0    0    0    0  0.00000000000E+00  0.00000000000E+00  0.45593999997E+02  0.45594000000E+02  0.51100000000E-03 0. -1.
         11   -1    0    0    0    0 -0.00000000000E+00 -0.00000000000E+00 -0.45593999997E+02  0.45594000000E+02  0.51100000000E-03 0.  1.
    9900012    2    1    2    0    0 -0.20354746048E+02  0.36349042945E+02  0.12167764577E+02  0.47787272996E+02  0.20000008897E+02 0.  0.
        -12    1    1    2    0    0  0.20354746048E+02 -0.36349042945E+02 -0.12167764577E+02  0.43400727004E+02  0.00000000000E+00 0.  1.
         11    1    3    3    0    0 -0.43655823989E+01  0.67589390049E+01  0.43600550653E+01  0.91515925710E+01  0.51100000000E-03 0.  1.
        -11    1    3    3    0    0 -0.72299920363E+01  0.24233735742E+02  0.11424608073E+02  0.27750106356E+02  0.51100000000E-03 0. -1.
        -12    1    3    3    0    0 -0.87591716131E+01  0.53563681978E+01 -0.36168985606E+01  0.10885574069E+02  0.00000000000E+00 0.  1.
</event>
<event>
 7    1  0.2700100E-010  0.4778727E+02  0.7816164E-02  0.1312668E+00
        -11   -1    0    0    0    0  0.00000000000E+00  0.00000000000E+00  0.45593999997E+02  0.45594000000E+02  0.51100000000E-03 0.  1.
         11   -1    0    0    0    0 -0.00000000000E+00 -0.00000000000E+00 -0.45593999997E+02  0.45594000000E+02  0.51100000000E-03 0. -1.
    9900012    2    1    2    0    0  0.12911545062E+02  0.16606865988E+01 -0.41402386188E+02  0.47787268924E+02  0.19999990331E+02 0.  0.
        -12    1    1    2    0    0 -0.12911545062E+02 -0.16606865988E+01  0.41402386188E+02  0.43400731076E+02  0.00000000000E+00 0.  1.
         11    1    3    3    0    0  0.65899429549E+01 -0.20798725878E+01 -0.31775550049E+02  0.32518284077E+02  0.51100000000E-03 0. -1.
        -11    1    3    3    0    0  0.68536181136E-01  0.52039768385E+01 -0.58022524202E+01  0.77943701190E+01  0.51100000000E-03 0.  1.
         12    1    3    3    0    0  0.62530659264E+01 -0.14634176519E+01 -0.38245837187E+01  0.74746147276E+01  0.00000000000E+00 0. -1.
</event>
<event>
 7    1  0.2700100E-010  0.4778728E+02  0.7816164E-02  0.1312668E+00
        -11   -1    0    0    0    0  0.00000000000E+00  0.00000000000E+00  0.45593999997E+02  0.45594000000E+02  0.51100000000E-03 0.  1.
         11   -1    0    0    0    0 -0.00000000000E+00 -0.00000000000E+00 -0.45593999997E+02  0.45594000000E+02  0.51100000000E-03 0. -1.
    9900012    2    1    2    0    0 -0.11114387215E+02 -0.36232536422E+01 -0.41796714373E+02  0.47787275323E+02  0.20000019509E+02 0.  0.
        -12    1    1    2    0    0  0.11114387215E+02  0.36232536422E+01  0.41796714373E+02  0.43400724677E+02  0.00000000000E+00 0.  1.
         11    1    3    3    0    0 -0.69661479396E+01  0.59754185736E+01 -0.14454513362E+02  0.17122085184E+02  0.51100000000E-03 0. -1.
        -11    1    3    3    0    0  0.17602324878E+01 -0.17462025323E+01 -0.12355596286E+01  0.27702435907E+01  0.51100000000E-03 0.  1.
         12    1    3    3    0    0 -0.59084717636E+01 -0.78524696835E+01 -0.26106641382E+02  0.27894946549E+02  0.00000000000E+00 0. -1.
</event>
<event>
 7    1  0.2700100E-010  0.4778726E+02  0.7816164E-02  0.1312668E+00
        -11   -1    0    0    0    0  0.00000000000E+00  0.00000000000E+00  0.45593999997E+02  0.45594000000E+02  0.51100000000E-03 0.  1.
         11   -1    0    0    0    0 -0.00000000000E+00 -0.00000000000E+00 -0.45593999997E+02  0.45594000000E+02  0.51100000000E-03 0. -1.
    9900012    2    1    2    0    0  0.27890390550E+02  0.33237785351E+02  0.99980691583E+00  0.47787264131E+02  0.19999968480E+02 0.  0.
        -12    1    1    2    0    0 -0.27890390550E+02 -0.33237785351E+02 -0.99980691583E+00  0.43400735869E+02  0.00000000000E+00 0.  1.
         11    1    3    3    0    0  0.16453794085E+02  0.19420178388E+02 -0.83466781640E+01  0.26786894278E+02  0.51100000000E-03 0. -1.
        -11    1    3    3    0    0  0.11864444089E+02  0.13964661458E+02  0.92894980277E+01  0.20544380668E+02  0.51100000000E-03 0.  1.
         12    1    3    3    0    0 -0.42784762374E+00 -0.14705449409E+00  0.56987052136E-01  0.45598918571E+00  0.00000000000E+00 0. -1.
</event>
<event>
 7    1  0.2700100E-010  0.4778727E+02  0.7816164E-02  0.1312668E+00
        -11   -1    0    0    0    0  0.00000000000E+00  0.00000000000E+00  0.45593999997E+02  0.45594000000E+02  0.51100000000E-03 0.  1.
         11   -1    0    0    0    0 -0.00000000000E+00 -0.00000000000E+00 -0.45593999997E+02  0.45594000000E+02  0.51100000000E-03 0. -1.
    9900012    2    1    2    0    0  0.20723458024E+02  0.15861534682E+01 -0.38100468154E+02  0.47787271102E+02  0.20000000265E+02 0.  0.
        -12    1    1    2    0    0 -0.20723458024E+02 -0.15861534682E+01  0.38100468154E+02  0.43400728898E+02  0.00000000000E+00 0.  1.
         11    1    3    3    0    0  0.77249038353E+00  0.65626128542E+01 -0.13915260865E+02  0.15404516028E+02  0.51100000000E-03 0. -1.
        -11    1    3    3    0    0  0.17235979104E+02 -0.62932202909E+01 -0.19218677597E+02  0.26571435154E+02  0.51100000000E-03 0.  1.
         12    1    3    3    0    0  0.27149885362E+01  0.13167609048E+01 -0.49665296919E+01  0.58113199200E+01  0.00000000000E+00 0. -1.
</event>
<event>
 7    1  0.2700100E-010  0.4778727E+02  0.7816164E-02  0.1312668E+00
        -11   -1    0    0    0    0  0.00000000000E+00  0.00000000000E+00  0.45593999997E+02  0.45594000000E+02  0.51100000000E-03 0.  1.
         11   -1    0    0    0    0 -0.00000000000E+00 -0.00000000000E+00 -0.45593999997E+02  0.45594000000E+02  0.51100000000E-03 0. -1.
    9900012    2    1    2    0    0 -0.65888811311E+01 -0.15704683418E+02 -0.39919576930E+02  0.47787273531E+02  0.20000011336E+02 0.  0.
        -12    1    1    2    0    0  0.65888811311E+01  0.15704683418E+02  0.39919576930E+02  0.43400726469E+02  0.00000000000E+00 0.  1.
         11    1    3    3    0    0 -0.43065938984E+01 -0.55504164707E+01 -0.13508549168E+02  0.15226121466E+02  0.51100000000E-03 0. -1.
        -11    1    3    3    0    0 -0.45025885670E+01 -0.84251657257E+01 -0.46600244772E+01  0.10628854581E+02  0.51100000000E-03 0.  1.
        -12    1    3    3    0    0  0.22203013343E+01 -0.17291012215E+01 -0.21751003285E+02  0.21932297484E+02  0.00000000000E+00 0.  1.
</event>
<event>
 7    1  0.2700100E-010  0.4778727E+02  0.7816164E-02  0.1312668E+00
        -11   -1    0    0    0    0  0.00000000000E+00  0.00000000000E+00  0.45593999997E+02  0.45594000000E+02  0.51100000000E-03 0.  1.
         11   -1    0    0    0    0 -0.00000000000E+00 -0.00000000000E+00 -0.45593999997E+02  0.45594000000E+02  0.51100000000E-03 0. -1.
    9900012    2    1    2    0    0 -0.25489982618E+02  0.84857815017E+01 -0.34086291890E+02  0.47787274242E+02  0.20000014577E+02 0.  0.
        -12    1    1    2    0    0  0.25489982618E+02 -0.84857815017E+01  0.34086291890E+02  0.43400725758E+02  0.00000000000E+00 0.  1.
         11    1    3    3    0    0 -0.20514275590E+02  0.72540308738E+01 -0.16275311674E+02  0.27172453648E+02  0.51100000000E-03 0. -1.
        -11    1    3    3    0    0  0.17315666674E+01  0.29174199772E+01 -0.47686729141E+01  0.58523417595E+01  0.51100000000E-03 0.  1.
         12    1    3    3    0    0 -0.67072736950E+01 -0.16856693493E+01 -0.13042307302E+02  0.14762478834E+02  0.00000000000E+00 0. -1.
</event>
<event>
 7    1  0.2700100E-010  0.4778727E+02  0.7816164E-02  0.1312668E+00
        -11   -1    0    0    0    0  0.00000000000E+00  0.00000000000E+00  0.45593999997E+02  0.45594000000E+02  0.51100000000E-03 0.  1.
         11   -1    0    0    0    0 -0.00000000000E+00 -0.00000000000E+00 -0.45593999997E+02  0.45594000000E+02  0.51100000000E-03 0. -1.
    9900012    2    1    2    0    0 -0.35047265156E+01 -0.38683364558E+02 -0.19363306948E+02  0.47787268930E+02  0.19999990360E+02 0.  0.
        -12    1    1    2    0    0  0.35047265156E+01  0.38683364558E+02  0.19363306948E+02  0.43400731070E+02  0.00000000000E+00 0.  1.
         11    1    3    3    0    0  0.17693993784E+01 -0.27149275221E+01 -0.49246945239E+01  0.58952711580E+01  0.51100000000E-03 0. -1.
        -11    1    3    3    0    0 -0.33437844974E+01 -0.29261944280E+02 -0.17513232133E+02  0.34265953625E+02  0.51100000000E-03 0.  1.
        -12    1    3    3    0    0 -0.19303413966E+01 -0.67064927556E+01  0.30746197085E+01  0.76260441475E+01  0.00000000000E+00 0.  1.
</event>
<event>
 7    1  0.2700100E-010  0.4778727E+02  0.7816164E-02  0.1312668E+00
        -11   -1    0    0    0    0  0.00000000000E+00  0.00000000000E+00  0.45593999997E+02  0.45594000000E+02  0.51100000000E-03 0.  1.
         11   -1    0    0    0    0 -0.00000000000E+00 -0.00000000000E+00 -0.45593999997E+02  0.45594000000E+02  0.51100000000E-03 0. -1.
    9900012    2    1    2    0    0 -0.38222907202E+01  0.21002057302E+02 -0.37787921143E+02  0.47787270725E+02  0.19999998545E+02 0.  0.
        -12    1    1    2    0    0  0.38222907202E+01 -0.21002057302E+02  0.37787921143E+02  0.43400729275E+02  0.00000000000E+00 0.  1.
         11    1    3    3    0    0 -0.41518958601E+01 -0.26673808718E+01 -0.48125426834E+01  0.68930201863E+01  0.51100000000E-03 0. -1.
        -11    1    3    3    0    0 -0.16040716184E+01  0.15161801928E+02 -0.18274599593E+02  0.23799459531E+02  0.51100000000E-03 0.  1.
         12    1    3    3    0    0  0.19336767582E+01  0.85076362462E+01 -0.14700778867E+02  0.17094791008E+02  0.00000000000E+00 0. -1.
</event>
<event>
 7    1  0.2700100E-010  0.4778727E+02  0.7816164E-02  0.1312668E+00
        -11   -1    0    0    0    0  0.00000000000E+00  0.00000000000E+00  0.45593999997E+02  0.45594000000E+02  0.51100000000E-03 0.  1.
         11   -1    0    0    0    0 -0.00000000000E+00 -0.00000000000E+00 -0.45593999997E+02  0.45594000000E+02  0.51100000000E-03 0. -1.
    9900012    2    1    2    0    0 -0.40632594482E+02  0.10952995874E+02 -0.10613570016E+02  0.47787265888E+02  0.19999976489E+02 0.  0.
        -12    1    1    2    0    0  0.40632594482E+02 -0.10952995874E+02  0.10613570016E+02  0.43400734112E+02  0.00000000000E+00 0.  1.
         11    1    3    3    0    0 -0.38734286690E+00  0.47211716109E+01 -0.38103203289E+01  0.60793122264E+01  0.51100000000E-03 0. -1.
        -11    1    3    3    0    0 -0.34166648820E+02  0.44567886850E+01 -0.77175494720E+01  0.35309820547E+02  0.51100000000E-03 0.  1.
         12    1    3    3    0    0 -0.60786027957E+01  0.17750355785E+01  0.91429978478E+00  0.63981331144E+01  0.00000000000E+00 0. -1.
</event>
<event>
 7    1  0.2700100E-010  0.4778727E+02  0.7816164E-02  0.1312668E+00
        -11   -1    0    0    0    0  0.00000000000E+00  0.00000000000E+00  0.45593999997E+02  0.45594000000E+02  0.51100000000E-03 0. -1.
         11   -1    0    0    0    0 -0.00000000000E+00 -0.00000000000E+00 -0.45593999997E+02  0.45594000000E+02  0.51100000000E-03 0.  1.
    9900012    2    1    2    0    0 -0.44774413245E+01  0.33911675139E+02  0.26712813687E+02  0.47787267211E+02  0.19999982521E+02 0.  0.
        -12    1    1    2    0    0  0.44774413245E+01 -0.33911675139E+02 -0.26712813687E+02  0.43400732789E+02  0.00000000000E+00 0.  1.
         11    1    3    3    0    0  0.60651952720E+01  0.79510899174E+01  0.33575031763E+01  0.10548898161E+02  0.51100000000E-03 0. -1.
        -11    1    3    3    0    0 -0.33547951401E+00  0.15377924228E+01 -0.45154716668E+00  0.16374514175E+01  0.51100000000E-03 0.  1.
         12    1    3    3    0    0 -0.10207157083E+02  0.24422792799E+02  0.23806857677E+02  0.35600917633E+02  0.00000000000E+00 0. -1.
</event>
<event>
 7    1  0.2700100E-010  0.4778727E+02  0.7816164E-02  0.1312668E+00
        -11   -1    0    0    0    0  0.00000000000E+00  0.00000000000E+00  0.45593999997E+02  0.45594000000E+02  0.51100000000E-03 0. -1.
         11   -1    0    0    0    0 -0.00000000000E+00 -0.00000000000E+00 -0.45593999997E+02  0.45594000000E+02  0.51100000000E-03 0.  1.
    9900012    2    1    2    0    0  0.10774068463E+01 -0.35674685325E+02 -0.24693710898E+02  0.47787270323E+02  0.19999996711E+02 0.  0.
        -12    1    1    2    0    0 -0.10774068463E+01  0.35674685325E+02  0.24693710898E+02  0.43400729677E+02  0.00000000000E+00 0.  1.
         11    1    3    3    0    0 -0.59154040325E+01 -0.15704979690E+02 -0.18269261371E+02  0.24807343736E+02  0.51100000000E-03 0.  1.
        -11    1    3    3    0    0  0.55851454874E+01 -0.78831890487E+01 -0.11921526603E+01  0.97344618711E+01  0.51100000000E-03 0. -1.
         12    1    3    3    0    0  0.14076653914E+01 -0.12086516586E+02 -0.52322968676E+01  0.13245464716E+02  0.00000000000E+00 0. -1.
</event>
<event>
 7    1  0.2700100E-010  0.4778727E+02  0.7816164E-02  0.1312668E+00
        -11   -1    0    0    0    0  0.00000000000E+00  0.00000000000E+00  0.45593999997E+02  0.45594000000E+02  0.51100000000E-03 0. -1.
         11   -1    0    0    0    0 -0.00000000000E+00 -0.00000000000E+00 -0.45593999997E+02  0.45594000000E+02  0.51100000000E-03 0.  1.
    9900012    2    1    2    0    0  0.67698450701E+01 -0.74367530005E+01  0.42219508671E+02  0.47787274086E+02  0.20000013866E+02 0.  0.
        -12    1    1    2    0    0 -0.67698450701E+01  0.74367530005E+01 -0.42219508671E+02  0.43400725914E+02  0.00000000000E+00 0.  1.
         11    1    3    3    0    0  0.81541186876E+01 -0.77231624166E+00  0.66810529298E+01  0.10569890844E+02  0.51100000000E-03 0. -1.
        -11    1    3    3    0    0 -0.47604794828E+01 -0.30831547648E+01  0.24218057741E+02  0.24873325657E+02  0.51100000000E-03 0.  1.
         12    1    3    3    0    0  0.33762058652E+01 -0.35812819940E+01  0.11320398000E+02  0.12344057585E+02  0.00000000000E+00 0. -1.
</event>
<event>
 7    1  0.2700100E-010  0.4778727E+02  0.7816164E-02  0.1312668E+00
        -11   -1    0    0    0    0  0.00000000000E+00  0.00000000000E+00  0.45593999997E+02  0.45594000000E+02  0.51100000000E-03 0. -1.
         11   -1    0    0    0    0 -0.00000000000E+00 -0.00000000000E+00 -0.45593999997E+02  0.45594000000E+02  0.51100000000E-03 0.  1.
    9900012    2    1    2    0    0  0.19360539944E+02 -0.38840373765E+02  0.46708500885E+00  0.47787270634E+02  0.19999998128E+02 0.  0.
        -12    1    1    2    0    0 -0.19360539944E+02  0.38840373765E+02 -0.46708500885E+00  0.43400729366E+02  0.00000000000E+00 0.  1.
         11    1    3    3    0    0  0.14254127990E+02 -0.16851123951E+02 -0.15241273939E+01  0.22123822177E+02  0.51100000000E-03 0. -1.
        -11    1    3    3    0    0  0.19788835576E+01 -0.91987490978E+01  0.68390150700E+01  0.11632071719E+02  0.51100000000E-03 0.  1.
        -12    1    3    3    0    0  0.31275283968E+01 -0.12790500716E+02 -0.48478026672E+01  0.14031376737E+02  0.00000000000E+00 0.  1.
</event>
<event>
 7    1  0.2700100E-010  0.4778728E+02  0.7816164E-02  0.1312668E+00
        -11   -1    0    0    0    0  0.00000000000E+00  0.00000000000E+00  0.45593999997E+02  0.45594000000E+02  0.51100000000E-03 0. -1.
         11   -1    0    0    0    0 -0.00000000000E+00 -0.00000000000E+00 -0.45593999997E+02  0.45594000000E+02  0.51100000000E-03 0.  1.
    9900012    2    1    2    0    0 -0.28370365845E+02 -0.32681172604E+02 -0.32689744933E+01  0.47787275407E+02  0.20000019893E+02 0.  0.
        -12    1    1    2    0    0  0.28370365845E+02  0.32681172604E+02  0.32689744933E+01  0.43400724593E+02  0.00000000000E+00 0.  1.
         11    1    3    3    0    0 -0.57690750651E+01 -0.62566669135E+01 -0.83878767108E+00  0.85517058527E+01  0.51100000000E-03 0. -1.
        -11    1    3    3    0    0 -0.23283598010E+02 -0.23441322189E+02 -0.69639717299E+01  0.33765639706E+02  0.51100000000E-03 0.  1.
        -12    1    3    3    0    0  0.68230723009E+00 -0.29831835011E+01  0.45337849077E+01  0.54699298485E+01  0.00000000000E+00 0.  1.
</event>
<event>
 7    1  0.2700100E-010  0.4778727E+02  0.7816164E-02  0.1312668E+00
        -11   -1    0    0    0    0  0.00000000000E+00  0.00000000000E+00  0.45593999997E+02  0.45594000000E+02  0.51100000000E-03 0.  1.
         11   -1    0    0    0    0 -0.00000000000E+00 -0.00000000000E+00 -0.45593999997E+02  0.45594000000E+02  0.51100000000E-03 0. -1.
    9900012    2    1    2    0    0  0.31926750821E+02 -0.11620072208E+02 -0.27005180978E+02  0.47787270792E+02  0.19999998850E+02 0.  0.
        -12    1    1    2    0    0 -0.31926750821E+02  0.11620072208E+02  0.27005180978E+02  0.43400729208E+02  0.00000000000E+00 0.  1.
         11    1    3    3    0    0  0.16888858773E+02 -0.79883198753E+01 -0.82716313309E+01  0.20432001621E+02  0.51100000000E-03 0. -1.
        -11    1    3    3    0    0  0.19599169228E+01 -0.29837876421E+00 -0.12201521552E+02  0.12361530353E+02  0.51100000000E-03 0.  1.
        -12    1    3    3    0    0  0.13077975124E+02 -0.33333735690E+01 -0.65320280955E+01  0.14993738818E+02  0.00000000000E+00 0.  1.
</event>
<event>
 7    1  0.2700100E-010  0.4778727E+02  0.7816164E-02  0.1312668E+00
        -11   -1    0    0    0    0  0.00000000000E+00  0.00000000000E+00  0.45593999997E+02  0.45594000000E+02  0.51100000000E-03 0.  1.
         11   -1    0    0    0    0 -0.00000000000E+00 -0.00000000000E+00 -0.45593999997E+02  0.45594000000E+02  0.51100000000E-03 0. -1.
    9900012    2    1    2    0    0 -0.42554790908E+02 -0.57185402096E+01  0.63254639218E+01  0.47787269301E+02  0.19999992051E+02 0.  0.
        -12    1    1    2    0    0  0.42554790908E+02  0.57185402096E+01 -0.63254639218E+01  0.43400730699E+02  0.00000000000E+00 0.  1.
         11    1    3    3    0    0 -0.20409393472E+02 -0.21317166157E+01  0.26454463310E+01  0.20690237896E+02  0.51100000000E-03 0. -1.
        -11    1    3    3    0    0 -0.50449257180E+01 -0.76737962233E+01  0.27150267147E+00  0.91876078464E+01  0.51100000000E-03 0.  1.
        -12    1    3    3    0    0 -0.17100471718E+02  0.40869726295E+01  0.34085149193E+01  0.17909423559E+02  0.00000000000E+00 0.  1.
</event>
<event>
 7    1  0.2700100E-010  0.4778727E+02  0.7816164E-02  0.1312668E+00
        -11   -1    0    0    0    0  0.00000000000E+00  0.00000000000E+00  0.45593999997E+02  0.45594000000E+02  0.51100000000E-03 0.  1.
         11   -1    0    0    0    0 -0.00000000000E+00 -0.00000000000E+00 -0.45593999997E+02  0.45594000000E+02  0.51100000000E-03 0. -1.
    9900012    2    1    2    0    0  0.25766398526E+02 -0.33760015893E+02 -0.89429996740E+01  0.47787271789E+02  0.20000003395E+02 0.  0.
        -12    1    1    2    0    0 -0.25766398526E+02  0.33760015893E+02  0.89429996740E+01  0.43400728211E+02  0.00000000000E+00 0.  1.
         11    1    3    3    0    0  0.85861592468E+01 -0.78044673832E+01  0.47024377011E+01  0.12519774852E+02  0.51100000000E-03 0.  1.
        -11    1    3    3    0    0  0.16808356893E+02 -0.18622733126E+02 -0.94234115167E+01  0.26797905429E+02  0.51100000000E-03 0. -1.
        -12    1    3    3    0    0  0.37188238611E+00 -0.73328153843E+01 -0.42220258583E+01  0.84695915083E+01  0.00000000000E+00 0.  1.
</event>
<event>
 7    1  0.2700100E-010  0.4778727E+02  0.7816164E-02  0.1312668E+00
        -11   -1    0    0    0    0  0.00000000000E+00  0.00000000000E+00  0.45593999997E+02  0.45594000000E+02  0.51100000000E-03 0. -1.
         11   -1    0    0    0    0 -0.00000000000E+00 -0.00000000000E+00 -0.45593999997E+02  0.45594000000E+02  0.51100000000E-03 0.  1.
    9900012    2    1    2    0    0 -0.27467870305E+02 -0.83758261294E+01  0.32542045688E+02  0.47787273047E+02  0.20000009132E+02 0.  0.
        -12    1    1    2    0    0  0.27467870305E+02  0.83758261294E+01 -0.32542045688E+02  0.43400726953E+02  0.00000000000E+00 0.  1.
         11    1    3    3    0    0 -0.21672373165E+02 -0.54477957546E+01  0.32880894297E+02  0.39755797656E+02  0.51100000000E-03 0. -1.
        -11    1    3    3    0    0 -0.22883918272E+01 -0.37716304281E+01 -0.33587480938E+00  0.44243355874E+01  0.51100000000E-03 0.  1.
         12    1    3    3    0    0 -0.35071053123E+01  0.84360005322E+00 -0.29737998191E-02  0.36071398039E+01  0.00000000000E+00 0. -1.
</event>
<event>
 7    1  0.2700100E-010  0.4778728E+02  0.7816164E-02  0.1312668E+00
        -11   -1    0    0    0    0  0.00000000000E+00  0.00000000000E+00  0.45593999997E+02  0.45594000000E+02  0.51100000000E-03 0.  1.
         11   -1    0    0    0    0 -0.00000000000E+00 -0.00000000000E+00 -0.45593999997E+02  0.45594000000E+02  0.51100000000E-03 0. -1.
    9900012    2    1    2    0    0 -0.24647912668E+01  0.25129704498E+02 -0.35299372053E+02  0.47787275220E+02  0.20000019037E+02 0.  0.
        -12    1    1    2    0    0  0.24647912668E+01 -0.25129704498E+02  0.35299372053E+02  0.43400724780E+02  0.00000000000E+00 0.  1.
         11    1    3    3    0    0 -0.39649262095E+01  0.19341632841E+02 -0.33531151405E+02  0.38912176958E+02  0.51100000000E-03 0. -1.
        -11    1    3    3    0    0  0.14876804718E+01  0.67337358465E+01 -0.29921223373E-01  0.68961791724E+01  0.51100000000E-03 0.  1.
        -12    1    3    3    0    0  0.12454470889E-01 -0.94566419002E+00 -0.17382994240E+01  0.19789190892E+01  0.00000000000E+00 0.  1.
</event>
<event>
 7    1  0.2700100E-010  0.4778723E+02  0.7816164E-02  0.1312668E+00
        -11   -1    0    0    0    0  0.00000000000E+00  0.00000000000E+00  0.45593999997E+02  0.45594000000E+02  0.51100000000E-03 0.  1.
         11   -1    0    0    0    0 -0.00000000000E+00 -0.00000000000E+00 -0.45593999997E+02  0.45594000000E+02  0.51100000000E-03 0. -1.
    9900012    2    1    2    0    0 -0.30939586346E+02  0.28302298526E+02 -0.11195918610E+02  0.47787231590E+02  0.19999820111E+02 0.  0.
        -12    1    1    2    0    0  0.30939586346E+02 -0.28302298526E+02  0.11195918610E+02  0.43400768410E+02  0.00000000000E+00 0.  1.
         11    1    3    3    0    0  0.65470727365E+00  0.97767626391E+00 -0.77338054059E+00  0.14080519212E+01  0.51100000000E-03 0. -1.
        -11    1    3    3    0    0 -0.23892178430E+02  0.19696830359E+02 -0.15246104463E+02  0.34514417536E+02  0.51100000000E-03 0.  1.
        -12    1    3    3    0    0 -0.77021151891E+01  0.76277919029E+01  0.48235663941E+01  0.11864762132E+02  0.00000000000E+00 0.  1.
</event>
<event>
 7    1  0.2700100E-010  0.4778727E+02  0.7816164E-02  0.1312668E+00
        -11   -1    0    0    0    0  0.00000000000E+00  0.00000000000E+00  0.45593999997E+02  0.45594000000E+02  0.51100000000E-03 0.  1.
         11   -1    0    0    0    0 -0.00000000000E+00 -0.00000000000E+00 -0.45593999997E+02  0.45594000000E+02  0.51100000000E-03 0. -1.
    9900012    2    1    2    0    0  0.14171881971E+02 -0.38591765826E+02  0.13908880698E+02  0.47787267397E+02  0.19999983371E+02 0.  0.
        -12    1    1    2    0    0 -0.14171881971E+02  0.38591765826E+02 -0.13908880698E+02  0.43400732603E+02  0.00000000000E+00 0.  1.
         11    1    3    3    0    0  0.63761299214E+01 -0.26590496456E+02  0.92395248050E+01  0.28863096740E+02  0.51100000000E-03 0. -1.
        -11    1    3    3    0    0  0.57322214075E+01  0.36196197439E+00  0.75578239071E+00  0.57931499220E+01  0.51100000000E-03 0.  1.
        -12    1    3    3    0    0  0.20635306420E+01 -0.12363231344E+02  0.39135735028E+01  0.13131020735E+02  0.00000000000E+00 0.  1.
</event>
<event>
 7    1  0.2700100E-010  0.4778727E+02  0.7816164E-02  0.1312668E+00
        -11   -1    0    0    0    0  0.00000000000E+00  0.00000000000E+00  0.45593999997E+02  0.45594000000E+02  0.51100000000E-03 0.  1.
         11   -1    0    0    0    0 -0.00000000000E+00 -0.00000000000E+00 -0.45593999997E+02  0.45594000000E+02  0.51100000000E-03 0. -1.
    9900012    2    1    2    0    0  0.53197114525E+01  0.34946839931E+02 -0.25180192789E+02  0.47787273508E+02  0.20000011232E+02 0.  0.
        -12    1    1    2    0    0 -0.53197114525E+01 -0.34946839931E+02  0.25180192789E+02  0.43400726492E+02  0.00000000000E+00 0.  1.
         11    1    3    3    0    0 -0.20381777057E+01  0.38703519476E+00 -0.11714268827E+01  0.23824789201E+01  0.51100000000E-03 0. -1.
        -11    1    3    3    0    0  0.15931783078E+01  0.22937736567E+02 -0.70433341427E+01  0.24047588903E+02  0.51100000000E-03 0.  1.
        -12    1    3    3    0    0  0.57647108504E+01  0.11622068170E+02 -0.16965431764E+02  0.21357205685E+02  0.00000000000E+00 0.  1.
</event>
<event>
 7    1  0.2700100E-010  0.4778725E+02  0.7816164E-02  0.1312668E+00
        -11   -1    0    0    0    0  0.00000000000E+00  0.00000000000E+00  0.45593999997E+02  0.45594000000E+02  0.51100000000E-03 0.  1.
         11   -1    0    0    0    0 -0.00000000000E+00 -0.00000000000E+00 -0.45593999997E+02  0.45594000000E+02  0.51100000000E-03 0. -1.
    9900012    2    1    2    0    0  0.10516086112E+02 -0.37001841939E+02 -0.20097274573E+02  0.47787253240E+02  0.19999918824E+02 0.  0.
        -12    1    1    2    0    0 -0.10516086112E+02  0.37001841939E+02  0.20097274573E+02  0.43400746760E+02  0.00000000000E+00 0.  1.
         11    1    3    3    0    0  0.12141296451E+02 -0.15430038733E+02 -0.50805163738E+01  0.20280750028E+02  0.51100000000E-03 0. -1.
        -11    1    3    3    0    0  0.32756111618E+00  0.64929872842E+00 -0.63522598546E+00  0.96560728938E+00  0.51100000000E-03 0.  1.
         12    1    3    3    0    0 -0.19527714557E+01 -0.22221101935E+02 -0.14381532214E+02  0.26540895923E+02  0.00000000000E+00 0. -1.
</event>
<event>
 7    1  0.2700100E-010  0.4778727E+02  0.7816164E-02  0.1312668E+00
        -11   -1    0    0    0    0  0.00000000000E+00  0.00000000000E+00  0.45593999997E+02  0.45594000000E+02  0.51100000000E-03 0.  1.
         11   -1    0    0    0    0 -0.00000000000E+00 -0.00000000000E+00 -0.45593999997E+02  0.45594000000E+02  0.51100000000E-03 0. -1.
    9900012    2    1    2    0    0  0.22804600342E+02 -0.14284973253E+00 -0.36926321778E+02  0.47787269097E+02  0.19999991121E+02 0.  0.
        -12    1    1    2    0    0 -0.22804600342E+02  0.14284973253E+00  0.36926321778E+02  0.43400730903E+02  0.00000000000E+00 0.  1.
         11    1    3    3    0    0  0.13366943424E+02 -0.53964386102E+01 -0.26002368550E+02  0.29730790381E+02  0.51100000000E-03 0. -1.
        -11    1    3    3    0    0  0.40325595551E+00  0.48174283153E+01 -0.61700346448E+01  0.78383390280E+01  0.51100000000E-03 0.  1.
        -12    1    3    3    0    0  0.90344009631E+01  0.43616056240E+00 -0.47539185834E+01  0.10218139689E+02  0.00000000000E+00 0.  1.
</event>
<event>
 7    1  0.2700100E-010  0.4778727E+02  0.7816164E-02  0.1312668E+00
        -11   -1    0    0    0    0  0.00000000000E+00  0.00000000000E+00  0.45593999997E+02  0.45594000000E+02  0.51100000000E-03 0.  1.
         11   -1    0    0    0    0 -0.00000000000E+00 -0.00000000000E+00 -0.45593999997E+02  0.45594000000E+02  0.51100000000E-03 0. -1.
    9900012    2    1    2    0    0  0.27616995877E+02 -0.22758810500E+02 -0.24555269668E+02  0.47787272067E+02  0.20000004660E+02 0.  0.
        -12    1    1    2    0    0 -0.27616995877E+02  0.22758810500E+02  0.24555269668E+02  0.43400727933E+02  0.00000000000E+00 0.  1.
         11    1    3    3    0    0  0.35305947110E+01  0.33044664529E+00  0.14400590245E+01  0.38272789621E+01  0.51100000000E-03 0. -1.
        -11    1    3    3    0    0 -0.11716139417E+01 -0.28083916349E+01 -0.25964004309E+01  0.40001297806E+01  0.51100000000E-03 0.  1.
         12    1    3    3    0    0  0.25258015108E+02 -0.20280865511E+02 -0.23398928262E+02  0.39959863324E+02  0.00000000000E+00 0. -1.
</event>
<event>
 7    1  0.2700100E-010  0.4778727E+02  0.7816164E-02  0.1312668E+00
        -11   -1    0    0    0    0  0.00000000000E+00  0.00000000000E+00  0.45593999997E+02  0.45594000000E+02  0.51100000000E-03 0.  1.
         11   -1    0    0    0    0 -0.00000000000E+00 -0.00000000000E+00 -0.45593999997E+02  0.45594000000E+02  0.51100000000E-03 0. -1.
    9900012    2    1    2    0    0  0.22900539348E+02  0.13448762331E+02 -0.34326660179E+02  0.47787268327E+02  0.19999987611E+02 0.  0.
        -12    1    1    2    0    0 -0.22900539348E+02 -0.13448762331E+02  0.34326660179E+02  0.43400731673E+02  0.00000000000E+00 0.  1.
         11    1    3    3    0    0  0.91343140738E+01  0.10072630908E+02 -0.61691657030E+01  0.14931583731E+02  0.51100000000E-03 0. -1.
        -11    1    3    3    0    0  0.29839513958E+01  0.35787567385E+01 -0.15709590188E+02  0.16386051686E+02  0.51100000000E-03 0.  1.
         12    1    3    3    0    0  0.10782273879E+02 -0.20262531495E+00 -0.12447904288E+02  0.16469632910E+02  0.00000000000E+00 0. -1.
</event>
<event>
 7    1  0.2700100E-010  0.4778727E+02  0.7816164E-02  0.1312668E+00
        -11   -1    0    0    0    0  0.00000000000E+00  0.00000000000E+00  0.45593999997E+02  0.45594000000E+02  0.51100000000E-03 0.  1.
         11   -1    0    0    0    0 -0.00000000000E+00 -0.00000000000E+00 -0.45593999997E+02  0.45594000000E+02  0.51100000000E-03 0. -1.
    9900012    2    1    2    0    0  0.85305771272E+01  0.38166463303E+02 -0.18819500120E+02  0.47787271297E+02  0.20000001151E+02 0.  0.
        -12    1    1    2    0    0 -0.85305771272E+01 -0.38166463303E+02  0.18819500120E+02  0.43400728703E+02  0.00000000000E+00 0.  1.
         11    1    3    3    0    0  0.99742754370E+01  0.26994945953E+02 -0.12016202857E+02  0.31186574176E+02  0.51100000000E-03 0. -1.
        -11    1    3    3    0    0 -0.25435269373E+00 -0.78017275551E+00  0.16979114432E+01  0.18858070822E+01  0.51100000000E-03 0.  1.
         12    1    3    3    0    0 -0.11893456160E+01  0.11951690106E+02 -0.85012087059E+01  0.14714890038E+02  0.00000000000E+00 0. -1.
</event>
<event>
 7    1  0.2700100E-010  0.4778727E+02  0.7816164E-02  0.1312668E+00
        -11   -1    0    0    0    0  0.00000000000E+00  0.00000000000E+00  0.45593999997E+02  0.45594000000E+02  0.51100000000E-03 0. -1.
         11   -1    0    0    0    0 -0.00000000000E+00 -0.00000000000E+00 -0.45593999997E+02  0.45594000000E+02  0.51100000000E-03 0.  1.
    9900012    2    1    2    0    0  0.22569865929E+01  0.34286258849E+02  0.26513802476E+02  0.47787271249E+02  0.20000000934E+02 0.  0.
        -12    1    1    2    0    0 -0.22569865929E+01 -0.34286258849E+02 -0.26513802476E+02  0.43400728751E+02  0.00000000000E+00 0.  1.
         11    1    3    3    0    0 -0.25359159114E+01  0.19299705136E+01  0.14343952861E+01  0.34947311471E+01  0.51100000000E-03 0. -1.
        -11    1    3    3    0    0  0.46674536926E+01  0.34437134491E+01  0.10300818930E+02  0.11821639361E+02  0.51100000000E-03 0.  1.
        -12    1    3    3    0    0  0.12544881161E+00  0.28912574886E+02  0.14778588260E+02  0.32470900741E+02  0.00000000000E+00 0.  1.
</event>
<event>
 7    1  0.2700100E-010  0.4778727E+02  0.7816164E-02  0.1312668E+00
        -11   -1    0    0    0    0  0.00000000000E+00  0.00000000000E+00  0.45593999997E+02  0.45594000000E+02  0.51100000000E-03 0.  1.
         11   -1    0    0    0    0 -0.00000000000E+00 -0.00000000000E+00 -0.45593999997E+02  0.45594000000E+02  0.51100000000E-03 0. -1.
    9900012    2    1    2    0    0  0.31150781507E+02 -0.28510124833E+02 -0.10021236743E+02  0.47787267375E+02  0.19999983270E+02 0.  0.
        -12    1    1    2    0    0 -0.31150781507E+02  0.28510124833E+02  0.10021236743E+02  0.43400732625E+02  0.00000000000E+00 0.  1.
         11    1    3    3    0    0  0.20734110155E+01 -0.90198006497E+00 -0.52548157349E+01  0.57206371975E+01  0.51100000000E-03 0. -1.
        -11    1    3    3    0    0  0.42213825869E+01  0.52259747411E+00 -0.64655980578E+00  0.43024666075E+01  0.51100000000E-03 0.  1.
         12    1    3    3    0    0  0.24855987905E+02 -0.28130742242E+02 -0.41198612026E+01  0.37764163570E+02  0.00000000000E+00 0. -1.
</event>
<event>
 7    1  0.2700100E-010  0.4778727E+02  0.7816164E-02  0.1312668E+00
        -11   -1    0    0    0    0  0.00000000000E+00  0.00000000000E+00  0.45593999997E+02  0.45594000000E+02  0.51100000000E-03 0. -1.
         11   -1    0    0    0    0 -0.00000000000E+00 -0.00000000000E+00 -0.45593999997E+02  0.45594000000E+02  0.51100000000E-03 0.  1.
    9900012    2    1    2    0    0 -0.16074927720E+02  0.49453618844E+01  0.40009542709E+02  0.47787269440E+02  0.19999992683E+02 0.  0.
        -12    1    1    2    0    0  0.16074927720E+02 -0.49453618844E+01 -0.40009542709E+02  0.43400730560E+02  0.00000000000E+00 0.  1.
         11    1    3    3    0    0 -0.44397950917E+01 -0.22495898235E+01  0.67593198226E+01  0.83940955174E+01  0.51100000000E-03 0. -1.
        -11    1    3    3    0    0 -0.50758694725E+01  0.19013621125E+01  0.35132301622E+00  0.54316716494E+01  0.51100000000E-03 0.  1.
        -12    1    3    3    0    0 -0.65592631557E+01  0.52935895954E+01  0.32898899870E+02  0.33961502273E+02  0.00000000000E+00 0.  1.
</event>
<event>
 7    1  0.2700100E-010  0.4778727E+02  0.7816164E-02  0.1312668E+00
        -11   -1    0    0    0    0  0.00000000000E+00  0.00000000000E+00  0.45593999997E+02  0.45594000000E+02  0.51100000000E-03 0. -1.
         11   -1    0    0    0    0 -0.00000000000E+00 -0.00000000000E+00 -0.45593999997E+02  0.45594000000E+02  0.51100000000E-03 0.  1.
    9900012    2    1    2    0    0  0.21690156085E+02  0.20962350762E+02  0.31204814736E+02  0.47787268633E+02  0.19999989004E+02 0.  0.
        -12    1    1    2    0    0 -0.21690156085E+02 -0.20962350762E+02 -0.31204814736E+02  0.43400731367E+02  0.00000000000E+00 0.  1.
         11    1    3    3    0    0  0.25291900091E+01 -0.31028947974E+01  0.51683832841E+01  0.65373499416E+01  0.51100000000E-03 0. -1.
        -11    1    3    3    0    0  0.14185407082E+02  0.11727628036E+02  0.12359161031E+02  0.22170067548E+02  0.51100000000E-03 0.  1.
         12    1    3    3    0    0  0.49755589942E+01  0.12337617523E+02  0.13677270421E+02  0.19079851143E+02  0.00000000000E+00 0. -1.
</event>
<event>
 7    1  0.2700100E-010  0.4778728E+02  0.7816164E-02  0.1312668E+00
        -11   -1    0    0    0    0  0.00000000000E+00  0.00000000000E+00  0.45593999997E+02  0.45594000000E+02  0.51100000000E-03 0.  1.
         11   -1    0    0    0    0 -0.00000000000E+00 -0.00000000000E+00 -0.45593999997E+02  0.45594000000E+02  0.51100000000E-03 0. -1.
    9900012    2    1    2    0    0 -0.29060031852E+02 -0.25578297295E+02 -0.19618564759E+02  0.47787276194E+02  0.20000023477E+02 0.  0.
        -12    1    1    2    0    0  0.29060031852E+02  0.25578297295E+02  0.19618564759E+02  0.43400723806E+02  0.00000000000E+00 0.  1.
         11    1    3    3    0    0  0.88792815461E+00 -0.83091086720E+00 -0.50461320726E+01  0.51905951905E+01  0.51100000000E-03 0. -1.
        -11    1    3    3    0    0 -0.28806384121E+02 -0.23753779340E+02 -0.15901885469E+02  0.40582259188E+02  0.51100000000E-03 0.  1.
        -12    1    3    3    0    0 -0.11415758857E+01 -0.99360708793E+00  0.13294527831E+01  0.20144218154E+01  0.00000000000E+00 0.  1.
</event>
<event>
 7    1  0.2700100E-010  0.4778727E+02  0.7816164E-02  0.1312668E+00
        -11   -1    0    0    0    0  0.00000000000E+00  0.00000000000E+00  0.45593999997E+02  0.45594000000E+02  0.51100000000E-03 0.  1.
         11   -1    0    0    0    0 -0.00000000000E+00 -0.00000000000E+00 -0.45593999997E+02  0.45594000000E+02  0.51100000000E-03 0. -1.
    9900012    2    1    2    0    0  0.34492201962E+02  0.83299804980E+01 -0.24990450828E+02  0.47787271851E+02  0.20000003677E+02 0.  0.
        -12    1    1    2    0    0 -0.34492201962E+02 -0.83299804980E+01  0.24990450828E+02  0.43400728149E+02  0.00000000000E+00 0.  1.
         11    1    3    3    0    0  0.26675374556E+02 -0.84362073850E+00 -0.17929448724E+02  0.32152020705E+02  0.51100000000E-03 0. -1.
        -11    1    3    3    0    0 -0.54413192141E+00  0.19664558086E+01  0.68257786043E+00  0.21514973371E+01  0.51100000000E-03 0.  1.
         12    1    3    3    0    0  0.83609593277E+01  0.72071454279E+01 -0.77435799644E+01  0.13483753808E+02  0.00000000000E+00 0. -1.
</event>
<event>
 7    1  0.2700100E-010  0.4778727E+02  0.7816164E-02  0.1312668E+00
        -11   -1    0    0    0    0  0.00000000000E+00  0.00000000000E+00  0.45593999997E+02  0.45594000000E+02  0.51100000000E-03 0.  1.
         11   -1    0    0    0    0 -0.00000000000E+00 -0.00000000000E+00 -0.45593999997E+02  0.45594000000E+02  0.51100000000E-03 0. -1.
    9900012    2    1    2    0    0  0.41288414919E+02 -0.11788738101E+01 -0.13322922981E+02  0.47787271587E+02  0.20000002474E+02 0.  0.
        -12    1    1    2    0    0 -0.41288414919E+02  0.11788738101E+01  0.13322922981E+02  0.43400728413E+02  0.00000000000E+00 0.  1.
         11    1    3    3    0    0  0.27213134259E+02  0.15308014397E+01 -0.15236524130E+02  0.31225785772E+02  0.51100000000E-03 0. -1.
        -11    1    3    3    0    0  0.13104533106E+00  0.13175312175E+01  0.15558122909E+01  0.20429423716E+01  0.51100000000E-03 0.  1.
         12    1    3    3    0    0  0.13944235330E+02 -0.40272064674E+01  0.35778885890E+00  0.14518543444E+02  0.00000000000E+00 0. -1.
</event>
<event>
 7    1  0.2700100E-010  0.4778730E+02  0.7816164E-02  0.1312668E+00
        -11   -1    0    0    0    0  0.00000000000E+00  0.00000000000E+00  0.45593999997E+02  0.45594000000E+02  0.51100000000E-03 0.  1.
         11   -1    0    0    0    0 -0.00000000000E+00 -0.00000000000E+00 -0.45593999997E+02  0.45594000000E+02  0.51100000000E-03 0. -1.
    9900012    2    1    2    0    0  0.44549912697E+01 -0.20204245447E+02 -0.38151834522E+02  0.47787297717E+02  0.20000121609E+02 0.  0.
        -12    1    1    2    0    0 -0.44549912697E+01  0.20204245447E+02  0.38151834522E+02  0.43400702283E+02  0.00000000000E+00 0.  1.
         11    1    3    3    0    0  0.65596766929E+01 -0.31267722162E+01 -0.12425612219E+02  0.14394509442E+02  0.51100000000E-03 0. -1.
        -11    1    3    3    0    0 -0.52154944341E+01 -0.72197408222E+01 -0.49561513804E+01  0.10192618726E+02  0.51100000000E-03 0.  1.
        -12    1    3    3    0    0  0.31108090110E+01 -0.98577324090E+01 -0.20770070922E+02  0.23200169548E+02  0.00000000000E+00 0.  1.
</event>
<event>
 7    1  0.2700100E-010  0.4778727E+02  0.7816164E-02  0.1312668E+00
        -11   -1    0    0    0    0  0.00000000000E+00  0.00000000000E+00  0.45593999997E+02  0.45594000000E+02  0.51100000000E-03 0.  1.
         11   -1    0    0    0    0 -0.00000000000E+00 -0.00000000000E+00 -0.45593999997E+02  0.45594000000E+02  0.51100000000E-03 0. -1.
    9900012    2    1    2    0    0 -0.10916305182E+02  0.18917648598E+02 -0.37504398157E+02  0.47787273872E+02  0.20000012894E+02 0.  0.
        -12    1    1    2    0    0  0.10916305182E+02 -0.18917648598E+02  0.37504398157E+02  0.43400726128E+02  0.00000000000E+00 0.  1.
         11    1    3    3    0    0 -0.14932982824E+00 -0.18579212416E+01 -0.96425319178E+00  0.20985602723E+01  0.51100000000E-03 0. -1.
        -11    1    3    3    0    0  0.52064443940E+00  0.10669083208E+02 -0.78922966435E+01  0.13281142786E+02  0.51100000000E-03 0.  1.
        -12    1    3    3    0    0 -0.11287619793E+02  0.10106486632E+02 -0.28647848322E+02  0.32407570814E+02  0.00000000000E+00 0.  1.
</event>
<event>
 7    1  0.2700100E-010  0.4778727E+02  0.7816164E-02  0.1312668E+00
        -11   -1    0    0    0    0  0.00000000000E+00  0.00000000000E+00  0.45593999997E+02  0.45594000000E+02  0.51100000000E-03 0. -1.
         11   -1    0    0    0    0 -0.00000000000E+00 -0.00000000000E+00 -0.45593999997E+02  0.45594000000E+02  0.51100000000E-03 0.  1.
    9900012    2    1    2    0    0 -0.27213687203E+01  0.33994610335E+02  0.26843690220E+02  0.47787273230E+02  0.20000009964E+02 0.  0.
        -12    1    1    2    0    0  0.27213687203E+01 -0.33994610335E+02 -0.26843690220E+02  0.43400726770E+02  0.00000000000E+00 0.  1.
         11    1    3    3    0    0 -0.61107697042E+01  0.21415028113E+02  0.98347078144E+01  0.24344740983E+02  0.51100000000E-03 0. -1.
        -11    1    3    3    0    0  0.74844935318E+00  0.29307203978E+01  0.11765058709E+02  0.12147670771E+02  0.51100000000E-03 0.  1.
         12    1    3    3    0    0  0.26409516307E+01  0.96488618246E+01  0.52439236966E+01  0.11294861476E+02  0.00000000000E+00 0. -1.
</event>
<event>
 7    1  0.2700100E-010  0.4778727E+02  0.7816164E-02  0.1312668E+00
        -11   -1    0    0    0    0  0.00000000000E+00  0.00000000000E+00  0.45593999997E+02  0.45594000000E+02  0.51100000000E-03 0. -1.
         11   -1    0    0    0    0 -0.00000000000E+00 -0.00000000000E+00 -0.45593999997E+02  0.45594000000E+02  0.51100000000E-03 0.  1.
    9900012    2    1    2    0    0 -0.54969838401E+01  0.24452734693E+02  0.35432613160E+02  0.47787272580E+02  0.20000006999E+02 0.  0.
        -12    1    1    2    0    0  0.54969838401E+01 -0.24452734693E+02 -0.35432613160E+02  0.43400727420E+02  0.00000000000E+00 0.  1.
         11    1    3    3    0    0 -0.26441588613E+01  0.99434097479E+01  0.24896405762E+02  0.26938708091E+02  0.51100000000E-03 0. -1.
        -11    1    3    3    0    0  0.23211843843E+01  0.19818287771E+01  0.56852490421E+01  0.64527202930E+01  0.51100000000E-03 0.  1.
         12    1    3    3    0    0 -0.51740093631E+01  0.12527496168E+02  0.48509583556E+01  0.14395844195E+02  0.00000000000E+00 0. -1.
</event>
<event>
 7    1  0.2700100E-010  0.4778727E+02  0.7816164E-02  0.1312668E+00
        -11   -1    0    0    0    0  0.00000000000E+00  0.00000000000E+00  0.45593999997E+02  0.45594000000E+02  0.51100000000E-03 0.  1.
         11   -1    0    0    0    0 -0.00000000000E+00 -0.00000000000E+00 -0.45593999997E+02  0.45594000000E+02  0.51100000000E-03 0. -1.
    9900012    2    1    2    0    0 -0.26515920953E+02 -0.11218256215E+02 -0.32475837105E+02  0.47787270373E+02  0.19999996937E+02 0.  0.
        -12    1    1    2    0    0  0.26515920953E+02  0.11218256215E+02  0.32475837105E+02  0.43400729627E+02  0.00000000000E+00 0.  1.
         11    1    3    3    0    0 -0.23059453084E+02 -0.43216958140E+01 -0.19905529847E+02  0.30767605529E+02  0.51100000000E-03 0. -1.
        -11    1    3    3    0    0 -0.43985009605E+01 -0.50892988441E+01 -0.13259572011E+02  0.14868221938E+02  0.51100000000E-03 0.  1.
         12    1    3    3    0    0  0.94203309089E+00 -0.18072615565E+01  0.68926475265E+00  0.21514429059E+01  0.00000000000E+00 0. -1.
</event>
<event>
 7    1  0.2700100E-010  0.4778727E+02  0.7816164E-02  0.1312668E+00
        -11   -1    0    0    0    0  0.00000000000E+00  0.00000000000E+00  0.45593999997E+02  0.45594000000E+02  0.51100000000E-03 0.  1.
         11   -1    0    0    0    0 -0.00000000000E+00 -0.00000000000E+00 -0.45593999997E+02  0.45594000000E+02  0.51100000000E-03 0. -1.
    9900012    2    1    2    0    0 -0.12912900744E+02  0.16874395338E+02 -0.37843560153E+02  0.47787271104E+02  0.20000000273E+02 0.  0.
        -12    1    1    2    0    0  0.12912900744E+02 -0.16874395338E+02  0.37843560153E+02  0.43400728896E+02  0.00000000000E+00 0.  1.
         11    1    3    3    0    0 -0.62001771140E+01  0.12147467952E+01 -0.68648440481E+01  0.93297315121E+01  0.51100000000E-03 0. -1.
        -11    1    3    3    0    0 -0.88030271322E+01  0.26041086842E+01 -0.93193371772E+01  0.13081464536E+02  0.51100000000E-03 0.  1.
        -12    1    3    3    0    0  0.20903035022E+01  0.13055539858E+02 -0.21659378928E+02  0.25376075056E+02  0.00000000000E+00 0.  1.
</event>
<event>
 7    1  0.2700100E-010  0.4778727E+02  0.7816164E-02  0.1312668E+00
        -11   -1    0    0    0    0  0.00000000000E+00  0.00000000000E+00  0.45593999997E+02  0.45594000000E+02  0.51100000000E-03 0.  1.
         11   -1    0    0    0    0 -0.00000000000E+00 -0.00000000000E+00 -0.45593999997E+02  0.45594000000E+02  0.51100000000E-03 0. -1.
    9900012    2    1    2    0    0  0.77360098116E+00 -0.15013731929E+02 -0.40713789303E+02  0.47787271385E+02  0.20000001554E+02 0.  0.
        -12    1    1    2    0    0 -0.77360098116E+00  0.15013731929E+02  0.40713789303E+02  0.43400728615E+02  0.00000000000E+00 0.  1.
         11    1    3    3    0    0 -0.67115563243E+01 -0.19407829623E+01 -0.97359699982E+01  0.11983352572E+02  0.51100000000E-03 0. -1.
        -11    1    3    3    0    0  0.81128735625E+01 -0.69398728986E+01 -0.13138219823E+02  0.16929068896E+02  0.51100000000E-03 0.  1.
        -12    1    3    3    0    0 -0.62771625702E+00 -0.61330760682E+01 -0.17839599481E+02  0.18874849917E+02  0.00000000000E+00 0.  1.
</event>
<event>
 7    1  0.2700100E-010  0.4778727E+02  0.7816164E-02  0.1312668E+00
        -11   -1    0    0    0    0  0.00000000000E+00  0.00000000000E+00  0.45593999997E+02  0.45594000000E+02  0.51100000000E-03 0.  1.
         11   -1    0    0    0    0 -0.00000000000E+00 -0.00000000000E+00 -0.45593999997E+02  0.45594000000E+02  0.51100000000E-03 0. -1.
    9900012    2    1    2    0    0  0.25681579427E+02  0.10946393036E+02 -0.33230350443E+02  0.47787271516E+02  0.20000002152E+02 0.  0.
        -12    1    1    2    0    0 -0.25681579427E+02 -0.10946393036E+02  0.33230350443E+02  0.43400728484E+02  0.00000000000E+00 0.  1.
         11    1    3    3    0    0  0.91403032063E+01 -0.41728648469E+01 -0.67910317075E+01  0.12127491729E+02  0.51100000000E-03 0. -1.
        -11    1    3    3    0    0  0.60286593430E+01  0.59701391419E+01 -0.16462847589E+02  0.18520600580E+02  0.51100000000E-03 0.  1.
         12    1    3    3    0    0  0.10512616877E+02  0.91491187408E+01 -0.99764711463E+01  0.17139179207E+02  0.00000000000E+00 0. -1.
</event>
<event>
 7    1  0.2700100E-010  0.4778727E+02  0.7816164E-02  0.1312668E+00
        -11   -1    0    0    0    0  0.00000000000E+00  0.00000000000E+00  0.45593999997E+02  0.45594000000E+02  0.51100000000E-03 0.  1.
         11   -1    0    0    0    0 -0.00000000000E+00 -0.00000000000E+00 -0.45593999997E+02  0.45594000000E+02  0.51100000000E-03 0. -1.
    9900012    2    1    2    0    0 -0.20001674768E+02 -0.91108564300E+01 -0.37423902219E+02  0.47787272406E+02  0.20000006207E+02 0.  0.
        -12    1    1    2    0    0  0.20001674768E+02  0.91108564300E+01  0.37423902219E+02  0.43400727594E+02  0.00000000000E+00 0.  1.
         11    1    3    3    0    0 -0.48231528899E+01 -0.54846549322E+01 -0.21763991297E+01  0.76210863371E+01  0.51100000000E-03 0. -1.
        -11    1    3    3    0    0 -0.10757944282E+02  0.15276571027E+01 -0.28884693632E+02  0.30860859157E+02  0.51100000000E-03 0.  1.
        -12    1    3    3    0    0 -0.44205775961E+01 -0.51538586005E+01 -0.63628094570E+01  0.93053269122E+01  0.00000000000E+00 0.  1.
</event>
<event>
 7    1  0.2700100E-010  0.4778726E+02  0.7816164E-02  0.1312668E+00
        -11   -1    0    0    0    0  0.00000000000E+00  0.00000000000E+00  0.45593999997E+02  0.45594000000E+02  0.51100000000E-03 0. -1.
         11   -1    0    0    0    0 -0.00000000000E+00 -0.00000000000E+00 -0.45593999997E+02  0.45594000000E+02  0.51100000000E-03 0.  1.
    9900012    2    1    2    0    0  0.64993898532E+01 -0.21400782480E+02  0.37193930171E+02  0.47787262670E+02  0.19999961820E+02 0.  0.
        -12    1    1    2    0    0 -0.64993898532E+01  0.21400782480E+02 -0.37193930171E+02  0.43400737330E+02  0.00000000000E+00 0.  1.
         11    1    3    3    0    0  0.66627614090E+00  0.27457733385E+01  0.41511694360E+01  0.50214941074E+01  0.51100000000E-03 0.  1.
        -11    1    3    3    0    0  0.88262761687E+01 -0.14991434360E+02  0.23154822286E+02  0.28961906887E+02  0.51100000000E-03 0. -1.
         12    1    3    3    0    0 -0.29931624564E+01 -0.91551214586E+01  0.98879384486E+01  0.13803861676E+02  0.00000000000E+00 0. -1.
</event>
<event>
 7    1  0.2700100E-010  0.4778727E+02  0.7816164E-02  0.1312668E+00
        -11   -1    0    0    0    0  0.00000000000E+00  0.00000000000E+00  0.45593999997E+02  0.45594000000E+02  0.51100000000E-03 0. -1.
         11   -1    0    0    0    0 -0.00000000000E+00 -0.00000000000E+00 -0.45593999997E+02  0.45594000000E+02  0.51100000000E-03 0.  1.
    9900012    2    1    2    0    0 -0.52728707311E+01  0.12446602197E+01  0.43061249763E+02  0.47787267564E+02  0.19999984132E+02 0.  0.
        -12    1    1    2    0    0  0.52728707311E+01 -0.12446602197E+01 -0.43061249763E+02  0.43400732436E+02  0.00000000000E+00 0.  1.
         11    1    3    3    0    0 -0.64252615365E+01  0.15688590075E+01  0.10269751580E+02  0.12215281502E+02  0.51100000000E-03 0.  1.
        -11    1    3    3    0    0  0.31989627197E+01  0.44189827916E+00  0.33193363007E+02  0.33350082227E+02  0.51100000000E-03 0. -1.
        -12    1    3    3    0    0 -0.20465719144E+01 -0.76609706689E+00 -0.40186482390E+00  0.22219038353E+01  0.00000000000E+00 0.  1.
</event>
<event>
 7    1  0.2700100E-010  0.4778727E+02  0.7816164E-02  0.1312668E+00
        -11   -1    0    0    0    0  0.00000000000E+00  0.00000000000E+00  0.45593999997E+02  0.45594000000E+02  0.51100000000E-03 0.  1.
         11   -1    0    0    0    0 -0.00000000000E+00 -0.00000000000E+00 -0.45593999997E+02  0.45594000000E+02  0.51100000000E-03 0. -1.
    9900012    2    1    2    0    0  0.16174250521E+02  0.16051125419E+02 -0.36937490605E+02  0.47787271673E+02  0.20000002865E+02 0.  0.
        -12    1    1    2    0    0 -0.16174250521E+02 -0.16051125419E+02  0.36937490605E+02  0.43400728327E+02  0.00000000000E+00 0.  1.
         11    1    3    3    0    0  0.13932535481E+00 -0.82804984125E+00  0.16503947411E+01  0.18517238338E+01  0.51100000000E-03 0.  1.
        -11    1    3    3    0    0  0.12467602733E+01  0.68146271695E+01 -0.12735652795E+02  0.14497944924E+02  0.51100000000E-03 0. -1.
         12    1    3    3    0    0  0.14788164893E+02  0.10064548091E+02 -0.25852232551E+02  0.31437602915E+02  0.00000000000E+00 0. -1.
</event>
<event>
 7    1  0.2700100E-010  0.4778727E+02  0.7816164E-02  0.1312668E+00
        -11   -1    0    0    0    0  0.00000000000E+00  0.00000000000E+00  0.45593999997E+02  0.45594000000E+02  0.51100000000E-03 0. -1.
         11   -1    0    0    0    0 -0.00000000000E+00 -0.00000000000E+00 -0.45593999997E+02  0.45594000000E+02  0.51100000000E-03 0.  1.
    9900012    2    1    2    0    0 -0.21411580287E+02 -0.37165508262E+02 -0.66251402106E+01  0.47787271232E+02  0.20000000854E+02 0.  0.
        -12    1    1    2    0    0  0.21411580287E+02  0.37165508262E+02  0.66251402106E+01  0.43400728768E+02  0.00000000000E+00 0.  1.
         11    1    3    3    0    0 -0.13464676245E+02 -0.17336182356E+02 -0.11011216720E+00  0.21951146895E+02  0.51100000000E-03 0. -1.
        -11    1    3    3    0    0  0.29446692416E+01 -0.94442703278E+01 -0.17164885054E+01  0.10040500586E+02  0.51100000000E-03 0.  1.
         12    1    3    3    0    0 -0.10891573284E+02 -0.10385055578E+02 -0.47985395379E+01  0.15795623750E+02  0.00000000000E+00 0. -1.
</event>
<event>
 7    1  0.2700100E-010  0.4778728E+02  0.7816164E-02  0.1312668E+00
        -11   -1    0    0    0    0  0.00000000000E+00  0.00000000000E+00  0.45593999997E+02  0.45594000000E+02  0.51100000000E-03 0.  1.
         11   -1    0    0    0    0 -0.00000000000E+00 -0.00000000000E+00 -0.45593999997E+02  0.45594000000E+02  0.51100000000E-03 0. -1.
    9900012    2    1    2    0    0 -0.71081100222E+01  0.35126707833E+02 -0.24478803369E+02  0.47787278282E+02  0.20000033000E+02 0.  0.
        -12    1    1    2    0    0  0.71081100222E+01 -0.35126707833E+02  0.24478803369E+02  0.43400721718E+02  0.00000000000E+00 0.  1.
         11    1    3    3    0    0 -0.61665979820E+01  0.32211813787E+01 -0.73772880551E+01  0.10140380637E+02  0.51100000000E-03 0. -1.
        -11    1    3    3    0    0 -0.48936204632E+00  0.21369143053E+02 -0.57123591166E+01  0.22124890892E+02  0.51100000000E-03 0.  1.
        -12    1    3    3    0    0 -0.45214999393E+00  0.10536383401E+02 -0.11389156197E+02  0.15522006754E+02  0.00000000000E+00 0.  1.
</event>
<event>
 7    1  0.2700100E-010  0.4778727E+02  0.7816164E-02  0.1312668E+00
        -11   -1    0    0    0    0  0.00000000000E+00  0.00000000000E+00  0.45593999997E+02  0.45594000000E+02  0.51100000000E-03 0.  1.
         11   -1    0    0    0    0 -0.00000000000E+00 -0.00000000000E+00 -0.45593999997E+02  0.45594000000E+02  0.51100000000E-03 0. -1.
    9900012    2    1    2    0    0  0.16095498703E+02  0.39047509231E+02  0.99925144913E+01  0.47787269575E+02  0.19999993298E+02 0.  0.
        -12    1    1    2    0    0 -0.16095498703E+02 -0.39047509231E+02 -0.99925144913E+01  0.43400730425E+02  0.00000000000E+00 0.  1.
         11    1    3    3    0    0 -0.25293943240E+01  0.11611227804E+02 -0.13771156492E+01  0.11963063760E+02  0.51100000000E-03 0. -1.
        -11    1    3    3    0    0  0.61059308537E+01  0.44739015679E+01  0.78479544357E+00  0.76101308123E+01  0.51100000000E-03 0.  1.
        -12    1    3    3    0    0  0.12518962173E+02  0.22962379859E+02  0.10584834697E+02  0.28214075002E+02  0.00000000000E+00 0.  1.
</event>
<event>
 7    1  0.2700100E-010  0.4778727E+02  0.7816164E-02  0.1312668E+00
        -11   -1    0    0    0    0  0.00000000000E+00  0.00000000000E+00  0.45593999997E+02  0.45594000000E+02  0.51100000000E-03 0. -1.
         11   -1    0    0    0    0 -0.00000000000E+00 -0.00000000000E+00 -0.45593999997E+02  0.45594000000E+02  0.51100000000E-03 0.  1.
    9900012    2    1    2    0    0  0.15819971094E+01 -0.29032881611E+02  0.32221303287E+02  0.47787270570E+02  0.19999997838E+02 0.  0.
        -12    1    1    2    0    0 -0.15819971094E+01  0.29032881611E+02 -0.32221303287E+02  0.43400729430E+02  0.00000000000E+00 0.  1.
         11    1    3    3    0    0  0.56189364540E+01 -0.25308338618E+01  0.18101805995E+01  0.64229526679E+01  0.51100000000E-03 0.  1.
        -11    1    3    3    0    0 -0.11347272401E+01 -0.19875314657E+02  0.26486859393E+02  0.33134113228E+02  0.51100000000E-03 0. -1.
        -12    1    3    3    0    0 -0.29022121045E+01 -0.66267330927E+01  0.39242632948E+01  0.82302046747E+01  0.00000000000E+00 0.  1.
</event>
<event>
 7    1  0.2700100E-010  0.4778728E+02  0.7816164E-02  0.1312668E+00
        -11   -1    0    0    0    0  0.00000000000E+00  0.00000000000E+00  0.45593999997E+02  0.45594000000E+02  0.51100000000E-03 0. -1.
         11   -1    0    0    0    0 -0.00000000000E+00 -0.00000000000E+00 -0.45593999997E+02  0.45594000000E+02  0.51100000000E-03 0.  1.
    9900012    2    1    2    0    0  0.33242102806E+02  0.20778062874E+02  0.18624096117E+02  0.47787282818E+02  0.20000053680E+02 0.  0.
        -12    1    1    2    0    0 -0.33242102806E+02 -0.20778062874E+02 -0.18624096117E+02  0.43400717182E+02  0.00000000000E+00 0.  1.
         11    1    3    3    0    0  0.56520722374E+01 -0.18319629350E+00 -0.34090194421E+01  0.66030974001E+01  0.51100000000E-03 0. -1.
        -11    1    3    3    0    0  0.33243832816E+01  0.33510518442E+01  0.20093169741E+01  0.51301488896E+01  0.51100000000E-03 0.  1.
         12    1    3    3    0    0  0.24265647287E+02  0.17610207323E+02  0.20023798585E+02  0.36054036528E+02  0.00000000000E+00 0. -1.
</event>
<event>
 7    1  0.2700100E-010  0.4778727E+02  0.7816164E-02  0.1312668E+00
        -11   -1    0    0    0    0  0.00000000000E+00  0.00000000000E+00  0.45593999997E+02  0.45594000000E+02  0.51100000000E-03 0.  1.
         11   -1    0    0    0    0 -0.00000000000E+00 -0.00000000000E+00 -0.45593999997E+02  0.45594000000E+02  0.51100000000E-03 0. -1.
    9900012    2    1    2    0    0 -0.76520125949E+01 -0.89262238161E+00 -0.42711510618E+02  0.47787271772E+02  0.20000003317E+02 0.  0.
        -12    1    1    2    0    0  0.76520125949E+01  0.89262238161E+00  0.42711510618E+02  0.43400728228E+02  0.00000000000E+00 0.  1.
         11    1    3    3    0    0  0.32857124296E+00  0.50070815666E+01 -0.81727497013E+01  0.95902378916E+01  0.51100000000E-03 0. -1.
        -11    1    3    3    0    0 -0.92352066771E+01 -0.51970300201E+01 -0.13755570038E+02  0.17364154766E+02  0.51100000000E-03 0.  1.
        -12    1    3    3    0    0  0.12546228392E+01 -0.70267392805E+00 -0.20783190878E+02  0.20832879114E+02  0.00000000000E+00 0.  1.
</event>
<event>
 7    1  0.2700100E-010  0.4778730E+02  0.7816164E-02  0.1312668E+00
        -11   -1    0    0    0    0  0.00000000000E+00  0.00000000000E+00  0.45593999997E+02  0.45594000000E+02  0.51100000000E-03 0.  1.
         11   -1    0    0    0    0 -0.00000000000E+00 -0.00000000000E+00 -0.45593999997E+02  0.45594000000E+02  0.51100000000E-03 0. -1.
    9900012    2    1    2    0    0  0.14900733518E+02 -0.39108429439E+02 -0.11494330098E+02  0.47787300271E+02  0.20000133256E+02 0.  0.
        -12    1    1    2    0    0 -0.14900733518E+02  0.39108429439E+02  0.11494330098E+02  0.43400699729E+02  0.00000000000E+00 0.  1.
         11    1    3    3    0    0  0.11050504241E+02 -0.22133392314E+02  0.74544814107E+00  0.24749876616E+02  0.51100000000E-03 0. -1.
        -11    1    3    3    0    0  0.13227983937E+01 -0.14327072962E+02 -0.55687750769E+01  0.15428093576E+02  0.51100000000E-03 0.  1.
         12    1    3    3    0    0  0.25274308829E+01 -0.26479641624E+01 -0.66710031621E+01  0.76093300797E+01  0.00000000000E+00 0. -1.
</event>
<event>
 7    1  0.2700100E-010  0.4778727E+02  0.7816164E-02  0.1312668E+00
        -11   -1    0    0    0    0  0.00000000000E+00  0.00000000000E+00  0.45593999997E+02  0.45594000000E+02  0.51100000000E-03 0.  1.
         11   -1    0    0    0    0 -0.00000000000E+00 -0.00000000000E+00 -0.45593999997E+02  0.45594000000E+02  0.51100000000E-03 0. -1.
    9900012    2    1    2    0    0 -0.31365832621E+02 -0.26827786698E+02 -0.13419312975E+02  0.47787267796E+02  0.19999985190E+02 0.  0.
        -12    1    1    2    0    0  0.31365832621E+02  0.26827786698E+02  0.13419312975E+02  0.43400732204E+02  0.00000000000E+00 0.  1.
         11    1    3    3    0    0 -0.27804502497E+02 -0.24560757638E+02 -0.12199289744E+02  0.39053090088E+02  0.51100000000E-03 0. -1.
        -11    1    3    3    0    0 -0.23255760617E+01 -0.18425917442E+01  0.30581318340E+01  0.42609410850E+01  0.51100000000E-03 0.  1.
         12    1    3    3    0    0 -0.12357540617E+01 -0.42443731579E+00 -0.42781550642E+01  0.44732366235E+01  0.00000000000E+00 0. -1.
</event>
<event>
 7    1  0.2700100E-010  0.4778727E+02  0.7816164E-02  0.1312668E+00
        -11   -1    0    0    0    0  0.00000000000E+00  0.00000000000E+00  0.45593999997E+02  0.45594000000E+02  0.51100000000E-03 0. -1.
         11   -1    0    0    0    0 -0.00000000000E+00 -0.00000000000E+00 -0.45593999997E+02  0.45594000000E+02  0.51100000000E-03 0.  1.
    9900012    2    1    2    0    0 -0.33725698785E+02 -0.27142354616E+02  0.30810851353E+01  0.47787271224E+02  0.20000000818E+02 0.  0.
        -12    1    1    2    0    0  0.33725698785E+02  0.27142354616E+02 -0.30810851353E+01  0.43400728776E+02  0.00000000000E+00 0.  1.
         11    1    3    3    0    0 -0.28439392640E+02 -0.14217517489E+02  0.19849729042E+01  0.31857133816E+02  0.51100000000E-03 0. -1.
        -11    1    3    3    0    0 -0.50848493758E+01 -0.13376418576E+02 -0.43933943214E+00  0.14317027851E+02  0.51100000000E-03 0.  1.
        -12    1    3    3    0    0 -0.20145677002E+00  0.45158144793E+00  0.15354516632E+01  0.16131095574E+01  0.00000000000E+00 0.  1.
</event>
<event>
 7    1  0.2700100E-010  0.4778727E+02  0.7816164E-02  0.1312668E+00
        -11   -1    0    0    0    0  0.00000000000E+00  0.00000000000E+00  0.45593999997E+02  0.45594000000E+02  0.51100000000E-03 0.  1.
         11   -1    0    0    0    0 -0.00000000000E+00 -0.00000000000E+00 -0.45593999997E+02  0.45594000000E+02  0.51100000000E-03 0. -1.
    9900012    2    1    2    0    0  0.91756745353E+01  0.36251204661E+02 -0.22029082121E+02  0.47787270724E+02  0.19999998541E+02 0.  0.
        -12    1    1    2    0    0 -0.91756745353E+01 -0.36251204661E+02  0.22029082121E+02  0.43400729276E+02  0.00000000000E+00 0.  1.
         11    1    3    3    0    0 -0.18605881122E+01 -0.88899551872E+00  0.22529638559E+00  0.20743335985E+01  0.51100000000E-03 0. -1.
        -11    1    3    3    0    0  0.10750404354E+02  0.19574135897E+02 -0.11577895054E+02  0.25154833413E+02  0.51100000000E-03 0.  1.
         12    1    3    3    0    0  0.28585829304E+00  0.17566064283E+02 -0.10676483453E+02  0.20558103713E+02  0.00000000000E+00 0. -1.
</event>
<event>
 7    1  0.2700100E-010  0.4778727E+02  0.7816164E-02  0.1312668E+00
        -11   -1    0    0    0    0  0.00000000000E+00  0.00000000000E+00  0.45593999997E+02  0.45594000000E+02  0.51100000000E-03 0.  1.
         11   -1    0    0    0    0 -0.00000000000E+00 -0.00000000000E+00 -0.45593999997E+02  0.45594000000E+02  0.51100000000E-03 0. -1.
    9900012    2    1    2    0    0 -0.23537883716E+02 -0.29011732900E+02 -0.22088697223E+02  0.47787272348E+02  0.20000005945E+02 0.  0.
        -12    1    1    2    0    0  0.23537883716E+02  0.29011732900E+02  0.22088697223E+02  0.43400727652E+02  0.00000000000E+00 0.  1.
         11    1    3    3    0    0  0.12760751539E+01 -0.55592097622E+01 -0.11189091095E+01  0.58124985019E+01  0.51100000000E-03 0.  1.
        -11    1    3    3    0    0 -0.25155193050E+02 -0.24485593926E+02 -0.20961880470E+02  0.40886776351E+02  0.51100000000E-03 0. -1.
         12    1    3    3    0    0  0.34123418028E+00  0.10330707881E+01 -0.79076437342E-02  0.10879974953E+01  0.00000000000E+00 0. -1.
</event>
<event>
 7    1  0.2700100E-010  0.4778727E+02  0.7816164E-02  0.1312668E+00
        -11   -1    0    0    0    0  0.00000000000E+00  0.00000000000E+00  0.45593999997E+02  0.45594000000E+02  0.51100000000E-03 0.  1.
         11   -1    0    0    0    0 -0.00000000000E+00 -0.00000000000E+00 -0.45593999997E+02  0.45594000000E+02  0.51100000000E-03 0. -1.
    9900012    2    1    2    0    0  0.78948536455E+01 -0.11467512490E+01 -0.42661215695E+02  0.47787273311E+02  0.20000010336E+02 0.  0.
        -12    1    1    2    0    0 -0.78948536455E+01  0.11467512490E+01  0.42661215695E+02  0.43400726689E+02  0.00000000000E+00 0.  1.
         11    1    3    3    0    0 -0.16168258160E+01 -0.61478659058E+01 -0.23693773977E+02  0.24531720414E+02  0.51100000000E-03 0. -1.
        -11    1    3    3    0    0  0.90938808519E+01  0.13429874574E+01 -0.10115542345E+02  0.13668448392E+02  0.51100000000E-03 0.  1.
        -12    1    3    3    0    0  0.41779860962E+00  0.36581271994E+01 -0.88518993732E+01  0.95871045055E+01  0.00000000000E+00 0.  1.
</event>
<event>
 7    1  0.2700100E-010  0.4778727E+02  0.7816164E-02  0.1312668E+00
        -11   -1    0    0    0    0  0.00000000000E+00  0.00000000000E+00  0.45593999997E+02  0.45594000000E+02  0.51100000000E-03 0. -1.
         11   -1    0    0    0    0 -0.00000000000E+00 -0.00000000000E+00 -0.45593999997E+02  0.45594000000E+02  0.51100000000E-03 0.  1.
    9900012    2    1    2    0    0  0.30955095992E+02  0.80194210960E+01  0.29344405572E+02  0.47787271654E+02  0.20000002781E+02 0.  0.
        -12    1    1    2    0    0 -0.30955095992E+02 -0.80194210960E+01 -0.29344405572E+02  0.43400728346E+02  0.00000000000E+00 0.  1.
         11    1    3    3    0    0  0.84934361784E+00 -0.70514452473E+00  0.23920358513E+01  0.26344732219E+01  0.51100000000E-03 0. -1.
        -11    1    3    3    0    0  0.10393467957E+02 -0.51501951956E+01  0.12471820344E+02  0.17032175131E+02  0.51100000000E-03 0.  1.
        -12    1    3    3    0    0  0.19712284417E+02  0.13874760816E+02  0.14480549376E+02  0.28120623302E+02  0.00000000000E+00 0.  1.
</event>
<event>
 7    1  0.2700100E-010  0.4778727E+02  0.7816164E-02  0.1312668E+00
        -11   -1    0    0    0    0  0.00000000000E+00  0.00000000000E+00  0.45593999997E+02  0.45594000000E+02  0.51100000000E-03 0.  1.
         11   -1    0    0    0    0 -0.00000000000E+00 -0.00000000000E+00 -0.45593999997E+02  0.45594000000E+02  0.51100000000E-03 0. -1.
    9900012    2    1    2    0    0  0.17589122661E+02 -0.21185412357E+02 -0.33547348462E+02  0.47787268191E+02  0.19999986989E+02 0.  0.
        -12    1    1    2    0    0 -0.17589122661E+02  0.21185412357E+02  0.33547348462E+02  0.43400731809E+02  0.00000000000E+00 0.  1.
         11    1    3    3    0    0  0.41565773846E+01 -0.13131454968E+02 -0.13479827663E+02  0.19272207949E+02  0.51100000000E-03 0. -1.
        -11    1    3    3    0    0  0.30918428399E+00  0.24973053791E+01 -0.62330823679E+01  0.67218632197E+01  0.51100000000E-03 0.  1.
        -12    1    3    3    0    0  0.13123360992E+02 -0.10551262768E+02 -0.13834438431E+02  0.21793197022E+02  0.00000000000E+00 0.  1.
</event>
<event>
 7    1  0.2700100E-010  0.4778727E+02  0.7816164E-02  0.1312668E+00
        -11   -1    0    0    0    0  0.00000000000E+00  0.00000000000E+00  0.45593999997E+02  0.45594000000E+02  0.51100000000E-03 0.  1.
         11   -1    0    0    0    0 -0.00000000000E+00 -0.00000000000E+00 -0.45593999997E+02  0.45594000000E+02  0.51100000000E-03 0. -1.
    9900012    2    1    2    0    0  0.98122709644E+01  0.26946775882E+02 -0.32576273998E+02  0.47787273975E+02  0.20000013361E+02 0.  0.
        -12    1    1    2    0    0 -0.98122709644E+01 -0.26946775882E+02  0.32576273998E+02  0.43400726025E+02  0.00000000000E+00 0.  1.
         11    1    3    3    0    0  0.55750783937E+01  0.26461787101E+02 -0.30976493879E+02  0.41119956821E+02  0.51100000000E-03 0. -1.
        -11    1    3    3    0    0  0.17467117434E+01 -0.17072485265E+01  0.80263570929E+00  0.25709772050E+01  0.51100000000E-03 0.  1.
         12    1    3    3    0    0  0.24904808273E+01  0.21922373081E+01 -0.24024158279E+01  0.40963399488E+01  0.00000000000E+00 0. -1.
</event>
<event>
 7    1  0.2700100E-010  0.4778726E+02  0.7816164E-02  0.1312668E+00
        -11   -1    0    0    0    0  0.00000000000E+00  0.00000000000E+00  0.45593999997E+02  0.45594000000E+02  0.51100000000E-03 0.  1.
         11   -1    0    0    0    0 -0.00000000000E+00 -0.00000000000E+00 -0.45593999997E+02  0.45594000000E+02  0.51100000000E-03 0. -1.
    9900012    2    1    2    0    0 -0.14143227513E+02  0.24436279090E+02 -0.32961516407E+02  0.47787260558E+02  0.19999952188E+02 0.  0.
        -12    1    1    2    0    0  0.14143227513E+02 -0.24436279090E+02  0.32961516407E+02  0.43400739442E+02  0.00000000000E+00 0.  1.
         11    1    3    3    0    0 -0.11880000012E+01  0.24607387257E+01  0.17713576608E+01  0.32564224699E+01  0.51100000000E-03 0. -1.
        -11    1    3    3    0    0 -0.27818518896E+01 -0.63642042435E+00 -0.20827673623E+01  0.35329380180E+01  0.51100000000E-03 0.  1.
         12    1    3    3    0    0 -0.10173375622E+02  0.22611960789E+02 -0.32650106706E+02  0.40997900070E+02  0.00000000000E+00 0. -1.
</event>
<event>
 7    1  0.2700100E-010  0.4778725E+02  0.7816164E-02  0.1312668E+00
        -11   -1    0    0    0    0  0.00000000000E+00  0.00000000000E+00  0.45593999997E+02  0.45594000000E+02  0.51100000000E-03 0.  1.
         11   -1    0    0    0    0 -0.00000000000E+00 -0.00000000000E+00 -0.45593999997E+02  0.45594000000E+02  0.51100000000E-03 0. -1.
    9900012    2    1    2    0    0 -0.14768841088E+02 -0.35190801146E+01 -0.40658605923E+02  0.47787253146E+02  0.19999918392E+02 0.  0.
        -12    1    1    2    0    0  0.14768841088E+02  0.35190801146E+01  0.40658605923E+02  0.43400746854E+02  0.00000000000E+00 0.  1.
         11    1    3    3    0    0 -0.11422360631E+02 -0.46940932761E+01 -0.36935237036E+02  0.38945045503E+02  0.51100000000E-03 0. -1.
        -11    1    3    3    0    0  0.14664188448E+01 -0.30308557458E+00  0.11092053353E+01  0.18634864719E+01  0.51100000000E-03 0.  1.
        -12    1    3    3    0    0 -0.48128993026E+01  0.14780987360E+01 -0.48325742213E+01  0.69787211705E+01  0.00000000000E+00 0.  1.
</event>
<event>
 7    1  0.2700100E-010  0.4778727E+02  0.7816164E-02  0.1312668E+00
        -11   -1    0    0    0    0  0.00000000000E+00  0.00000000000E+00  0.45593999997E+02  0.45594000000E+02  0.51100000000E-03 0. -1.
         11   -1    0    0    0    0 -0.00000000000E+00 -0.00000000000E+00 -0.45593999997E+02  0.45594000000E+02  0.51100000000E-03 0.  1.
    9900012    2    1    2    0    0 -0.38741133572E+02 -0.53904904957E+00 -0.19556517888E+02  0.47787269635E+02  0.19999993575E+02 0.  0.
        -12    1    1    2    0    0  0.38741133572E+02  0.53904904957E+00  0.19556517888E+02  0.43400730365E+02  0.00000000000E+00 0.  1.
         11    1    3    3    0    0 -0.33750385522E+02 -0.45078254939E+01 -0.14328762534E+02  0.36942150040E+02  0.51100000000E-03 0. -1.
        -11    1    3    3    0    0 -0.19109328855E+01  0.32861315249E+01 -0.64296760861E+01  0.74693413180E+01  0.51100000000E-03 0.  1.
         12    1    3    3    0    0 -0.30798151646E+01  0.68264491949E+00  0.12019207320E+01  0.33757782777E+01  0.00000000000E+00 0. -1.
</event>
<event>
 7    1  0.2700100E-010  0.4778729E+02  0.7816164E-02  0.1312668E+00
        -11   -1    0    0    0    0  0.00000000000E+00  0.00000000000E+00  0.45593999997E+02  0.45594000000E+02  0.51100000000E-03 0.  1.
         11   -1    0    0    0    0 -0.00000000000E+00 -0.00000000000E+00 -0.45593999997E+02  0.45594000000E+02  0.51100000000E-03 0. -1.
    9900012    2    1    2    0    0 -0.21086720397E+02 -0.50952667836E+01 -0.37590026273E+02  0.47787290376E+02  0.20000088140E+02 0.  0.
        -12    1    1    2    0    0  0.21086720397E+02  0.50952667836E+01  0.37590026273E+02  0.43400709624E+02  0.00000000000E+00 0.  1.
         11    1    3    3    0    0 -0.49423264252E+01 -0.81673060007E+00 -0.69296015189E+01  0.85506149976E+01  0.51100000000E-03 0. -1.
        -11    1    3    3    0    0 -0.18489373115E+02 -0.21222609600E+01 -0.16988826865E+02  0.25198832280E+02  0.51100000000E-03 0.  1.
        -12    1    3    3    0    0  0.23449791431E+01 -0.21562752236E+01 -0.13671597888E+02  0.14037843098E+02  0.00000000000E+00 0.  1.
</event>
<event>
 7    1  0.2700100E-010  0.4778728E+02  0.7816164E-02  0.1312668E+00
        -11   -1    0    0    0    0  0.00000000000E+00  0.00000000000E+00  0.45593999997E+02  0.45594000000E+02  0.51100000000E-03 0. -1.
         11   -1    0    0    0    0 -0.00000000000E+00 -0.00000000000E+00 -0.45593999997E+02  0.45594000000E+02  0.51100000000E-03 0.  1.
    9900012    2    1    2    0    0  0.38991799390E+02 -0.49098717411E+01 -0.18416163538E+02  0.47787281808E+02  0.20000049074E+02 0.  0.
        -12    1    1    2    0    0 -0.38991799390E+02  0.49098717411E+01  0.18416163538E+02  0.43400718192E+02  0.00000000000E+00 0.  1.
         11    1    3    3    0    0  0.32133354460E+02 -0.20320999721E+01 -0.18846417518E+02  0.37307765313E+02  0.51100000000E-03 0. -1.
        -11    1    3    3    0    0  0.12542509972E+01  0.24409741844E+01  0.11433736688E+00  0.27467387621E+01  0.51100000000E-03 0.  1.
         12    1    3    3    0    0  0.56041939327E+01 -0.53187459534E+01  0.31591661323E+00  0.77327777324E+01  0.00000000000E+00 0. -1.
</event>
<event>
 7    1  0.2700100E-010  0.4778727E+02  0.7816164E-02  0.1312668E+00
        -11   -1    0    0    0    0  0.00000000000E+00  0.00000000000E+00  0.45593999997E+02  0.45594000000E+02  0.51100000000E-03 0.  1.
         11   -1    0    0    0    0 -0.00000000000E+00 -0.00000000000E+00 -0.45593999997E+02  0.45594000000E+02  0.51100000000E-03 0. -1.
    9900012    2    1    2    0    0  0.84951466347E+01 -0.42158401474E+02 -0.58416387897E+01  0.47787273336E+02  0.20000010449E+02 0.  0.
        -12    1    1    2    0    0 -0.84951466347E+01  0.42158401474E+02  0.58416387897E+01  0.43400726664E+02  0.00000000000E+00 0.  1.
         11    1    3    3    0    0  0.59580575111E+01 -0.24292358487E+02 -0.19475168554E+01  0.25088044012E+02  0.51100000000E-03 0. -1.
        -11    1    3    3    0    0 -0.24026640783E+01 -0.90963256767E+01 -0.74746627942E+01  0.12016094192E+02  0.51100000000E-03 0.  1.
        -12    1    3    3    0    0  0.49397532018E+01 -0.87697173101E+01  0.35805408599E+01  0.10683135132E+02  0.00000000000E+00 0.  1.
</event>
<event>
 7    1  0.2700100E-010  0.4778727E+02  0.7816164E-02  0.1312668E+00
        -11   -1    0    0    0    0  0.00000000000E+00  0.00000000000E+00  0.45593999997E+02  0.45594000000E+02  0.51100000000E-03 0.  1.
         11   -1    0    0    0    0 -0.00000000000E+00 -0.00000000000E+00 -0.45593999997E+02  0.45594000000E+02  0.51100000000E-03 0. -1.
    9900012    2    1    2    0    0 -0.17286316914E+02  0.75173145247E+01 -0.39093434018E+02  0.47787270128E+02  0.19999995823E+02 0.  0.
        -12    1    1    2    0    0  0.17286316914E+02 -0.75173145247E+01  0.39093434018E+02  0.43400729872E+02  0.00000000000E+00 0.  1.
         11    1    3    3    0    0 -0.93754883345E+01  0.13033525653E+02 -0.31892161411E+02  0.35705497227E+02  0.51100000000E-03 0. -1.
        -11    1    3    3    0    0 -0.37729621513E+01 -0.20123616681E+01 -0.30281364936E+01  0.52396997780E+01  0.51100000000E-03 0.  1.
         12    1    3    3    0    0 -0.41378664279E+01 -0.35038494601E+01 -0.41731361129E+01  0.68420731238E+01  0.00000000000E+00 0. -1.
</event>
<event>
 7    1  0.2700100E-010  0.4778727E+02  0.7816164E-02  0.1312668E+00
        -11   -1    0    0    0    0  0.00000000000E+00  0.00000000000E+00  0.45593999997E+02  0.45594000000E+02  0.51100000000E-03 0.  1.
         11   -1    0    0    0    0 -0.00000000000E+00 -0.00000000000E+00 -0.45593999997E+02  0.45594000000E+02  0.51100000000E-03 0. -1.
    9900012    2    1    2    0    0  0.14393040648E+02 -0.32220686985E+02 -0.25264424928E+02  0.47787268948E+02  0.19999990442E+02 0.  0.
        -12    1    1    2    0    0 -0.14393040648E+02  0.32220686985E+02  0.25264424928E+02  0.43400731052E+02  0.00000000000E+00 0.  1.
         11    1    3    3    0    0  0.15424767278E+02 -0.18465643983E+02 -0.93398953614E+01  0.25809631902E+02  0.51100000000E-03 0. -1.
        -11    1    3    3    0    0  0.75050366947E+00  0.33372537802E+00 -0.32787140275E+00  0.88438018051E+00  0.51100000000E-03 0.  1.
         12    1    3    3    0    0 -0.17822302996E+01 -0.14088768380E+02 -0.15596658164E+02  0.21093256865E+02  0.00000000000E+00 0. -1.
</event>
<event>
 7    1  0.2700100E-010  0.4778727E+02  0.7816164E-02  0.1312668E+00
        -11   -1    0    0    0    0  0.00000000000E+00  0.00000000000E+00  0.45593999997E+02  0.45594000000E+02  0.51100000000E-03 0. -1.
         11   -1    0    0    0    0 -0.00000000000E+00 -0.00000000000E+00 -0.45593999997E+02  0.45594000000E+02  0.51100000000E-03 0.  1.
    9900012    2    1    2    0    0  0.43653626635E+01  0.10152687127E+01  0.43168694392E+02  0.47787270315E+02  0.19999996673E+02 0.  0.
        -12    1    1    2    0    0 -0.43653626635E+01 -0.10152687127E+01 -0.43168694392E+02  0.43400729685E+02  0.00000000000E+00 0.  1.
         11    1    3    3    0    0 -0.31504861891E+01 -0.38752315818E+01  0.19335622434E+02  0.19970209769E+02  0.51100000000E-03 0. -1.
        -11    1    3    3    0    0  0.73481725239E+01  0.51722395723E+01  0.81524722560E+01  0.12133033659E+02  0.51100000000E-03 0.  1.
        -12    1    3    3    0    0  0.16767632867E+00 -0.28173927785E+00  0.15680599702E+02  0.15684026886E+02  0.00000000000E+00 0.  1.
</event>
<event>
 7    1  0.2983362E-010  0.4778727E+02  0.7816164E-02  0.1312668E+00
        -11   -1    0    0    0    0  0.00000000000E+00  0.00000000000E+00  0.45593999997E+02  0.45594000000E+02  0.51100000000E-03 0.  1.
         11   -1    0    0    0    0 -0.00000000000E+00 -0.00000000000E+00 -0.45593999997E+02  0.45594000000E+02  0.51100000000E-03 0. -1.
    9900012    2    1    2    0    0 -0.32897775576E+02  0.28092351228E+02 -0.34899033887E+01  0.47787271193E+02  0.20000000676E+02 0.  0.
        -12    1    1    2    0    0  0.32897775576E+02 -0.28092351228E+02  0.34899033887E+01  0.43400728807E+02  0.00000000000E+00 0.  1.
         11    1    3    3    0    0 -0.10602838342E+02  0.77410192876E+01  0.21233316530E+01  0.13298575040E+02  0.51100000000E-03 0. -1.
        -11    1    3    3    0    0 -0.24121682927E+02  0.19053490680E+02 -0.74063417626E+01  0.31618744328E+02  0.51100000000E-03 0.  1.
        -12    1    3    3    0    0  0.18267456932E+01  0.12978412608E+01  0.17931067209E+01  0.28699518251E+01  0.00000000000E+00 0.  1.
</event>
<event>
 7    1  0.2700100E-010  0.4778727E+02  0.7816164E-02  0.1312668E+00
        -11   -1    0    0    0    0  0.00000000000E+00  0.00000000000E+00  0.45593999997E+02  0.45594000000E+02  0.51100000000E-03 0. -1.
         11   -1    0    0    0    0 -0.00000000000E+00 -0.00000000000E+00 -0.45593999997E+02  0.45594000000E+02  0.51100000000E-03 0.  1.
    9900012    2    1    2    0    0  0.93509314575E+00  0.42702880483E+02 -0.76949841619E+01  0.47787272103E+02  0.20000004827E+02 0.  0.
        -12    1    1    2    0    0 -0.93509314575E+00 -0.42702880483E+02  0.76949841619E+01  0.43400727897E+02  0.00000000000E+00 0.  1.
         11    1    3    3    0    0 -0.46751020721E+01  0.26942648380E+02 -0.19715916638E+01  0.27416237069E+02  0.51100000000E-03 0. -1.
        -11    1    3    3    0    0  0.73601156540E+01  0.15833911305E+02 -0.39987063915E+01  0.17912947907E+02  0.51100000000E-03 0.  1.
         12    1    3    3    0    0 -0.17499204361E+01 -0.73679201638E-01 -0.17246861066E+01  0.24580871269E+01  0.00000000000E+00 0. -1.
</event>
<event>
 7    1  0.2700100E-010  0.4778727E+02  0.7816164E-02  0.1312668E+00
        -11   -1    0    0    0    0  0.00000000000E+00  0.00000000000E+00  0.45593999997E+02  0.45594000000E+02  0.51100000000E-03 0.  1.
         11   -1    0    0    0    0 -0.00000000000E+00 -0.00000000000E+00 -0.45593999997E+02  0.45594000000E+02  0.51100000000E-03 0. -1.
    9900012    2    1    2    0    0  0.32783637217E+02  0.28224578429E+02 -0.34970609966E+01  0.47787272676E+02  0.20000007439E+02 0.  0.
        -12    1    1    2    0    0 -0.32783637217E+02 -0.28224578429E+02  0.34970609966E+01  0.43400727324E+02  0.00000000000E+00 0.  1.
         11    1    3    3    0    0  0.27292437763E+02  0.16636659226E+02  0.18535321814E+00  0.31963885017E+02  0.51100000000E-03 0. -1.
        -11    1    3    3    0    0 -0.11211847716E+01  0.63060309999E+01  0.41965153341E+00  0.64186595122E+01  0.51100000000E-03 0.  1.
         12    1    3    3    0    0  0.66123842248E+01  0.52818882027E+01 -0.41020657481E+01  0.94047281473E+01  0.00000000000E+00 0. -1.
</event>
<event>
 7    1  0.2700100E-010  0.4778728E+02  0.7816164E-02  0.1312668E+00
        -11   -1    0    0    0    0  0.00000000000E+00  0.00000000000E+00  0.45593999997E+02  0.45594000000E+02  0.51100000000E-03 0.  1.
         11   -1    0    0    0    0 -0.00000000000E+00 -0.00000000000E+00 -0.45593999997E+02  0.45594000000E+02  0.51100000000E-03 0. -1.
    9900012    2    1    2    0    0 -0.27464604223E+02 -0.15852852140E+02 -0.29631151318E+02  0.47787279562E+02  0.20000038833E+02 0.  0.
        -12    1    1    2    0    0  0.27464604223E+02  0.15852852140E+02  0.29631151318E+02  0.43400720438E+02  0.00000000000E+00 0.  1.
         11    1    3    3    0    0 -0.20804644508E+02 -0.73274949203E+01 -0.17042826641E+02  0.27874421161E+02  0.51100000000E-03 0. -1.
        -11    1    3    3    0    0 -0.78134398271E+01 -0.31531014291E+01 -0.11588759386E+02  0.14327987818E+02  0.51100000000E-03 0.  1.
         12    1    3    3    0    0  0.11534801117E+01 -0.53722557907E+01 -0.99956529188E+00  0.55848705823E+01  0.00000000000E+00 0. -1.
</event>
<event>
 7    1  0.2740766E-010  0.4778728E+02  0.7816164E-02  0.1312668E+00
        -11   -1    0    0    0    0  0.00000000000E+00  0.00000000000E+00  0.45593999997E+02  0.45594000000E+02  0.51100000000E-03 0. -1.
         11   -1    0    0    0    0 -0.00000000000E+00 -0.00000000000E+00 -0.45593999997E+02  0.45594000000E+02  0.51100000000E-03 0.  1.
    9900012    2    1    2    0    0  0.12818751687E+02 -0.39968913730E+02  0.11035777729E+02  0.47787275932E+02  0.20000022285E+02 0.  0.
        -12    1    1    2    0    0 -0.12818751687E+02  0.39968913730E+02 -0.11035777729E+02  0.43400724068E+02  0.00000000000E+00 0.  1.
         11    1    3    3    0    0  0.57277727557E+01 -0.24696037406E+02  0.14304236825E+02  0.29108638507E+02  0.51100000000E-03 0. -1.
        -11    1    3    3    0    0  0.83539410958E+01 -0.13446428879E+02 -0.16195933801E+01  0.15912820756E+02  0.51100000000E-03 0.  1.
        -12    1    3    3    0    0 -0.12629621644E+01 -0.18264474445E+01 -0.16488657166E+01  0.27658166692E+01  0.00000000000E+00 0.  1.
</event>
<event>
 7    1  0.2700100E-010  0.4778728E+02  0.7816164E-02  0.1312668E+00
        -11   -1    0    0    0    0  0.00000000000E+00  0.00000000000E+00  0.45593999997E+02  0.45594000000E+02  0.51100000000E-03 0.  1.
         11   -1    0    0    0    0 -0.00000000000E+00 -0.00000000000E+00 -0.45593999997E+02  0.45594000000E+02  0.51100000000E-03 0. -1.
    9900012    2    1    2    0    0  0.35068484894E+02 -0.14072929145E+01 -0.25531222729E+02  0.47787280650E+02  0.20000043795E+02 0.  0.
        -12    1    1    2    0    0 -0.35068484894E+02  0.14072929145E+01  0.25531222729E+02  0.43400719350E+02  0.00000000000E+00 0.  1.
         11    1    3    3    0    0  0.78582899758E+01  0.67179184995E+01 -0.79198390624E+01  0.13023325280E+02  0.51100000000E-03 0. -1.
        -11    1    3    3    0    0  0.20549019023E+02 -0.80199409316E+01 -0.17405731236E+02  0.28098774270E+02  0.51100000000E-03 0.  1.
        -12    1    3    3    0    0  0.66611758944E+01 -0.10527048249E+00 -0.20565243036E+00  0.66651810998E+01  0.00000000000E+00 0.  1.
</event>
<event>
 7    1  0.2700100E-010  0.4778728E+02  0.7816164E-02  0.1312668E+00
        -11   -1    0    0    0    0  0.00000000000E+00  0.00000000000E+00  0.45593999997E+02  0.45594000000E+02  0.51100000000E-03 0.  1.
         11   -1    0    0    0    0 -0.00000000000E+00 -0.00000000000E+00 -0.45593999997E+02  0.45594000000E+02  0.51100000000E-03 0. -1.
    9900012    2    1    2    0    0  0.95954585641E+01  0.38881467936E+02  0.16726666452E+02  0.47787277143E+02  0.20000027808E+02 0.  0.
        -12    1    1    2    0    0 -0.95954585641E+01 -0.38881467936E+02 -0.16726666452E+02  0.43400722857E+02  0.00000000000E+00 0.  1.
         11    1    3    3    0    0  0.24405548947E+01  0.30308965591E+01 -0.26033013027E+01  0.46818607497E+01  0.51100000000E-03 0. -1.
        -11    1    3    3    0    0 -0.23142325472E+01  0.27296958267E+01 -0.52396850900E-01  0.35790581555E+01  0.51100000000E-03 0.  1.
         12    1    3    3    0    0  0.94691362167E+01  0.33120875550E+02  0.19382364605E+02  0.39526358238E+02  0.00000000000E+00 0. -1.
</event>
<event>
 7    1  0.2700100E-010  0.4778727E+02  0.7816164E-02  0.1312668E+00
        -11   -1    0    0    0    0  0.00000000000E+00  0.00000000000E+00  0.45593999997E+02  0.45594000000E+02  0.51100000000E-03 0. -1.
         11   -1    0    0    0    0 -0.00000000000E+00 -0.00000000000E+00 -0.45593999997E+02  0.45594000000E+02  0.51100000000E-03 0.  1.
    9900012    2    1    2    0    0  0.74863525625E+01  0.11927093573E+01  0.42733536995E+02  0.47787271729E+02  0.20000003122E+02 0.  0.
        -12    1    1    2    0    0 -0.74863525625E+01 -0.11927093573E+01 -0.42733536995E+02  0.43400728271E+02  0.00000000000E+00 0.  1.
         11    1    3    3    0    0 -0.28286063447E+01  0.35413333090E+01  0.21628324062E+01  0.50219418293E+01  0.51100000000E-03 0. -1.
        -11    1    3    3    0    0  0.80348563430E+01  0.15523202920E+01  0.32514545183E+02  0.33528558923E+02  0.51100000000E-03 0.  1.
        -12    1    3    3    0    0  0.22801025642E+01 -0.39009442437E+01  0.80561594060E+01  0.92367709764E+01  0.00000000000E+00 0.  1.
</event>
<event>
 7    1  0.2700100E-010  0.4778727E+02  0.7816164E-02  0.1312668E+00
        -11   -1    0    0    0    0  0.00000000000E+00  0.00000000000E+00  0.45593999997E+02  0.45594000000E+02  0.51100000000E-03 0.  1.
         11   -1    0    0    0    0 -0.00000000000E+00 -0.00000000000E+00 -0.45593999997E+02  0.45594000000E+02  0.51100000000E-03 0. -1.
    9900012    2    1    2    0    0 -0.28511997524E+02  0.52878070218E+01 -0.32291304336E+02  0.47787271416E+02  0.20000001695E+02 0.  0.
        -12    1    1    2    0    0  0.28511997524E+02 -0.52878070218E+01  0.32291304336E+02  0.43400728584E+02  0.00000000000E+00 0.  1.
         11    1    3    3    0    0 -0.19830542087E+02  0.89943670747E+01 -0.28544684932E+02  0.35901923022E+02  0.51100000000E-03 0. -1.
        -11    1    3    3    0    0 -0.17626996857E+01 -0.38579558789E+01 -0.22637141761E+01  0.48078410828E+01  0.51100000000E-03 0.  1.
         12    1    3    3    0    0 -0.69187557505E+01  0.15139582600E+00 -0.14829052282E+01  0.70775073117E+01  0.00000000000E+00 0. -1.
</event>
<event>
 7    1  0.2700100E-010  0.4778727E+02  0.7816164E-02  0.1312668E+00
        -11   -1    0    0    0    0  0.00000000000E+00  0.00000000000E+00  0.45593999997E+02  0.45594000000E+02  0.51100000000E-03 0.  1.
         11   -1    0    0    0    0 -0.00000000000E+00 -0.00000000000E+00 -0.45593999997E+02  0.45594000000E+02  0.51100000000E-03 0. -1.
    9900012    2    1    2    0    0 -0.68013940268E+01 -0.35932518304E+02 -0.23371319990E+02  0.47787269241E+02  0.19999991777E+02 0.  0.
        -12    1    1    2    0    0  0.68013940268E+01  0.35932518304E+02  0.23371319990E+02  0.43400730759E+02  0.00000000000E+00 0.  1.
         11    1    3    3    0    0  0.17984605509E-01 -0.12527366951E+02 -0.14896283898E+02  0.19463671812E+02  0.51100000000E-03 0. -1.
        -11    1    3    3    0    0 -0.57844311601E+01 -0.24525724484E+02 -0.68895956377E+01  0.26123501557E+02  0.51100000000E-03 0.  1.
        -12    1    3    3    0    0 -0.10349474721E+01  0.11205731310E+01 -0.15854404538E+01  0.22000958717E+01  0.00000000000E+00 0.  1.
</event>
<event>
 7    1  0.2700100E-010  0.4778724E+02  0.7816164E-02  0.1312668E+00
        -11   -1    0    0    0    0  0.00000000000E+00  0.00000000000E+00  0.45593999997E+02  0.45594000000E+02  0.51100000000E-03 0. -1.
         11   -1    0    0    0    0 -0.00000000000E+00 -0.00000000000E+00 -0.45593999997E+02  0.45594000000E+02  0.51100000000E-03 0.  1.
    9900012    2    1    2    0    0 -0.90622259593E+01  0.10075966389E+02  0.41230779303E+02  0.47787237335E+02  0.19999846303E+02 0.  0.
        -12    1    1    2    0    0  0.90622259593E+01 -0.10075966389E+02 -0.41230779303E+02  0.43400762665E+02  0.00000000000E+00 0.  1.
         11    1    3    3    0    0  0.18017781936E+01  0.36951393301E+01 -0.57076065802E-01  0.41114130498E+01  0.51100000000E-03 0.  1.
        -11    1    3    3    0    0 -0.79630768698E+01  0.20755236465E+01  0.17643007730E+02  0.19467771153E+02  0.51100000000E-03 0. -1.
         12    1    3    3    0    0 -0.29009272830E+01  0.43053034125E+01  0.23644847638E+02  0.24208053132E+02  0.00000000000E+00 0. -1.
</event>
<event>
 7    1  0.2700100E-010  0.4778727E+02  0.7816164E-02  0.1312668E+00
        -11   -1    0    0    0    0  0.00000000000E+00  0.00000000000E+00  0.45593999997E+02  0.45594000000E+02  0.51100000000E-03 0.  1.
         11   -1    0    0    0    0 -0.00000000000E+00 -0.00000000000E+00 -0.45593999997E+02  0.45594000000E+02  0.51100000000E-03 0. -1.
    9900012    2    1    2    0    0 -0.17605632706E+02  0.39444897480E+02  0.42148345440E+01  0.47787273389E+02  0.20000010689E+02 0.  0.
        -12    1    1    2    0    0  0.17605632706E+02 -0.39444897480E+02 -0.42148345440E+01  0.43400726611E+02  0.00000000000E+00 0.  1.
         11    1    3    3    0    0 -0.13048415544E+02  0.24155081106E+02  0.43384455728E+01  0.27794805300E+02  0.51100000000E-03 0. -1.
        -11    1    3    3    0    0  0.17967788350E+01  0.19161394017E+01  0.38513154627E+01  0.46618274789E+01  0.51100000000E-03 0.  1.
        -12    1    3    3    0    0 -0.63539959971E+01  0.13373676972E+02 -0.39749264915E+01  0.15330640610E+02  0.00000000000E+00 0.  1.
</event>
<event>
 7    1  0.2700100E-010  0.4778727E+02  0.7816164E-02  0.1312668E+00
        -11   -1    0    0    0    0  0.00000000000E+00  0.00000000000E+00  0.45593999997E+02  0.45594000000E+02  0.51100000000E-03 0. -1.
         11   -1    0    0    0    0 -0.00000000000E+00 -0.00000000000E+00 -0.45593999997E+02  0.45594000000E+02  0.51100000000E-03 0.  1.
    9900012    2    1    2    0    0 -0.30814189198E+02 -0.27824378398E+02  0.12645674593E+02  0.47787269879E+02  0.19999994684E+02 0.  0.
        -12    1    1    2    0    0  0.30814189198E+02  0.27824378398E+02 -0.12645674593E+02  0.43400730121E+02  0.00000000000E+00 0.  1.
         11    1    3    3    0    0 -0.68772345189E+01 -0.37051132986E+01  0.88831662256E+01  0.11829406648E+02  0.51100000000E-03 0. -1.
        -11    1    3    3    0    0 -0.18531586352E+02 -0.24035395644E+02  0.33976137612E+01  0.30539543481E+02  0.51100000000E-03 0.  1.
        -12    1    3    3    0    0 -0.54053683271E+01 -0.83869454912E-01  0.36489460628E+00  0.54183197498E+01  0.00000000000E+00 0.  1.
</event>
<event>
 7    1  0.2700100E-010  0.4778728E+02  0.7816164E-02  0.1312668E+00
        -11   -1    0    0    0    0  0.00000000000E+00  0.00000000000E+00  0.45593999997E+02  0.45594000000E+02  0.51100000000E-03 0.  1.
         11   -1    0    0    0    0 -0.00000000000E+00 -0.00000000000E+00 -0.45593999997E+02  0.45594000000E+02  0.51100000000E-03 0. -1.
    9900012    2    1    2    0    0 -0.10795872670E+02  0.40295870092E+02  0.11971419480E+02  0.47787275380E+02  0.20000019768E+02 0.  0.
        -12    1    1    2    0    0  0.10795872670E+02 -0.40295870092E+02 -0.11971419480E+02  0.43400724620E+02  0.00000000000E+00 0.  1.
         11    1    3    3    0    0 -0.18920079607E+01  0.14166539008E+02 -0.36539623705E+01  0.14752015553E+02  0.51100000000E-03 0. -1.
        -11    1    3    3    0    0 -0.71873143984E+01  0.12641883015E+02  0.12280057494E+02  0.19033510100E+02  0.51100000000E-03 0.  1.
        -12    1    3    3    0    0 -0.17165503111E+01  0.13487448069E+02  0.33453243570E+01  0.14001749727E+02  0.00000000000E+00 0.  1.
</event>
<event>
 7    1  0.2700100E-010  0.4778727E+02  0.7816164E-02  0.1312668E+00
        -11   -1    0    0    0    0  0.00000000000E+00  0.00000000000E+00  0.45593999997E+02  0.45594000000E+02  0.51100000000E-03 0. -1.
         11   -1    0    0    0    0 -0.00000000000E+00 -0.00000000000E+00 -0.45593999997E+02  0.45594000000E+02  0.51100000000E-03 0.  1.
    9900012    2    1    2    0    0 -0.18878599815E+02 -0.16513565914E+02  0.35419255007E+02  0.47787274022E+02  0.20000013575E+02 0.  0.
        -12    1    1    2    0    0  0.18878599815E+02  0.16513565914E+02 -0.35419255007E+02  0.43400725978E+02  0.00000000000E+00 0.  1.
         11    1    3    3    0    0 -0.14318042116E+01 -0.60719477950E+01  0.16782237542E+02  0.17904248392E+02  0.51100000000E-03 0. -1.
        -11    1    3    3    0    0 -0.58426394510E+01  0.12757628002E+01  0.16408537667E+01  0.62013230703E+01  0.51100000000E-03 0.  1.
         12    1    3    3    0    0 -0.11604156153E+02 -0.11717380919E+02  0.16996163699E+02  0.23681702559E+02  0.00000000000E+00 0. -1.
</event>
<event>
 7    1  0.2700100E-010  0.4778727E+02  0.7816164E-02  0.1312668E+00
        -11   -1    0    0    0    0  0.00000000000E+00  0.00000000000E+00  0.45593999997E+02  0.45594000000E+02  0.51100000000E-03 0.  1.
         11   -1    0    0    0    0 -0.00000000000E+00 -0.00000000000E+00 -0.45593999997E+02  0.45594000000E+02  0.51100000000E-03 0. -1.
    9900012    2    1    2    0    0  0.25713682437E+02 -0.30383106281E+02 -0.17300195404E+02  0.47787269905E+02  0.19999994806E+02 0.  0.
        -12    1    1    2    0    0 -0.25713682437E+02  0.30383106281E+02  0.17300195404E+02  0.43400730095E+02  0.00000000000E+00 0.  1.
         11    1    3    3    0    0  0.17560599273E+02 -0.20873089274E+02 -0.20479053204E+02  0.34109413995E+02  0.51100000000E-03 0. -1.
        -11    1    3    3    0    0  0.67768411103E+00 -0.23315314892E+01  0.21848269613E+01  0.32663073878E+01  0.51100000000E-03 0.  1.
         12    1    3    3    0    0  0.74753990532E+01 -0.71784855177E+01  0.99403083878E+00  0.10411548523E+02  0.00000000000E+00 0. -1.
</event>
<event>
 7    1  0.2700100E-010  0.4778727E+02  0.7816164E-02  0.1312668E+00
        -11   -1    0    0    0    0  0.00000000000E+00  0.00000000000E+00  0.45593999997E+02  0.45594000000E+02  0.51100000000E-03 0.  1.
         11   -1    0    0    0    0 -0.00000000000E+00 -0.00000000000E+00 -0.45593999997E+02  0.45594000000E+02  0.51100000000E-03 0. -1.
    9900012    2    1    2    0    0 -0.22103071460E+02  0.37207573502E+02 -0.32670851131E+01  0.47787272598E+02  0.20000007083E+02 0.  0.
        -12    1    1    2    0    0  0.22103071460E+02 -0.37207573502E+02  0.32670851131E+01  0.43400727402E+02  0.00000000000E+00 0.  1.
         11    1    3    3    0    0 -0.62956966729E+01  0.10041492262E+02  0.63429566605E+01  0.13442487229E+02  0.51100000000E-03 0.  1.
        -11    1    3    3    0    0 -0.54135988511E+01  0.17194144836E+02 -0.84085551616E+01  0.19890939378E+02  0.51100000000E-03 0. -1.
         12    1    3    3    0    0 -0.10393775936E+02  0.99719364039E+01 -0.12014866119E+01  0.14453845991E+02  0.00000000000E+00 0. -1.
</event>
<event>
 7    1  0.2700100E-010  0.4778727E+02  0.7816164E-02  0.1312668E+00
        -11   -1    0    0    0    0  0.00000000000E+00  0.00000000000E+00  0.45593999997E+02  0.45594000000E+02  0.51100000000E-03 0.  1.
         11   -1    0    0    0    0 -0.00000000000E+00 -0.00000000000E+00 -0.45593999997E+02  0.45594000000E+02  0.51100000000E-03 0. -1.
    9900012    2    1    2    0    0 -0.11679997887E+02  0.19307612058E+02 -0.37073131293E+02  0.47787270768E+02  0.19999998740E+02 0.  0.
        -12    1    1    2    0    0  0.11679997887E+02 -0.19307612058E+02  0.37073131293E+02  0.43400729232E+02  0.00000000000E+00 0.  1.
         11    1    3    3    0    0 -0.10807790521E+01  0.11786524794E+02 -0.13545560746E+02  0.17988120143E+02  0.51100000000E-03 0. -1.
        -11    1    3    3    0    0 -0.42521201121E+01 -0.54813272684E+00 -0.17229517697E+02  0.17754922001E+02  0.51100000000E-03 0.  1.
        -12    1    3    3    0    0 -0.63470987229E+01  0.80692199905E+01 -0.62980528494E+01  0.12044228624E+02  0.00000000000E+00 0.  1.
</event>
<event>
 7    1  0.2700100E-010  0.4778727E+02  0.7816164E-02  0.1312668E+00
        -11   -1    0    0    0    0  0.00000000000E+00  0.00000000000E+00  0.45593999997E+02  0.45594000000E+02  0.51100000000E-03 0.  1.
         11   -1    0    0    0    0 -0.00000000000E+00 -0.00000000000E+00 -0.45593999997E+02  0.45594000000E+02  0.51100000000E-03 0. -1.
    9900012    2    1    2    0    0  0.80681529566E+01 -0.34279818878E+02 -0.25365770862E+02  0.47787269523E+02  0.19999993065E+02 0.  0.
        -12    1    1    2    0    0 -0.80681529566E+01  0.34279818878E+02  0.25365770862E+02  0.43400730477E+02  0.00000000000E+00 0.  1.
         11    1    3    3    0    0  0.60131661088E+01 -0.20229968594E+02 -0.19965987217E+02  0.29052546219E+02  0.51100000000E-03 0. -1.
        -11    1    3    3    0    0 -0.43977200025E+01 -0.72613767380E+01 -0.16616294584E+01  0.86503494768E+01  0.51100000000E-03 0.  1.
        -12    1    3    3    0    0  0.64527068503E+01 -0.67884735457E+01 -0.37381541872E+01  0.10084373828E+02  0.00000000000E+00 0.  1.
</event>
<event>
 7    1  0.2700100E-010  0.4778727E+02  0.7816164E-02  0.1312668E+00
        -11   -1    0    0    0    0  0.00000000000E+00  0.00000000000E+00  0.45593999997E+02  0.45594000000E+02  0.51100000000E-03 0. -1.
         11   -1    0    0    0    0 -0.00000000000E+00 -0.00000000000E+00 -0.45593999997E+02  0.45594000000E+02  0.51100000000E-03 0.  1.
    9900012    2    1    2    0    0 -0.24122199163E+02 -0.12221197054E+02  0.33946798178E+02  0.47787271245E+02  0.20000000915E+02 0.  0.
        -12    1    1    2    0    0  0.24122199163E+02  0.12221197054E+02 -0.33946798178E+02  0.43400728755E+02  0.00000000000E+00 0.  1.
         11    1    3    3    0    0 -0.19605209879E+02 -0.12640458862E+02  0.26597883883E+02  0.35377858640E+02  0.51100000000E-03 0. -1.
        -11    1    3    3    0    0  0.24018432143E+01 -0.31303517245E-01  0.13818349675E+00  0.24060186359E+01  0.51100000000E-03 0.  1.
        -12    1    3    3    0    0 -0.69188324987E+01  0.45056532500E+00  0.72107307989E+01  0.10003393970E+02  0.00000000000E+00 0.  1.
</event>
<event>
 7    1  0.2700100E-010  0.4778727E+02  0.7816164E-02  0.1312668E+00
        -11   -1    0    0    0    0  0.00000000000E+00  0.00000000000E+00  0.45593999997E+02  0.45594000000E+02  0.51100000000E-03 0. -1.
         11   -1    0    0    0    0 -0.00000000000E+00 -0.00000000000E+00 -0.45593999997E+02  0.45594000000E+02  0.51100000000E-03 0.  1.
    9900012    2    1    2    0    0 -0.12302999545E+02  0.37553792126E+02  0.17943576489E+02  0.47787273762E+02  0.20000012388E+02 0.  0.
        -12    1    1    2    0    0  0.12302999545E+02 -0.37553792126E+02 -0.17943576489E+02  0.43400726238E+02  0.00000000000E+00 0.  1.
         11    1    3    3    0    0 -0.15982398737E+02  0.21353017934E+02  0.13584160264E+02  0.29931886921E+02  0.51100000000E-03 0. -1.
        -11    1    3    3    0    0  0.45989418786E+01  0.15021884402E+02  0.45310440471E+01  0.16350462924E+02  0.51100000000E-03 0.  1.
        -12    1    3    3    0    0 -0.91954268646E+00  0.11788897888E+01 -0.17162782236E+00  0.15049239169E+01  0.00000000000E+00 0.  1.
</event>
<event>
 7    1  0.2700100E-010  0.4778726E+02  0.7816164E-02  0.1312668E+00
        -11   -1    0    0    0    0  0.00000000000E+00  0.00000000000E+00  0.45593999997E+02  0.45594000000E+02  0.51100000000E-03 0. -1.
         11   -1    0    0    0    0 -0.00000000000E+00 -0.00000000000E+00 -0.45593999997E+02  0.45594000000E+02  0.51100000000E-03 0.  1.
    9900012    2    1    2    0    0 -0.36556718154E+02 -0.20866782715E+02 -0.10573932577E+02  0.47787259071E+02  0.19999945407E+02 0.  0.
        -12    1    1    2    0    0  0.36556718154E+02  0.20866782715E+02  0.10573932577E+02  0.43400740929E+02  0.00000000000E+00 0.  1.
         11    1    3    3    0    0 -0.15420498968E+02 -0.17206319314E+02 -0.16987625496E+01  0.23167542105E+02  0.51100000000E-03 0. -1.
        -11    1    3    3    0    0 -0.33709720738E+01  0.19305686452E+01  0.22480986673E+00  0.38911550668E+01  0.51100000000E-03 0.  1.
         12    1    3    3    0    0 -0.17765247113E+02 -0.55910320464E+01 -0.90999798937E+01  0.20728561899E+02  0.00000000000E+00 0. -1.
</event>
<event>
 7    1  0.2700100E-010  0.4778727E+02  0.7816164E-02  0.1312668E+00
        -11   -1    0    0    0    0  0.00000000000E+00  0.00000000000E+00  0.45593999997E+02  0.45594000000E+02  0.51100000000E-03 0. -1.
         11   -1    0    0    0    0 -0.00000000000E+00 -0.00000000000E+00 -0.45593999997E+02  0.45594000000E+02  0.51100000000E-03 0.  1.
    9900012    2    1    2    0    0  0.50978874540E+01 -0.20559202647E+02  0.37880790003E+02  0.47787268194E+02  0.19999987006E+02 0.  0.
        -12    1    1    2    0    0 -0.50978874540E+01  0.20559202647E+02 -0.37880790003E+02  0.43400731806E+02  0.00000000000E+00 0.  1.
         11    1    3    3    0    0 -0.17048142255E+01 -0.15222007171E+02  0.27140999474E+02  0.31164880018E+02  0.51100000000E-03 0. -1.
        -11    1    3    3    0    0  0.19305642044E+01  0.11824689677E+01 -0.88568910817E+00  0.24309990671E+01  0.51100000000E-03 0.  1.
         12    1    3    3    0    0  0.48721374750E+01 -0.65196644433E+01  0.11625479638E+02  0.14191389109E+02  0.00000000000E+00 0. -1.
</event>
<event>
 7    1  0.2700100E-010  0.4778727E+02  0.7816164E-02  0.1312668E+00
        -11   -1    0    0    0    0  0.00000000000E+00  0.00000000000E+00  0.45593999997E+02  0.45594000000E+02  0.51100000000E-03 0. -1.
         11   -1    0    0    0    0 -0.00000000000E+00 -0.00000000000E+00 -0.45593999997E+02  0.45594000000E+02  0.51100000000E-03 0.  1.
    9900012    2    1    2    0    0 -0.61771873600E+01  0.41788538745E+02  0.99590988903E+01  0.47787271148E+02  0.20000000474E+02 0.  0.
        -12    1    1    2    0    0  0.61771873600E+01 -0.41788538745E+02 -0.99590988903E+01  0.43400728852E+02  0.00000000000E+00 0.  1.
         11    1    3    3    0    0 -0.62182285221E+01  0.21014314957E+02 -0.84719195407E+00  0.21931382390E+02  0.51100000000E-03 0. -1.
        -11    1    3    3    0    0  0.31753742011E+01  0.15054756557E+02  0.11623349782E+02  0.19282918781E+02  0.51100000000E-03 0.  1.
        -12    1    3    3    0    0 -0.31343330390E+01  0.57194672312E+01 -0.81705893806E+00  0.65729699768E+01  0.00000000000E+00 0.  1.
</event>
<event>
 7    1  0.2700100E-010  0.4778728E+02  0.7816164E-02  0.1312668E+00
        -11   -1    0    0    0    0  0.00000000000E+00  0.00000000000E+00  0.45593999997E+02  0.45594000000E+02  0.51100000000E-03 0.  1.
         11   -1    0    0    0    0 -0.00000000000E+00 -0.00000000000E+00 -0.45593999997E+02  0.45594000000E+02  0.51100000000E-03 0. -1.
    9900012    2    1    2    0    0  0.29486835659E+02  0.91868458578E+01 -0.30491818531E+02  0.47787278677E+02  0.20000034801E+02 0.  0.
        -12    1    1    2    0    0 -0.29486835659E+02 -0.91868458578E+01  0.30491818531E+02  0.43400721323E+02  0.00000000000E+00 0.  1.
         11    1    3    3    0    0  0.23915753661E+02  0.77025233643E+01 -0.29470917311E+02  0.38727601355E+02  0.51100000000E-03 0. -1.
        -11    1    3    3    0    0 -0.98541760961E+00 -0.14853507850E+01 -0.45573438392E+00  0.18398393706E+01  0.51100000000E-03 0.  1.
         12    1    3    3    0    0  0.65564996083E+01  0.29696732785E+01 -0.56516683664E+00  0.72198379516E+01  0.00000000000E+00 0. -1.
</event>
<event>
 7    1  0.2700100E-010  0.4778727E+02  0.7816164E-02  0.1312668E+00
        -11   -1    0    0    0    0  0.00000000000E+00  0.00000000000E+00  0.45593999997E+02  0.45594000000E+02  0.51100000000E-03 0.  1.
         11   -1    0    0    0    0 -0.00000000000E+00 -0.00000000000E+00 -0.45593999997E+02  0.45594000000E+02  0.51100000000E-03 0. -1.
    9900012    2    1    2    0    0  0.28403147113E+02 -0.31598116882E+02 -0.88568439510E+01  0.47787269117E+02  0.19999991214E+02 0.  0.
        -12    1    1    2    0    0 -0.28403147113E+02  0.31598116882E+02  0.88568439510E+01  0.43400730883E+02  0.00000000000E+00 0.  1.
         11    1    3    3    0    0  0.67131327404E+01  0.40799542426E+00 -0.36170706489E+01  0.76364790183E+01  0.51100000000E-03 0.  1.
        -11    1    3    3    0    0  0.19688816352E+02 -0.22247021907E+02 -0.24699217073E+01  0.29810736096E+02  0.51100000000E-03 0. -1.
         12    1    3    3    0    0  0.20011980199E+01 -0.97590903992E+01 -0.27698515947E+01  0.10340054003E+02  0.00000000000E+00 0. -1.
</event>
<event>
 7    1  0.2700100E-010  0.4778727E+02  0.7816164E-02  0.1312668E+00
        -11   -1    0    0    0    0  0.00000000000E+00  0.00000000000E+00  0.45593999997E+02  0.45594000000E+02  0.51100000000E-03 0.  1.
         11   -1    0    0    0    0 -0.00000000000E+00 -0.00000000000E+00 -0.45593999997E+02  0.45594000000E+02  0.51100000000E-03 0. -1.
    9900012    2    1    2    0    0 -0.24338944140E+02  0.26791255896E+02 -0.23947185701E+02  0.47787270774E+02  0.19999998767E+02 0.  0.
        -12    1    1    2    0    0  0.24338944140E+02 -0.26791255896E+02  0.23947185701E+02  0.43400729226E+02  0.00000000000E+00 0.  1.
         11    1    3    3    0    0 -0.16943592294E+01 -0.21971774335E+01 -0.30063357598E+01  0.40910263791E+01  0.51100000000E-03 0. -1.
        -11    1    3    3    0    0 -0.10510671890E+02  0.18458472343E+02 -0.68269966023E+01  0.22311371713E+02  0.51100000000E-03 0.  1.
         12    1    3    3    0    0 -0.12133913020E+02  0.10529960986E+02 -0.14113853339E+02  0.21384872682E+02  0.00000000000E+00 0. -1.
</event>
<event>
 7    1  0.2700100E-010  0.4778727E+02  0.7816164E-02  0.1312668E+00
        -11   -1    0    0    0    0  0.00000000000E+00  0.00000000000E+00  0.45593999997E+02  0.45594000000E+02  0.51100000000E-03 0.  1.
         11   -1    0    0    0    0 -0.00000000000E+00 -0.00000000000E+00 -0.45593999997E+02  0.45594000000E+02  0.51100000000E-03 0. -1.
    9900012    2    1    2    0    0  0.27914570732E+02 -0.27194419733E+02 -0.19101395908E+02  0.47787273631E+02  0.20000011792E+02 0.  0.
        -12    1    1    2    0    0 -0.27914570732E+02  0.27194419733E+02  0.19101395908E+02  0.43400726369E+02  0.00000000000E+00 0.  1.
         11    1    3    3    0    0  0.20330296326E+00 -0.73851274879E+01 -0.42647086012E+01  0.85304853216E+01  0.51100000000E-03 0. -1.
        -11    1    3    3    0    0  0.22618134293E+02 -0.18779297267E+02 -0.76297918803E+01  0.30371956294E+02  0.51100000000E-03 0.  1.
        -12    1    3    3    0    0  0.50931334753E+01 -0.10299949787E+01 -0.72068954260E+01  0.88848320150E+01  0.00000000000E+00 0.  1.
</event>
<event>
 7    1  0.2700100E-010  0.4778727E+02  0.7816164E-02  0.1312668E+00
        -11   -1    0    0    0    0  0.00000000000E+00  0.00000000000E+00  0.45593999997E+02  0.45594000000E+02  0.51100000000E-03 0.  1.
         11   -1    0    0    0    0 -0.00000000000E+00 -0.00000000000E+00 -0.45593999997E+02  0.45594000000E+02  0.51100000000E-03 0. -1.
    9900012    2    1    2    0    0  0.30472783759E+02 -0.35029468305E+01 -0.30704428843E+02  0.47787272621E+02  0.20000007186E+02 0.  0.
        -12    1    1    2    0    0 -0.30472783759E+02  0.35029468305E+01  0.30704428843E+02  0.43400727379E+02  0.00000000000E+00 0.  1.
         11    1    3    3    0    0  0.74166978795E+00  0.99803263688E+00 -0.23538866085E+00  0.12655241212E+01  0.51100000000E-03 0. -1.
        -11    1    3    3    0    0  0.98898263988E+01  0.23300709913E+01 -0.81390555385E+00  0.10193151600E+02  0.51100000000E-03 0.  1.
        -12    1    3    3    0    0  0.19841287572E+02 -0.68310504586E+01 -0.29655134628E+02  0.36328596900E+02  0.00000000000E+00 0.  1.
</event>
<event>
 7    1  0.2700100E-010  0.4778727E+02  0.7816164E-02  0.1312668E+00
        -11   -1    0    0    0    0  0.00000000000E+00  0.00000000000E+00  0.45593999997E+02  0.45594000000E+02  0.51100000000E-03 0.  1.
         11   -1    0    0    0    0 -0.00000000000E+00 -0.00000000000E+00 -0.45593999997E+02  0.45594000000E+02  0.51100000000E-03 0. -1.
    9900012    2    1    2    0    0 -0.14671035183E+02 -0.71658109832E+01 -0.40212373648E+02  0.47787272877E+02  0.20000008356E+02 0.  0.
        -12    1    1    2    0    0  0.14671035183E+02  0.71658109832E+01  0.40212373648E+02  0.43400727123E+02  0.00000000000E+00 0.  1.
         11    1    3    3    0    0  0.64185395045E-01 -0.52260597750E+01 -0.24669633624E+02  0.25217189454E+02  0.51100000000E-03 0. -1.
        -11    1    3    3    0    0 -0.43992167307E+01 -0.12105814500E+01 -0.93010771089E+00  0.46565777032E+01  0.51100000000E-03 0.  1.
         12    1    3    3    0    0 -0.10336003848E+02 -0.72916975811E+00 -0.14612632313E+02  0.17913505720E+02  0.00000000000E+00 0. -1.
</event>
<event>
 7    1  0.2700100E-010  0.4778727E+02  0.7816164E-02  0.1312668E+00
        -11   -1    0    0    0    0  0.00000000000E+00  0.00000000000E+00  0.45593999997E+02  0.45594000000E+02  0.51100000000E-03 0. -1.
         11   -1    0    0    0    0 -0.00000000000E+00 -0.00000000000E+00 -0.45593999997E+02  0.45594000000E+02  0.51100000000E-03 0.  1.
    9900012    2    1    2    0    0  0.42478487357E+02  0.51885985591E+01  0.72305119025E+01  0.47787265610E+02  0.19999975224E+02 0.  0.
        -12    1    1    2    0    0 -0.42478487357E+02 -0.51885985591E+01 -0.72305119025E+01  0.43400734390E+02  0.00000000000E+00 0.  1.
         11    1    3    3    0    0  0.24054662562E+02  0.11813816798E+01 -0.12561736188E+01  0.24116393305E+02  0.51100000000E-03 0.  1.
        -11    1    3    3    0    0  0.21068766919E+01 -0.12174346036E+01 -0.23626416649E+01  0.33916297419E+01  0.51100000000E-03 0. -1.
         12    1    3    3    0    0  0.16316948104E+02  0.52246514829E+01  0.10849327186E+02  0.20279242563E+02  0.00000000000E+00 0. -1.
</event>
<event>
 7    1  0.2700100E-010  0.4778727E+02  0.7816164E-02  0.1312668E+00
        -11   -1    0    0    0    0  0.00000000000E+00  0.00000000000E+00  0.45593999997E+02  0.45594000000E+02  0.51100000000E-03 0.  1.
         11   -1    0    0    0    0 -0.00000000000E+00 -0.00000000000E+00 -0.45593999997E+02  0.45594000000E+02  0.51100000000E-03 0. -1.
    9900012    2    1    2    0    0  0.17909239139E+02  0.96613236993E+01 -0.38334596243E+02  0.47787270844E+02  0.19999999085E+02 0.  0.
        -12    1    1    2    0    0 -0.17909239139E+02 -0.96613236993E+01  0.38334596243E+02  0.43400729156E+02  0.00000000000E+00 0.  1.
         11    1    3    3    0    0  0.64302361636E+01  0.12121006266E+02 -0.16220044431E+02  0.21245154074E+02  0.51100000000E-03 0. -1.
        -11    1    3    3    0    0  0.12690311294E+02 -0.11873265095E+01 -0.20591800268E+02  0.24217266227E+02  0.51100000000E-03 0.  1.
         12    1    3    3    0    0 -0.12113083188E+01 -0.12723560573E+01 -0.15227515449E+01  0.23248505430E+01  0.00000000000E+00 0. -1.
</event>
<event>
 7    1  0.2700100E-010  0.4778728E+02  0.7816164E-02  0.1312668E+00
        -11   -1    0    0    0    0  0.00000000000E+00  0.00000000000E+00  0.45593999997E+02  0.45594000000E+02  0.51100000000E-03 0. -1.
         11   -1    0    0    0    0 -0.00000000000E+00 -0.00000000000E+00 -0.45593999997E+02  0.45594000000E+02  0.51100000000E-03 0.  1.
    9900012    2    1    2    0    0  0.34114225490E+02  0.20874562670E+02  0.16855118246E+02  0.47787276981E+02  0.20000027068E+02 0.  0.
        -12    1    1    2    0    0 -0.34114225490E+02 -0.20874562670E+02 -0.16855118246E+02  0.43400723019E+02  0.00000000000E+00 0.  1.
         11    1    3    3    0    0  0.59644475021E+01  0.51893926758E+01 -0.34265725463E+01  0.86166019999E+01  0.51100000000E-03 0. -1.
        -11    1    3    3    0    0  0.14406481747E+02  0.71397650041E+01  0.48129819788E+01  0.16783556132E+02  0.51100000000E-03 0.  1.
         12    1    3    3    0    0  0.13743296241E+02  0.85454049898E+01  0.15468708814E+02  0.22387118849E+02  0.00000000000E+00 0. -1.
</event>
<event>
 7    1  0.2700100E-010  0.4778727E+02  0.7816164E-02  0.1312668E+00
        -11   -1    0    0    0    0  0.00000000000E+00  0.00000000000E+00  0.45593999997E+02  0.45594000000E+02  0.51100000000E-03 0.  1.
         11   -1    0    0    0    0 -0.00000000000E+00 -0.00000000000E+00 -0.45593999997E+02  0.45594000000E+02  0.51100000000E-03 0. -1.
    9900012    2    1    2    0    0  0.38073797841E+02  0.20704334685E+02  0.23108592500E+01  0.47787266974E+02  0.19999981440E+02 0.  0.
        -12    1    1    2    0    0 -0.38073797841E+02 -0.20704334685E+02 -0.23108592500E+01  0.43400733026E+02  0.00000000000E+00 0.  1.
         11    1    3    3    0    0  0.32735286957E+01 -0.32354768145E+01  0.11728218647E+01  0.47497170154E+01  0.51100000000E-03 0.  1.
        -11    1    3    3    0    0  0.28958721945E+02  0.19616467439E+02  0.40447598276E+01  0.35210416836E+02  0.51100000000E-03 0. -1.
         12    1    3    3    0    0  0.58415472000E+01  0.43233440603E+01 -0.29067224424E+01  0.78271331221E+01  0.00000000000E+00 0. -1.
</event>
<event>
 7    1  0.2700100E-010  0.4778727E+02  0.7816164E-02  0.1312668E+00
        -11   -1    0    0    0    0  0.00000000000E+00  0.00000000000E+00  0.45593999997E+02  0.45594000000E+02  0.51100000000E-03 0.  1.
         11   -1    0    0    0    0 -0.00000000000E+00 -0.00000000000E+00 -0.45593999997E+02  0.45594000000E+02  0.51100000000E-03 0. -1.
    9900012    2    1    2    0    0 -0.99261658501E+01 -0.28577769360E+02 -0.31119215759E+02  0.47787271210E+02  0.20000000755E+02 0.  0.
        -12    1    1    2    0    0  0.99261658501E+01  0.28577769360E+02  0.31119215759E+02  0.43400728790E+02  0.00000000000E+00 0.  1.
         11    1    3    3    0    0  0.42826985345E+00 -0.96576949035E+01 -0.13912581233E+02  0.16941499424E+02  0.51100000000E-03 0. -1.
        -11    1    3    3    0    0 -0.63478221901E+01 -0.91907699989E+01 -0.59946541513E+00  0.11185904468E+02  0.51100000000E-03 0.  1.
        -12    1    3    3    0    0 -0.40066135135E+01 -0.97293044572E+01 -0.16607169111E+02  0.19659867317E+02  0.00000000000E+00 0.  1.
</event>
<event>
 7    1  0.2700100E-010  0.4778727E+02  0.7816164E-02  0.1312668E+00
        -11   -1    0    0    0    0  0.00000000000E+00  0.00000000000E+00  0.45593999997E+02  0.45594000000E+02  0.51100000000E-03 0. -1.
         11   -1    0    0    0    0 -0.00000000000E+00 -0.00000000000E+00 -0.45593999997E+02  0.45594000000E+02  0.51100000000E-03 0.  1.
    9900012    2    1    2    0    0  0.13762397770E+02  0.35959485876E+02  0.20028360812E+02  0.47787268974E+02  0.19999990558E+02 0.  0.
        -12    1    1    2    0    0 -0.13762397770E+02 -0.35959485876E+02 -0.20028360812E+02  0.43400731026E+02  0.00000000000E+00 0.  1.
         11    1    3    3    0    0  0.33500424413E+01  0.94090084634E+01 -0.33967056761E+00  0.99933778563E+01  0.51100000000E-03 0. -1.
        -11    1    3    3    0    0 -0.20068645268E+00  0.16514316835E+02  0.14751847159E+02  0.22144523712E+02  0.51100000000E-03 0.  1.
        -12    1    3    3    0    0  0.10613041781E+02  0.10036160577E+02  0.56161842203E+01  0.15649367405E+02  0.00000000000E+00 0.  1.
</event>
<event>
 7    1  0.2700100E-010  0.4778727E+02  0.7816164E-02  0.1312668E+00
        -11   -1    0    0    0    0  0.00000000000E+00  0.00000000000E+00  0.45593999997E+02  0.45594000000E+02  0.51100000000E-03 0. -1.
         11   -1    0    0    0    0 -0.00000000000E+00 -0.00000000000E+00 -0.45593999997E+02  0.45594000000E+02  0.51100000000E-03 0.  1.
    9900012    2    1    2    0    0  0.22124642257E+02  0.36595351025E+02  0.74097111075E+01  0.47787270394E+02  0.19999997035E+02 0.  0.
        -12    1    1    2    0    0 -0.22124642257E+02 -0.36595351025E+02 -0.74097111075E+01  0.43400729606E+02  0.00000000000E+00 0.  1.
         11    1    3    3    0    0  0.16735406195E+01  0.35604413077E+01  0.19253510880E+01  0.43800065735E+01  0.51100000000E-03 0. -1.
        -11    1    3    3    0    0  0.18981169953E+02  0.34667767701E+02  0.77221837245E+01  0.40271218654E+02  0.51100000000E-03 0.  1.
        -12    1    3    3    0    0  0.14699316836E+01 -0.16328579836E+01 -0.22378237050E+01  0.31360451661E+01  0.00000000000E+00 0.  1.
</event>
<event>
 7    1  0.2700100E-010  0.4778728E+02  0.7816164E-02  0.1312668E+00
        -11   -1    0    0    0    0  0.00000000000E+00  0.00000000000E+00  0.45593999997E+02  0.45594000000E+02  0.51100000000E-03 0.  1.
         11   -1    0    0    0    0 -0.00000000000E+00 -0.00000000000E+00 -0.45593999997E+02  0.45594000000E+02  0.51100000000E-03 0. -1.
    9900012    2    1    2    0    0 -0.49575051655E+01 -0.41385220143E+02 -0.12095818416E+02  0.47787284258E+02  0.20000060247E+02 0.  0.
        -12    1    1    2    0    0  0.49575051655E+01  0.41385220143E+02  0.12095818416E+02  0.43400715742E+02  0.00000000000E+00 0.  1.
         11    1    3    3    0    0  0.11327111886E+01 -0.21343961136E+02 -0.55188039581E+01  0.22074983783E+02  0.51100000000E-03 0. -1.
        -11    1    3    3    0    0  0.23181886901E+00  0.13171769340E+01  0.15082687653E+01  0.20158298522E+01  0.51100000000E-03 0.  1.
        -12    1    3    3    0    0 -0.63220352231E+01 -0.21358435941E+02 -0.80852832236E+01  0.23696470623E+02  0.00000000000E+00 0.  1.
</event>
<event>
 7    1  0.2700100E-010  0.4778727E+02  0.7816164E-02  0.1312668E+00
        -11   -1    0    0    0    0  0.00000000000E+00  0.00000000000E+00  0.45593999997E+02  0.45594000000E+02  0.51100000000E-03 0.  1.
         11   -1    0    0    0    0 -0.00000000000E+00 -0.00000000000E+00 -0.45593999997E+02  0.45594000000E+02  0.51100000000E-03 0. -1.
    9900012    2    1    2    0    0 -0.67519043604E+01 -0.42951174700E+01 -0.42656617697E+02  0.47787270974E+02  0.19999999681E+02 0.  0.
        -12    1    1    2    0    0  0.67519043604E+01  0.42951174700E+01  0.42656617697E+02  0.43400729026E+02  0.00000000000E+00 0.  1.
         11    1    3    3    0    0  0.39694310268E+01  0.16307789223E+01 -0.25670847802E+02  0.26027067635E+02  0.51100000000E-03 0. -1.
        -11    1    3    3    0    0 -0.39177931878E+01 -0.19176157050E+01 -0.19519822695E+01  0.47787643273E+01  0.51100000000E-03 0.  1.
         12    1    3    3    0    0 -0.68035421994E+01 -0.40082806873E+01 -0.15033787626E+02  0.16981439012E+02  0.00000000000E+00 0. -1.
</event>
<event>
 7    1  0.2700100E-010  0.4778727E+02  0.7816164E-02  0.1312668E+00
        -11   -1    0    0    0    0  0.00000000000E+00  0.00000000000E+00  0.45593999997E+02  0.45594000000E+02  0.51100000000E-03 0. -1.
         11   -1    0    0    0    0 -0.00000000000E+00 -0.00000000000E+00 -0.45593999997E+02  0.45594000000E+02  0.51100000000E-03 0.  1.
    9900012    2    1    2    0    0 -0.39136409124E+02 -0.18460496193E+02 -0.33429155012E+01  0.47787268176E+02  0.19999986921E+02 0.  0.
        -12    1    1    2    0    0  0.39136409124E+02  0.18460496193E+02  0.33429155012E+01  0.43400731824E+02  0.00000000000E+00 0.  1.
         11    1    3    3    0    0 -0.29584568295E+02 -0.79891584799E+01 -0.34759809009E+01  0.30840813509E+02  0.51100000000E-03 0. -1.
        -11    1    3    3    0    0 -0.13724285847E+01 -0.29552887198E+01  0.40227536186E+01  0.51768560512E+01  0.51100000000E-03 0.  1.
        -12    1    3    3    0    0 -0.81794122451E+01 -0.75160489929E+01 -0.38896882189E+01  0.11769598616E+02  0.00000000000E+00 0.  1.
</event>
<event>
 7    1  0.2700100E-010  0.4778727E+02  0.7816164E-02  0.1312668E+00
        -11   -1    0    0    0    0  0.00000000000E+00  0.00000000000E+00  0.45593999997E+02  0.45594000000E+02  0.51100000000E-03 0.  1.
         11   -1    0    0    0    0 -0.00000000000E+00 -0.00000000000E+00 -0.45593999997E+02  0.45594000000E+02  0.51100000000E-03 0. -1.
    9900012    2    1    2    0    0 -0.18599752976E+02 -0.25345437892E+02 -0.29921251451E+02  0.47787270500E+02  0.19999997519E+02 0.  0.
        -12    1    1    2    0    0  0.18599752976E+02  0.25345437892E+02  0.29921251451E+02  0.43400729500E+02  0.00000000000E+00 0.  1.
         11    1    3    3    0    0 -0.12178280797E+02 -0.17005216648E+02 -0.25829699840E+02  0.33236445515E+02  0.51100000000E-03 0. -1.
        -11    1    3    3    0    0  0.17535272090E+01  0.45214724305E+00 -0.12878118688E+01  0.22221058644E+01  0.51100000000E-03 0.  1.
         12    1    3    3    0    0 -0.81749993883E+01 -0.87923684872E+01 -0.28037397426E+01  0.12328719121E+02  0.00000000000E+00 0. -1.
</event>
<event>
 7    1  0.2700100E-010  0.4778727E+02  0.7816164E-02  0.1312668E+00
        -11   -1    0    0    0    0  0.00000000000E+00  0.00000000000E+00  0.45593999997E+02  0.45594000000E+02  0.51100000000E-03 0.  1.
         11   -1    0    0    0    0 -0.00000000000E+00 -0.00000000000E+00 -0.45593999997E+02  0.45594000000E+02  0.51100000000E-03 0. -1.
    9900012    2    1    2    0    0 -0.20127619797E+02 -0.60617079445E+01 -0.37970490213E+02  0.47787268337E+02  0.19999987656E+02 0.  0.
        -12    1    1    2    0    0  0.20127619797E+02  0.60617079445E+01  0.37970490213E+02  0.43400731663E+02  0.00000000000E+00 0.  1.
         11    1    3    3    0    0 -0.60948827794E+01 -0.10748681297E+02 -0.12796072886E+02  0.17788232832E+02  0.51100000000E-03 0. -1.
        -11    1    3    3    0    0 -0.61998105426E+01  0.56609171981E+01 -0.13830729454E+02  0.16179391576E+02  0.51100000000E-03 0.  1.
         12    1    3    3    0    0 -0.78329264747E+01 -0.97394384581E+00 -0.11343687873E+02  0.13819643929E+02  0.00000000000E+00 0. -1.
</event>
<event>
 7    1  0.2700100E-010  0.4778727E+02  0.7816164E-02  0.1312668E+00
        -11   -1    0    0    0    0  0.00000000000E+00  0.00000000000E+00  0.45593999997E+02  0.45594000000E+02  0.51100000000E-03 0.  1.
         11   -1    0    0    0    0 -0.00000000000E+00 -0.00000000000E+00 -0.45593999997E+02  0.45594000000E+02  0.51100000000E-03 0. -1.
    9900012    2    1    2    0    0  0.12994192030E+02  0.38118150041E+02 -0.16179643338E+02  0.47787271347E+02  0.20000001380E+02 0.  0.
        -12    1    1    2    0    0 -0.12994192030E+02 -0.38118150041E+02  0.16179643338E+02  0.43400728653E+02  0.00000000000E+00 0.  1.
         11    1    3    3    0    0  0.12607807718E+02  0.38400500809E+02 -0.12987749397E+02  0.42452760953E+02  0.51100000000E-03 0. -1.
        -11    1    3    3    0    0 -0.14248860687E+01 -0.14359934630E+01 -0.96664645373E+00  0.22420488759E+01  0.51100000000E-03 0.  1.
         12    1    3    3    0    0  0.18112703809E+01  0.11536426942E+01 -0.22252474880E+01  0.30924615182E+01  0.00000000000E+00 0. -1.
</event>
<event>
 7    1  0.2700100E-010  0.4778729E+02  0.7816164E-02  0.1312668E+00
        -11   -1    0    0    0    0  0.00000000000E+00  0.00000000000E+00  0.45593999997E+02  0.45594000000E+02  0.51100000000E-03 0.  1.
         11   -1    0    0    0    0 -0.00000000000E+00 -0.00000000000E+00 -0.45593999997E+02  0.45594000000E+02  0.51100000000E-03 0. -1.
    9900012    2    1    2    0    0 -0.12572170083E+02  0.26995997244E+02 -0.31571793228E+02  0.47787291994E+02  0.20000095519E+02 0.  0.
        -12    1    1    2    0    0  0.12572170083E+02 -0.26995997244E+02  0.31571793228E+02  0.43400708006E+02  0.00000000000E+00 0.  1.
         11    1    3    3    0    0 -0.99632648144E+00  0.14272468343E+02 -0.99379056463E+01  0.17420045579E+02  0.51100000000E-03 0. -1.
        -11    1    3    3    0    0 -0.14107873252E+02  0.12097189953E+02 -0.19937470493E+02  0.27255766773E+02  0.51100000000E-03 0.  1.
        -12    1    3    3    0    0  0.25320296506E+01  0.62633894762E+00 -0.16964170881E+01  0.31114796425E+01  0.00000000000E+00 0.  1.
</event>
<event>
 7    1  0.2700100E-010  0.4778727E+02  0.7816164E-02  0.1312668E+00
        -11   -1    0    0    0    0  0.00000000000E+00  0.00000000000E+00  0.45593999997E+02  0.45594000000E+02  0.51100000000E-03 0. -1.
         11   -1    0    0    0    0 -0.00000000000E+00 -0.00000000000E+00 -0.45593999997E+02  0.45594000000E+02  0.51100000000E-03 0.  1.
    9900012    2    1    2    0    0 -0.30248131354E+02  0.11594477531E+02  0.28883246794E+02  0.47787270686E+02  0.19999998367E+02 0.  0.
        -12    1    1    2    0    0  0.30248131354E+02 -0.11594477531E+02 -0.28883246794E+02  0.43400729314E+02  0.00000000000E+00 0.  1.
         11    1    3    3    0    0 -0.87796253030E+01  0.26041136885E+01 -0.10816891403E+01  0.92213491540E+01  0.51100000000E-03 0. -1.
        -11    1    3    3    0    0 -0.16825985923E+02  0.43137959184E+01  0.24337214935E+02  0.29900211848E+02  0.51100000000E-03 0.  1.
         12    1    3    3    0    0 -0.46425201275E+01  0.46765679237E+01  0.56277209991E+01  0.86657096838E+01  0.00000000000E+00 0. -1.
</event>
<event>
 7    1  0.2700100E-010  0.4778727E+02  0.7816164E-02  0.1312668E+00
        -11   -1    0    0    0    0  0.00000000000E+00  0.00000000000E+00  0.45593999997E+02  0.45594000000E+02  0.51100000000E-03 0.  1.
         11   -1    0    0    0    0 -0.00000000000E+00 -0.00000000000E+00 -0.45593999997E+02  0.45594000000E+02  0.51100000000E-03 0. -1.
    9900012    2    1    2    0    0  0.33093118793E+01 -0.11877394925E+02 -0.41612493317E+02  0.47787266650E+02  0.19999979963E+02 0.  0.
        -12    1    1    2    0    0 -0.33093118793E+01  0.11877394925E+02  0.41612493317E+02  0.43400733350E+02  0.00000000000E+00 0.  1.
         11    1    3    3    0    0 -0.20922586124E+01 -0.13538603970E+02 -0.18723042069E+02  0.23199647587E+02  0.51100000000E-03 0. -1.
        -11    1    3    3    0    0  0.12667642916E+01  0.38015305412E+01 -0.74217981906E+01  0.84344184666E+01  0.51100000000E-03 0.  1.
        -12    1    3    3    0    0  0.41348062001E+01 -0.21403214955E+01 -0.15467653057E+02  0.16153200597E+02  0.00000000000E+00 0.  1.
</event>
<event>
 7    1  0.2700100E-010  0.4778728E+02  0.7816164E-02  0.1312668E+00
        -11   -1    0    0    0    0  0.00000000000E+00  0.00000000000E+00  0.45593999997E+02  0.45594000000E+02  0.51100000000E-03 0. -1.
         11   -1    0    0    0    0 -0.00000000000E+00 -0.00000000000E+00 -0.45593999997E+02  0.45594000000E+02  0.51100000000E-03 0.  1.
    9900012    2    1    2    0    0  0.43246162947E+02  0.26886316101E+01 -0.24825812285E+01  0.47787279278E+02  0.20000037542E+02 0.  0.
        -12    1    1    2    0    0 -0.43246162947E+02 -0.26886316101E+01  0.24825812285E+01  0.43400720722E+02  0.00000000000E+00 0.  1.
         11    1    3    3    0    0  0.18527003707E+02  0.30163889262E+01  0.12984699221E+01  0.18815804339E+02  0.51100000000E-03 0. -1.
        -11    1    3    3    0    0  0.16981148449E+00 -0.32993431082E+01  0.15899099278E+01  0.36663762389E+01  0.51100000000E-03 0.  1.
        -12    1    3    3    0    0  0.24549347756E+02  0.29715857921E+01 -0.53709610784E+01  0.25305098701E+02  0.00000000000E+00 0.  1.
</event>
<event>
 7    1  0.2700100E-010  0.4778727E+02  0.7816164E-02  0.1312668E+00
        -11   -1    0    0    0    0  0.00000000000E+00  0.00000000000E+00  0.45593999997E+02  0.45594000000E+02  0.51100000000E-03 0.  1.
         11   -1    0    0    0    0 -0.00000000000E+00 -0.00000000000E+00 -0.45593999997E+02  0.45594000000E+02  0.51100000000E-03 0. -1.
    9900012    2    1    2    0    0 -0.10290633409E+02 -0.33577318859E+02 -0.25500782323E+02  0.47787269859E+02  0.19999994593E+02 0.  0.
        -12    1    1    2    0    0  0.10290633409E+02  0.33577318859E+02  0.25500782323E+02  0.43400730141E+02  0.00000000000E+00 0.  1.
         11    1    3    3    0    0 -0.55720967882E+01 -0.16198619963E+02 -0.16733676444E+02  0.23947013988E+02  0.51100000000E-03 0. -1.
        -11    1    3    3    0    0  0.45134827098E+00  0.18242336349E+01  0.43313000115E+00  0.19285086143E+01  0.51100000000E-03 0.  1.
        -12    1    3    3    0    0 -0.51698848918E+01 -0.19202932531E+02 -0.92002358795E+01  0.21911747257E+02  0.00000000000E+00 0.  1.
</event>
<event>
 7    1  0.2700100E-010  0.4778730E+02  0.7816164E-02  0.1312668E+00
        -11   -1    0    0    0    0  0.00000000000E+00  0.00000000000E+00  0.45593999997E+02  0.45594000000E+02  0.51100000000E-03 0. -1.
         11   -1    0    0    0    0 -0.00000000000E+00 -0.00000000000E+00 -0.45593999997E+02  0.45594000000E+02  0.51100000000E-03 0.  1.
    9900012    2    1    2    0    0 -0.10804624275E+02  0.26889288265E+02  0.32308621072E+02  0.47787300412E+02  0.20000133897E+02 0.  0.
        -12    1    1    2    0    0  0.10804624275E+02 -0.26889288265E+02 -0.32308621072E+02  0.43400699588E+02  0.00000000000E+00 0.  1.
         11    1    3    3    0    0  0.14207220419E+01  0.95761285058E+01  0.63592916696E+01  0.11582801003E+02  0.51100000000E-03 0. -1.
        -11    1    3    3    0    0 -0.11286994999E+02  0.42270064106E+01  0.13815726516E+02  0.18334070435E+02  0.51100000000E-03 0.  1.
        -12    1    3    3    0    0 -0.93835131767E+00  0.13086153349E+02  0.12133602887E+02  0.17870428973E+02  0.00000000000E+00 0.  1.
</event>
<event>
 7    1  0.2700100E-010  0.4778727E+02  0.7816164E-02  0.1312668E+00
        -11   -1    0    0    0    0  0.00000000000E+00  0.00000000000E+00  0.45593999997E+02  0.45594000000E+02  0.51100000000E-03 0.  1.
         11   -1    0    0    0    0 -0.00000000000E+00 -0.00000000000E+00 -0.45593999997E+02  0.45594000000E+02  0.51100000000E-03 0. -1.
    9900012    2    1    2    0    0  0.87279778146E+01  0.14613684560E+02 -0.39923500239E+02  0.47787271383E+02  0.20000001542E+02 0.  0.
        -12    1    1    2    0    0 -0.87279778146E+01 -0.14613684560E+02  0.39923500239E+02  0.43400728617E+02  0.00000000000E+00 0.  1.
         11    1    3    3    0    0 -0.49444429049E+01  0.44800352666E+01 -0.10943980541E+02  0.12817524799E+02  0.51100000000E-03 0. -1.
        -11    1    3    3    0    0  0.86788706491E+01  0.47530697270E+01 -0.24368633979E+02  0.26301041611E+02  0.51100000000E-03 0.  1.
         12    1    3    3    0    0  0.49935500703E+01  0.53805795668E+01 -0.46108857188E+01  0.86687049720E+01  0.00000000000E+00 0. -1.
</event>
<event>
 7    1  0.2700100E-010  0.4778731E+02  0.7816164E-02  0.1312668E+00
        -11   -1    0    0    0    0  0.00000000000E+00  0.00000000000E+00  0.45593999997E+02  0.45594000000E+02  0.51100000000E-03 0.  1.
         11   -1    0    0    0    0 -0.00000000000E+00 -0.00000000000E+00 -0.45593999997E+02  0.45594000000E+02  0.51100000000E-03 0. -1.
    9900012    2    1    2    0    0 -0.22481939197E+02 -0.10907185827E+02 -0.35485431792E+02  0.47787306893E+02  0.20000163447E+02 0.  0.
        -12    1    1    2    0    0  0.22481939197E+02  0.10907185827E+02  0.35485431792E+02  0.43400693107E+02  0.00000000000E+00 0.  1.
         11    1    3    3    0    0 -0.20842680720E+02 -0.11647660346E+02 -0.20039426607E+02  0.31171524668E+02  0.51100000000E-03 0. -1.
        -11    1    3    3    0    0 -0.33258675976E+01  0.11091451977E+01 -0.13771177744E+02  0.14210451613E+02  0.51100000000E-03 0.  1.
         12    1    3    3    0    0  0.16866091202E+01 -0.36867067839E+00 -0.16748274409E+01  0.24053306114E+01  0.00000000000E+00 0. -1.
</event>
<event>
 7    1  0.2700100E-010  0.4778725E+02  0.7816164E-02  0.1312668E+00
        -11   -1    0    0    0    0  0.00000000000E+00  0.00000000000E+00  0.45593999997E+02  0.45594000000E+02  0.51100000000E-03 0.  1.
         11   -1    0    0    0    0 -0.00000000000E+00 -0.00000000000E+00 -0.45593999997E+02  0.45594000000E+02  0.51100000000E-03 0. -1.
    9900012    2    1    2    0    0  0.88586087434E+01 -0.39849559027E+02 -0.14736434101E+02  0.47787253537E+02  0.19999920178E+02 0.  0.
        -12    1    1    2    0    0 -0.88586087434E+01  0.39849559027E+02  0.14736434101E+02  0.43400746463E+02  0.00000000000E+00 0.  1.
         11    1    3    3    0    0  0.82796320170E+01 -0.14102598246E+02 -0.12056980114E+02  0.20317636510E+02  0.51100000000E-03 0. -1.
        -11    1    3    3    0    0 -0.36611610438E+00 -0.13899912480E+02  0.31123055490E+01  0.14248791319E+02  0.51100000000E-03 0.  1.
         12    1    3    3    0    0  0.94509283073E+00 -0.11847048300E+02 -0.57917595360E+01  0.13220825709E+02  0.00000000000E+00 0. -1.
</event>
<event>
 7    1  0.2700100E-010  0.4778727E+02  0.7816164E-02  0.1312668E+00
        -11   -1    0    0    0    0  0.00000000000E+00  0.00000000000E+00  0.45593999997E+02  0.45594000000E+02  0.51100000000E-03 0.  1.
         11   -1    0    0    0    0 -0.00000000000E+00 -0.00000000000E+00 -0.45593999997E+02  0.45594000000E+02  0.51100000000E-03 0. -1.
    9900012    2    1    2    0    0  0.35677799146E+02 -0.98302774701E+01 -0.22673412540E+02  0.47787270245E+02  0.19999996356E+02 0.  0.
        -12    1    1    2    0    0 -0.35677799146E+02  0.98302774701E+01  0.22673412540E+02  0.43400729755E+02  0.00000000000E+00 0.  1.
         11    1    3    3    0    0  0.93290723004E+00  0.19238341312E+01 -0.56738788446E+01  0.60633616969E+01  0.51100000000E-03 0.  1.
        -11    1    3    3    0    0  0.29565724091E+02 -0.11681606472E+02 -0.10642697721E+02  0.33524006113E+02  0.51100000000E-03 0. -1.
         12    1    3    3    0    0  0.51791678248E+01 -0.72505129714E-01 -0.63568359740E+01  0.81999024355E+01  0.00000000000E+00 0. -1.
</event>
<event>
 7    1  0.2700100E-010  0.4778727E+02  0.7816164E-02  0.1312668E+00
        -11   -1    0    0    0    0  0.00000000000E+00  0.00000000000E+00  0.45593999997E+02  0.45594000000E+02  0.51100000000E-03 0.  1.
         11   -1    0    0    0    0 -0.00000000000E+00 -0.00000000000E+00 -0.45593999997E+02  0.45594000000E+02  0.51100000000E-03 0. -1.
    9900012    2    1    2    0    0 -0.23769946566E+02  0.29677441164E+02 -0.20925159371E+02  0.47787272258E+02  0.20000005534E+02 0.  0.
        -12    1    1    2    0    0  0.23769946566E+02 -0.29677441164E+02  0.20925159371E+02  0.43400727742E+02  0.00000000000E+00 0.  1.
         11    1    3    3    0    0 -0.22244881357E+01  0.85970285893E+01 -0.60901362089E+01  0.10767869210E+02  0.51100000000E-03 0. -1.
        -11    1    3    3    0    0 -0.16473364057E+02  0.52862050847E+01 -0.83187848622E+01  0.19196819252E+02  0.51100000000E-03 0.  1.
        -12    1    3    3    0    0 -0.50720943742E+01  0.15794207490E+02 -0.65162382998E+01  0.17822583796E+02  0.00000000000E+00 0.  1.
</event>
<event>
 7    1  0.2700100E-010  0.4778727E+02  0.7816164E-02  0.1312668E+00
        -11   -1    0    0    0    0  0.00000000000E+00  0.00000000000E+00  0.45593999997E+02  0.45594000000E+02  0.51100000000E-03 0. -1.
         11   -1    0    0    0    0 -0.00000000000E+00 -0.00000000000E+00 -0.45593999997E+02  0.45594000000E+02  0.51100000000E-03 0.  1.
    9900012    2    1    2    0    0  0.11570896282E+02 -0.25416469785E+02  0.33222591950E+02  0.47787271976E+02  0.20000004248E+02 0.  0.
        -12    1    1    2    0    0 -0.11570896282E+02  0.25416469785E+02 -0.33222591950E+02  0.43400728024E+02  0.00000000000E+00 0.  1.
         11    1    3    3    0    0  0.11437389462E+02 -0.23450557246E+02  0.29265426258E+02  0.39207240240E+02  0.51100000000E-03 0. -1.
        -11    1    3    3    0    0 -0.33769044458E+01  0.22347822531E+00  0.24451725553E+01  0.41752000239E+01  0.51100000000E-03 0.  1.
         12    1    3    3    0    0  0.35104112653E+01 -0.21893907645E+01  0.15119931368E+01  0.44048317126E+01  0.00000000000E+00 0. -1.
</event>
<event>
 7    1  0.2700100E-010  0.4778728E+02  0.7816164E-02  0.1312668E+00
        -11   -1    0    0    0    0  0.00000000000E+00  0.00000000000E+00  0.45593999997E+02  0.45594000000E+02  0.51100000000E-03 0.  1.
         11   -1    0    0    0    0 -0.00000000000E+00 -0.00000000000E+00 -0.45593999997E+02  0.45594000000E+02  0.51100000000E-03 0. -1.
    9900012    2    1    2    0    0  0.37353244523E+02  0.12407318600E+02 -0.18287058209E+02  0.47787275016E+02  0.20000018107E+02 0.  0.
        -12    1    1    2    0    0 -0.37353244523E+02 -0.12407318600E+02  0.18287058209E+02  0.43400724984E+02  0.00000000000E+00 0.  1.
         11    1    3    3    0    0  0.14103941877E+02 -0.32141519361E+01 -0.74986074853E+01  0.16293589648E+02  0.51100000000E-03 0. -1.
        -11    1    3    3    0    0  0.13931967993E+02  0.11053055905E+02 -0.11357162579E+02  0.21101064407E+02  0.51100000000E-03 0.  1.
        -12    1    3    3    0    0  0.93173346523E+01  0.45684146308E+01  0.56871185482E+00  0.10392620961E+02  0.00000000000E+00 0.  1.
</event>
<event>
 7    1  0.2700100E-010  0.4778727E+02  0.7816164E-02  0.1312668E+00
        -11   -1    0    0    0    0  0.00000000000E+00  0.00000000000E+00  0.45593999997E+02  0.45594000000E+02  0.51100000000E-03 0.  1.
         11   -1    0    0    0    0 -0.00000000000E+00 -0.00000000000E+00 -0.45593999997E+02  0.45594000000E+02  0.51100000000E-03 0. -1.
    9900012    2    1    2    0    0  0.32045620157E+02  0.16661192662E+02 -0.24064618707E+02  0.47787274365E+02  0.20000015140E+02 0.  0.
        -12    1    1    2    0    0 -0.32045620157E+02 -0.16661192662E+02  0.24064618707E+02  0.43400725635E+02  0.00000000000E+00 0.  1.
         11    1    3    3    0    0  0.29088902354E+02  0.13639821978E+02 -0.13547840009E+02  0.34867649088E+02  0.51100000000E-03 0. -1.
        -11    1    3    3    0    0  0.31183104261E+01  0.47628858207E+01 -0.87061706963E+01  0.10402228113E+02  0.51100000000E-03 0.  1.
         12    1    3    3    0    0 -0.16159262349E+00 -0.17415151368E+01 -0.18106080015E+01  0.25173971643E+01  0.00000000000E+00 0. -1.
</event>
<event>
 7    1  0.2700100E-010  0.4778727E+02  0.7816164E-02  0.1312668E+00
        -11   -1    0    0    0    0  0.00000000000E+00  0.00000000000E+00  0.45593999997E+02  0.45594000000E+02  0.51100000000E-03 0.  1.
         11   -1    0    0    0    0 -0.00000000000E+00 -0.00000000000E+00 -0.45593999997E+02  0.45594000000E+02  0.51100000000E-03 0. -1.
    9900012    2    1    2    0    0 -0.61695398624E+01  0.11450870868E+02 -0.41405764248E+02  0.47787274445E+02  0.20000015505E+02 0.  0.
        -12    1    1    2    0    0  0.61695398624E+01 -0.11450870868E+02  0.41405764248E+02  0.43400725555E+02  0.00000000000E+00 0.  1.
         11    1    3    3    0    0 -0.90199082655E+01  0.38391180121E+01 -0.33317742220E+02  0.34729951326E+02  0.51100000000E-03 0. -1.
        -11    1    3    3    0    0  0.10777357669E-01  0.59700257556E+01 -0.22867799124E+01  0.63930185596E+01  0.51100000000E-03 0.  1.
         12    1    3    3    0    0  0.28395910454E+01  0.16417271000E+01 -0.58012421158E+01  0.66643045595E+01  0.00000000000E+00 0. -1.
</event>
<event>
 7    1  0.2700100E-010  0.4778725E+02  0.7816164E-02  0.1312668E+00
        -11   -1    0    0    0    0  0.00000000000E+00  0.00000000000E+00  0.45593999997E+02  0.45594000000E+02  0.51100000000E-03 0.  1.
         11   -1    0    0    0    0 -0.00000000000E+00 -0.00000000000E+00 -0.45593999997E+02  0.45594000000E+02  0.51100000000E-03 0. -1.
    9900012    2    1    2    0    0 -0.15110835177E+02 -0.25177903722E+02 -0.31958743041E+02  0.47787246177E+02  0.19999886621E+02 0.  0.
        -12    1    1    2    0    0  0.15110835177E+02  0.25177903722E+02  0.31958743041E+02  0.43400753823E+02  0.00000000000E+00 0.  1.
         11    1    3    3    0    0 -0.24120373645E+01 -0.25408121871E+01 -0.75183721994E+01  0.82945507176E+01  0.51100000000E-03 0. -1.
        -11    1    3    3    0    0 -0.34675577437E+01 -0.98824976971E+01 -0.20866698817E+02  0.23347523150E+02  0.51100000000E-03 0.  1.
        -12    1    3    3    0    0 -0.92312400685E+01 -0.12754593838E+02 -0.35736720246E+01  0.16145172310E+02  0.00000000000E+00 0.  1.
</event>
<event>
 7    1  0.2700100E-010  0.4778726E+02  0.7816164E-02  0.1312668E+00
        -11   -1    0    0    0    0  0.00000000000E+00  0.00000000000E+00  0.45593999997E+02  0.45594000000E+02  0.51100000000E-03 0.  1.
         11   -1    0    0    0    0 -0.00000000000E+00 -0.00000000000E+00 -0.45593999997E+02  0.45594000000E+02  0.51100000000E-03 0. -1.
    9900012    2    1    2    0    0  0.27457571486E+02 -0.32993624282E+02 -0.64130041092E+01  0.47787261563E+02  0.19999956771E+02 0.  0.
        -12    1    1    2    0    0 -0.27457571486E+02  0.32993624282E+02  0.64130041092E+01  0.43400738437E+02  0.00000000000E+00 0.  1.
         11    1    3    3    0    0  0.23476519576E+00 -0.42837124153E+01 -0.57702018284E+01  0.71903084882E+01  0.51100000000E-03 0. -1.
        -11    1    3    3    0    0  0.26511144943E+02 -0.25123164070E+02 -0.22698883549E+01  0.36594624912E+02  0.51100000000E-03 0.  1.
        -12    1    3    3    0    0  0.71166134747E+00 -0.35867477966E+01  0.16270860741E+01  0.40023281628E+01  0.00000000000E+00 0.  1.
</event>
<event>
 7    1  0.2700100E-010  0.4778727E+02  0.7816164E-02  0.1312668E+00
        -11   -1    0    0    0    0  0.00000000000E+00  0.00000000000E+00  0.45593999997E+02  0.45594000000E+02  0.51100000000E-03 0.  1.
         11   -1    0    0    0    0 -0.00000000000E+00 -0.00000000000E+00 -0.45593999997E+02  0.45594000000E+02  0.51100000000E-03 0. -1.
    9900012    2    1    2    0    0 -0.19840917864E+02  0.44515845820E+01 -0.38342466582E+02  0.47787269930E+02  0.19999994919E+02 0.  0.
        -12    1    1    2    0    0  0.19840917864E+02 -0.44515845820E+01  0.38342466582E+02  0.43400730070E+02  0.00000000000E+00 0.  1.
         11    1    3    3    0    0 -0.13880150728E+02  0.36340936246E+01 -0.25907065411E+02  0.29614882393E+02  0.51100000000E-03 0. -1.
        -11    1    3    3    0    0 -0.68103777026E+00  0.43341988033E+01 -0.20202274449E+00  0.43920274546E+01  0.51100000000E-03 0.  1.
        -12    1    3    3    0    0 -0.52797293659E+01 -0.35167078459E+01 -0.12233378427E+02  0.13780360082E+02  0.00000000000E+00 0.  1.
</event>
<event>
 7    1  0.2700100E-010  0.4778727E+02  0.7816164E-02  0.1312668E+00
        -11   -1    0    0    0    0  0.00000000000E+00  0.00000000000E+00  0.45593999997E+02  0.45594000000E+02  0.51100000000E-03 0.  1.
         11   -1    0    0    0    0 -0.00000000000E+00 -0.00000000000E+00 -0.45593999997E+02  0.45594000000E+02  0.51100000000E-03 0. -1.
    9900012    2    1    2    0    0 -0.28851501352E+02 -0.43669576790E+00 -0.32419493818E+02  0.47787269443E+02  0.19999992699E+02 0.  0.
        -12    1    1    2    0    0  0.28851501352E+02  0.43669576790E+00  0.32419493818E+02  0.43400730557E+02  0.00000000000E+00 0.  1.
         11    1    3    3    0    0 -0.26315986825E+02 -0.50924725524E+01 -0.22411542080E+02  0.34939113583E+02  0.51100000000E-03 0. -1.
        -11    1    3    3    0    0  0.19936123003E+01  0.10907991028E+01 -0.24267054020E+01  0.33246401393E+01  0.51100000000E-03 0.  1.
         12    1    3    3    0    0 -0.45291268269E+01  0.35649776818E+01 -0.75812463358E+01  0.95235157211E+01  0.00000000000E+00 0. -1.
</event>
<event>
 7    1  0.2700100E-010  0.4778727E+02  0.7816164E-02  0.1312668E+00
        -11   -1    0    0    0    0  0.00000000000E+00  0.00000000000E+00  0.45593999997E+02  0.45594000000E+02  0.51100000000E-03 0.  1.
         11   -1    0    0    0    0 -0.00000000000E+00 -0.00000000000E+00 -0.45593999997E+02  0.45594000000E+02  0.51100000000E-03 0. -1.
    9900012    2    1    2    0    0  0.38134014221E+02  0.12424541892E+02 -0.16584662535E+02  0.47787270591E+02  0.19999997931E+02 0.  0.
        -12    1    1    2    0    0 -0.38134014221E+02 -0.12424541892E+02  0.16584662535E+02  0.43400729409E+02  0.00000000000E+00 0.  1.
         11    1    3    3    0    0  0.11082463156E+02  0.16249092784E+01  0.33623033373E+01  0.11694716917E+02  0.51100000000E-03 0. -1.
        -11    1    3    3    0    0  0.11732709863E+02  0.87156520055E+01 -0.93962592815E+01  0.17375521844E+02  0.51100000000E-03 0.  1.
         12    1    3    3    0    0  0.15318841202E+02  0.20839806085E+01 -0.10550706590E+02  0.18717031830E+02  0.00000000000E+00 0. -1.
</event>
<event>
 7    1  0.2700100E-010  0.4778727E+02  0.7816164E-02  0.1312668E+00
        -11   -1    0    0    0    0  0.00000000000E+00  0.00000000000E+00  0.45593999997E+02  0.45594000000E+02  0.51100000000E-03 0.  1.
         11   -1    0    0    0    0 -0.00000000000E+00 -0.00000000000E+00 -0.45593999997E+02  0.45594000000E+02  0.51100000000E-03 0. -1.
    9900012    2    1    2    0    0  0.28654635175E+02 -0.22874159367E+02 -0.23223004969E+02  0.47787271394E+02  0.20000001594E+02 0.  0.
        -12    1    1    2    0    0 -0.28654635175E+02  0.22874159367E+02  0.23223004969E+02  0.43400728606E+02  0.00000000000E+00 0.  1.
         11    1    3    3    0    0  0.19759706356E+02 -0.23824485313E+02 -0.13082643702E+02  0.33603685247E+02  0.51100000000E-03 0. -1.
        -11    1    3    3    0    0  0.81437548469E+01 -0.96743168563E-01 -0.68227853776E+01  0.10624523651E+02  0.51100000000E-03 0.  1.
         12    1    3    3    0    0  0.75117397217E+00  0.10470691146E+01 -0.33175758891E+01  0.35590624956E+01  0.00000000000E+00 0. -1.
</event>
<event>
 7    1  0.2700100E-010  0.4778727E+02  0.7816164E-02  0.1312668E+00
        -11   -1    0    0    0    0  0.00000000000E+00  0.00000000000E+00  0.45593999997E+02  0.45594000000E+02  0.51100000000E-03 0.  1.
         11   -1    0    0    0    0 -0.00000000000E+00 -0.00000000000E+00 -0.45593999997E+02  0.45594000000E+02  0.51100000000E-03 0. -1.
    9900012    2    1    2    0    0 -0.34402989061E+01 -0.11486056977E+02 -0.41711609282E+02  0.47787268321E+02  0.19999987581E+02 0.  0.
        -12    1    1    2    0    0  0.34402989061E+01  0.11486056977E+02  0.41711609282E+02  0.43400731679E+02  0.00000000000E+00 0.  1.
         11    1    3    3    0    0  0.11225251556E+01 -0.56473091605E+01 -0.22565275040E+02  0.23288276050E+02  0.51100000000E-03 0. -1.
        -11    1    3    3    0    0 -0.55950720464E+00  0.78813156156E+00  0.18683097639E+01  0.21035164144E+01  0.51100000000E-03 0.  1.
        -12    1    3    3    0    0 -0.40033168570E+01 -0.66268793779E+01 -0.21014644006E+02  0.22395475856E+02  0.00000000000E+00 0.  1.
</event>
<event>
 7    1  0.2700100E-010  0.4778727E+02  0.7816164E-02  0.1312668E+00
        -11   -1    0    0    0    0  0.00000000000E+00  0.00000000000E+00  0.45593999997E+02  0.45594000000E+02  0.51100000000E-03 0. -1.
         11   -1    0    0    0    0 -0.00000000000E+00 -0.00000000000E+00 -0.45593999997E+02  0.45594000000E+02  0.51100000000E-03 0.  1.
    9900012    2    1    2    0    0  0.40035379506E+02  0.70434331029E+01 -0.15204655426E+02  0.47787272947E+02  0.20000008675E+02 0.  0.
        -12    1    1    2    0    0 -0.40035379506E+02 -0.70434331029E+01  0.15204655426E+02  0.43400727053E+02  0.00000000000E+00 0.  1.
         11    1    3    3    0    0  0.85867425343E+01  0.59862150039E+01 -0.13132372028E+01  0.10549479117E+02  0.51100000000E-03 0. -1.
        -11    1    3    3    0    0  0.30320839642E+02  0.13683544427E+01 -0.16378812174E+02  0.34489001130E+02  0.51100000000E-03 0.  1.
        -12    1    3    3    0    0  0.11277973305E+01 -0.31113634362E+00  0.24873939508E+01  0.27487927003E+01  0.00000000000E+00 0.  1.
</event>
<event>
 7    1  0.2700100E-010  0.4778726E+02  0.7816164E-02  0.1312668E+00
        -11   -1    0    0    0    0  0.00000000000E+00  0.00000000000E+00  0.45593999997E+02  0.45594000000E+02  0.51100000000E-03 0. -1.
         11   -1    0    0    0    0 -0.00000000000E+00 -0.00000000000E+00 -0.45593999997E+02  0.45594000000E+02  0.51100000000E-03 0.  1.
    9900012    2    1    2    0    0  0.19814471834E+02  0.38284803521E+02  0.50283796453E+01  0.47787261797E+02  0.19999957836E+02 0.  0.
        -12    1    1    2    0    0 -0.19814471834E+02 -0.38284803521E+02 -0.50283796453E+01  0.43400738203E+02  0.00000000000E+00 0.  1.
         11    1    3    3    0    0  0.79431732968E+01  0.28064797296E+02  0.37474951875E+01  0.29406981649E+02  0.51100000000E-03 0. -1.
        -11    1    3    3    0    0  0.61130983465E+01 -0.39892837202E+00  0.14664589300E+01  0.62991759218E+01  0.51100000000E-03 0.  1.
        -12    1    3    3    0    0  0.57582001911E+01  0.10618934597E+02 -0.18557447224E+00  0.12081104226E+02  0.00000000000E+00 0.  1.
</event>
<event>
 7    1  0.2700100E-010  0.4778727E+02  0.7816164E-02  0.1312668E+00
        -11   -1    0    0    0    0  0.00000000000E+00  0.00000000000E+00  0.45593999997E+02  0.45594000000E+02  0.51100000000E-03 0.  1.
         11   -1    0    0    0    0 -0.00000000000E+00 -0.00000000000E+00 -0.45593999997E+02  0.45594000000E+02  0.51100000000E-03 0. -1.
    9900012    2    1    2    0    0 -0.27981569031E+01  0.89179742154E+01 -0.42382350474E+02  0.47787267542E+02  0.19999984030E+02 0.  0.
        -12    1    1    2    0    0  0.27981569031E+01 -0.89179742154E+01  0.42382350474E+02  0.43400732458E+02  0.00000000000E+00 0.  1.
         11    1    3    3    0    0  0.23685407529E+01  0.48234264249E+00 -0.15959960554E+02  0.16141963353E+02  0.51100000000E-03 0. -1.
        -11    1    3    3    0    0 -0.33399755479E+01  0.10662549570E+02 -0.10071372235E+02  0.15042537650E+02  0.51100000000E-03 0.  1.
        -12    1    3    3    0    0 -0.18267221082E+01 -0.22269179969E+01 -0.16351017685E+02  0.16602766539E+02  0.00000000000E+00 0.  1.
</event>
<event>
 7    1  0.2700100E-010  0.4778727E+02  0.7816164E-02  0.1312668E+00
        -11   -1    0    0    0    0  0.00000000000E+00  0.00000000000E+00  0.45593999997E+02  0.45594000000E+02  0.51100000000E-03 0.  1.
         11   -1    0    0    0    0 -0.00000000000E+00 -0.00000000000E+00 -0.45593999997E+02  0.45594000000E+02  0.51100000000E-03 0. -1.
    9900012    2    1    2    0    0  0.24245504667E+02  0.12842593558E+02 -0.33628059851E+02  0.47787272873E+02  0.20000008336E+02 0.  0.
        -12    1    1    2    0    0 -0.24245504667E+02 -0.12842593558E+02  0.33628059851E+02  0.43400727127E+02  0.00000000000E+00 0.  1.
         11    1    3    3    0    0  0.15129601429E+02  0.70843957228E+01 -0.14179589073E+02  0.21912422247E+02  0.51100000000E-03 0. -1.
        -11    1    3    3    0    0 -0.92548710789E+00  0.66093710588E+01 -0.10246127519E+02  0.12227977821E+02  0.51100000000E-03 0.  1.
        -12    1    3    3    0    0  0.10041390345E+02 -0.85117322360E+00 -0.92023432585E+01  0.13646872806E+02  0.00000000000E+00 0.  1.
</event>
<event>
 7    1  0.2700100E-010  0.4778727E+02  0.7816164E-02  0.1312668E+00
        -11   -1    0    0    0    0  0.00000000000E+00  0.00000000000E+00  0.45593999997E+02  0.45594000000E+02  0.51100000000E-03 0.  1.
         11   -1    0    0    0    0 -0.00000000000E+00 -0.00000000000E+00 -0.45593999997E+02  0.45594000000E+02  0.51100000000E-03 0. -1.
    9900012    2    1    2    0    0  0.75578133029E+01 -0.34052598927E+02 -0.25824863241E+02  0.47787267322E+02  0.19999983028E+02 0.  0.
        -12    1    1    2    0    0 -0.75578133029E+01  0.34052598927E+02  0.25824863241E+02  0.43400732678E+02  0.00000000000E+00 0.  1.
         11    1    3    3    0    0  0.12869524532E+01 -0.18312986975E+00 -0.11463164599E+01  0.17331545959E+01  0.51100000000E-03 0. -1.
        -11    1    3    3    0    0  0.62159005769E+01 -0.43255993290E+01 -0.11346092882E+02  0.13641189592E+02  0.51100000000E-03 0.  1.
        -12    1    3    3    0    0  0.54960272824E-01 -0.29543869728E+02 -0.13332453899E+02  0.32412923134E+02  0.00000000000E+00 0.  1.
</event>
<event>
 7    1  0.2700100E-010  0.4778727E+02  0.7816164E-02  0.1312668E+00
        -11   -1    0    0    0    0  0.00000000000E+00  0.00000000000E+00  0.45593999997E+02  0.45594000000E+02  0.51100000000E-03 0.  1.
         11   -1    0    0    0    0 -0.00000000000E+00 -0.00000000000E+00 -0.45593999997E+02  0.45594000000E+02  0.51100000000E-03 0. -1.
    9900012    2    1    2    0    0  0.11120009468E+02  0.37431497581E+02 -0.18943380988E+02  0.47787270686E+02  0.19999998367E+02 0.  0.
        -12    1    1    2    0    0 -0.11120009468E+02 -0.37431497581E+02  0.18943380988E+02  0.43400729314E+02  0.00000000000E+00 0.  1.
         11    1    3    3    0    0  0.11845161952E+02  0.24408202502E+02 -0.13729637101E+02  0.30406761522E+02  0.51100000000E-03 0. -1.
        -11    1    3    3    0    0 -0.15835676045E+00 -0.16920117211E+01 -0.13098435253E+01  0.21456166596E+01  0.51100000000E-03 0.  1.
         12    1    3    3    0    0 -0.56679572359E+00  0.14715306800E+02 -0.39039003620E+01  0.15234892505E+02  0.00000000000E+00 0. -1.
</event>
<event>
 7    1  0.2700100E-010  0.4778727E+02  0.7816164E-02  0.1312668E+00
        -11   -1    0    0    0    0  0.00000000000E+00  0.00000000000E+00  0.45593999997E+02  0.45594000000E+02  0.51100000000E-03 0. -1.
         11   -1    0    0    0    0 -0.00000000000E+00 -0.00000000000E+00 -0.45593999997E+02  0.45594000000E+02  0.51100000000E-03 0.  1.
    9900012    2    1    2    0    0 -0.99797645171E+01  0.22530845549E+02  0.35726584395E+02  0.47787268053E+02  0.19999986362E+02 0.  0.
        -12    1    1    2    0    0  0.99797645171E+01 -0.22530845549E+02 -0.35726584395E+02  0.43400731947E+02  0.00000000000E+00 0.  1.
         11    1    3    3    0    0 -0.15128060695E+02  0.11766656042E+02  0.24134878737E+02  0.30818903074E+02  0.51100000000E-03 0. -1.
        -11    1    3    3    0    0  0.39581605869E+01  0.80971848876E+01  0.10530969848E+02  0.13861196360E+02  0.51100000000E-03 0.  1.
         12    1    3    3    0    0  0.11901355912E+01  0.26670046198E+01  0.10607358105E+01  0.31071686190E+01  0.00000000000E+00 0. -1.
</event>
<event>
 7    1  0.2700100E-010  0.4778727E+02  0.7816164E-02  0.1312668E+00
        -11   -1    0    0    0    0  0.00000000000E+00  0.00000000000E+00  0.45593999997E+02  0.45594000000E+02  0.51100000000E-03 0.  1.
         11   -1    0    0    0    0 -0.00000000000E+00 -0.00000000000E+00 -0.45593999997E+02  0.45594000000E+02  0.51100000000E-03 0. -1.
    9900012    2    1    2    0    0  0.33024836889E+02  0.18622111497E+02 -0.21123457473E+02  0.47787270239E+02  0.19999996327E+02 0.  0.
        -12    1    1    2    0    0 -0.33024836889E+02 -0.18622111497E+02  0.21123457473E+02  0.43400729761E+02  0.00000000000E+00 0.  1.
         11    1    3    3    0    0  0.22850551321E+02  0.79527073129E+01 -0.20106076909E+02  0.31458664597E+02  0.51100000000E-03 0. -1.
        -11    1    3    3    0    0  0.54830916529E+01  0.48702938229E+01 -0.39308304051E+01  0.83207862567E+01  0.51100000000E-03 0.  1.
         12    1    3    3    0    0  0.46911939149E+01  0.57991103616E+01  0.29134498405E+01  0.80078193852E+01  0.00000000000E+00 0. -1.
</event>
<event>
 7    1  0.2700100E-010  0.4778727E+02  0.7816164E-02  0.1312668E+00
        -11   -1    0    0    0    0  0.00000000000E+00  0.00000000000E+00  0.45593999997E+02  0.45594000000E+02  0.51100000000E-03 0.  1.
         11   -1    0    0    0    0 -0.00000000000E+00 -0.00000000000E+00 -0.45593999997E+02  0.45594000000E+02  0.51100000000E-03 0. -1.
    9900012    2    1    2    0    0 -0.37751640172E+02  0.20260314662E+02 -0.69250557949E+01  0.47787273236E+02  0.20000009991E+02 0.  0.
        -12    1    1    2    0    0  0.37751640172E+02 -0.20260314662E+02  0.69250557949E+01  0.43400726764E+02  0.00000000000E+00 0.  1.
         11    1    3    3    0    0 -0.47415996259E+01  0.42939930846E+00 -0.43407000146E+01  0.64427344859E+01  0.51100000000E-03 0. -1.
        -11    1    3    3    0    0 -0.19295539922E+02  0.16460807326E+02  0.41472831004E+01  0.25699727549E+02  0.51100000000E-03 0.  1.
        -12    1    3    3    0    0 -0.13714500624E+02  0.33701080276E+01 -0.67316388807E+01  0.15644811201E+02  0.00000000000E+00 0.  1.
</event>
<event>
 7    1  0.2700100E-010  0.4778728E+02  0.7816164E-02  0.1312668E+00
        -11   -1    0    0    0    0  0.00000000000E+00  0.00000000000E+00  0.45593999997E+02  0.45594000000E+02  0.51100000000E-03 0.  1.
         11   -1    0    0    0    0 -0.00000000000E+00 -0.00000000000E+00 -0.45593999997E+02  0.45594000000E+02  0.51100000000E-03 0. -1.
    9900012    2    1    2    0    0 -0.43210777469E+02  0.21348558372E+01  0.34487692313E+01  0.47787275258E+02  0.20000019211E+02 0.  0.
        -12    1    1    2    0    0  0.43210777469E+02 -0.21348558372E+01 -0.34487692313E+01  0.43400724742E+02  0.00000000000E+00 0.  1.
         11    1    3    3    0    0 -0.36679908897E+02 -0.54008788000E+01  0.32144888806E+01  0.37214488408E+02  0.51100000000E-03 0. -1.
        -11    1    3    3    0    0 -0.45161947492E+01  0.34747689294E+01 -0.11897582556E+01  0.58211303966E+01  0.51100000000E-03 0.  1.
         12    1    3    3    0    0 -0.20146738233E+01  0.40609657078E+01  0.14240386063E+01  0.47516564529E+01  0.00000000000E+00 0. -1.
</event>
<event>
 7    1  0.2700100E-010  0.4778727E+02  0.7816164E-02  0.1312668E+00
        -11   -1    0    0    0    0  0.00000000000E+00  0.00000000000E+00  0.45593999997E+02  0.45594000000E+02  0.51100000000E-03 0. -1.
         11   -1    0    0    0    0 -0.00000000000E+00 -0.00000000000E+00 -0.45593999997E+02  0.45594000000E+02  0.51100000000E-03 0.  1.
    9900012    2    1    2    0    0 -0.41013420498E+01 -0.12011692168E+02  0.41503269076E+02  0.47787273055E+02  0.20000009168E+02 0.  0.
        -12    1    1    2    0    0  0.41013420498E+01  0.12011692168E+02 -0.41503269076E+02  0.43400726945E+02  0.00000000000E+00 0.  1.
         11    1    3    3    0    0 -0.58606707224E+01 -0.82245298719E+01  0.37999117520E+02  0.39318230956E+02  0.51100000000E-03 0. -1.
        -11    1    3    3    0    0  0.17140276469E+00  0.20128332884E-01 -0.17671143478E+01  0.17755217365E+01  0.51100000000E-03 0.  1.
         12    1    3    3    0    0  0.15879259080E+01 -0.38072906289E+01  0.52712659032E+01  0.66935203626E+01  0.00000000000E+00 0. -1.
</event>
<event>
 7    1  0.2700100E-010  0.4778727E+02  0.7816164E-02  0.1312668E+00
        -11   -1    0    0    0    0  0.00000000000E+00  0.00000000000E+00  0.45593999997E+02  0.45594000000E+02  0.51100000000E-03 0.  1.
         11   -1    0    0    0    0 -0.00000000000E+00 -0.00000000000E+00 -0.45593999997E+02  0.45594000000E+02  0.51100000000E-03 0. -1.
    9900012    2    1    2    0    0 -0.22214234455E+02  0.26247632715E+00 -0.37283803114E+02  0.47787273268E+02  0.20000010137E+02 0.  0.
        -12    1    1    2    0    0  0.22214234455E+02 -0.26247632715E+00  0.37283803114E+02  0.43400726732E+02  0.00000000000E+00 0.  1.
         11    1    3    3    0    0 -0.87914329575E+01 -0.58426987149E+01 -0.52165137845E+01  0.11774482496E+02  0.51100000000E-03 0. -1.
        -11    1    3    3    0    0 -0.79046634654E+01  0.60121590225E+01 -0.14316859110E+02  0.17424184791E+02  0.51100000000E-03 0.  1.
         12    1    3    3    0    0 -0.55181380324E+01  0.93016019613E-01 -0.17750430219E+02  0.18588605980E+02  0.00000000000E+00 0. -1.
</event>
<event>
 7    1  0.2700100E-010  0.4778727E+02  0.7816164E-02  0.1312668E+00
        -11   -1    0    0    0    0  0.00000000000E+00  0.00000000000E+00  0.45593999997E+02  0.45594000000E+02  0.51100000000E-03 0. -1.
         11   -1    0    0    0    0 -0.00000000000E+00 -0.00000000000E+00 -0.45593999997E+02  0.45594000000E+02  0.51100000000E-03 0.  1.
    9900012    2    1    2    0    0  0.13509712174E+02  0.76392899733E+01  0.40530880419E+02  0.47787270262E+02  0.19999996431E+02 0.  0.
        -12    1    1    2    0    0 -0.13509712174E+02 -0.76392899733E+01 -0.40530880419E+02  0.43400729738E+02  0.00000000000E+00 0.  1.
         11    1    3    3    0    0  0.15395836804E+02  0.99346831877E+01  0.32815680884E+02  0.37584553118E+02  0.51100000000E-03 0. -1.
        -11    1    3    3    0    0 -0.29853455493E+01 -0.10682152632E+00  0.11593507468E+01  0.32043397608E+01  0.51100000000E-03 0.  1.
         12    1    3    3    0    0  0.10992209188E+01 -0.21885716881E+01  0.65558487883E+01  0.69983773831E+01  0.00000000000E+00 0. -1.
</event>
<event>
 7    1  0.2700100E-010  0.4778727E+02  0.7816164E-02  0.1312668E+00
        -11   -1    0    0    0    0  0.00000000000E+00  0.00000000000E+00  0.45593999997E+02  0.45594000000E+02  0.51100000000E-03 0. -1.
         11   -1    0    0    0    0 -0.00000000000E+00 -0.00000000000E+00 -0.45593999997E+02  0.45594000000E+02  0.51100000000E-03 0.  1.
    9900012    2    1    2    0    0  0.25703197545E+01 -0.35433401754E+02  0.24929715231E+02  0.47787271837E+02  0.20000003616E+02 0.  0.
        -12    1    1    2    0    0 -0.25703197545E+01  0.35433401754E+02 -0.24929715231E+02  0.43400728163E+02  0.00000000000E+00 0.  1.
         11    1    3    3    0    0  0.16904868779E+01 -0.10483670650E+02  0.12855646861E+02  0.16674314158E+02  0.51100000000E-03 0. -1.
        -11    1    3    3    0    0 -0.54421200785E+01 -0.39310477507E+01  0.24440874431E+01  0.71444643646E+01  0.51100000000E-03 0.  1.
        -12    1    3    3    0    0  0.63219529551E+01 -0.21018683354E+02  0.96299809270E+01  0.23968493314E+02  0.00000000000E+00 0.  1.
</event>
<event>
 7    1  0.2700100E-010  0.4778727E+02  0.7816164E-02  0.1312668E+00
        -11   -1    0    0    0    0  0.00000000000E+00  0.00000000000E+00  0.45593999997E+02  0.45594000000E+02  0.51100000000E-03 0.  1.
         11   -1    0    0    0    0 -0.00000000000E+00 -0.00000000000E+00 -0.45593999997E+02  0.45594000000E+02  0.51100000000E-03 0. -1.
    9900012    2    1    2    0    0  0.34092594545E+02  0.64964487178E+01 -0.26059824978E+02  0.47787270437E+02  0.19999997229E+02 0.  0.
        -12    1    1    2    0    0 -0.34092594545E+02 -0.64964487178E+01  0.26059824978E+02  0.43400729563E+02  0.00000000000E+00 0.  1.
         11    1    3    3    0    0  0.25218953357E+02  0.56085262880E+01 -0.10291879507E+02  0.27809601931E+02  0.51100000000E-03 0. -1.
        -11    1    3    3    0    0  0.87585895613E-02 -0.59836716319E+00  0.87643752735E+00  0.10612553771E+01  0.51100000000E-03 0.  1.
         12    1    3    3    0    0  0.88648825988E+01  0.14862895930E+01 -0.16644382998E+02  0.18916413128E+02  0.00000000000E+00 0. -1.
</event>
<event>
 7    1  0.2700100E-010  0.4778727E+02  0.7816164E-02  0.1312668E+00
        -11   -1    0    0    0    0  0.00000000000E+00  0.00000000000E+00  0.45593999997E+02  0.45594000000E+02  0.51100000000E-03 0.  1.
         11   -1    0    0    0    0 -0.00000000000E+00 -0.00000000000E+00 -0.45593999997E+02  0.45594000000E+02  0.51100000000E-03 0. -1.
    9900012    2    1    2    0    0 -0.24829672352E+02 -0.21809365140E+02 -0.28132932742E+02  0.47787274873E+02  0.20000017455E+02 0.  0.
        -12    1    1    2    0    0  0.24829672352E+02  0.21809365140E+02  0.28132932742E+02  0.43400725127E+02  0.00000000000E+00 0.  1.
         11    1    3    3    0    0 -0.11140884171E+02 -0.47548689965E+01 -0.19751654039E+02  0.23170151420E+02  0.51100000000E-03 0. -1.
        -11    1    3    3    0    0 -0.14274541881E+02 -0.14438876147E+02 -0.64158634519E+01  0.21293355640E+02  0.51100000000E-03 0.  1.
        -12    1    3    3    0    0  0.58575370077E+00 -0.26156199970E+01 -0.19654152511E+01  0.33237678132E+01  0.00000000000E+00 0.  1.
</event>
<event>
 7    1  0.2700100E-010  0.4778727E+02  0.7816164E-02  0.1312668E+00
        -11   -1    0    0    0    0  0.00000000000E+00  0.00000000000E+00  0.45593999997E+02  0.45594000000E+02  0.51100000000E-03 0.  1.
         11   -1    0    0    0    0 -0.00000000000E+00 -0.00000000000E+00 -0.45593999997E+02  0.45594000000E+02  0.51100000000E-03 0. -1.
    9900012    2    1    2    0    0 -0.88500839004E+01  0.35966946803E+02 -0.22620308284E+02  0.47787267354E+02  0.19999983174E+02 0.  0.
        -12    1    1    2    0    0  0.88500839004E+01 -0.35966946803E+02  0.22620308284E+02  0.43400732646E+02  0.00000000000E+00 0.  1.
         11    1    3    3    0    0  0.18430297132E+01  0.16382188995E+02 -0.92104595841E+01  0.18883999598E+02  0.51100000000E-03 0. -1.
        -11    1    3    3    0    0 -0.13346605228E+02  0.15128262043E+02 -0.89806009963E+01  0.22082739370E+02  0.51100000000E-03 0.  1.
        -12    1    3    3    0    0  0.26534916149E+01  0.44564957641E+01 -0.44292477034E+01  0.68205283860E+01  0.00000000000E+00 0.  1.
</event>
<event>
 7    1  0.3005916E-010  0.4778726E+02  0.7816164E-02  0.1312668E+00
        -11   -1    0    0    0    0  0.00000000000E+00  0.00000000000E+00  0.45593999997E+02  0.45594000000E+02  0.51100000000E-03 0. -1.
         11   -1    0    0    0    0 -0.00000000000E+00 -0.00000000000E+00 -0.45593999997E+02  0.45594000000E+02  0.51100000000E-03 0.  1.
    9900012    2    1    2    0    0 -0.58750689364E+01  0.80639413762E+01  0.42238374906E+02  0.47787263828E+02  0.19999967099E+02 0.  0.
        -12    1    1    2    0    0  0.58750689364E+01 -0.80639413762E+01 -0.42238374906E+02  0.43400736172E+02  0.00000000000E+00 0.  1.
         11    1    3    3    0    0 -0.46946307883E+01  0.69616587401E+01  0.23938210528E+02  0.25368133045E+02  0.51100000000E-03 0. -1.
        -11    1    3    3    0    0 -0.33896678818E+01 -0.10977702349E+01 -0.28488724623E+00  0.35743683137E+01  0.51100000000E-03 0.  1.
        -12    1    3    3    0    0  0.22092297337E+01  0.22000528709E+01  0.18585051625E+02  0.18844762470E+02  0.00000000000E+00 0.  1.
</event>
<event>
 7    1  0.2700100E-010  0.4778727E+02  0.7816164E-02  0.1312668E+00
        -11   -1    0    0    0    0  0.00000000000E+00  0.00000000000E+00  0.45593999997E+02  0.45594000000E+02  0.51100000000E-03 0.  1.
         11   -1    0    0    0    0 -0.00000000000E+00 -0.00000000000E+00 -0.45593999997E+02  0.45594000000E+02  0.51100000000E-03 0. -1.
    9900012    2    1    2    0    0 -0.19255037061E+02  0.16931178872E+02 -0.35017166448E+02  0.47787271708E+02  0.20000003027E+02 0.  0.
        -12    1    1    2    0    0  0.19255037061E+02 -0.16931178872E+02  0.35017166448E+02  0.43400728292E+02  0.00000000000E+00 0.  1.
         11    1    3    3    0    0  0.12131453131E+01  0.60599643567E+01 -0.10866140943E+02  0.12500716332E+02  0.51100000000E-03 0. -1.
        -11    1    3    3    0    0 -0.18019186252E+02  0.43763769929E+01 -0.15312388051E+02  0.24048138740E+02  0.51100000000E-03 0.  1.
        -12    1    3    3    0    0 -0.24489961217E+01  0.64948375224E+01 -0.88386374545E+01  0.11238416637E+02  0.00000000000E+00 0.  1.
</event>
<event>
 7    1  0.2700100E-010  0.4778727E+02  0.7816164E-02  0.1312668E+00
        -11   -1    0    0    0    0  0.00000000000E+00  0.00000000000E+00  0.45593999997E+02  0.45594000000E+02  0.51100000000E-03 0.  1.
         11   -1    0    0    0    0 -0.00000000000E+00 -0.00000000000E+00 -0.45593999997E+02  0.45594000000E+02  0.51100000000E-03 0. -1.
    9900012    2    1    2    0    0  0.76556101014E+01  0.41962953327E+02  0.80078262306E+01  0.47787273060E+02  0.20000009191E+02 0.  0.
        -12    1    1    2    0    0 -0.76556101014E+01 -0.41962953327E+02 -0.80078262306E+01  0.43400726940E+02  0.00000000000E+00 0.  1.
         11    1    3    3    0    0  0.12067663423E+02  0.18165510480E+02 -0.11331073040E+01  0.21837999082E+02  0.51100000000E-03 0. -1.
        -11    1    3    3    0    0 -0.12540444003E+01  0.11442685744E+02  0.48983519310E+01  0.12510057406E+02  0.51100000000E-03 0.  1.
         12    1    3    3    0    0 -0.31580089210E+01  0.12354757103E+02  0.42425816035E+01  0.13439216572E+02  0.00000000000E+00 0. -1.
</event>
<event>
 7    1  0.2700100E-010  0.4778727E+02  0.7816164E-02  0.1312668E+00
        -11   -1    0    0    0    0  0.00000000000E+00  0.00000000000E+00  0.45593999997E+02  0.45594000000E+02  0.51100000000E-03 0.  1.
         11   -1    0    0    0    0 -0.00000000000E+00 -0.00000000000E+00 -0.45593999997E+02  0.45594000000E+02  0.51100000000E-03 0. -1.
    9900012    2    1    2    0    0  0.11430992672E+02 -0.31010647102E+02 -0.28129970304E+02  0.47787273550E+02  0.20000011422E+02 0.  0.
        -12    1    1    2    0    0 -0.11430992672E+02  0.31010647102E+02  0.28129970304E+02  0.43400726450E+02  0.00000000000E+00 0.  1.
         11    1    3    3    0    0  0.60871348359E+01 -0.96200546848E+01 -0.17069966305E+02  0.20517855944E+02  0.51100000000E-03 0. -1.
        -11    1    3    3    0    0 -0.64019612304E+00 -0.17791564216E+02 -0.66180296392E+01  0.18993365286E+02  0.51100000000E-03 0.  1.
        -12    1    3    3    0    0  0.59840539591E+01 -0.35990282012E+01 -0.44419743598E+01  0.82760523193E+01  0.00000000000E+00 0.  1.
</event>
<event>
 7    1  0.2700100E-010  0.4778725E+02  0.7816164E-02  0.1312668E+00
        -11   -1    0    0    0    0  0.00000000000E+00  0.00000000000E+00  0.45593999997E+02  0.45594000000E+02  0.51100000000E-03 0.  1.
         11   -1    0    0    0    0 -0.00000000000E+00 -0.00000000000E+00 -0.45593999997E+02  0.45594000000E+02  0.51100000000E-03 0. -1.
    9900012    2    1    2    0    0  0.68547272534E+01 -0.13433849577E+02 -0.40696066690E+02  0.47787246041E+02  0.19999885998E+02 0.  0.
        -12    1    1    2    0    0 -0.68547272534E+01  0.13433849577E+02  0.40696066690E+02  0.43400753959E+02  0.00000000000E+00 0.  1.
         11    1    3    3    0    0 -0.21759154466E+00 -0.22022205777E+01 -0.14895872448E+02  0.15059353831E+02  0.51100000000E-03 0. -1.
        -11    1    3    3    0    0  0.28922210531E+01 -0.14421402172E+02 -0.20774280848E+02  0.25454125957E+02  0.51100000000E-03 0.  1.
        -12    1    3    3    0    0  0.41800977450E+01  0.31897731729E+01 -0.50259133936E+01  0.72737662522E+01  0.00000000000E+00 0.  1.
</event>
<event>
 7    1  0.2700100E-010  0.4778727E+02  0.7816164E-02  0.1312668E+00
        -11   -1    0    0    0    0  0.00000000000E+00  0.00000000000E+00  0.45593999997E+02  0.45594000000E+02  0.51100000000E-03 0. -1.
         11   -1    0    0    0    0 -0.00000000000E+00 -0.00000000000E+00 -0.45593999997E+02  0.45594000000E+02  0.51100000000E-03 0.  1.
    9900012    2    1    2    0    0  0.17275716500E+02 -0.20765281532E+01  0.39760041706E+02  0.47787271133E+02  0.20000000403E+02 0.  0.
        -12    1    1    2    0    0 -0.17275716500E+02  0.20765281532E+01 -0.39760041706E+02  0.43400728867E+02  0.00000000000E+00 0.  1.
         11    1    3    3    0    0  0.11022161232E+02 -0.10466374861E+02  0.18021308413E+02  0.23575423604E+02  0.51100000000E-03 0. -1.
        -11    1    3    3    0    0  0.40720692757E+01  0.63770455074E+01  0.17175119599E+02  0.18767876574E+02  0.51100000000E-03 0.  1.
         12    1    3    3    0    0  0.21814859925E+01  0.20128012003E+01  0.45636136938E+01  0.54439709545E+01  0.00000000000E+00 0. -1.
</event>
<event>
 7    1  0.2700100E-010  0.4778727E+02  0.7816164E-02  0.1312668E+00
        -11   -1    0    0    0    0  0.00000000000E+00  0.00000000000E+00  0.45593999997E+02  0.45594000000E+02  0.51100000000E-03 0. -1.
         11   -1    0    0    0    0 -0.00000000000E+00 -0.00000000000E+00 -0.45593999997E+02  0.45594000000E+02  0.51100000000E-03 0.  1.
    9900012    2    1    2    0    0 -0.39867964797E+02 -0.13443385334E+02  0.10651000691E+02  0.47787273715E+02  0.20000012177E+02 0.  0.
        -12    1    1    2    0    0  0.39867964797E+02  0.13443385334E+02 -0.10651000691E+02  0.43400726285E+02  0.00000000000E+00 0.  1.
         11    1    3    3    0    0 -0.92180547456E+01 -0.86865731384E+01  0.12450086327E+01  0.12727102299E+02  0.51100000000E-03 0. -1.
        -11    1    3    3    0    0 -0.22677148397E+02  0.64774316243E+00  0.17456375164E+01  0.22753458665E+02  0.51100000000E-03 0.  1.
        -12    1    3    3    0    0 -0.79727616551E+01 -0.54045553583E+01  0.76603545420E+01  0.12306712751E+02  0.00000000000E+00 0.  1.
</event>
<event>
 7    1  0.2700100E-010  0.4778727E+02  0.7816164E-02  0.1312668E+00
        -11   -1    0    0    0    0  0.00000000000E+00  0.00000000000E+00  0.45593999997E+02  0.45594000000E+02  0.51100000000E-03 0. -1.
         11   -1    0    0    0    0 -0.00000000000E+00 -0.00000000000E+00 -0.45593999997E+02  0.45594000000E+02  0.51100000000E-03 0.  1.
    9900012    2    1    2    0    0 -0.14908203415E+02  0.25976273520E+02  0.31410218024E+02  0.47787272917E+02  0.20000008537E+02 0.  0.
        -12    1    1    2    0    0  0.14908203415E+02 -0.25976273520E+02 -0.31410218024E+02  0.43400727083E+02  0.00000000000E+00 0.  1.
         11    1    3    3    0    0 -0.69393522200E+01  0.59684678249E+01  0.11916909063E+01  0.92302407817E+01  0.51100000000E-03 0. -1.
        -11    1    3    3    0    0  0.22479817346E+01  0.70881244069E+01  0.10453028619E+02  0.12828122897E+02  0.51100000000E-03 0.  1.
         12    1    3    3    0    0 -0.10216832930E+02  0.12919681288E+02  0.19765498498E+02  0.25728909238E+02  0.00000000000E+00 0. -1.
</event>
<event>
 7    1  0.2700100E-010  0.4778727E+02  0.7816164E-02  0.1312668E+00
        -11   -1    0    0    0    0  0.00000000000E+00  0.00000000000E+00  0.45593999997E+02  0.45594000000E+02  0.51100000000E-03 0.  1.
         11   -1    0    0    0    0 -0.00000000000E+00 -0.00000000000E+00 -0.45593999997E+02  0.45594000000E+02  0.51100000000E-03 0. -1.
    9900012    2    1    2    0    0 -0.56720211770E+01  0.26995534166E+02 -0.33506600425E+02  0.47787274646E+02  0.20000016423E+02 0.  0.
        -12    1    1    2    0    0  0.56720211770E+01 -0.26995534166E+02  0.33506600425E+02  0.43400725354E+02  0.00000000000E+00 0.  1.
         11    1    3    3    0    0  0.17486083495E+01  0.18041471255E+02 -0.24516276175E+02  0.30489344269E+02  0.51100000000E-03 0. -1.
        -11    1    3    3    0    0 -0.18738732905E+01  0.69119328016E+00 -0.68275260809E+01  0.71136672614E+01  0.51100000000E-03 0.  1.
         12    1    3    3    0    0 -0.55467562361E+01  0.82628696317E+01 -0.21627981689E+01  0.10184263116E+02  0.00000000000E+00 0. -1.
</event>
<event>
 7    1  0.2700100E-010  0.4778727E+02  0.7816164E-02  0.1312668E+00
        -11   -1    0    0    0    0  0.00000000000E+00  0.00000000000E+00  0.45593999997E+02  0.45594000000E+02  0.51100000000E-03 0.  1.
         11   -1    0    0    0    0 -0.00000000000E+00 -0.00000000000E+00 -0.45593999997E+02  0.45594000000E+02  0.51100000000E-03 0. -1.
    9900012    2    1    2    0    0 -0.42564226880E+02  0.49763546322E+01 -0.68662981054E+01  0.47787267690E+02  0.19999984707E+02 0.  0.
        -12    1    1    2    0    0  0.42564226880E+02 -0.49763546322E+01  0.68662981054E+01  0.43400732310E+02  0.00000000000E+00 0.  1.
         11    1    3    3    0    0 -0.29707191604E+02  0.61407334070E+01  0.17550694218E+01  0.30385952490E+02  0.51100000000E-03 0. -1.
        -11    1    3    3    0    0 -0.54825403592E+01 -0.43974008559E+01 -0.34269564225E+01  0.78191696273E+01  0.51100000000E-03 0.  1.
         12    1    3    3    0    0 -0.73744949175E+01  0.32330220811E+01 -0.51944111047E+01  0.95821455734E+01  0.00000000000E+00 0. -1.
</event>
<event>
 7    1  0.2700100E-010  0.4778727E+02  0.7816164E-02  0.1312668E+00
        -11   -1    0    0    0    0  0.00000000000E+00  0.00000000000E+00  0.45593999997E+02  0.45594000000E+02  0.51100000000E-03 0. -1.
         11   -1    0    0    0    0 -0.00000000000E+00 -0.00000000000E+00 -0.45593999997E+02  0.45594000000E+02  0.51100000000E-03 0.  1.
    9900012    2    1    2    0    0  0.28190827188E+02  0.19421224081E+02  0.26678017675E+02  0.47787270635E+02  0.19999998133E+02 0.  0.
        -12    1    1    2    0    0 -0.28190827188E+02 -0.19421224081E+02 -0.26678017675E+02  0.43400729365E+02  0.00000000000E+00 0.  1.
         11    1    3    3    0    0  0.16091036212E+02  0.10095977460E+02  0.28673310619E+01  0.19211241369E+02  0.51100000000E-03 0. -1.
        -11    1    3    3    0    0  0.20127369723E+01  0.36971450391E+01  0.54925601758E+01  0.69201307145E+01  0.51100000000E-03 0.  1.
         12    1    3    3    0    0  0.10087054003E+02  0.56281015811E+01  0.18318126438E+02  0.21655898551E+02  0.00000000000E+00 0. -1.
</event>
<event>
 7    1  0.2700100E-010  0.4778726E+02  0.7816164E-02  0.1312668E+00
        -11   -1    0    0    0    0  0.00000000000E+00  0.00000000000E+00  0.45593999997E+02  0.45594000000E+02  0.51100000000E-03 0.  1.
         11   -1    0    0    0    0 -0.00000000000E+00 -0.00000000000E+00 -0.45593999997E+02  0.45594000000E+02  0.51100000000E-03 0. -1.
    9900012    2    1    2    0    0  0.95853882978E+01  0.48137194851E+00 -0.42326267933E+02  0.47787258706E+02  0.19999943743E+02 0.  0.
        -12    1    1    2    0    0 -0.95853882978E+01 -0.48137194851E+00  0.42326267933E+02  0.43400741294E+02  0.00000000000E+00 0.  1.
         11    1    3    3    0    0  0.10719301784E+02 -0.25888664112E+01 -0.25323478382E+02  0.27620358753E+02  0.51100000000E-03 0. -1.
        -11    1    3    3    0    0 -0.51166780651E+01  0.32281003786E+01 -0.62470417352E+01  0.86963530965E+01  0.51100000000E-03 0.  1.
        -12    1    3    3    0    0  0.39827645786E+01 -0.15786201885E+00 -0.10755747816E+02  0.11470546856E+02  0.00000000000E+00 0.  1.
</event>
<event>
 7    1  0.2700100E-010  0.4778727E+02  0.7816164E-02  0.1312668E+00
        -11   -1    0    0    0    0  0.00000000000E+00  0.00000000000E+00  0.45593999997E+02  0.45594000000E+02  0.51100000000E-03 0.  1.
         11   -1    0    0    0    0 -0.00000000000E+00 -0.00000000000E+00 -0.45593999997E+02  0.45594000000E+02  0.51100000000E-03 0. -1.
    9900012    2    1    2    0    0 -0.39627182663E+02 -0.15396871045E+02 -0.87318986556E+01  0.47787270767E+02  0.19999998736E+02 0.  0.
        -12    1    1    2    0    0  0.39627182663E+02  0.15396871045E+02  0.87318986556E+01  0.43400729233E+02  0.00000000000E+00 0.  1.
         11    1    3    3    0    0 -0.15640397975E+02 -0.15944010151E+02 -0.38517915006E+01  0.22664284822E+02  0.51100000000E-03 0. -1.
        -11    1    3    3    0    0 -0.15700888732E+02  0.24617372137E+01 -0.14700471258E+01  0.15960548108E+02  0.51100000000E-03 0.  1.
         12    1    3    3    0    0 -0.82858959566E+01 -0.19145981082E+01 -0.34100600291E+01  0.91624378373E+01  0.00000000000E+00 0. -1.
</event>
<event>
 7    1  0.2700100E-010  0.4778727E+02  0.7816164E-02  0.1312668E+00
        -11   -1    0    0    0    0  0.00000000000E+00  0.00000000000E+00  0.45593999997E+02  0.45594000000E+02  0.51100000000E-03 0.  1.
         11   -1    0    0    0    0 -0.00000000000E+00 -0.00000000000E+00 -0.45593999997E+02  0.45594000000E+02  0.51100000000E-03 0. -1.
    9900012    2    1    2    0    0  0.42325108725E+02 -0.87374024899E+01  0.39832383833E+01  0.47787271678E+02  0.20000002891E+02 0.  0.
        -12    1    1    2    0    0 -0.42325108725E+02  0.87374024899E+01 -0.39832383833E+01  0.43400728322E+02  0.00000000000E+00 0.  1.
         11    1    3    3    0    0  0.20556068831E+02 -0.85594319441E+01 -0.62739881746E+01  0.23133931115E+02  0.51100000000E-03 0. -1.
        -11    1    3    3    0    0  0.15551188314E+02  0.22990209503E+01  0.69564113722E+01  0.17190596696E+02  0.51100000000E-03 0.  1.
        -12    1    3    3    0    0  0.62178515799E+01 -0.24769914961E+01  0.33008151857E+01  0.74627438675E+01  0.00000000000E+00 0.  1.
</event>
<event>
 7    1  0.2700100E-010  0.4778727E+02  0.7816164E-02  0.1312668E+00
        -11   -1    0    0    0    0  0.00000000000E+00  0.00000000000E+00  0.45593999997E+02  0.45594000000E+02  0.51100000000E-03 0. -1.
         11   -1    0    0    0    0 -0.00000000000E+00 -0.00000000000E+00 -0.45593999997E+02  0.45594000000E+02  0.51100000000E-03 0.  1.
    9900012    2    1    2    0    0  0.15484615514E+02  0.24338340953E+02  0.32426765882E+02  0.47787270703E+02  0.19999998443E+02 0.  0.
        -12    1    1    2    0    0 -0.15484615514E+02 -0.24338340953E+02 -0.32426765882E+02  0.43400729297E+02  0.00000000000E+00 0.  1.
         11    1    3    3    0    0  0.14960807046E+02  0.14109962631E+02  0.15119095203E+02  0.25524573119E+02  0.51100000000E-03 0. -1.
        -11    1    3    3    0    0 -0.21368595665E+01  0.10543929490E+02  0.10888786304E+02  0.15307066516E+02  0.51100000000E-03 0.  1.
         12    1    3    3    0    0  0.26606680349E+01 -0.31555116782E+00  0.64188843744E+01  0.69556310673E+01  0.00000000000E+00 0. -1.
</event>
<event>
 7    1  0.2700100E-010  0.4778727E+02  0.7816164E-02  0.1312668E+00
        -11   -1    0    0    0    0  0.00000000000E+00  0.00000000000E+00  0.45593999997E+02  0.45594000000E+02  0.51100000000E-03 0.  1.
         11   -1    0    0    0    0 -0.00000000000E+00 -0.00000000000E+00 -0.45593999997E+02  0.45594000000E+02  0.51100000000E-03 0. -1.
    9900012    2    1    2    0    0 -0.22672042100E+02 -0.32835915599E+02 -0.17070572314E+02  0.47787270912E+02  0.19999999398E+02 0.  0.
        -12    1    1    2    0    0  0.22672042100E+02  0.32835915599E+02  0.17070572314E+02  0.43400729088E+02  0.00000000000E+00 0.  1.
         11    1    3    3    0    0 -0.78410094872E+01 -0.85876678233E+01 -0.10401988317E+02  0.15602270016E+02  0.51100000000E-03 0. -1.
        -11    1    3    3    0    0 -0.27029343198E+01 -0.98632223376E+01  0.34854907375E+01  0.10804520108E+02  0.51100000000E-03 0.  1.
        -12    1    3    3    0    0 -0.12128098293E+02 -0.14385025438E+02 -0.10154074734E+02  0.21380480789E+02  0.00000000000E+00 0.  1.
</event>
<event>
 7    1  0.2700100E-010  0.4778727E+02  0.7816164E-02  0.1312668E+00
        -11   -1    0    0    0    0  0.00000000000E+00  0.00000000000E+00  0.45593999997E+02  0.45594000000E+02  0.51100000000E-03 0.  1.
         11   -1    0    0    0    0 -0.00000000000E+00 -0.00000000000E+00 -0.45593999997E+02  0.45594000000E+02  0.51100000000E-03 0. -1.
    9900012    2    1    2    0    0 -0.13822715750E+02 -0.29404143713E+02 -0.28774155815E+02  0.47787272113E+02  0.20000004873E+02 0.  0.
        -12    1    1    2    0    0  0.13822715750E+02  0.29404143713E+02  0.28774155815E+02  0.43400727887E+02  0.00000000000E+00 0.  1.
         11    1    3    3    0    0 -0.80224319895E+01 -0.11595996512E+02 -0.17472838809E+02  0.22452764784E+02  0.51100000000E-03 0. -1.
        -11    1    3    3    0    0 -0.49360748468E+01 -0.15376218000E+02 -0.27238852970E+01  0.16377193479E+02  0.51100000000E-03 0.  1.
         12    1    3    3    0    0 -0.86420891373E+00 -0.24319292017E+01 -0.85774317090E+01  0.89573138502E+01  0.00000000000E+00 0. -1.
</event>
<event>
 7    1  0.2700100E-010  0.4778727E+02  0.7816164E-02  0.1312668E+00
        -11   -1    0    0    0    0  0.00000000000E+00  0.00000000000E+00  0.45593999997E+02  0.45594000000E+02  0.51100000000E-03 0. -1.
         11   -1    0    0    0    0 -0.00000000000E+00 -0.00000000000E+00 -0.45593999997E+02  0.45594000000E+02  0.51100000000E-03 0.  1.
    9900012    2    1    2    0    0 -0.53001750807E+01  0.16995186130E+02  0.39581497226E+02  0.47787272701E+02  0.20000007551E+02 0.  0.
        -12    1    1    2    0    0  0.53001750807E+01 -0.16995186130E+02 -0.39581497226E+02  0.43400727299E+02  0.00000000000E+00 0.  1.
         11    1    3    3    0    0 -0.27981343021E+01  0.83983526221E+01  0.28567589000E+02  0.29907675000E+02  0.51100000000E-03 0. -1.
        -11    1    3    3    0    0  0.31176167506E+01  0.67805760649E+01  0.32885752741E+01  0.81553953657E+01  0.51100000000E-03 0.  1.
         12    1    3    3    0    0 -0.56196575292E+01  0.18162574427E+01  0.77253329515E+01  0.97242023352E+01  0.00000000000E+00 0. -1.
</event>
<event>
 7    1  0.2700100E-010  0.4778727E+02  0.7816164E-02  0.1312668E+00
        -11   -1    0    0    0    0  0.00000000000E+00  0.00000000000E+00  0.45593999997E+02  0.45594000000E+02  0.51100000000E-03 0. -1.
         11   -1    0    0    0    0 -0.00000000000E+00 -0.00000000000E+00 -0.45593999997E+02  0.45594000000E+02  0.51100000000E-03 0.  1.
    9900012    2    1    2    0    0 -0.38111647795E+02  0.29102932370E+01  0.20558594143E+02  0.47787270772E+02  0.19999998757E+02 0.  0.
        -12    1    1    2    0    0  0.38111647795E+02 -0.29102932370E+01 -0.20558594143E+02  0.43400729228E+02  0.00000000000E+00 0.  1.
         11    1    3    3    0    0 -0.37127714330E+00  0.47014031277E+01  0.16959255207E+01  0.50117064677E+01  0.51100000000E-03 0. -1.
        -11    1    3    3    0    0 -0.19674863039E+02 -0.41199719328E+01  0.11232382053E+02  0.23026958357E+02  0.51100000000E-03 0.  1.
         12    1    3    3    0    0 -0.18065507613E+02  0.23288620421E+01  0.76302865697E+01  0.19748605947E+02  0.00000000000E+00 0. -1.
</event>
<event>
 7    1  0.2700100E-010  0.4778727E+02  0.7816164E-02  0.1312668E+00
        -11   -1    0    0    0    0  0.00000000000E+00  0.00000000000E+00  0.45593999997E+02  0.45594000000E+02  0.51100000000E-03 0.  1.
         11   -1    0    0    0    0 -0.00000000000E+00 -0.00000000000E+00 -0.45593999997E+02  0.45594000000E+02  0.51100000000E-03 0. -1.
    9900012    2    1    2    0    0  0.10208442454E+02  0.38872381176E+02 -0.16381353335E+02  0.47787273592E+02  0.20000011617E+02 0.  0.
        -12    1    1    2    0    0 -0.10208442454E+02 -0.38872381176E+02  0.16381353335E+02  0.43400726408E+02  0.00000000000E+00 0.  1.
         11    1    3    3    0    0  0.96720445439E+01  0.64455756136E+01 -0.25515816180E+01  0.11899767211E+02  0.51100000000E-03 0. -1.
        -11    1    3    3    0    0 -0.74916096026E+00  0.24163510289E+02 -0.72265256131E+01  0.25232105428E+02  0.51100000000E-03 0.  1.
         12    1    3    3    0    0  0.12855588708E+01  0.82632952733E+01 -0.66032461036E+01  0.10655400954E+02  0.00000000000E+00 0. -1.
</event>
<event>
 7    1  0.2700100E-010  0.4778727E+02  0.7816164E-02  0.1312668E+00
        -11   -1    0    0    0    0  0.00000000000E+00  0.00000000000E+00  0.45593999997E+02  0.45594000000E+02  0.51100000000E-03 0. -1.
         11   -1    0    0    0    0 -0.00000000000E+00 -0.00000000000E+00 -0.45593999997E+02  0.45594000000E+02  0.51100000000E-03 0.  1.
    9900012    2    1    2    0    0 -0.25438834142E+02  0.22874390182E+02  0.26706772008E+02  0.47787266368E+02  0.19999978678E+02 0.  0.
        -12    1    1    2    0    0  0.25438834142E+02 -0.22874390182E+02 -0.26706772008E+02  0.43400733632E+02  0.00000000000E+00 0.  1.
         11    1    3    3    0    0 -0.65236904252E+01 -0.93185274278E+00  0.56551836197E+01  0.86837773078E+01  0.51100000000E-03 0. -1.
        -11    1    3    3    0    0 -0.13125817365E+02  0.16820961349E+02  0.71480148050E+01  0.22501687451E+02  0.51100000000E-03 0.  1.
        -12    1    3    3    0    0 -0.57893263517E+01  0.69852815754E+01  0.13903573583E+02  0.16601801609E+02  0.00000000000E+00 0.  1.
</event>
<event>
 7    1  0.2700100E-010  0.4778727E+02  0.7816164E-02  0.1312668E+00
        -11   -1    0    0    0    0  0.00000000000E+00  0.00000000000E+00  0.45593999997E+02  0.45594000000E+02  0.51100000000E-03 0. -1.
         11   -1    0    0    0    0 -0.00000000000E+00 -0.00000000000E+00 -0.45593999997E+02  0.45594000000E+02  0.51100000000E-03 0.  1.
    9900012    2    1    2    0    0  0.86567927796E+00 -0.11322710098E+02  0.41888781703E+02  0.47787271928E+02  0.20000004028E+02 0.  0.
        -12    1    1    2    0    0 -0.86567927796E+00  0.11322710098E+02 -0.41888781703E+02  0.43400728072E+02  0.00000000000E+00 0.  1.
         11    1    3    3    0    0 -0.22204612594E+01 -0.13226676151E+02  0.34175740724E+02  0.36713167454E+02  0.51100000000E-03 0. -1.
        -11    1    3    3    0    0 -0.16409237935E+01 -0.13862174393E+01  0.16249440795E+01  0.26934500567E+01  0.51100000000E-03 0.  1.
         12    1    3    3    0    0  0.47270643308E+01  0.32901834923E+01  0.60880969003E+01  0.83806544176E+01  0.00000000000E+00 0. -1.
</event>
<event>
 7    1  0.2700100E-010  0.4778727E+02  0.7816164E-02  0.1312668E+00
        -11   -1    0    0    0    0  0.00000000000E+00  0.00000000000E+00  0.45593999997E+02  0.45594000000E+02  0.51100000000E-03 0. -1.
         11   -1    0    0    0    0 -0.00000000000E+00 -0.00000000000E+00 -0.45593999997E+02  0.45594000000E+02  0.51100000000E-03 0.  1.
    9900012    2    1    2    0    0  0.25455145957E+02  0.29737442704E+02  0.18744153187E+02  0.47787271516E+02  0.20000002149E+02 0.  0.
        -12    1    1    2    0    0 -0.25455145957E+02 -0.29737442704E+02 -0.18744153187E+02  0.43400728484E+02  0.00000000000E+00 0.  1.
         11    1    3    3    0    0 -0.13559995675E+01  0.84853465604E+01  0.66014293593E+01  0.10835991460E+02  0.51100000000E-03 0. -1.
        -11    1    3    3    0    0  0.17863340972E+02  0.16323933292E+02  0.56566570529E+01  0.24850905780E+02  0.51100000000E-03 0.  1.
         12    1    3    3    0    0  0.89478045531E+01  0.49281628513E+01  0.64860667744E+01  0.12100374276E+02  0.00000000000E+00 0. -1.
</event>
<event>
 7    1  0.2700100E-010  0.4778727E+02  0.7816164E-02  0.1312668E+00
        -11   -1    0    0    0    0  0.00000000000E+00  0.00000000000E+00  0.45593999997E+02  0.45594000000E+02  0.51100000000E-03 0. -1.
         11   -1    0    0    0    0 -0.00000000000E+00 -0.00000000000E+00 -0.45593999997E+02  0.45594000000E+02  0.51100000000E-03 0.  1.
    9900012    2    1    2    0    0  0.42443516682E+02 -0.75212168155E+01 -0.50599242405E+01  0.47787266780E+02  0.19999980555E+02 0.  0.
        -12    1    1    2    0    0 -0.42443516682E+02  0.75212168155E+01  0.50599242405E+01  0.43400733220E+02  0.00000000000E+00 0.  1.
         11    1    3    3    0    0  0.13610995460E+02 -0.22366505229E+01  0.61036637889E+00  0.13807039884E+02  0.51100000000E-03 0. -1.
        -11    1    3    3    0    0  0.17411123537E+02 -0.76090151262E+01 -0.10091044927E+02  0.21514495625E+02  0.51100000000E-03 0.  1.
        -12    1    3    3    0    0  0.11421397685E+02  0.23244488335E+01  0.44207543081E+01  0.12465731270E+02  0.00000000000E+00 0.  1.
</event>
<event>
 7    1  0.2700100E-010  0.4778727E+02  0.7816164E-02  0.1312668E+00
        -11   -1    0    0    0    0  0.00000000000E+00  0.00000000000E+00  0.45593999997E+02  0.45594000000E+02  0.51100000000E-03 0. -1.
         11   -1    0    0    0    0 -0.00000000000E+00 -0.00000000000E+00 -0.45593999997E+02  0.45594000000E+02  0.51100000000E-03 0.  1.
    9900012    2    1    2    0    0  0.26690200767E+02  0.13618471343E+02  0.31397358544E+02  0.47787266110E+02  0.19999977500E+02 0.  0.
        -12    1    1    2    0    0 -0.26690200767E+02 -0.13618471343E+02 -0.31397358544E+02  0.43400733890E+02  0.00000000000E+00 0.  1.
         11    1    3    3    0    0  0.86513397166E+01  0.17612692230E+01  0.11346805392E+02  0.14376986508E+02  0.51100000000E-03 0. -1.
        -11    1    3    3    0    0  0.19500904262E+02  0.13985004140E+02  0.19058263275E+02  0.30644461280E+02  0.51100000000E-03 0.  1.
        -12    1    3    3    0    0 -0.14620432113E+01 -0.21278020204E+01  0.99228987583E+00  0.27658183215E+01  0.00000000000E+00 0.  1.
</event>
<event>
 7    1  0.2700100E-010  0.4778727E+02  0.7816164E-02  0.1312668E+00
        -11   -1    0    0    0    0  0.00000000000E+00  0.00000000000E+00  0.45593999997E+02  0.45594000000E+02  0.51100000000E-03 0. -1.
         11   -1    0    0    0    0 -0.00000000000E+00 -0.00000000000E+00 -0.45593999997E+02  0.45594000000E+02  0.51100000000E-03 0.  1.
    9900012    2    1    2    0    0 -0.20865037475E+02 -0.19085621306E+02  0.32924351952E+02  0.47787266355E+02  0.19999978618E+02 0.  0.
        -12    1    1    2    0    0  0.20865037475E+02  0.19085621306E+02 -0.32924351952E+02  0.43400733645E+02  0.00000000000E+00 0.  1.
         11    1    3    3    0    0 -0.66069250426E+01 -0.98812492871E+01  0.25439006814E+01  0.12155738436E+02  0.51100000000E-03 0. -1.
        -11    1    3    3    0    0 -0.15245339306E+01 -0.11821138526E+01  0.24190592895E+00  0.19442519399E+01  0.51100000000E-03 0.  1.
         12    1    3    3    0    0 -0.12733578502E+02 -0.80222581667E+01  0.30138545342E+02  0.33687275979E+02  0.00000000000E+00 0. -1.
</event>
<event>
 7    1  0.2700100E-010  0.4778727E+02  0.7816164E-02  0.1312668E+00
        -11   -1    0    0    0    0  0.00000000000E+00  0.00000000000E+00  0.45593999997E+02  0.45594000000E+02  0.51100000000E-03 0.  1.
         11   -1    0    0    0    0 -0.00000000000E+00 -0.00000000000E+00 -0.45593999997E+02  0.45594000000E+02  0.51100000000E-03 0. -1.
    9900012    2    1    2    0    0  0.53383513571E+01  0.26163466081E+02  0.34214008006E+02  0.47787270785E+02  0.19999998816E+02 0.  0.
        -12    1    1    2    0    0 -0.53383513571E+01 -0.26163466081E+02 -0.34214008006E+02  0.43400729215E+02  0.00000000000E+00 0.  1.
         11    1    3    3    0    0  0.93196360635E+01  0.85642362151E+01  0.59716513833E+01  0.13995084094E+02  0.51100000000E-03 0. -1.
        -11    1    3    3    0    0 -0.13426394659E+01  0.12679858504E+02  0.21913498879E+02  0.25353164020E+02  0.51100000000E-03 0.  1.
         12    1    3    3    0    0 -0.26386452405E+01  0.49193713617E+01  0.63288577433E+01  0.84390226706E+01  0.00000000000E+00 0. -1.
</event>
<event>
 7    1  0.2700100E-010  0.4778727E+02  0.7816164E-02  0.1312668E+00
        -11   -1    0    0    0    0  0.00000000000E+00  0.00000000000E+00  0.45593999997E+02  0.45594000000E+02  0.51100000000E-03 0.  1.
         11   -1    0    0    0    0 -0.00000000000E+00 -0.00000000000E+00 -0.45593999997E+02  0.45594000000E+02  0.51100000000E-03 0. -1.
    9900012    2    1    2    0    0  0.27323381499E+02  0.15936083516E+02 -0.29716951262E+02  0.47787272740E+02  0.20000007730E+02 0.  0.
        -12    1    1    2    0    0 -0.27323381499E+02 -0.15936083516E+02  0.29716951262E+02  0.43400727260E+02  0.00000000000E+00 0.  1.
         11    1    3    3    0    0  0.19606975585E+02  0.45272515600E+01 -0.16028444908E+02  0.25726261771E+02  0.51100000000E-03 0. -1.
        -11    1    3    3    0    0 -0.18304115439E+01  0.60619888426E+01 -0.56084065253E+01  0.84588615760E+01  0.51100000000E-03 0.  1.
        -12    1    3    3    0    0  0.95468174580E+01  0.53468431130E+01 -0.80800998291E+01  0.13602149393E+02  0.00000000000E+00 0.  1.
</event>
<event>
 7    1  0.2700100E-010  0.4778727E+02  0.7816164E-02  0.1312668E+00
        -11   -1    0    0    0    0  0.00000000000E+00  0.00000000000E+00  0.45593999997E+02  0.45594000000E+02  0.51100000000E-03 0.  1.
         11   -1    0    0    0    0 -0.00000000000E+00 -0.00000000000E+00 -0.45593999997E+02  0.45594000000E+02  0.51100000000E-03 0. -1.
    9900012    2    1    2    0    0 -0.42136180019E+01  0.33378471406E+02 -0.27417987343E+02  0.47787274660E+02  0.20000016487E+02 0.  0.
        -12    1    1    2    0    0  0.42136180019E+01 -0.33378471406E+02  0.27417987343E+02  0.43400725340E+02  0.00000000000E+00 0.  1.
         11    1    3    3    0    0 -0.35399112183E+01  0.94491137474E+01 -0.87939098069E+01  0.13384676761E+02  0.51100000000E-03 0. -1.
        -11    1    3    3    0    0 -0.25991906524E+01  0.22202569077E+02 -0.84386860655E+01  0.23893959246E+02  0.51100000000E-03 0.  1.
        -12    1    3    3    0    0  0.19254838687E+01  0.17267885810E+01 -0.10185391471E+02  0.10508638653E+02  0.00000000000E+00 0.  1.
</event>
<event>
 7    1  0.2700100E-010  0.4778727E+02  0.7816164E-02  0.1312668E+00
        -11   -1    0    0    0    0  0.00000000000E+00  0.00000000000E+00  0.45593999997E+02  0.45594000000E+02  0.51100000000E-03 0. -1.
         11   -1    0    0    0    0 -0.00000000000E+00 -0.00000000000E+00 -0.45593999997E+02  0.45594000000E+02  0.51100000000E-03 0.  1.
    9900012    2    1    2    0    0 -0.23924698343E+02  0.20522142352E+02  0.29834105213E+02  0.47787270152E+02  0.19999995929E+02 0.  0.
        -12    1    1    2    0    0  0.23924698343E+02 -0.20522142352E+02 -0.29834105213E+02  0.43400729848E+02  0.00000000000E+00 0.  1.
         11    1    3    3    0    0 -0.19900195236E+02  0.21808273470E+02  0.24563154207E+02  0.38405300506E+02  0.51100000000E-03 0. -1.
        -11    1    3    3    0    0 -0.48594103393E+01 -0.30246728555E+01  0.32231894264E+01  0.65689774751E+01  0.51100000000E-03 0.  1.
         12    1    3    3    0    0  0.83490723208E+00  0.17385417379E+01  0.20477615799E+01  0.28129921700E+01  0.00000000000E+00 0. -1.
</event>
<event>
 7    1  0.2700100E-010  0.4778727E+02  0.7816164E-02  0.1312668E+00
        -11   -1    0    0    0    0  0.00000000000E+00  0.00000000000E+00  0.45593999997E+02  0.45594000000E+02  0.51100000000E-03 0. -1.
         11   -1    0    0    0    0 -0.00000000000E+00 -0.00000000000E+00 -0.45593999997E+02  0.45594000000E+02  0.51100000000E-03 0.  1.
    9900012    2    1    2    0    0 -0.58808958473E+00 -0.35331266312E+02 -0.25198799081E+02  0.47787266093E+02  0.19999977424E+02 0.  0.
        -12    1    1    2    0    0  0.58808958473E+00  0.35331266312E+02  0.25198799081E+02  0.43400733907E+02  0.00000000000E+00 0.  1.
         11    1    3    3    0    0 -0.15508231636E+01  0.18225402408E+01 -0.14757246975E+01  0.28114887619E+01  0.51100000000E-03 0. -1.
        -11    1    3    3    0    0  0.12636728026E+00  0.32510726253E+00  0.29216018244E+00  0.45499588460E+00  0.51100000000E-03 0.  1.
         12    1    3    3    0    0  0.83636629863E+00 -0.37478913815E+02 -0.24015234566E+02  0.44520781446E+02  0.00000000000E+00 0. -1.
</event>
<event>
 7    1  0.2700100E-010  0.4778728E+02  0.7816164E-02  0.1312668E+00
        -11   -1    0    0    0    0  0.00000000000E+00  0.00000000000E+00  0.45593999997E+02  0.45594000000E+02  0.51100000000E-03 0.  1.
         11   -1    0    0    0    0 -0.00000000000E+00 -0.00000000000E+00 -0.45593999997E+02  0.45594000000E+02  0.51100000000E-03 0. -1.
    9900012    2    1    2    0    0 -0.17299635158E+02 -0.28862932478E+01 -0.39699051910E+02  0.47787276644E+02  0.20000025529E+02 0.  0.
        -12    1    1    2    0    0  0.17299635158E+02  0.28862932478E+01  0.39699051910E+02  0.43400723356E+02  0.00000000000E+00 0.  1.
         11    1    3    3    0    0 -0.16084935817E+02 -0.53190942191E+01 -0.26612686581E+02  0.31547630828E+02  0.51100000000E-03 0. -1.
        -11    1    3    3    0    0  0.22604585858E+01  0.45011989441E+01 -0.45241551209E+01  0.67704094980E+01  0.51100000000E-03 0.  1.
        -12    1    3    3    0    0 -0.34751579264E+01 -0.20683979729E+01 -0.85622102079E+01  0.94692363172E+01  0.00000000000E+00 0.  1.
</event>
<event>
 7    1  0.2700100E-010  0.4778728E+02  0.7816164E-02  0.1312668E+00
        -11   -1    0    0    0    0  0.00000000000E+00  0.00000000000E+00  0.45593999997E+02  0.45594000000E+02  0.51100000000E-03 0. -1.
         11   -1    0    0    0    0 -0.00000000000E+00 -0.00000000000E+00 -0.45593999997E+02  0.45594000000E+02  0.51100000000E-03 0.  1.
    9900012    2    1    2    0    0 -0.24675986115E+02 -0.28540714004E+02  0.21451013316E+02  0.47787278590E+02  0.20000034403E+02 0.  0.
        -12    1    1    2    0    0  0.24675986115E+02  0.28540714004E+02 -0.21451013316E+02  0.43400721410E+02  0.00000000000E+00 0.  1.
         11    1    3    3    0    0 -0.68826113624E+00 -0.76241201432E+01  0.75665107687E+01  0.10763503000E+02  0.51100000000E-03 0. -1.
        -11    1    3    3    0    0 -0.10569433883E+02 -0.10386063453E+02  0.13370808699E+02  0.19959002285E+02  0.51100000000E-03 0.  1.
         12    1    3    3    0    0 -0.13418291096E+02 -0.10530530408E+02  0.51369384784E+00  0.17064773306E+02  0.00000000000E+00 0. -1.
</event>
<event>
 7    1  0.2700100E-010  0.4778727E+02  0.7816164E-02  0.1312668E+00
        -11   -1    0    0    0    0  0.00000000000E+00  0.00000000000E+00  0.45593999997E+02  0.45594000000E+02  0.51100000000E-03 0.  1.
         11   -1    0    0    0    0 -0.00000000000E+00 -0.00000000000E+00 -0.45593999997E+02  0.45594000000E+02  0.51100000000E-03 0. -1.
    9900012    2    1    2    0    0 -0.42401369787E+02  0.63538227465E+00 -0.92381474074E+01  0.47787271458E+02  0.20000001884E+02 0.  0.
        -12    1    1    2    0    0  0.42401369787E+02 -0.63538227465E+00  0.92381474074E+01  0.43400728542E+02  0.00000000000E+00 0.  1.
         11    1    3    3    0    0 -0.73685746910E+01 -0.15412753886E+01 -0.40073248665E+00  0.75387007891E+01  0.51100000000E-03 0. -1.
        -11    1    3    3    0    0 -0.14414504638E+02 -0.69587827709E+01 -0.74479474006E+01  0.17654306057E+02  0.51100000000E-03 0.  1.
        -12    1    3    3    0    0 -0.20618290458E+02  0.91354404342E+01 -0.13894675202E+01  0.22594264611E+02  0.00000000000E+00 0.  1.
</event>
<event>
 7    1  0.2700100E-010  0.4778727E+02  0.7816164E-02  0.1312668E+00
        -11   -1    0    0    0    0  0.00000000000E+00  0.00000000000E+00  0.45593999997E+02  0.45594000000E+02  0.51100000000E-03 0.  1.
         11   -1    0    0    0    0 -0.00000000000E+00 -0.00000000000E+00 -0.45593999997E+02  0.45594000000E+02  0.51100000000E-03 0. -1.
    9900012    2    1    2    0    0 -0.27022972457E+02 -0.28154168337E+02 -0.18992763117E+02  0.47787270905E+02  0.19999999363E+02 0.  0.
        -12    1    1    2    0    0  0.27022972457E+02  0.28154168337E+02  0.18992763117E+02  0.43400729095E+02  0.00000000000E+00 0.  1.
         11    1    3    3    0    0 -0.10302937552E+02 -0.10862133784E+02  0.17921884288E+01  0.15078077204E+02  0.51100000000E-03 0. -1.
        -11    1    3    3    0    0 -0.64668297884E+01 -0.64199167331E+01 -0.12952590942E+02  0.15836818833E+02  0.51100000000E-03 0.  1.
         12    1    3    3    0    0 -0.10253205118E+02 -0.10872117819E+02 -0.78323606041E+01  0.16872374868E+02  0.00000000000E+00 0. -1.
</event>
<event>
 7    1  0.2700100E-010  0.4778727E+02  0.7816164E-02  0.1312668E+00
        -11   -1    0    0    0    0  0.00000000000E+00  0.00000000000E+00  0.45593999997E+02  0.45594000000E+02  0.51100000000E-03 0.  1.
         11   -1    0    0    0    0 -0.00000000000E+00 -0.00000000000E+00 -0.45593999997E+02  0.45594000000E+02  0.51100000000E-03 0. -1.
    9900012    2    1    2    0    0 -0.62385305114E+01  0.19752678221E+02 -0.38138378074E+02  0.47787269108E+02  0.19999991170E+02 0.  0.
        -12    1    1    2    0    0  0.62385305114E+01 -0.19752678221E+02  0.38138378074E+02  0.43400730892E+02  0.00000000000E+00 0.  1.
         11    1    3    3    0    0 -0.13729245760E+01  0.56669415044E+00 -0.21455360670E+02  0.21506709787E+02  0.51100000000E-03 0. -1.
        -11    1    3    3    0    0 -0.48230408217E+01  0.10093401933E+02 -0.98750151606E+01  0.14921608829E+02  0.51100000000E-03 0.  1.
         12    1    3    3    0    0 -0.42565113659E-01  0.90925821375E+01 -0.68080022438E+01  0.11358950491E+02  0.00000000000E+00 0. -1.
</event>
<event>
 7    1  0.2700100E-010  0.4778722E+02  0.7816164E-02  0.1312668E+00
        -11   -1    0    0    0    0  0.00000000000E+00  0.00000000000E+00  0.45593999997E+02  0.45594000000E+02  0.51100000000E-03 0.  1.
         11   -1    0    0    0    0 -0.00000000000E+00 -0.00000000000E+00 -0.45593999997E+02  0.45594000000E+02  0.51100000000E-03 0. -1.
    9900012    2    1    2    0    0 -0.16553175227E+02 -0.20239911856E+02 -0.34640523911E+02  0.47787221910E+02  0.19999775974E+02 0.  0.
        -12    1    1    2    0    0  0.16553175227E+02  0.20239911856E+02  0.34640523911E+02  0.43400778090E+02  0.00000000000E+00 0.  1.
         11    1    3    3    0    0 -0.36032017607E+01  0.20586210049E+01 -0.14378581462E+01  0.43918583401E+01  0.51100000000E-03 0. -1.
        -11    1    3    3    0    0 -0.16099465951E+01 -0.14838798202E+01  0.44770168826E+00  0.22347850954E+01  0.51100000000E-03 0.  1.
         12    1    3    3    0    0 -0.11340026871E+02 -0.20814653040E+02 -0.33650367453E+02  0.41160578474E+02  0.00000000000E+00 0. -1.
</event>
<event>
 7    1  0.2700100E-010  0.4778727E+02  0.7816164E-02  0.1312668E+00
        -11   -1    0    0    0    0  0.00000000000E+00  0.00000000000E+00  0.45593999997E+02  0.45594000000E+02  0.51100000000E-03 0. -1.
         11   -1    0    0    0    0 -0.00000000000E+00 -0.00000000000E+00 -0.45593999997E+02  0.45594000000E+02  0.51100000000E-03 0.  1.
    9900012    2    1    2    0    0 -0.39421071746E+02  0.17873857664E+02  0.31823632006E+01  0.47787272807E+02  0.20000008034E+02 0.  0.
        -12    1    1    2    0    0  0.39421071746E+02 -0.17873857664E+02 -0.31823632006E+01  0.43400727193E+02  0.00000000000E+00 0.  1.
         11    1    3    3    0    0 -0.31481706361E+02  0.52447569889E+01  0.58176475951E+01  0.32441490950E+02  0.51100000000E-03 0.  1.
        -11    1    3    3    0    0 -0.78002697471E+01  0.11586839642E+02 -0.19815889992E+01  0.14107648856E+02  0.51100000000E-03 0. -1.
        -12    1    3    3    0    0 -0.13909563771E+00  0.10422610325E+01 -0.65369539533E+00  0.12381330002E+01  0.00000000000E+00 0.  1.
</event>
<event>
 7    1  0.2700100E-010  0.4778727E+02  0.7816164E-02  0.1312668E+00
        -11   -1    0    0    0    0  0.00000000000E+00  0.00000000000E+00  0.45593999997E+02  0.45594000000E+02  0.51100000000E-03 0.  1.
         11   -1    0    0    0    0 -0.00000000000E+00 -0.00000000000E+00 -0.45593999997E+02  0.45594000000E+02  0.51100000000E-03 0. -1.
    9900012    2    1    2    0    0  0.23569376566E+01  0.10079909035E+02 -0.42148115019E+02  0.47787270503E+02  0.19999997531E+02 0.  0.
        -12    1    1    2    0    0 -0.23569376566E+01 -0.10079909035E+02  0.42148115019E+02  0.43400729497E+02  0.00000000000E+00 0.  1.
         11    1    3    3    0    0  0.96004589388E+00 -0.25070732711E+01 -0.22494984904E+01  0.35024774410E+01  0.51100000000E-03 0. -1.
        -11    1    3    3    0    0 -0.11861537941E+01  0.14905801824E+02 -0.36421965224E+02  0.39371937213E+02  0.51100000000E-03 0.  1.
        -12    1    3    3    0    0  0.25830455568E+01 -0.23188195179E+01 -0.34766513039E+01  0.49128558491E+01  0.00000000000E+00 0.  1.
</event>
<event>
 7    1  0.2700100E-010  0.4778727E+02  0.7816164E-02  0.1312668E+00
        -11   -1    0    0    0    0  0.00000000000E+00  0.00000000000E+00  0.45593999997E+02  0.45594000000E+02  0.51100000000E-03 0. -1.
         11   -1    0    0    0    0 -0.00000000000E+00 -0.00000000000E+00 -0.45593999997E+02  0.45594000000E+02  0.51100000000E-03 0.  1.
    9900012    2    1    2    0    0  0.11856004236E+02  0.31072615406E+02  0.27884602318E+02  0.47787270616E+02  0.19999998046E+02 0.  0.
        -12    1    1    2    0    0 -0.11856004236E+02 -0.31072615406E+02 -0.27884602318E+02  0.43400729384E+02  0.00000000000E+00 0.  1.
         11    1    3    3    0    0  0.72970062944E+01  0.90416195462E+01  0.17100161448E+02  0.20673962046E+02  0.51100000000E-03 0. -1.
        -11    1    3    3    0    0  0.39935969377E+01  0.14202615420E+01  0.22444321305E+01  0.47961896542E+01  0.51100000000E-03 0.  1.
         12    1    3    3    0    0  0.56540100393E+00  0.20610734318E+02  0.85400087396E+01  0.22317118916E+02  0.00000000000E+00 0. -1.
</event>
<event>
 7    1  0.2700100E-010  0.4778727E+02  0.7816164E-02  0.1312668E+00
        -11   -1    0    0    0    0  0.00000000000E+00  0.00000000000E+00  0.45593999997E+02  0.45594000000E+02  0.51100000000E-03 0. -1.
         11   -1    0    0    0    0 -0.00000000000E+00 -0.00000000000E+00 -0.45593999997E+02  0.45594000000E+02  0.51100000000E-03 0.  1.
    9900012    2    1    2    0    0 -0.99353306180E+01 -0.41301309090E+02 -0.88946359751E+01  0.47787268714E+02  0.19999989375E+02 0.  0.
        -12    1    1    2    0    0  0.99353306180E+01  0.41301309090E+02  0.88946359751E+01  0.43400731286E+02  0.00000000000E+00 0.  1.
         11    1    3    3    0    0  0.31489771364E+00 -0.12946924632E+02 -0.50266398651E+01  0.13892052641E+02  0.51100000000E-03 0. -1.
        -11    1    3    3    0    0 -0.30723603015E+01 -0.19177541358E+02  0.40091850230E+01  0.19831567139E+02  0.51100000000E-03 0.  1.
        -12    1    3    3    0    0 -0.71778680302E+01 -0.91768430996E+01 -0.78771811331E+01  0.14063648934E+02  0.00000000000E+00 0.  1.
</event>
<event>
 7    1  0.2700100E-010  0.4778728E+02  0.7816164E-02  0.1312668E+00
        -11   -1    0    0    0    0  0.00000000000E+00  0.00000000000E+00  0.45593999997E+02  0.45594000000E+02  0.51100000000E-03 0. -1.
         11   -1    0    0    0    0 -0.00000000000E+00 -0.00000000000E+00 -0.45593999997E+02  0.45594000000E+02  0.51100000000E-03 0.  1.
    9900012    2    1    2    0    0  0.81770397896E+01  0.10918520720E+02  0.41201270270E+02  0.47787277123E+02  0.20000027713E+02 0.  0.
        -12    1    1    2    0    0 -0.81770397896E+01 -0.10918520720E+02 -0.41201270270E+02  0.43400722877E+02  0.00000000000E+00 0.  1.
         11    1    3    3    0    0  0.33649750882E+01  0.12535209115E+02  0.40207841226E+02  0.42250739890E+02  0.51100000000E-03 0. -1.
        -11    1    3    3    0    0  0.21866455295E+01 -0.17751451136E+01  0.51756419229E+00  0.28636396073E+01  0.51100000000E-03 0.  1.
         12    1    3    3    0    0  0.26254191718E+01  0.15845671832E+00  0.47586485113E+00  0.26728976254E+01  0.00000000000E+00 0. -1.
</event>
<event>
 7    1  0.2700100E-010  0.4778728E+02  0.7816164E-02  0.1312668E+00
        -11   -1    0    0    0    0  0.00000000000E+00  0.00000000000E+00  0.45593999997E+02  0.45594000000E+02  0.51100000000E-03 0.  1.
         11   -1    0    0    0    0 -0.00000000000E+00 -0.00000000000E+00 -0.45593999997E+02  0.45594000000E+02  0.51100000000E-03 0. -1.
    9900012    2    1    2    0    0  0.37336687915E+02 -0.17509498668E+02 -0.13528183733E+02  0.47787279232E+02  0.20000037332E+02 0.  0.
        -12    1    1    2    0    0 -0.37336687915E+02  0.17509498668E+02  0.13528183733E+02  0.43400720768E+02  0.00000000000E+00 0.  1.
         11    1    3    3    0    0  0.35602553887E+02 -0.15313759132E+02 -0.17391563862E+02  0.42479636956E+02  0.51100000000E-03 0. -1.
        -11    1    3    3    0    0 -0.49324700454E+00 -0.39593449621E+00  0.13765412162E+01  0.15149002323E+01  0.51100000000E-03 0.  1.
         12    1    3    3    0    0  0.22273810320E+01 -0.17998050390E+01  0.24868389125E+01  0.37927420447E+01  0.00000000000E+00 0. -1.
</event>
<event>
 7    1  0.2700100E-010  0.4778727E+02  0.7816164E-02  0.1312668E+00
        -11   -1    0    0    0    0  0.00000000000E+00  0.00000000000E+00  0.45593999997E+02  0.45594000000E+02  0.51100000000E-03 0.  1.
         11   -1    0    0    0    0 -0.00000000000E+00 -0.00000000000E+00 -0.45593999997E+02  0.45594000000E+02  0.51100000000E-03 0. -1.
    9900012    2    1    2    0    0  0.97204139839E+01  0.26360926878E+02 -0.33079276759E+02  0.47787268845E+02  0.19999989973E+02 0.  0.
        -12    1    1    2    0    0 -0.97204139839E+01 -0.26360926878E+02  0.33079276759E+02  0.43400731155E+02  0.00000000000E+00 0.  1.
         11    1    3    3    0    0  0.13857052810E+00  0.58145543134E+01 -0.64111382244E+01  0.86562657797E+01  0.51100000000E-03 0. -1.
        -11    1    3    3    0    0  0.87828281604E+00  0.14912218622E+02 -0.24254831930E+02  0.28485830112E+02  0.51100000000E-03 0.  1.
        -12    1    3    3    0    0  0.87035606398E+01  0.56341539421E+01 -0.24133066047E+01  0.10645172954E+02  0.00000000000E+00 0.  1.
</event>
<event>
 7    1  0.2700100E-010  0.4778727E+02  0.7816164E-02  0.1312668E+00
        -11   -1    0    0    0    0  0.00000000000E+00  0.00000000000E+00  0.45593999997E+02  0.45594000000E+02  0.51100000000E-03 0.  1.
         11   -1    0    0    0    0 -0.00000000000E+00 -0.00000000000E+00 -0.45593999997E+02  0.45594000000E+02  0.51100000000E-03 0. -1.
    9900012    2    1    2    0    0  0.35097449595E+02 -0.21758699357E+02 -0.13354816778E+02  0.47787273082E+02  0.20000009292E+02 0.  0.
        -12    1    1    2    0    0 -0.35097449595E+02  0.21758699357E+02  0.13354816778E+02  0.43400726918E+02  0.00000000000E+00 0.  1.
         11    1    3    3    0    0  0.76616487880E+00  0.12962869537E+01 -0.17317088188E+01  0.22948168079E+01  0.51100000000E-03 0.  1.
        -11    1    3    3    0    0  0.16608018210E+02 -0.34363765360E+01 -0.96786067275E+00  0.16987398479E+02  0.51100000000E-03 0. -1.
        -12    1    3    3    0    0  0.17723266507E+02 -0.19618609775E+02 -0.10655247286E+02  0.28505057795E+02  0.00000000000E+00 0.  1.
</event>
<event>
 7    1  0.2700100E-010  0.4778728E+02  0.7816164E-02  0.1312668E+00
        -11   -1    0    0    0    0  0.00000000000E+00  0.00000000000E+00  0.45593999997E+02  0.45594000000E+02  0.51100000000E-03 0.  1.
         11   -1    0    0    0    0 -0.00000000000E+00 -0.00000000000E+00 -0.45593999997E+02  0.45594000000E+02  0.51100000000E-03 0. -1.
    9900012    2    1    2    0    0 -0.19114026305E+02 -0.23533463497E+02 -0.31055643816E+02  0.47787275137E+02  0.20000018661E+02 0.  0.
        -12    1    1    2    0    0  0.19114026305E+02  0.23533463497E+02  0.31055643816E+02  0.43400724863E+02  0.00000000000E+00 0.  1.
         11    1    3    3    0    0 -0.16327182994E+02 -0.15431485076E+02 -0.24455244509E+02  0.33207930083E+02  0.51100000000E-03 0. -1.
        -11    1    3    3    0    0  0.85145678700E+00  0.67496016416E+00 -0.47843697884E+01  0.49061944944E+01  0.51100000000E-03 0.  1.
         12    1    3    3    0    0 -0.36383000973E+01 -0.87769385857E+01 -0.18160295191E+01  0.96731505596E+01  0.00000000000E+00 0. -1.
</event>
<event>
 7    1  0.2700100E-010  0.4778726E+02  0.7816164E-02  0.1312668E+00
        -11   -1    0    0    0    0  0.00000000000E+00  0.00000000000E+00  0.45593999997E+02  0.45594000000E+02  0.51100000000E-03 0.  1.
         11   -1    0    0    0    0 -0.00000000000E+00 -0.00000000000E+00 -0.45593999997E+02  0.45594000000E+02  0.51100000000E-03 0. -1.
    9900012    2    1    2    0    0 -0.11888091012E+02 -0.20517873279E+02 -0.36349890018E+02  0.47787258807E+02  0.19999944204E+02 0.  0.
        -12    1    1    2    0    0  0.11888091012E+02  0.20517873279E+02  0.36349890018E+02  0.43400741193E+02  0.00000000000E+00 0.  1.
         11    1    3    3    0    0 -0.61414793676E+01 -0.16986131003E+02 -0.12015823548E+02  0.21693926133E+02  0.51100000000E-03 0. -1.
        -11    1    3    3    0    0 -0.39878392181E+01 -0.22949755127E+01 -0.23220568599E+02  0.23672021050E+02  0.51100000000E-03 0.  1.
        -12    1    3    3    0    0 -0.17587724259E+01 -0.12367667625E+01 -0.11134978710E+01  0.24213116238E+01  0.00000000000E+00 0.  1.
</event>
<event>
 7    1  0.2700100E-010  0.4778726E+02  0.7816164E-02  0.1312668E+00
        -11   -1    0    0    0    0  0.00000000000E+00  0.00000000000E+00  0.45593999997E+02  0.45594000000E+02  0.51100000000E-03 0.  1.
         11   -1    0    0    0    0 -0.00000000000E+00 -0.00000000000E+00 -0.45593999997E+02  0.45594000000E+02  0.51100000000E-03 0. -1.
    9900012    2    1    2    0    0 -0.12747492494E+02  0.40339312720E+02  0.96884384210E+01  0.47787256289E+02  0.19999932724E+02 0.  0.
        -12    1    1    2    0    0  0.12747492494E+02 -0.40339312720E+02 -0.96884384210E+01  0.43400743711E+02  0.00000000000E+00 0.  1.
         11    1    3    3    0    0 -0.50260756552E+01  0.70359565215E+01  0.33263155076E+01  0.92644749328E+01  0.51100000000E-03 0. -1.
        -11    1    3    3    0    0 -0.52971333446E+01  0.64482532914E+01  0.79313442878E+01  0.11512854323E+02  0.51100000000E-03 0.  1.
        -12    1    3    3    0    0 -0.24242834941E+01  0.26855102908E+02 -0.15692213744E+01  0.27009927034E+02  0.00000000000E+00 0.  1.
</event>
<event>
 7    1  0.2700100E-010  0.4778726E+02  0.7816164E-02  0.1312668E+00
        -11   -1    0    0    0    0  0.00000000000E+00  0.00000000000E+00  0.45593999997E+02  0.45594000000E+02  0.51100000000E-03 0.  1.
         11   -1    0    0    0    0 -0.00000000000E+00 -0.00000000000E+00 -0.45593999997E+02  0.45594000000E+02  0.51100000000E-03 0. -1.
    9900012    2    1    2    0    0 -0.19363380967E+02  0.38337992539E+02 -0.62355579888E+01  0.47787258326E+02  0.19999942012E+02 0.  0.
        -12    1    1    2    0    0  0.19363380967E+02 -0.38337992539E+02  0.62355579888E+01  0.43400741674E+02  0.00000000000E+00 0.  1.
         11    1    3    3    0    0 -0.85315605497E+01  0.34216306961E+02 -0.48255939762E+01  0.35592549009E+02  0.51100000000E-03 0. -1.
        -11    1    3    3    0    0 -0.89345744131E+01  0.40401121092E+01 -0.23389395927E+01  0.10080662899E+02  0.51100000000E-03 0.  1.
         12    1    3    3    0    0 -0.18972460041E+01  0.81573468744E-01  0.92897558011E+00  0.21140464184E+01  0.00000000000E+00 0. -1.
</event>
<event>
 7    1  0.2700100E-010  0.4778727E+02  0.7816164E-02  0.1312668E+00
        -11   -1    0    0    0    0  0.00000000000E+00  0.00000000000E+00  0.45593999997E+02  0.45594000000E+02  0.51100000000E-03 0.  1.
         11   -1    0    0    0    0 -0.00000000000E+00 -0.00000000000E+00 -0.45593999997E+02  0.45594000000E+02  0.51100000000E-03 0. -1.
    9900012    2    1    2    0    0  0.94297094481E+01  0.17734637178E+02 -0.38473192692E+02  0.47787270374E+02  0.19999996944E+02 0.  0.
        -12    1    1    2    0    0 -0.94297094481E+01 -0.17734637178E+02  0.38473192692E+02  0.43400729626E+02  0.00000000000E+00 0.  1.
         11    1    3    3    0    0 -0.21863187716E+01  0.12107067975E+02 -0.15541414406E+02  0.19821620689E+02  0.51100000000E-03 0. -1.
        -11    1    3    3    0    0  0.11146878014E+02  0.58794400020E+01 -0.13311915961E+02  0.18331061372E+02  0.51100000000E-03 0.  1.
         12    1    3    3    0    0  0.46915020561E+00 -0.25187079969E+00 -0.96198623250E+01  0.96345883133E+01  0.00000000000E+00 0. -1.
</event>
<event>
 7    1  0.2700100E-010  0.4778727E+02  0.7816164E-02  0.1312668E+00
        -11   -1    0    0    0    0  0.00000000000E+00  0.00000000000E+00  0.45593999997E+02  0.45594000000E+02  0.51100000000E-03 0.  1.
         11   -1    0    0    0    0 -0.00000000000E+00 -0.00000000000E+00 -0.45593999997E+02  0.45594000000E+02  0.51100000000E-03 0. -1.
    9900012    2    1    2    0    0 -0.19940661441E+02 -0.17259817190E+02 -0.34468710427E+02  0.47787271128E+02  0.20000000381E+02 0.  0.
        -12    1    1    2    0    0  0.19940661441E+02  0.17259817190E+02  0.34468710427E+02  0.43400728872E+02  0.00000000000E+00 0.  1.
         11    1    3    3    0    0  0.11680873944E+00 -0.77177653436E+01 -0.15443524311E+02  0.17264993182E+02  0.51100000000E-03 0. -1.
        -11    1    3    3    0    0 -0.37722720635E+01 -0.27736432878E+01 -0.14189304797E+00  0.46843641519E+01  0.51100000000E-03 0.  1.
         12    1    3    3    0    0 -0.16285198117E+02 -0.67684085584E+01 -0.18883293068E+02  0.25837913794E+02  0.00000000000E+00 0. -1.
</event>
<event>
 7    1  0.2700100E-010  0.4778727E+02  0.7816164E-02  0.1312668E+00
        -11   -1    0    0    0    0  0.00000000000E+00  0.00000000000E+00  0.45593999997E+02  0.45594000000E+02  0.51100000000E-03 0.  1.
         11   -1    0    0    0    0 -0.00000000000E+00 -0.00000000000E+00 -0.45593999997E+02  0.45594000000E+02  0.51100000000E-03 0. -1.
    9900012    2    1    2    0    0  0.62540109348E+01  0.25689376941E+02 -0.34417529017E+02  0.47787273692E+02  0.20000012071E+02 0.  0.
        -12    1    1    2    0    0 -0.62540109348E+01 -0.25689376941E+02  0.34417529017E+02  0.43400726308E+02  0.00000000000E+00 0.  1.
         11    1    3    3    0    0  0.67786878752E+01  0.14898812306E+02 -0.20661838186E+02  0.26359756731E+02  0.51100000000E-03 0. -1.
        -11    1    3    3    0    0 -0.39248335657E+01 -0.31897945843E+00 -0.78683392624E+00  0.40156163041E+01  0.51100000000E-03 0.  1.
        -12    1    3    3    0    0  0.34001566253E+01  0.11109544094E+02 -0.12968856906E+02  0.17411900657E+02  0.00000000000E+00 0.  1.
</event>
<event>
 7    1  0.2700100E-010  0.4778728E+02  0.7816164E-02  0.1312668E+00
        -11   -1    0    0    0    0  0.00000000000E+00  0.00000000000E+00  0.45593999997E+02  0.45594000000E+02  0.51100000000E-03 0.  1.
         11   -1    0    0    0    0 -0.00000000000E+00 -0.00000000000E+00 -0.45593999997E+02  0.45594000000E+02  0.51100000000E-03 0. -1.
    9900012    2    1    2    0    0  0.10447509427E+01  0.37632627019E+02 -0.21594366547E+02  0.47787276649E+02  0.20000025551E+02 0.  0.
        -12    1    1    2    0    0 -0.10447509427E+01 -0.37632627019E+02  0.21594366547E+02  0.43400723351E+02  0.00000000000E+00 0.  1.
         11    1    3    3    0    0 -0.65910264352E+01  0.25014110292E+02 -0.16973628339E+02  0.30939479673E+02  0.51100000000E-03 0. -1.
        -11    1    3    3    0    0  0.64562005335E+01  0.50580278201E+01 -0.65097355130E+00  0.82273894756E+01  0.51100000000E-03 0.  1.
        -12    1    3    3    0    0  0.11795768444E+01  0.75604889065E+01 -0.39697646565E+01  0.86204074999E+01  0.00000000000E+00 0.  1.
</event>
<event>
 7    1  0.2700100E-010  0.4778727E+02  0.7816164E-02  0.1312668E+00
        -11   -1    0    0    0    0  0.00000000000E+00  0.00000000000E+00  0.45593999997E+02  0.45594000000E+02  0.51100000000E-03 0. -1.
         11   -1    0    0    0    0 -0.00000000000E+00 -0.00000000000E+00 -0.45593999997E+02  0.45594000000E+02  0.51100000000E-03 0.  1.
    9900012    2    1    2    0    0  0.28348513251E+02  0.11347547653E+02  0.30841824747E+02  0.47787271953E+02  0.20000004144E+02 0.  0.
        -12    1    1    2    0    0 -0.28348513251E+02 -0.11347547653E+02 -0.30841824747E+02  0.43400728047E+02  0.00000000000E+00 0.  1.
         11    1    3    3    0    0  0.24186039630E+02  0.10911933947E+02  0.27970587029E+02  0.38553709996E+02  0.51100000000E-03 0. -1.
        -11    1    3    3    0    0  0.20317646473E+01  0.17087209575E+01 -0.22903425124E+01  0.35062036418E+01  0.51100000000E-03 0.  1.
        -12    1    3    3    0    0  0.21307089736E+01 -0.12731072511E+01  0.51615802304E+01  0.57273583158E+01  0.00000000000E+00 0.  1.
</event>
<event>
 7    1  0.2700100E-010  0.4778727E+02  0.7816164E-02  0.1312668E+00
        -11   -1    0    0    0    0  0.00000000000E+00  0.00000000000E+00  0.45593999997E+02  0.45594000000E+02  0.51100000000E-03 0.  1.
         11   -1    0    0    0    0 -0.00000000000E+00 -0.00000000000E+00 -0.45593999997E+02  0.45594000000E+02  0.51100000000E-03 0. -1.
    9900012    2    1    2    0    0 -0.91837825517E+01  0.14581916679E+02 -0.39832770602E+02  0.47787265331E+02  0.19999973952E+02 0.  0.
        -12    1    1    2    0    0  0.91837825517E+01 -0.14581916679E+02  0.39832770602E+02  0.43400734669E+02  0.00000000000E+00 0.  1.
         11    1    3    3    0    0 -0.10899829915E+02  0.30546145712E+01 -0.15288682412E+02  0.19023164103E+02  0.51100000000E-03 0. -1.
        -11    1    3    3    0    0 -0.14380255553E+01  0.11578967629E+02 -0.17345825831E+02  0.20904977466E+02  0.51100000000E-03 0.  1.
         12    1    3    3    0    0  0.31540729191E+01 -0.51665522014E-01 -0.71982623593E+01  0.78591237615E+01  0.00000000000E+00 0. -1.
</event>
<event>
 7    1  0.2700100E-010  0.4778727E+02  0.7816164E-02  0.1312668E+00
        -11   -1    0    0    0    0  0.00000000000E+00  0.00000000000E+00  0.45593999997E+02  0.45594000000E+02  0.51100000000E-03 0.  1.
         11   -1    0    0    0    0 -0.00000000000E+00 -0.00000000000E+00 -0.45593999997E+02  0.45594000000E+02  0.51100000000E-03 0. -1.
    9900012    2    1    2    0    0  0.27324507696E+02 -0.12127770974E+02 -0.31462863108E+02  0.47787270691E+02  0.19999998388E+02 0.  0.
        -12    1    1    2    0    0 -0.27324507696E+02  0.12127770974E+02  0.31462863108E+02  0.43400729309E+02  0.00000000000E+00 0.  1.
         11    1    3    3    0    0  0.30409049857E+01 -0.10539803817E+00 -0.23903926804E+01  0.38693913353E+01  0.51100000000E-03 0. -1.
        -11    1    3    3    0    0  0.23863662471E+02 -0.58495817813E+01 -0.28611714986E+02  0.37713687545E+02  0.51100000000E-03 0.  1.
        -12    1    3    3    0    0  0.41994023949E+00 -0.61727911549E+01 -0.46075544125E+00  0.62041918106E+01  0.00000000000E+00 0.  1.
</event>
<event>
 7    1  0.2700100E-010  0.4778727E+02  0.7816164E-02  0.1312668E+00
        -11   -1    0    0    0    0  0.00000000000E+00  0.00000000000E+00  0.45593999997E+02  0.45594000000E+02  0.51100000000E-03 0.  1.
         11   -1    0    0    0    0 -0.00000000000E+00 -0.00000000000E+00 -0.45593999997E+02  0.45594000000E+02  0.51100000000E-03 0. -1.
    9900012    2    1    2    0    0  0.15079069861E+01 -0.19834602001E+02 -0.38573798225E+02  0.47787272708E+02  0.20000007583E+02 0.  0.
        -12    1    1    2    0    0 -0.15079069861E+01  0.19834602001E+02  0.38573798225E+02  0.43400727292E+02  0.00000000000E+00 0.  1.
         11    1    3    3    0    0 -0.63272123035E+00 -0.10799285251E+01 -0.19135316391E+02  0.19176207014E+02  0.51100000000E-03 0. -1.
        -11    1    3    3    0    0  0.77918472267E+00 -0.20315040453E+01  0.80340488779E+00  0.23193958681E+01  0.51100000000E-03 0.  1.
         12    1    3    3    0    0  0.13614434938E+01 -0.16723169431E+02 -0.20241886721E+02  0.26291669826E+02  0.00000000000E+00 0. -1.
</event>
<event>
 7    1  0.2700100E-010  0.4778727E+02  0.7816164E-02  0.1312668E+00
        -11   -1    0    0    0    0  0.00000000000E+00  0.00000000000E+00  0.45593999997E+02  0.45594000000E+02  0.51100000000E-03 0.  1.
         11   -1    0    0    0    0 -0.00000000000E+00 -0.00000000000E+00 -0.45593999997E+02  0.45594000000E+02  0.51100000000E-03 0. -1.
    9900012    2    1    2    0    0  0.24003630537E+02 -0.24005969384E+02 -0.27040014709E+02  0.47787271428E+02  0.20000001751E+02 0.  0.
        -12    1    1    2    0    0 -0.24003630537E+02  0.24005969384E+02  0.27040014709E+02  0.43400728572E+02  0.00000000000E+00 0.  1.
         11    1    3    3    0    0  0.74049689658E+01  0.14981557222E+01 -0.40459632143E+01  0.85701723755E+01  0.51100000000E-03 0.  1.
        -11    1    3    3    0    0 -0.18860408284E+00 -0.34799696649E+01 -0.46114812646E+00  0.35154541988E+01  0.51100000000E-03 0. -1.
         12    1    3    3    0    0  0.16787265654E+02 -0.22024155442E+02 -0.22532903369E+02  0.35701644854E+02  0.00000000000E+00 0. -1.
</event>
<event>
 7    1  0.2700100E-010  0.4778727E+02  0.7816164E-02  0.1312668E+00
        -11   -1    0    0    0    0  0.00000000000E+00  0.00000000000E+00  0.45593999997E+02  0.45594000000E+02  0.51100000000E-03 0.  1.
         11   -1    0    0    0    0 -0.00000000000E+00 -0.00000000000E+00 -0.45593999997E+02  0.45594000000E+02  0.51100000000E-03 0. -1.
    9900012    2    1    2    0    0 -0.29237064032E+02 -0.32020231715E+02  0.18767395663E+01  0.47787270700E+02  0.19999998431E+02 0.  0.
        -12    1    1    2    0    0  0.29237064032E+02  0.32020231715E+02 -0.18767395663E+01  0.43400729300E+02  0.00000000000E+00 0.  1.
         11    1    3    3    0    0 -0.93353323376E+01 -0.15070317721E+02  0.16157351058E+00  0.17728198226E+02  0.51100000000E-03 0. -1.
        -11    1    3    3    0    0  0.64194974753E+00 -0.55918077438E+01 -0.25854340557E+01  0.61939392021E+01  0.51100000000E-03 0.  1.
        -12    1    3    3    0    0 -0.20543681442E+02 -0.11358106250E+02  0.43006001114E+01  0.23865133273E+02  0.00000000000E+00 0.  1.
</event>
<event>
 7    1  0.2700100E-010  0.4778727E+02  0.7816164E-02  0.1312668E+00
        -11   -1    0    0    0    0  0.00000000000E+00  0.00000000000E+00  0.45593999997E+02  0.45594000000E+02  0.51100000000E-03 0.  1.
         11   -1    0    0    0    0 -0.00000000000E+00 -0.00000000000E+00 -0.45593999997E+02  0.45594000000E+02  0.51100000000E-03 0. -1.
    9900012    2    1    2    0    0 -0.52377893424E+01 -0.85092119023E+00 -0.43075105150E+02  0.47787272036E+02  0.20000004523E+02 0.  0.
        -12    1    1    2    0    0  0.52377893424E+01  0.85092119023E+00  0.43075105150E+02  0.43400727964E+02  0.00000000000E+00 0.  1.
         11    1    3    3    0    0 -0.27059222629E+01  0.19467353564E+01 -0.15342934582E+02  0.15700873724E+02  0.51100000000E-03 0. -1.
        -11    1    3    3    0    0  0.56220623506E+00 -0.30639280598E+01  0.93432246284E+00  0.32521823030E+01  0.51100000000E-03 0.  1.
        -12    1    3    3    0    0 -0.30940733146E+01  0.26627151311E+00 -0.28666493031E+02  0.28834216009E+02  0.00000000000E+00 0.  1.
</event>
<event>
 7    1  0.2700100E-010  0.4778727E+02  0.7816164E-02  0.1312668E+00
        -11   -1    0    0    0    0  0.00000000000E+00  0.00000000000E+00  0.45593999997E+02  0.45594000000E+02  0.51100000000E-03 0.  1.
         11   -1    0    0    0    0 -0.00000000000E+00 -0.00000000000E+00 -0.45593999997E+02  0.45594000000E+02  0.51100000000E-03 0. -1.
    9900012    2    1    2    0    0 -0.15094526506E+02  0.31155211518E+02 -0.26175012912E+02  0.47787271480E+02  0.20000001984E+02 0.  0.
        -12    1    1    2    0    0  0.15094526506E+02 -0.31155211518E+02  0.26175012912E+02  0.43400728520E+02  0.00000000000E+00 0.  1.
         11    1    3    3    0    0  0.73521402889E+00  0.53407013645E+01 -0.10138671528E+02  0.11482869473E+02  0.51100000000E-03 0. -1.
        -11    1    3    3    0    0 -0.99265313005E+01  0.24023199114E+02 -0.10563814865E+02  0.28057874191E+02  0.51100000000E-03 0.  1.
        -12    1    3    3    0    0 -0.59032092347E+01  0.17913110390E+01 -0.54725265196E+01  0.82465278157E+01  0.00000000000E+00 0.  1.
</event>
<event>
 7    1  0.2700100E-010  0.4778731E+02  0.7816164E-02  0.1312668E+00
        -11   -1    0    0    0    0  0.00000000000E+00  0.00000000000E+00  0.45593999997E+02  0.45594000000E+02  0.51100000000E-03 0.  1.
         11   -1    0    0    0    0 -0.00000000000E+00 -0.00000000000E+00 -0.45593999997E+02  0.45594000000E+02  0.51100000000E-03 0. -1.
    9900012    2    1    2    0    0 -0.36436859698E+02  0.18032532789E+02 -0.15192200774E+02  0.47787309362E+02  0.20000174706E+02 0.  0.
        -12    1    1    2    0    0  0.36436859698E+02 -0.18032532789E+02  0.15192200774E+02  0.43400690638E+02  0.00000000000E+00 0.  1.
         11    1    3    3    0    0 -0.10991802594E+02  0.76675761351E+01 -0.17544234999E+01  0.13516266131E+02  0.51100000000E-03 0. -1.
        -11    1    3    3    0    0 -0.22613395749E+02  0.12306677243E+02 -0.15704253753E+02  0.30156981916E+02  0.51100000000E-03 0.  1.
        -12    1    3    3    0    0 -0.28316613558E+01 -0.19417205893E+01  0.22664764788E+01  0.41140613157E+01  0.00000000000E+00 0.  1.
</event>
<event>
 7    1  0.2700100E-010  0.4778727E+02  0.7816164E-02  0.1312668E+00
        -11   -1    0    0    0    0  0.00000000000E+00  0.00000000000E+00  0.45593999997E+02  0.45594000000E+02  0.51100000000E-03 0. -1.
         11   -1    0    0    0    0 -0.00000000000E+00 -0.00000000000E+00 -0.45593999997E+02  0.45594000000E+02  0.51100000000E-03 0.  1.
    9900012    2    1    2    0    0  0.56763454214E+01  0.33152410486E+02  0.27428454474E+02  0.47787270361E+02  0.19999996884E+02 0.  0.
        -12    1    1    2    0    0 -0.56763454214E+01 -0.33152410486E+02 -0.27428454474E+02  0.43400729639E+02  0.00000000000E+00 0.  1.
         11    1    3    3    0    0  0.92156290709E+01  0.86521120565E+01  0.55073436268E+01  0.13788317385E+02  0.51100000000E-03 0. -1.
        -11    1    3    3    0    0 -0.50057030735E+00  0.65455285829E+00  0.38186736543E+01  0.39065686754E+01  0.51100000000E-03 0.  1.
         12    1    3    3    0    0 -0.30387133422E+01  0.23845745571E+02  0.18102437193E+02  0.30092384301E+02  0.00000000000E+00 0. -1.
</event>
<event>
 7    1  0.2700100E-010  0.4778727E+02  0.7816164E-02  0.1312668E+00
        -11   -1    0    0    0    0  0.00000000000E+00  0.00000000000E+00  0.45593999997E+02  0.45594000000E+02  0.51100000000E-03 0. -1.
         11   -1    0    0    0    0 -0.00000000000E+00 -0.00000000000E+00 -0.45593999997E+02  0.45594000000E+02  0.51100000000E-03 0.  1.
    9900012    2    1    2    0    0 -0.17705097643E+02  0.14150764785E+02  0.37012280069E+02  0.47787268411E+02  0.19999987993E+02 0.  0.
        -12    1    1    2    0    0  0.17705097643E+02 -0.14150764785E+02 -0.37012280069E+02  0.43400731589E+02  0.00000000000E+00 0.  1.
         11    1    3    3    0    0 -0.14662220001E+02  0.16716717020E+02  0.22795463365E+02  0.31844347593E+02  0.51100000000E-03 0. -1.
        -11    1    3    3    0    0 -0.42840214341E+01 -0.29189774630E+01  0.13512673201E+02  0.14472926669E+02  0.51100000000E-03 0.  1.
         12    1    3    3    0    0  0.12411437927E+01  0.35302522814E+00  0.70414350295E+00  0.14699941492E+01  0.00000000000E+00 0. -1.
</event>
<event>
 7    1  0.2700100E-010  0.4778727E+02  0.7816164E-02  0.1312668E+00
        -11   -1    0    0    0    0  0.00000000000E+00  0.00000000000E+00  0.45593999997E+02  0.45594000000E+02  0.51100000000E-03 0.  1.
         11   -1    0    0    0    0 -0.00000000000E+00 -0.00000000000E+00 -0.45593999997E+02  0.45594000000E+02  0.51100000000E-03 0. -1.
    9900012    2    1    2    0    0 -0.46023120495E+01 -0.42373656476E+02 -0.81801733999E+01  0.47787271017E+02  0.19999999876E+02 0.  0.
        -12    1    1    2    0    0  0.46023120495E+01  0.42373656476E+02  0.81801733999E+01  0.43400728983E+02  0.00000000000E+00 0.  1.
         11    1    3    3    0    0 -0.53994023845E+01 -0.32902576051E+02 -0.26286640292E+01  0.33446119831E+02  0.51100000000E-03 0. -1.
        -11    1    3    3    0    0  0.40555060962E+01 -0.18064780798E+01 -0.20525511076E+00  0.44443922724E+01  0.51100000000E-03 0.  1.
        -12    1    3    3    0    0 -0.32584157612E+01 -0.76646023457E+01 -0.53462542599E+01  0.98967589141E+01  0.00000000000E+00 0.  1.
</event>
<event>
 7    1  0.2700100E-010  0.4778727E+02  0.7816164E-02  0.1312668E+00
        -11   -1    0    0    0    0  0.00000000000E+00  0.00000000000E+00  0.45593999997E+02  0.45594000000E+02  0.51100000000E-03 0. -1.
         11   -1    0    0    0    0 -0.00000000000E+00 -0.00000000000E+00 -0.45593999997E+02  0.45594000000E+02  0.51100000000E-03 0.  1.
    9900012    2    1    2    0    0 -0.25006231114E+02  0.14785044319E+02  0.32244601463E+02  0.47787268975E+02  0.19999990563E+02 0.  0.
        -12    1    1    2    0    0  0.25006231114E+02 -0.14785044319E+02 -0.32244601463E+02  0.43400731025E+02  0.00000000000E+00 0.  1.
         11    1    3    3    0    0 -0.78449621322E+01  0.69531505769E+01  0.14371602981E+02  0.17788555487E+02  0.51100000000E-03 0. -1.
        -11    1    3    3    0    0 -0.85989023317E+01 -0.31596383537E+01  0.30499508538E+01  0.96553941560E+01  0.51100000000E-03 0.  1.
        -12    1    3    3    0    0 -0.85623666503E+01  0.10991532095E+02  0.14823047628E+02  0.20343319332E+02  0.00000000000E+00 0.  1.
</event>
<event>
 7    1  0.2700100E-010  0.4778727E+02  0.7816164E-02  0.1312668E+00
        -11   -1    0    0    0    0  0.00000000000E+00  0.00000000000E+00  0.45593999997E+02  0.45594000000E+02  0.51100000000E-03 0. -1.
         11   -1    0    0    0    0 -0.00000000000E+00 -0.00000000000E+00 -0.45593999997E+02  0.45594000000E+02  0.51100000000E-03 0.  1.
    9900012    2    1    2    0    0  0.31766233341E+02  0.91516390720E+01  0.28120759444E+02  0.47787272010E+02  0.20000004401E+02 0.  0.
        -12    1    1    2    0    0 -0.31766233341E+02 -0.91516390720E+01 -0.28120759444E+02  0.43400727990E+02  0.00000000000E+00 0.  1.
         11    1    3    3    0    0  0.84242433686E+01 -0.29310199627E+00  0.48300325799E+01  0.97150913582E+01  0.51100000000E-03 0. -1.
        -11    1    3    3    0    0  0.89173133368E+01  0.74138142163E+01  0.12653805386E+01  0.11665517843E+02  0.51100000000E-03 0.  1.
        -12    1    3    3    0    0  0.14424676636E+02  0.20309268519E+01  0.22025346326E+02  0.26406662808E+02  0.00000000000E+00 0.  1.
</event>
<event>
 7    1  0.2700100E-010  0.4778727E+02  0.7816164E-02  0.1312668E+00
        -11   -1    0    0    0    0  0.00000000000E+00  0.00000000000E+00  0.45593999997E+02  0.45594000000E+02  0.51100000000E-03 0. -1.
         11   -1    0    0    0    0 -0.00000000000E+00 -0.00000000000E+00 -0.45593999997E+02  0.45594000000E+02  0.51100000000E-03 0.  1.
    9900012    2    1    2    0    0  0.43073628740E+02 -0.49022027509E+01  0.20625479178E+01  0.47787272027E+02  0.20000004481E+02 0.  0.
        -12    1    1    2    0    0 -0.43073628740E+02  0.49022027509E+01 -0.20625479178E+01  0.43400727973E+02  0.00000000000E+00 0.  1.
         11    1    3    3    0    0  0.11532932695E+02  0.30135891290E+01  0.49128569778E+01  0.12892882530E+02  0.51100000000E-03 0. -1.
        -11    1    3    3    0    0  0.30913582791E+02 -0.94677964581E+01 -0.92638009623E+00  0.32344195014E+02  0.51100000000E-03 0.  1.
        -12    1    3    3    0    0  0.62711325372E+00  0.15520045782E+01 -0.19239289638E+01  0.25501944830E+01  0.00000000000E+00 0.  1.
</event>
<event>
 7    1  0.2700100E-010  0.4778726E+02  0.7816164E-02  0.1312668E+00
        -11   -1    0    0    0    0  0.00000000000E+00  0.00000000000E+00  0.45593999997E+02  0.45594000000E+02  0.51100000000E-03 0.  1.
         11   -1    0    0    0    0 -0.00000000000E+00 -0.00000000000E+00 -0.45593999997E+02  0.45594000000E+02  0.51100000000E-03 0. -1.
    9900012    2    1    2    0    0  0.28202527564E+01  0.16681985861E+02 -0.39967260979E+02  0.47787257748E+02  0.19999939375E+02 0.  0.
        -12    1    1    2    0    0 -0.28202527564E+01 -0.16681985861E+02  0.39967260979E+02  0.43400742252E+02  0.00000000000E+00 0.  1.
         11    1    3    3    0    0 -0.63384974468E+01  0.75663700519E+01 -0.14086842233E+02  0.17200745042E+02  0.51100000000E-03 0. -1.
        -11    1    3    3    0    0  0.10845948318E+02  0.58204042418E+01 -0.22091529547E+02  0.25289273980E+02  0.51100000000E-03 0.  1.
        -12    1    3    3    0    0 -0.16871981148E+01  0.32952115677E+01 -0.37888891988E+01  0.52972387255E+01  0.00000000000E+00 0.  1.
</event>
<event>
 7    1  0.2700100E-010  0.4778727E+02  0.7816164E-02  0.1312668E+00
        -11   -1    0    0    0    0  0.00000000000E+00  0.00000000000E+00  0.45593999997E+02  0.45594000000E+02  0.51100000000E-03 0.  1.
         11   -1    0    0    0    0 -0.00000000000E+00 -0.00000000000E+00 -0.45593999997E+02  0.45594000000E+02  0.51100000000E-03 0. -1.
    9900012    2    1    2    0    0 -0.18044829881E+02 -0.35553488286E+02 -0.17145173040E+02  0.47787269899E+02  0.19999994778E+02 0.  0.
        -12    1    1    2    0    0  0.18044829881E+02  0.35553488286E+02  0.17145173040E+02  0.43400730101E+02  0.00000000000E+00 0.  1.
         11    1    3    3    0    0  0.51834797059E+00 -0.34696664690E+01  0.33586134711E+01  0.48567020430E+01  0.51100000000E-03 0. -1.
        -11    1    3    3    0    0 -0.68009769932E+01 -0.85265743132E+01 -0.92301187174E+01  0.14288136666E+02  0.51100000000E-03 0.  1.
         12    1    3    3    0    0 -0.11762200858E+02 -0.23557247504E+02 -0.11273667794E+02  0.28642431190E+02  0.00000000000E+00 0. -1.
</event>
<event>
 7    1  0.2700100E-010  0.4778727E+02  0.7816164E-02  0.1312668E+00
        -11   -1    0    0    0    0  0.00000000000E+00  0.00000000000E+00  0.45593999997E+02  0.45594000000E+02  0.51100000000E-03 0.  1.
         11   -1    0    0    0    0 -0.00000000000E+00 -0.00000000000E+00 -0.45593999997E+02  0.45594000000E+02  0.51100000000E-03 0. -1.
    9900012    2    1    2    0    0 -0.40597318591E+02  0.99622970449E+01 -0.11671905879E+02  0.47787273900E+02  0.20000013018E+02 0.  0.
        -12    1    1    2    0    0  0.40597318591E+02 -0.99622970449E+01  0.11671905879E+02  0.43400726100E+02  0.00000000000E+00 0.  1.
         11    1    3    3    0    0 -0.70146820431E+01  0.55969304265E+01 -0.10216855735E+02  0.13598365186E+02  0.51100000000E-03 0. -1.
        -11    1    3    3    0    0 -0.26775606883E+02  0.40174592352E+01  0.56084038109E+00  0.27081130790E+02  0.51100000000E-03 0.  1.
         12    1    3    3    0    0 -0.68070296648E+01  0.34790738325E+00 -0.20158905253E+01  0.71077779239E+01  0.00000000000E+00 0. -1.
</event>
<event>
 7    1  0.2700100E-010  0.4778728E+02  0.7816164E-02  0.1312668E+00
        -11   -1    0    0    0    0  0.00000000000E+00  0.00000000000E+00  0.45593999997E+02  0.45594000000E+02  0.51100000000E-03 0.  1.
         11   -1    0    0    0    0 -0.00000000000E+00 -0.00000000000E+00 -0.45593999997E+02  0.45594000000E+02  0.51100000000E-03 0. -1.
    9900012    2    1    2    0    0 -0.37580139886E+02  0.21277963353E+02  0.43131891390E+01  0.47787282969E+02  0.20000054367E+02 0.  0.
        -12    1    1    2    0    0  0.37580139886E+02 -0.21277963353E+02 -0.43131891390E+01  0.43400717031E+02  0.00000000000E+00 0.  1.
         11    1    3    3    0    0 -0.26743352689E+01  0.27508717391E+01 -0.55632500310E+00  0.38767076529E+01  0.51100000000E-03 0. -1.
        -11    1    3    3    0    0 -0.26013301481E+02  0.21665232945E+02  0.61057125799E+01  0.34399911321E+02  0.51100000000E-03 0.  1.
        -12    1    3    3    0    0 -0.88925031362E+01 -0.31381413319E+01 -0.12361984379E+01  0.95106639949E+01  0.00000000000E+00 0.  1.
</event>
<event>
 7    1  0.2700100E-010  0.4778728E+02  0.7816164E-02  0.1312668E+00
        -11   -1    0    0    0    0  0.00000000000E+00  0.00000000000E+00  0.45593999997E+02  0.45594000000E+02  0.51100000000E-03 0. -1.
         11   -1    0    0    0    0 -0.00000000000E+00 -0.00000000000E+00 -0.45593999997E+02  0.45594000000E+02  0.51100000000E-03 0.  1.
    9900012    2    1    2    0    0  0.34319897552E+02 -0.13243036069E+02  0.23030186708E+02  0.47787275673E+02  0.20000021105E+02 0.  0.
        -12    1    1    2    0    0 -0.34319897552E+02  0.13243036069E+02 -0.23030186708E+02  0.43400724327E+02  0.00000000000E+00 0.  1.
         11    1    3    3    0    0  0.12440043853E+02 -0.84113418273E+01  0.58133453966E+00  0.15028084126E+02  0.51100000000E-03 0. -1.
        -11    1    3    3    0    0  0.11649555153E+02 -0.27840408326E+01  0.17513413230E+02  0.21217508380E+02  0.51100000000E-03 0.  1.
        -12    1    3    3    0    0  0.10230298546E+02 -0.20476534087E+01  0.49354389377E+01  0.11541683167E+02  0.00000000000E+00 0.  1.
</event>
<event>
 7    1  0.2700100E-010  0.4778726E+02  0.7816164E-02  0.1312668E+00
        -11   -1    0    0    0    0  0.00000000000E+00  0.00000000000E+00  0.45593999997E+02  0.45594000000E+02  0.51100000000E-03 0. -1.
         11   -1    0    0    0    0 -0.00000000000E+00 -0.00000000000E+00 -0.45593999997E+02  0.45594000000E+02  0.51100000000E-03 0.  1.
    9900012    2    1    2    0    0 -0.86370915221E+01  0.29855940635E+02  0.30292704150E+02  0.47787257311E+02  0.19999937386E+02 0.  0.
        -12    1    1    2    0    0  0.86370915221E+01 -0.29855940635E+02 -0.30292704150E+02  0.43400742689E+02  0.00000000000E+00 0.  1.
         11    1    3    3    0    0 -0.38104709755E+01  0.38256168940E+01  0.85225395522E+01  0.10089039318E+02  0.51100000000E-03 0. -1.
        -11    1    3    3    0    0  0.57479258082E+01  0.76228169169E+01  0.69034800884E+01  0.11781512061E+02  0.51100000000E-03 0.  1.
        -12    1    3    3    0    0 -0.10574546355E+02  0.18407506824E+02  0.14866684510E+02  0.25916705933E+02  0.00000000000E+00 0.  1.
</event>
<event>
 7    1  0.2700100E-010  0.4778727E+02  0.7816164E-02  0.1312668E+00
        -11   -1    0    0    0    0  0.00000000000E+00  0.00000000000E+00  0.45593999997E+02  0.45594000000E+02  0.51100000000E-03 0.  1.
         11   -1    0    0    0    0 -0.00000000000E+00 -0.00000000000E+00 -0.45593999997E+02  0.45594000000E+02  0.51100000000E-03 0. -1.
    9900012    2    1    2    0    0 -0.13021607522E+02  0.14790195737E+02 -0.38669253441E+02  0.47787270581E+02  0.19999997888E+02 0.  0.
        -12    1    1    2    0    0  0.13021607522E+02 -0.14790195737E+02  0.38669253441E+02  0.43400729419E+02  0.00000000000E+00 0.  1.
         11    1    3    3    0    0 -0.10872545450E+02  0.14505862575E+02 -0.27601291015E+02  0.33022167699E+02  0.51100000000E-03 0. -1.
        -11    1    3    3    0    0 -0.29525217176E+01 -0.81453541831E+00  0.51207428508E+00  0.31053297370E+01  0.51100000000E-03 0.  1.
        -12    1    3    3    0    0  0.80345964549E+00  0.10988685801E+01 -0.11580036711E+02  0.11659773145E+02  0.00000000000E+00 0.  1.
</event>
<event>
 7    1  0.2700100E-010  0.4778727E+02  0.7816164E-02  0.1312668E+00
        -11   -1    0    0    0    0  0.00000000000E+00  0.00000000000E+00  0.45593999997E+02  0.45594000000E+02  0.51100000000E-03 0.  1.
         11   -1    0    0    0    0 -0.00000000000E+00 -0.00000000000E+00 -0.45593999997E+02  0.45594000000E+02  0.51100000000E-03 0. -1.
    9900012    2    1    2    0    0  0.24248370117E+02  0.23282284834E+02 -0.27451326767E+02  0.47787267498E+02  0.19999983832E+02 0.  0.
        -12    1    1    2    0    0 -0.24248370117E+02 -0.23282284834E+02  0.27451326767E+02  0.43400732502E+02  0.00000000000E+00 0.  1.
         11    1    3    3    0    0  0.19679460976E+02  0.24134805143E+02 -0.22919384880E+02  0.38666111869E+02  0.51100000000E-03 0. -1.
        -11    1    3    3    0    0  0.72430827647E+00 -0.63982844659E+00  0.16066264145E+01  0.18749004287E+01  0.51100000000E-03 0.  1.
         12    1    3    3    0    0  0.38446008651E+01 -0.21269186223E+00 -0.61385683013E+01  0.72462552004E+01  0.00000000000E+00 0. -1.
</event>
<event>
 7    1  0.2700100E-010  0.4778727E+02  0.7816164E-02  0.1312668E+00
        -11   -1    0    0    0    0  0.00000000000E+00  0.00000000000E+00  0.45593999997E+02  0.45594000000E+02  0.51100000000E-03 0. -1.
         11   -1    0    0    0    0 -0.00000000000E+00 -0.00000000000E+00 -0.45593999997E+02  0.45594000000E+02  0.51100000000E-03 0.  1.
    9900012    2    1    2    0    0  0.16155667745E+02  0.33238594061E+02 -0.22755522582E+02  0.47787267939E+02  0.19999985843E+02 0.  0.
        -12    1    1    2    0    0 -0.16155667745E+02 -0.33238594061E+02  0.22755522582E+02  0.43400732061E+02  0.00000000000E+00 0.  1.
         11    1    3    3    0    0  0.12370464939E+02  0.19496544529E+02 -0.14470495092E+02  0.27249566599E+02  0.51100000000E-03 0. -1.
        -11    1    3    3    0    0  0.62703379117E+01  0.89001202194E+01 -0.10049613999E+02  0.14816342978E+02  0.51100000000E-03 0.  1.
         12    1    3    3    0    0 -0.24851351061E+01  0.48419293127E+01  0.17645865090E+01  0.57213583626E+01  0.00000000000E+00 0. -1.
</event>
<event>
 7    1  0.2700100E-010  0.4778727E+02  0.7816164E-02  0.1312668E+00
        -11   -1    0    0    0    0  0.00000000000E+00  0.00000000000E+00  0.45593999997E+02  0.45594000000E+02  0.51100000000E-03 0. -1.
         11   -1    0    0    0    0 -0.00000000000E+00 -0.00000000000E+00 -0.45593999997E+02  0.45594000000E+02  0.51100000000E-03 0.  1.
    9900012    2    1    2    0    0 -0.11218348353E+02  0.41917929670E+02  0.81177613071E+00  0.47787272494E+02  0.20000006608E+02 0.  0.
        -12    1    1    2    0    0  0.11218348353E+02 -0.41917929670E+02 -0.81177613071E+00  0.43400727506E+02  0.00000000000E+00 0.  1.
         11    1    3    3    0    0 -0.84043201565E+01  0.16117521629E+02  0.43061103959E+01  0.18680195067E+02  0.51100000000E-03 0. -1.
        -11    1    3    3    0    0  0.38008512149E+01  0.23276575198E+01 -0.11798383647E+01  0.46104748470E+01  0.51100000000E-03 0.  1.
        -12    1    3    3    0    0 -0.66148794111E+01  0.23472750521E+02 -0.23144959005E+01  0.24496602579E+02  0.00000000000E+00 0.  1.
</event>
<event>
 7    1  0.2700100E-010  0.4778727E+02  0.7816164E-02  0.1312668E+00
        -11   -1    0    0    0    0  0.00000000000E+00  0.00000000000E+00  0.45593999997E+02  0.45594000000E+02  0.51100000000E-03 0.  1.
         11   -1    0    0    0    0 -0.00000000000E+00 -0.00000000000E+00 -0.45593999997E+02  0.45594000000E+02  0.51100000000E-03 0. -1.
    9900012    2    1    2    0    0 -0.43085352752E+02 -0.51163499816E+01 -0.10482768067E+01  0.47787267942E+02  0.19999985854E+02 0.  0.
        -12    1    1    2    0    0  0.43085352752E+02  0.51163499816E+01  0.10482768067E+01  0.43400732058E+02  0.00000000000E+00 0.  1.
         11    1    3    3    0    0 -0.27177095149E+02  0.29502073825E+01  0.25859157629E+01  0.27458790668E+02  0.51100000000E-03 0. -1.
        -11    1    3    3    0    0  0.41836169609E+00 -0.27414917281E+01 -0.10336834519E+01  0.29596123300E+01  0.51100000000E-03 0.  1.
         12    1    3    3    0    0 -0.16326619299E+02 -0.53250656360E+01 -0.26005091176E+01  0.17368864944E+02  0.00000000000E+00 0. -1.
</event>
<event>
 7    1  0.2700100E-010  0.4778727E+02  0.7816164E-02  0.1312668E+00
        -11   -1    0    0    0    0  0.00000000000E+00  0.00000000000E+00  0.45593999997E+02  0.45594000000E+02  0.51100000000E-03 0.  1.
         11   -1    0    0    0    0 -0.00000000000E+00 -0.00000000000E+00 -0.45593999997E+02  0.45594000000E+02  0.51100000000E-03 0. -1.
    9900012    2    1    2    0    0  0.33850213633E+02 -0.10461653776E+02  0.25066710579E+02  0.47787272564E+02  0.20000006927E+02 0.  0.
        -12    1    1    2    0    0 -0.33850213633E+02  0.10461653776E+02 -0.25066710579E+02  0.43400727436E+02  0.00000000000E+00 0.  1.
         11    1    3    3    0    0  0.24810825332E+02 -0.82813614754E+01  0.90826757907E+01  0.27688499442E+02  0.51100000000E-03 0. -1.
        -11    1    3    3    0    0  0.88210987907E+01  0.21747547996E+00  0.15183927288E+02  0.17561626565E+02  0.51100000000E-03 0.  1.
        -12    1    3    3    0    0  0.21828951039E+00 -0.23977677805E+01  0.80010750067E+00  0.25371465571E+01  0.00000000000E+00 0.  1.
</event>
<event>
 7    1  0.2700100E-010  0.4778727E+02  0.7816164E-02  0.1312668E+00
        -11   -1    0    0    0    0  0.00000000000E+00  0.00000000000E+00  0.45593999997E+02  0.45594000000E+02  0.51100000000E-03 0.  1.
         11   -1    0    0    0    0 -0.00000000000E+00 -0.00000000000E+00 -0.45593999997E+02  0.45594000000E+02  0.51100000000E-03 0. -1.
    9900012    2    1    2    0    0 -0.10608104471E+02  0.16026785842E+02 -0.38913152262E+02  0.47787272312E+02  0.20000005779E+02 0.  0.
        -12    1    1    2    0    0  0.10608104471E+02 -0.16026785842E+02  0.38913152262E+02  0.43400727688E+02  0.00000000000E+00 0.  1.
         11    1    3    3    0    0 -0.90038152769E+01  0.12249688001E+02 -0.30209454969E+02  0.33819147172E+02  0.51100000000E-03 0. -1.
        -11    1    3    3    0    0 -0.34370246606E+01 -0.21610784293E-01  0.83629782891E+00  0.35373718865E+01  0.51100000000E-03 0.  1.
        -12    1    3    3    0    0  0.18327354662E+01  0.37987086250E+01 -0.95399951222E+01  0.10430753254E+02  0.00000000000E+00 0.  1.
</event>
<event>
 7    1  0.2700100E-010  0.4778726E+02  0.7816164E-02  0.1312668E+00
        -11   -1    0    0    0    0  0.00000000000E+00  0.00000000000E+00  0.45593999997E+02  0.45594000000E+02  0.51100000000E-03 0. -1.
         11   -1    0    0    0    0 -0.00000000000E+00 -0.00000000000E+00 -0.45593999997E+02  0.45594000000E+02  0.51100000000E-03 0.  1.
    9900012    2    1    2    0    0  0.18017452760E+02 -0.34449602502E+02  0.19293012125E+02  0.47787262295E+02  0.19999960106E+02 0.  0.
        -12    1    1    2    0    0 -0.18017452760E+02  0.34449602502E+02 -0.19293012125E+02  0.43400737705E+02  0.00000000000E+00 0.  1.
         11    1    3    3    0    0  0.19366511005E+02 -0.30371534260E+02  0.12572449540E+02  0.38151780162E+02  0.51100000000E-03 0. -1.
        -11    1    3    3    0    0 -0.21822132549E+01 -0.11337524455E+01  0.60106914119E+01  0.64942944812E+01  0.51100000000E-03 0.  1.
        -12    1    3    3    0    0  0.83315500989E+00 -0.29443157962E+01  0.70987117300E+00  0.31411876512E+01  0.00000000000E+00 0.  1.
</event>
<event>
 7    1  0.2700100E-010  0.4778728E+02  0.7816164E-02  0.1312668E+00
        -11   -1    0    0    0    0  0.00000000000E+00  0.00000000000E+00  0.45593999997E+02  0.45594000000E+02  0.51100000000E-03 0. -1.
         11   -1    0    0    0    0 -0.00000000000E+00 -0.00000000000E+00 -0.45593999997E+02  0.45594000000E+02  0.51100000000E-03 0.  1.
    9900012    2    1    2    0    0 -0.93796226201E+01 -0.42195140208E+02 -0.39007100058E+01  0.47787277469E+02  0.20000029291E+02 0.  0.
        -12    1    1    2    0    0  0.93796226201E+01  0.42195140208E+02  0.39007100058E+01  0.43400722531E+02  0.00000000000E+00 0.  1.
         11    1    3    3    0    0 -0.40144060138E+01 -0.77361245701E+01 -0.34376741862E+01  0.93691345961E+01  0.51100000000E-03 0. -1.
        -11    1    3    3    0    0 -0.58147351434E+01 -0.34125119105E+02 -0.39907644008E+01  0.34846249432E+02  0.51100000000E-03 0.  1.
        -12    1    3    3    0    0  0.44951853717E+00 -0.33389653362E+00  0.35277285812E+01  0.35718934409E+01  0.00000000000E+00 0.  1.
</event>
<event>
 7    1  0.2700100E-010  0.4778727E+02  0.7816164E-02  0.1312668E+00
        -11   -1    0    0    0    0  0.00000000000E+00  0.00000000000E+00  0.45593999997E+02  0.45594000000E+02  0.51100000000E-03 0. -1.
         11   -1    0    0    0    0 -0.00000000000E+00 -0.00000000000E+00 -0.45593999997E+02  0.45594000000E+02  0.51100000000E-03 0.  1.
    9900012    2    1    2    0    0  0.39999049411E+02 -0.16395858217E+02 -0.38568522011E+01  0.47787269253E+02  0.19999991833E+02 0.  0.
        -12    1    1    2    0    0 -0.39999049411E+02  0.16395858217E+02  0.38568522011E+01  0.43400730747E+02  0.00000000000E+00 0.  1.
         11    1    3    3    0    0  0.12467679743E+02 -0.18908105891E+01 -0.16608009635E+01  0.12719137666E+02  0.51100000000E-03 0. -1.
        -11    1    3    3    0    0  0.14175053791E+02 -0.69010112040E+01  0.68994108046E+01  0.17209240987E+02  0.51100000000E-03 0.  1.
        -12    1    3    3    0    0  0.13356315877E+02 -0.76040364237E+01 -0.90954620422E+01  0.17858890601E+02  0.00000000000E+00 0.  1.
</event>
<event>
 7    1  0.2700100E-010  0.4778727E+02  0.7816164E-02  0.1312668E+00
        -11   -1    0    0    0    0  0.00000000000E+00  0.00000000000E+00  0.45593999997E+02  0.45594000000E+02  0.51100000000E-03 0.  1.
         11   -1    0    0    0    0 -0.00000000000E+00 -0.00000000000E+00 -0.45593999997E+02  0.45594000000E+02  0.51100000000E-03 0. -1.
    9900012    2    1    2    0    0  0.25795574231E+01 -0.19056327776E+02 -0.38907911058E+02  0.47787270885E+02  0.19999999271E+02 0.  0.
        -12    1    1    2    0    0 -0.25795574231E+01  0.19056327776E+02  0.38907911058E+02  0.43400729115E+02  0.00000000000E+00 0.  1.
         11    1    3    3    0    0  0.24241070079E+01 -0.12505796168E+02 -0.30162961894E+02  0.32742564088E+02  0.51100000000E-03 0. -1.
        -11    1    3    3    0    0  0.11512659582E+01  0.23544515086E+01 -0.14480156021E+00  0.26248472272E+01  0.51100000000E-03 0.  1.
         12    1    3    3    0    0 -0.99581554304E+00 -0.89049831166E+01 -0.86001476040E+01  0.12419859569E+02  0.00000000000E+00 0. -1.
</event>
<event>
 7    1  0.2700100E-010  0.4778728E+02  0.7816164E-02  0.1312668E+00
        -11   -1    0    0    0    0  0.00000000000E+00  0.00000000000E+00  0.45593999997E+02  0.45594000000E+02  0.51100000000E-03 0. -1.
         11   -1    0    0    0    0 -0.00000000000E+00 -0.00000000000E+00 -0.45593999997E+02  0.45594000000E+02  0.51100000000E-03 0.  1.
    9900012    2    1    2    0    0  0.21535697477E+02 -0.84258071384E+01  0.36726580778E+02  0.47787283100E+02  0.20000054968E+02 0.  0.
        -12    1    1    2    0    0 -0.21535697477E+02  0.84258071384E+01 -0.36726580778E+02  0.43400716900E+02  0.00000000000E+00 0.  1.
         11    1    3    3    0    0  0.14270083391E+02 -0.74844754419E+01  0.12962386117E+02  0.20680331398E+02  0.51100000000E-03 0. -1.
        -11    1    3    3    0    0  0.63830380906E+01 -0.51445743359E+01  0.11582359409E+02  0.14190168079E+02  0.51100000000E-03 0.  1.
         12    1    3    3    0    0  0.88257599566E+00  0.42032426394E+01  0.12181835253E+02  0.12916783624E+02  0.00000000000E+00 0. -1.
</event>
<event>
 7    1  0.2700100E-010  0.4778727E+02  0.7816164E-02  0.1312668E+00
        -11   -1    0    0    0    0  0.00000000000E+00  0.00000000000E+00  0.45593999997E+02  0.45594000000E+02  0.51100000000E-03 0.  1.
         11   -1    0    0    0    0 -0.00000000000E+00 -0.00000000000E+00 -0.45593999997E+02  0.45594000000E+02  0.51100000000E-03 0. -1.
    9900012    2    1    2    0    0 -0.16803307188E+02 -0.82657870370E+01 -0.39152890119E+02  0.47787272212E+02  0.20000005325E+02 0.  0.
        -12    1    1    2    0    0  0.16803307188E+02  0.82657870370E+01  0.39152890119E+02  0.43400727788E+02  0.00000000000E+00 0.  1.
         11    1    3    3    0    0 -0.18119283577E+01 -0.10219553182E+02 -0.21674350343E+02  0.24031225826E+02  0.51100000000E-03 0. -1.
        -11    1    3    3    0    0 -0.88623388353E+01  0.20642116559E+01 -0.65021495035E+01  0.11183915585E+02  0.51100000000E-03 0.  1.
         12    1    3    3    0    0 -0.61290399954E+01 -0.11044551115E+00 -0.10976390272E+02  0.12572130801E+02  0.00000000000E+00 0. -1.
</event>
<event>
 7    1  0.2700100E-010  0.4778727E+02  0.7816164E-02  0.1312668E+00
        -11   -1    0    0    0    0  0.00000000000E+00  0.00000000000E+00  0.45593999997E+02  0.45594000000E+02  0.51100000000E-03 0.  1.
         11   -1    0    0    0    0 -0.00000000000E+00 -0.00000000000E+00 -0.45593999997E+02  0.45594000000E+02  0.51100000000E-03 0. -1.
    9900012    2    1    2    0    0  0.42198700266E+02 -0.52889683725E+01  0.86556180169E+01  0.47787271736E+02  0.20000003155E+02 0.  0.
        -12    1    1    2    0    0 -0.42198700266E+02  0.52889683725E+01 -0.86556180169E+01  0.43400728264E+02  0.00000000000E+00 0.  1.
         11    1    3    3    0    0  0.11550544640E+02 -0.15364866213E+00  0.10664300638E+01  0.11600688028E+02  0.51100000000E-03 0. -1.
        -11    1    3    3    0    0  0.89169583826E+01 -0.42770092563E+01  0.10289307838E+02  0.14271468425E+02  0.51100000000E-03 0.  1.
        -12    1    3    3    0    0  0.21731197244E+02 -0.85831045398E+00 -0.27001198849E+01  0.21915115283E+02  0.00000000000E+00 0.  1.
</event>
<event>
 7    1  0.2700100E-010  0.4778727E+02  0.7816164E-02  0.1312668E+00
        -11   -1    0    0    0    0  0.00000000000E+00  0.00000000000E+00  0.45593999997E+02  0.45594000000E+02  0.51100000000E-03 0. -1.
         11   -1    0    0    0    0 -0.00000000000E+00 -0.00000000000E+00 -0.45593999997E+02  0.45594000000E+02  0.51100000000E-03 0.  1.
    9900012    2    1    2    0    0 -0.77087092205E+01 -0.98745673440E+00  0.42699228307E+02  0.47787269975E+02  0.19999995124E+02 0.  0.
        -12    1    1    2    0    0  0.77087092205E+01  0.98745673440E+00 -0.42699228307E+02  0.43400730025E+02  0.00000000000E+00 0.  1.
         11    1    3    3    0    0 -0.43297761907E+01 -0.47144361985E+01  0.60127660899E+01  0.87821538841E+01  0.51100000000E-03 0. -1.
        -11    1    3    3    0    0  0.11384697168E+01 -0.14542613009E+01  0.27343715604E+02  0.27406017086E+02  0.51100000000E-03 0.  1.
        -12    1    3    3    0    0 -0.45174027466E+01  0.51812407651E+01  0.93427466135E+01  0.11599099005E+02  0.00000000000E+00 0.  1.
</event>
<event>
 7    1  0.2700100E-010  0.4778726E+02  0.7816164E-02  0.1312668E+00
        -11   -1    0    0    0    0  0.00000000000E+00  0.00000000000E+00  0.45593999997E+02  0.45594000000E+02  0.51100000000E-03 0. -1.
         11   -1    0    0    0    0 -0.00000000000E+00 -0.00000000000E+00 -0.45593999997E+02  0.45594000000E+02  0.51100000000E-03 0.  1.
    9900012    2    1    2    0    0  0.31383408081E+02  0.10166037926E+02  0.28202077794E+02  0.47787264732E+02  0.19999971218E+02 0.  0.
        -12    1    1    2    0    0 -0.31383408081E+02 -0.10166037926E+02 -0.28202077794E+02  0.43400735268E+02  0.00000000000E+00 0.  1.
         11    1    3    3    0    0  0.26398508286E+02  0.10446289191E+02  0.20377888981E+02  0.34946595788E+02  0.51100000000E-03 0. -1.
        -11    1    3    3    0    0 -0.21316283621E+00  0.19674928381E+01  0.68044036804E+01  0.70863514004E+01  0.51100000000E-03 0.  1.
         12    1    3    3    0    0  0.51980626315E+01 -0.22477441032E+01  0.10197851328E+01  0.57543175435E+01  0.00000000000E+00 0. -1.
</event>
<event>
 7    1  0.2700100E-010  0.4778727E+02  0.7816164E-02  0.1312668E+00
        -11   -1    0    0    0    0  0.00000000000E+00  0.00000000000E+00  0.45593999997E+02  0.45594000000E+02  0.51100000000E-03 0. -1.
         11   -1    0    0    0    0 -0.00000000000E+00 -0.00000000000E+00 -0.45593999997E+02  0.45594000000E+02  0.51100000000E-03 0.  1.
    9900012    2    1    2    0    0 -0.43182291254E+02  0.29856362040E+01 -0.31620936931E+01  0.47787272610E+02  0.20000007136E+02 0.  0.
        -12    1    1    2    0    0  0.43182291254E+02 -0.29856362040E+01  0.31620936931E+01  0.43400727390E+02  0.00000000000E+00 0.  1.
         11    1    3    3    0    0 -0.26363518717E+02  0.10481130036E+01  0.38893781905E+01  0.26669475491E+02  0.51100000000E-03 0. -1.
        -11    1    3    3    0    0 -0.13821790662E+02  0.52636600305E+01 -0.75627260861E+01  0.16611527327E+02  0.51100000000E-03 0.  1.
        -12    1    3    3    0    0 -0.29969818753E+01 -0.33261368301E+01  0.51125420250E+00  0.45062697914E+01  0.00000000000E+00 0.  1.
</event>
<event>
 7    1  0.2700100E-010  0.4778727E+02  0.7816164E-02  0.1312668E+00
        -11   -1    0    0    0    0  0.00000000000E+00  0.00000000000E+00  0.45593999997E+02  0.45594000000E+02  0.51100000000E-03 0.  1.
         11   -1    0    0    0    0 -0.00000000000E+00 -0.00000000000E+00 -0.45593999997E+02  0.45594000000E+02  0.51100000000E-03 0. -1.
    9900012    2    1    2    0    0  0.34730482692E+02  0.17143474026E+02  0.19583627740E+02  0.47787267228E+02  0.19999982597E+02 0.  0.
        -12    1    1    2    0    0 -0.34730482692E+02 -0.17143474026E+02 -0.19583627740E+02  0.43400732772E+02  0.00000000000E+00 0.  1.
         11    1    3    3    0    0  0.27994130179E+02  0.90650679953E+01  0.19750339838E+02  0.35438999791E+02  0.51100000000E-03 0. -1.
        -11    1    3    3    0    0  0.30346456086E+01  0.40966715901E+00 -0.19738555975E+01  0.36432138740E+01  0.51100000000E-03 0.  1.
         12    1    3    3    0    0  0.37017069048E+01  0.76687388720E+01  0.18071434999E+01  0.87050535625E+01  0.00000000000E+00 0. -1.
</event>
<event>
 7    1  0.2700100E-010  0.4778727E+02  0.7816164E-02  0.1312668E+00
        -11   -1    0    0    0    0  0.00000000000E+00  0.00000000000E+00  0.45593999997E+02  0.45594000000E+02  0.51100000000E-03 0.  1.
         11   -1    0    0    0    0 -0.00000000000E+00 -0.00000000000E+00 -0.45593999997E+02  0.45594000000E+02  0.51100000000E-03 0. -1.
    9900012    2    1    2    0    0  0.21469986271E+02 -0.14252612034E+02  0.34921714676E+02  0.47787269405E+02  0.19999992524E+02 0.  0.
        -12    1    1    2    0    0 -0.21469986271E+02  0.14252612034E+02 -0.34921714676E+02  0.43400730595E+02  0.00000000000E+00 0.  1.
         11    1    3    3    0    0  0.99057013758E+01 -0.81399822917E+01  0.18557754107E+02  0.22555985219E+02  0.51100000000E-03 0. -1.
        -11    1    3    3    0    0 -0.21216578221E+00  0.74588737571E+00 -0.21252348209E+01  0.22622965326E+01  0.51100000000E-03 0.  1.
        -12    1    3    3    0    0  0.11776450677E+02 -0.68585171184E+01  0.18489195391E+02  0.22968987653E+02  0.00000000000E+00 0.  1.
</event>
<event>
 7    1  0.2700100E-010  0.4778725E+02  0.7816164E-02  0.1312668E+00
        -11   -1    0    0    0    0  0.00000000000E+00  0.00000000000E+00  0.45593999997E+02  0.45594000000E+02  0.51100000000E-03 0. -1.
         11   -1    0    0    0    0 -0.00000000000E+00 -0.00000000000E+00 -0.45593999997E+02  0.45594000000E+02  0.51100000000E-03 0.  1.
    9900012    2    1    2    0    0  0.38729141461E+02  0.16465353487E+02  0.10609924909E+02  0.47787253805E+02  0.19999921396E+02 0.  0.
        -12    1    1    2    0    0 -0.38729141461E+02 -0.16465353487E+02 -0.10609924909E+02  0.43400746195E+02  0.00000000000E+00 0.  1.
         11    1    3    3    0    0  0.23480431387E+02  0.10446547307E+02  0.74806018910E+01  0.26766030966E+02  0.51100000000E-03 0. -1.
        -11    1    3    3    0    0  0.14344175825E+01  0.58852682650E+01 -0.18540742233E+01  0.63349449752E+01  0.51100000000E-03 0.  1.
        -12    1    3    3    0    0  0.13814292491E+02  0.13353791473E+00  0.49833972417E+01  0.14686277863E+02  0.00000000000E+00 0.  1.
</event>
<event>
 7    1  0.2700100E-010  0.4778727E+02  0.7816164E-02  0.1312668E+00
        -11   -1    0    0    0    0  0.00000000000E+00  0.00000000000E+00  0.45593999997E+02  0.45594000000E+02  0.51100000000E-03 0. -1.
         11   -1    0    0    0    0 -0.00000000000E+00 -0.00000000000E+00 -0.45593999997E+02  0.45594000000E+02  0.51100000000E-03 0.  1.
    9900012    2    1    2    0    0 -0.29142817934E+01 -0.23219861473E+02  0.36550901363E+02  0.47787269642E+02  0.19999993605E+02 0.  0.
        -12    1    1    2    0    0  0.29142817934E+01  0.23219861473E+02 -0.36550901363E+02  0.43400730358E+02  0.00000000000E+00 0.  1.
         11    1    3    3    0    0  0.26277548877E+01  0.16712101150E+01  0.75719101150E+01  0.81872988250E+01  0.51100000000E-03 0.  1.
        -11    1    3    3    0    0 -0.64583348637E+01 -0.90649214813E+01  0.11560599978E+02  0.16047752577E+02  0.51100000000E-03 0. -1.
         12    1    3    3    0    0  0.91629818259E+00 -0.15826150107E+02  0.17418391270E+02  0.23552218240E+02  0.00000000000E+00 0. -1.
</event>
<event>
 7    1  0.2700100E-010  0.4778727E+02  0.7816164E-02  0.1312668E+00
        -11   -1    0    0    0    0  0.00000000000E+00  0.00000000000E+00  0.45593999997E+02  0.45594000000E+02  0.51100000000E-03 0.  1.
         11   -1    0    0    0    0 -0.00000000000E+00 -0.00000000000E+00 -0.45593999997E+02  0.45594000000E+02  0.51100000000E-03 0. -1.
    9900012    2    1    2    0    0 -0.27149667594E+01 -0.24560615862E+02 -0.35679519789E+02  0.47787273872E+02  0.20000012894E+02 0.  0.
        -12    1    1    2    0    0  0.27149667594E+01  0.24560615862E+02  0.35679519789E+02  0.43400726128E+02  0.00000000000E+00 0.  1.
         11    1    3    3    0    0  0.24277158418E+01 -0.67687429432E+01 -0.12592179120E+02  0.14500781375E+02  0.51100000000E-03 0. -1.
        -11    1    3    3    0    0 -0.83746389474E+01 -0.66364599231E+01 -0.17241349291E+02  0.20284015960E+02  0.51100000000E-03 0.  1.
        -12    1    3    3    0    0  0.32319563461E+01 -0.11155412996E+02 -0.58459913783E+01  0.13002476538E+02  0.00000000000E+00 0.  1.
</event>
<event>
 7    1  0.2700100E-010  0.4778727E+02  0.7816164E-02  0.1312668E+00
        -11   -1    0    0    0    0  0.00000000000E+00  0.00000000000E+00  0.45593999997E+02  0.45594000000E+02  0.51100000000E-03 0. -1.
         11   -1    0    0    0    0 -0.00000000000E+00 -0.00000000000E+00 -0.45593999997E+02  0.45594000000E+02  0.51100000000E-03 0.  1.
    9900012    2    1    2    0    0  0.38966678388E+02 -0.39163900917E+01  0.18705158050E+02  0.47787273352E+02  0.20000010519E+02 0.  0.
        -12    1    1    2    0    0 -0.38966678388E+02  0.39163900917E+01 -0.18705158050E+02  0.43400726648E+02  0.00000000000E+00 0.  1.
         11    1    3    3    0    0  0.24825406022E+02 -0.86827509276E+01  0.14132504620E+02  0.29856634689E+02  0.51100000000E-03 0. -1.
        -11    1    3    3    0    0  0.97915674352E+01  0.24304272865E+01 -0.13957399457E+01  0.10184785707E+02  0.51100000000E-03 0.  1.
         12    1    3    3    0    0  0.43497049304E+01  0.23359335494E+01  0.59683933758E+01  0.77458529560E+01  0.00000000000E+00 0. -1.
</event>
<event>
 7    1  0.2700100E-010  0.4778724E+02  0.7816164E-02  0.1312668E+00
        -11   -1    0    0    0    0  0.00000000000E+00  0.00000000000E+00  0.45593999997E+02  0.45594000000E+02  0.51100000000E-03 0.  1.
         11   -1    0    0    0    0 -0.00000000000E+00 -0.00000000000E+00 -0.45593999997E+02  0.45594000000E+02  0.51100000000E-03 0. -1.
    9900012    2    1    2    0    0  0.15571520840E+02  0.85453428585E+01 -0.39599635355E+02  0.47787236572E+02  0.19999842826E+02 0.  0.
        -12    1    1    2    0    0 -0.15571520840E+02 -0.85453428585E+01  0.39599635355E+02  0.43400763428E+02  0.00000000000E+00 0.  1.
         11    1    3    3    0    0  0.35123356421E+01  0.10087868872E+02 -0.16536097456E+02  0.19686140287E+02  0.51100000000E-03 0.  1.
        -11    1    3    3    0    0  0.38199752232E+01 -0.54509637673E+01 -0.72162465349E+01  0.98173026342E+01  0.51100000000E-03 0. -1.
         12    1    3    3    0    0  0.82392099749E+01  0.39084377534E+01 -0.15847291364E+02  0.18283793651E+02  0.00000000000E+00 0. -1.
</event>
<event>
 7    1  0.2700100E-010  0.4778727E+02  0.7816164E-02  0.1312668E+00
        -11   -1    0    0    0    0  0.00000000000E+00  0.00000000000E+00  0.45593999997E+02  0.45594000000E+02  0.51100000000E-03 0.  1.
         11   -1    0    0    0    0 -0.00000000000E+00 -0.00000000000E+00 -0.45593999997E+02  0.45594000000E+02  0.51100000000E-03 0. -1.
    9900012    2    1    2    0    0 -0.28133258962E+02 -0.25704377785E+02 -0.20770847152E+02  0.47787269724E+02  0.19999993978E+02 0.  0.
        -12    1    1    2    0    0  0.28133258962E+02  0.25704377785E+02  0.20770847152E+02  0.43400730276E+02  0.00000000000E+00 0.  1.
         11    1    3    3    0    0 -0.10982133701E+02 -0.93813934608E+01 -0.24496096236E+01  0.14649859776E+02  0.51100000000E-03 0. -1.
        -11    1    3    3    0    0 -0.69952247336E+01 -0.14361959740E+02 -0.15847853136E+02  0.22502300015E+02  0.51100000000E-03 0.  1.
        -12    1    3    3    0    0 -0.10155900527E+02 -0.19610245844E+01 -0.24733843916E+01  0.10635109933E+02  0.00000000000E+00 0.  1.
</event>
<event>
 7    1  0.2700100E-010  0.4778726E+02  0.7816164E-02  0.1312668E+00
        -11   -1    0    0    0    0  0.00000000000E+00  0.00000000000E+00  0.45593999997E+02  0.45594000000E+02  0.51100000000E-03 0.  1.
         11   -1    0    0    0    0 -0.00000000000E+00 -0.00000000000E+00 -0.45593999997E+02  0.45594000000E+02  0.51100000000E-03 0. -1.
    9900012    2    1    2    0    0 -0.88095956247E+01 -0.23271987132E+02 -0.35558817898E+02  0.47787263941E+02  0.19999967614E+02 0.  0.
        -12    1    1    2    0    0  0.88095956247E+01  0.23271987132E+02  0.35558817898E+02  0.43400736059E+02  0.00000000000E+00 0.  1.
         11    1    3    3    0    0 -0.90732731306E+01 -0.15987532011E+02 -0.32174447282E+02  0.37055640910E+02  0.51100000000E-03 0. -1.
        -11    1    3    3    0    0  0.45673335556E-01  0.61215884733E+00 -0.27375865703E+01  0.28055667875E+01  0.51100000000E-03 0.  1.
         12    1    3    3    0    0  0.21800417030E+00 -0.78966139681E+01 -0.64678404582E+00  0.79260562439E+01  0.00000000000E+00 0. -1.
</event>
<event>
 7    1  0.2700100E-010  0.4778727E+02  0.7816164E-02  0.1312668E+00
        -11   -1    0    0    0    0  0.00000000000E+00  0.00000000000E+00  0.45593999997E+02  0.45594000000E+02  0.51100000000E-03 0.  1.
         11   -1    0    0    0    0 -0.00000000000E+00 -0.00000000000E+00 -0.45593999997E+02  0.45594000000E+02  0.51100000000E-03 0. -1.
    9900012    2    1    2    0    0  0.13982537943E+02  0.32651245738E+01 -0.40956694659E+02  0.47787271398E+02  0.20000001614E+02 0.  0.
        -12    1    1    2    0    0 -0.13982537943E+02 -0.32651245738E+01  0.40956694659E+02  0.43400728602E+02  0.00000000000E+00 0.  1.
         11    1    3    3    0    0  0.63327837470E+01 -0.67795098334E+01 -0.23328759565E+02  0.25105715020E+02  0.51100000000E-03 0. -1.
        -11    1    3    3    0    0  0.23833042523E+01  0.43923022086E+01 -0.12356885872E+02  0.13329106743E+02  0.51100000000E-03 0.  1.
         12    1    3    3    0    0  0.52664499433E+01  0.56523321985E+01 -0.52710492219E+01  0.93524496356E+01  0.00000000000E+00 0. -1.
</event>
<event>
 7    1  0.2700100E-010  0.4778726E+02  0.7816164E-02  0.1312668E+00
        -11   -1    0    0    0    0  0.00000000000E+00  0.00000000000E+00  0.45593999997E+02  0.45594000000E+02  0.51100000000E-03 0.  1.
         11   -1    0    0    0    0 -0.00000000000E+00 -0.00000000000E+00 -0.45593999997E+02  0.45594000000E+02  0.51100000000E-03 0. -1.
    9900012    2    1    2    0    0  0.23611407785E+02 -0.93014975926E+01 -0.35208065093E+02  0.47787259423E+02  0.19999947014E+02 0.  0.
        -12    1    1    2    0    0 -0.23611407785E+02  0.93014975926E+01  0.35208065093E+02  0.43400740577E+02  0.00000000000E+00 0.  1.
         11    1    3    3    0    0 -0.10755582901E+01 -0.47749408312E+01 -0.55813158918E+01  0.74234744508E+01  0.51100000000E-03 0. -1.
        -11    1    3    3    0    0  0.13921968281E+02  0.14861542916E+01 -0.10077108300E+02  0.17250448324E+02  0.51100000000E-03 0.  1.
        -12    1    3    3    0    0  0.10764997794E+02 -0.60127110530E+01 -0.19549640900E+02  0.23113336649E+02  0.00000000000E+00 0.  1.
</event>
<event>
 7    1  0.2700100E-010  0.4778727E+02  0.7816164E-02  0.1312668E+00
        -11   -1    0    0    0    0  0.00000000000E+00  0.00000000000E+00  0.45593999997E+02  0.45594000000E+02  0.51100000000E-03 0.  1.
         11   -1    0    0    0    0 -0.00000000000E+00 -0.00000000000E+00 -0.45593999997E+02  0.45594000000E+02  0.51100000000E-03 0. -1.
    9900012    2    1    2    0    0 -0.94559734260E+01 -0.11942943471E+01 -0.42341250442E+02  0.47787271188E+02  0.20000000657E+02 0.  0.
        -12    1    1    2    0    0  0.94559734260E+01  0.11942943471E+01  0.42341250442E+02  0.43400728812E+02  0.00000000000E+00 0.  1.
         11    1    3    3    0    0  0.57452509199E+01  0.16181544811E+01 -0.71808810029E+01  0.93376326923E+01  0.51100000000E-03 0.  1.
        -11    1    3    3    0    0 -0.70075830236E+01 -0.12418279913E+01 -0.18381027754E+02  0.19710670667E+02  0.51100000000E-03 0. -1.
         12    1    3    3    0    0 -0.81936413222E+01 -0.15706208369E+01 -0.16779341685E+02  0.18738967829E+02  0.00000000000E+00 0. -1.
</event>
<event>
 7    1  0.2700100E-010  0.4778727E+02  0.7816164E-02  0.1312668E+00
        -11   -1    0    0    0    0  0.00000000000E+00  0.00000000000E+00  0.45593999997E+02  0.45594000000E+02  0.51100000000E-03 0. -1.
         11   -1    0    0    0    0 -0.00000000000E+00 -0.00000000000E+00 -0.45593999997E+02  0.45594000000E+02  0.51100000000E-03 0.  1.
    9900012    2    1    2    0    0 -0.24596335571E+02  0.35743840601E+02 -0.10106531446E+01  0.47787270926E+02  0.19999999459E+02 0.  0.
        -12    1    1    2    0    0  0.24596335571E+02 -0.35743840601E+02  0.10106531446E+01  0.43400729074E+02  0.00000000000E+00 0.  1.
         11    1    3    3    0    0 -0.20553823890E+02  0.27068949113E+02 -0.57980409304E+01  0.34479051052E+02  0.51100000000E-03 0. -1.
        -11    1    3    3    0    0  0.11107793136E+01  0.27808020875E+01  0.45852094677E+01  0.54763890528E+01  0.51100000000E-03 0.  1.
        -12    1    3    3    0    0 -0.51532909946E+01  0.58940894003E+01  0.20217831803E+00  0.78318308208E+01  0.00000000000E+00 0.  1.
</event>
<event>
 7    1  0.2700100E-010  0.4778727E+02  0.7816164E-02  0.1312668E+00
        -11   -1    0    0    0    0  0.00000000000E+00  0.00000000000E+00  0.45593999997E+02  0.45594000000E+02  0.51100000000E-03 0.  1.
         11   -1    0    0    0    0 -0.00000000000E+00 -0.00000000000E+00 -0.45593999997E+02  0.45594000000E+02  0.51100000000E-03 0. -1.
    9900012    2    1    2    0    0  0.30945540337E+02  0.11852421736E+02 -0.28027075476E+02  0.47787270427E+02  0.19999997183E+02 0.  0.
        -12    1    1    2    0    0 -0.30945540337E+02 -0.11852421736E+02  0.28027075476E+02  0.43400729573E+02  0.00000000000E+00 0.  1.
         11    1    3    3    0    0  0.92722689298E+01  0.12006446241E+02 -0.54390657653E+01  0.16115618484E+02  0.51100000000E-03 0. -1.
        -11    1    3    3    0    0  0.19910256323E+00 -0.66965227505E+00 -0.97918366589E+00  0.12028619675E+01  0.51100000000E-03 0.  1.
         12    1    3    3    0    0  0.21474168844E+02  0.51562777027E+00 -0.21608826045E+02  0.30468789976E+02  0.00000000000E+00 0. -1.
</event>
<event>
 7    1  0.2700100E-010  0.4778727E+02  0.7816164E-02  0.1312668E+00
        -11   -1    0    0    0    0  0.00000000000E+00  0.00000000000E+00  0.45593999997E+02  0.45594000000E+02  0.51100000000E-03 0.  1.
         11   -1    0    0    0    0 -0.00000000000E+00 -0.00000000000E+00 -0.45593999997E+02  0.45594000000E+02  0.51100000000E-03 0. -1.
    9900012    2    1    2    0    0 -0.13856718530E+02  0.31123118825E+02 -0.26888031884E+02  0.47787269218E+02  0.19999991673E+02 0.  0.
        -12    1    1    2    0    0  0.13856718530E+02 -0.31123118825E+02  0.26888031884E+02  0.43400730782E+02  0.00000000000E+00 0.  1.
         11    1    3    3    0    0 -0.16763754803E+02  0.27508523226E+02 -0.20492682082E+02  0.38179737353E+02  0.51100000000E-03 0. -1.
        -11    1    3    3    0    0  0.29756254946E+01  0.49773565519E+01 -0.50170471074E+01  0.76680628106E+01  0.51100000000E-03 0.  1.
         12    1    3    3    0    0 -0.68589221389E-01 -0.13627609528E+01 -0.13783026942E+01  0.19394690543E+01  0.00000000000E+00 0. -1.
</event>
<event>
 7    1  0.2700100E-010  0.4778727E+02  0.7816164E-02  0.1312668E+00
        -11   -1    0    0    0    0  0.00000000000E+00  0.00000000000E+00  0.45593999997E+02  0.45594000000E+02  0.51100000000E-03 0.  1.
         11   -1    0    0    0    0 -0.00000000000E+00 -0.00000000000E+00 -0.45593999997E+02  0.45594000000E+02  0.51100000000E-03 0. -1.
    9900012    2    1    2    0    0 -0.17160728505E+02  0.38919672645E+02 -0.86250812591E+01  0.47787267882E+02  0.19999985583E+02 0.  0.
        -12    1    1    2    0    0  0.17160728505E+02 -0.38919672645E+02  0.86250812591E+01  0.43400732118E+02  0.00000000000E+00 0.  1.
         11    1    3    3    0    0 -0.14217739689E+01  0.15969907594E+02 -0.10585576191E+02  0.19212334927E+02  0.51100000000E-03 0. -1.
        -11    1    3    3    0    0 -0.13841137770E+02  0.16750897075E+02 -0.23393463782E+00  0.21730724177E+02  0.51100000000E-03 0.  1.
        -12    1    3    3    0    0 -0.18978167665E+01  0.61988679753E+01  0.21944295702E+01  0.68442087778E+01  0.00000000000E+00 0.  1.
</event>
<event>
 7    1  0.2700100E-010  0.4778727E+02  0.7816164E-02  0.1312668E+00
        -11   -1    0    0    0    0  0.00000000000E+00  0.00000000000E+00  0.45593999997E+02  0.45594000000E+02  0.51100000000E-03 0.  1.
         11   -1    0    0    0    0 -0.00000000000E+00 -0.00000000000E+00 -0.45593999997E+02  0.45594000000E+02  0.51100000000E-03 0. -1.
    9900012    2    1    2    0    0 -0.20268148854E+02  0.29718528363E+02 -0.24282391521E+02  0.47787270466E+02  0.19999997364E+02 0.  0.
        -12    1    1    2    0    0  0.20268148854E+02 -0.29718528363E+02  0.24282391521E+02  0.43400729534E+02  0.00000000000E+00 0.  1.
         11    1    3    3    0    0 -0.16994482675E+02  0.21487983406E+02 -0.75236036370E+01  0.28410393947E+02  0.51100000000E-03 0. -1.
        -11    1    3    3    0    0  0.32673645887E+00  0.43462906142E+01 -0.64082218969E+01  0.77499875457E+01  0.51100000000E-03 0.  1.
         12    1    3    3    0    0 -0.36004026382E+01  0.38842543430E+01 -0.10350565987E+02  0.11626888974E+02  0.00000000000E+00 0. -1.
</event>
<event>
 7    1  0.2700100E-010  0.4778727E+02  0.7816164E-02  0.1312668E+00
        -11   -1    0    0    0    0  0.00000000000E+00  0.00000000000E+00  0.45593999997E+02  0.45594000000E+02  0.51100000000E-03 0.  1.
         11   -1    0    0    0    0 -0.00000000000E+00 -0.00000000000E+00 -0.45593999997E+02  0.45594000000E+02  0.51100000000E-03 0. -1.
    9900012    2    1    2    0    0 -0.78906437904E+01  0.11714799685E+02 -0.41038083787E+02  0.47787272910E+02  0.20000008505E+02 0.  0.
        -12    1    1    2    0    0  0.78906437904E+01 -0.11714799685E+02  0.41038083787E+02  0.43400727090E+02  0.00000000000E+00 0.  1.
         11    1    3    3    0    0 -0.60369391591E+01  0.61097400028E+01 -0.91073208452E+01  0.12518660094E+02  0.51100000000E-03 0. -1.
        -11    1    3    3    0    0  0.76345978072E+00  0.74241062040E+01 -0.31088750666E+02  0.31972029057E+02  0.51100000000E-03 0.  1.
        -12    1    3    3    0    0 -0.26171644120E+01 -0.18190465216E+01 -0.84201227509E+00  0.32965837588E+01  0.00000000000E+00 0.  1.
</event>
<event>
 7    1  0.2700100E-010  0.4778727E+02  0.7816164E-02  0.1312668E+00
        -11   -1    0    0    0    0  0.00000000000E+00  0.00000000000E+00  0.45593999997E+02  0.45594000000E+02  0.51100000000E-03 0.  1.
         11   -1    0    0    0    0 -0.00000000000E+00 -0.00000000000E+00 -0.45593999997E+02  0.45594000000E+02  0.51100000000E-03 0. -1.
    9900012    2    1    2    0    0  0.24018074222E+02  0.24272954960E+02 -0.26787666678E+02  0.47787270538E+02  0.19999997691E+02 0.  0.
        -12    1    1    2    0    0 -0.24018074222E+02 -0.24272954960E+02  0.26787666678E+02  0.43400729462E+02  0.00000000000E+00 0.  1.
         11    1    3    3    0    0 -0.31325286520E+00  0.70786843519E+01 -0.86018037203E+01  0.11144367502E+02  0.51100000000E-03 0. -1.
        -11    1    3    3    0    0  0.21752909788E+02  0.10591347800E+02 -0.16705836048E+02  0.29401542320E+02  0.51100000000E-03 0.  1.
         12    1    3    3    0    0  0.25784172990E+01  0.66029228078E+01 -0.14800269091E+01  0.72413607164E+01  0.00000000000E+00 0. -1.
</event>
<event>
 7    1  0.2700100E-010  0.4778727E+02  0.7816164E-02  0.1312668E+00
        -11   -1    0    0    0    0  0.00000000000E+00  0.00000000000E+00  0.45593999997E+02  0.45594000000E+02  0.51100000000E-03 0.  1.
         11   -1    0    0    0    0 -0.00000000000E+00 -0.00000000000E+00 -0.45593999997E+02  0.45594000000E+02  0.51100000000E-03 0. -1.
    9900012    2    1    2    0    0  0.13480544527E+02 -0.48898940270E+01 -0.40963242148E+02  0.47787270149E+02  0.19999995917E+02 0.  0.
        -12    1    1    2    0    0 -0.13480544527E+02  0.48898940270E+01  0.40963242148E+02  0.43400729851E+02  0.00000000000E+00 0.  1.
         11    1    3    3    0    0  0.17314399878E+01 -0.41823672834E+01 -0.29084961595E+02  0.29435099317E+02  0.51100000000E-03 0. -1.
        -11    1    3    3    0    0  0.11944702832E+02 -0.13609730593E+00 -0.12632419298E+02  0.17385984752E+02  0.51100000000E-03 0.  1.
         12    1    3    3    0    0 -0.19559829287E+00 -0.57142943763E+00  0.75413874521E+00  0.96618608011E+00  0.00000000000E+00 0. -1.
</event>
<event>
 7    1  0.2700100E-010  0.4778727E+02  0.7816164E-02  0.1312668E+00
        -11   -1    0    0    0    0  0.00000000000E+00  0.00000000000E+00  0.45593999997E+02  0.45594000000E+02  0.51100000000E-03 0.  1.
         11   -1    0    0    0    0 -0.00000000000E+00 -0.00000000000E+00 -0.45593999997E+02  0.45594000000E+02  0.51100000000E-03 0. -1.
    9900012    2    1    2    0    0 -0.25901396962E+02  0.92670831298E+01 -0.33568766511E+02  0.47787270981E+02  0.19999999710E+02 0.  0.
        -12    1    1    2    0    0  0.25901396962E+02 -0.92670831298E+01  0.33568766511E+02  0.43400729019E+02  0.00000000000E+00 0.  1.
         11    1    3    3    0    0 -0.17909631040E+01  0.52698042123E+01 -0.49604448720E+01  0.74554945420E+01  0.51100000000E-03 0. -1.
        -11    1    3    3    0    0 -0.21135604104E+02  0.58973138971E+01 -0.29427727090E+02  0.36708080772E+02  0.51100000000E-03 0.  1.
        -12    1    3    3    0    0 -0.29748297545E+01 -0.19000349796E+01  0.81940545128E+00  0.36236956668E+01  0.00000000000E+00 0.  1.
</event>
<event>
 7    1  0.2700100E-010  0.4778727E+02  0.7816164E-02  0.1312668E+00
        -11   -1    0    0    0    0  0.00000000000E+00  0.00000000000E+00  0.45593999997E+02  0.45594000000E+02  0.51100000000E-03 0. -1.
         11   -1    0    0    0    0 -0.00000000000E+00 -0.00000000000E+00 -0.45593999997E+02  0.45594000000E+02  0.51100000000E-03 0.  1.
    9900012    2    1    2    0    0 -0.10854113979E+02 -0.22981146103E+02  0.35180651734E+02  0.47787272783E+02  0.20000007929E+02 0.  0.
        -12    1    1    2    0    0  0.10854113979E+02  0.22981146103E+02 -0.35180651734E+02  0.43400727217E+02  0.00000000000E+00 0.  1.
         11    1    3    3    0    0 -0.74105219050E+01 -0.22705432795E+02  0.25229794821E+02  0.34741834440E+02  0.51100000000E-03 0. -1.
        -11    1    3    3    0    0 -0.93569571861E+00  0.39363201509E-01  0.10430721159E+02  0.10472679700E+02  0.51100000000E-03 0.  1.
         12    1    3    3    0    0 -0.25078963557E+01 -0.31507651013E+00 -0.47986424673E+00  0.25727586427E+01  0.00000000000E+00 0. -1.
</event>
<event>
 7    1  0.2700100E-010  0.4778726E+02  0.7816164E-02  0.1312668E+00
        -11   -1    0    0    0    0  0.00000000000E+00  0.00000000000E+00  0.45593999997E+02  0.45594000000E+02  0.51100000000E-03 0.  1.
         11   -1    0    0    0    0 -0.00000000000E+00 -0.00000000000E+00 -0.45593999997E+02  0.45594000000E+02  0.51100000000E-03 0. -1.
    9900012    2    1    2    0    0 -0.16886835995E+02 -0.18774528115E+02 -0.35298382472E+02  0.47787263358E+02  0.19999964956E+02 0.  0.
        -12    1    1    2    0    0  0.16886835995E+02  0.18774528115E+02  0.35298382472E+02  0.43400736642E+02  0.00000000000E+00 0.  1.
         11    1    3    3    0    0 -0.61606526616E+00 -0.29878794925E+01 -0.17194128531E+02  0.17462674952E+02  0.51100000000E-03 0.  1.
        -11    1    3    3    0    0 -0.14801499581E+02 -0.16793213226E+02 -0.15741925988E+02  0.27366122019E+02  0.51100000000E-03 0. -1.
         12    1    3    3    0    0 -0.14692711486E+01  0.10065646030E+01 -0.23623279541E+01  0.29584663883E+01  0.00000000000E+00 0. -1.
</event>
<event>
 7    1  0.2700100E-010  0.4778727E+02  0.7816164E-02  0.1312668E+00
        -11   -1    0    0    0    0  0.00000000000E+00  0.00000000000E+00  0.45593999997E+02  0.45594000000E+02  0.51100000000E-03 0.  1.
         11   -1    0    0    0    0 -0.00000000000E+00 -0.00000000000E+00 -0.45593999997E+02  0.45594000000E+02  0.51100000000E-03 0. -1.
    9900012    2    1    2    0    0  0.23992344690E+02  0.28861289681E+02 -0.21794883881E+02  0.47787267181E+02  0.19999982387E+02 0.  0.
        -12    1    1    2    0    0 -0.23992344690E+02 -0.28861289681E+02  0.21794883881E+02  0.43400732819E+02  0.00000000000E+00 0.  1.
         11    1    3    3    0    0  0.72451484536E+01  0.14161341031E+02 -0.15718407846E+02  0.22363007431E+02  0.51100000000E-03 0. -1.
        -11    1    3    3    0    0  0.14217249825E+02  0.60830155786E+01 -0.21120590179E+01  0.15607500269E+02  0.51100000000E-03 0.  1.
        -12    1    3    3    0    0  0.25299464122E+01  0.86169330717E+01 -0.39644170177E+01  0.98167594806E+01  0.00000000000E+00 0.  1.
</event>
<event>
 7    1  0.2700100E-010  0.4778727E+02  0.7816164E-02  0.1312668E+00
        -11   -1    0    0    0    0  0.00000000000E+00  0.00000000000E+00  0.45593999997E+02  0.45594000000E+02  0.51100000000E-03 0. -1.
         11   -1    0    0    0    0 -0.00000000000E+00 -0.00000000000E+00 -0.45593999997E+02  0.45594000000E+02  0.51100000000E-03 0.  1.
    9900012    2    1    2    0    0 -0.18159398382E+01  0.40100781703E+02  0.16500091038E+02  0.47787270340E+02  0.19999996790E+02 0.  0.
        -12    1    1    2    0    0  0.18159398382E+01 -0.40100781703E+02 -0.16500091038E+02  0.43400729660E+02  0.00000000000E+00 0.  1.
         11    1    3    3    0    0  0.43727322282E+01  0.24164787630E+02  0.15940082542E+02  0.29277021366E+02  0.51100000000E-03 0. -1.
        -11    1    3    3    0    0 -0.47521231217E+01  0.16119701570E+02 -0.33288210217E+00  0.16808874549E+02  0.51100000000E-03 0.  1.
        -12    1    3    3    0    0 -0.14365489447E+01 -0.18370749641E+00  0.89289059873E+00  0.17013744256E+01  0.00000000000E+00 0.  1.
</event>
<event>
 7    1  0.2700100E-010  0.4778727E+02  0.7816164E-02  0.1312668E+00
        -11   -1    0    0    0    0  0.00000000000E+00  0.00000000000E+00  0.45593999997E+02  0.45594000000E+02  0.51100000000E-03 0.  1.
         11   -1    0    0    0    0 -0.00000000000E+00 -0.00000000000E+00 -0.45593999997E+02  0.45594000000E+02  0.51100000000E-03 0. -1.
    9900012    2    1    2    0    0  0.43261431666E+02  0.19855189178E+01 -0.28512055331E+01  0.47787272723E+02  0.20000007655E+02 0.  0.
        -12    1    1    2    0    0 -0.43261431666E+02 -0.19855189178E+01  0.28512055331E+01  0.43400727277E+02  0.00000000000E+00 0.  1.
         11    1    3    3    0    0  0.44373669124E+01 -0.28414412068E+01  0.34231025641E+00  0.52802641808E+01  0.51100000000E-03 0. -1.
        -11    1    3    3    0    0 -0.44069840978E+00 -0.96703293092E+00  0.22087316762E+01  0.24510943793E+01  0.51100000000E-03 0.  1.
        -12    1    3    3    0    0  0.39264763163E+02  0.57939930555E+01 -0.54022474657E+01  0.40055914163E+02  0.00000000000E+00 0.  1.
</event>
<event>
 7    1  0.2700100E-010  0.4778726E+02  0.7816164E-02  0.1312668E+00
        -11   -1    0    0    0    0  0.00000000000E+00  0.00000000000E+00  0.45593999997E+02  0.45594000000E+02  0.51100000000E-03 0.  1.
         11   -1    0    0    0    0 -0.00000000000E+00 -0.00000000000E+00 -0.45593999997E+02  0.45594000000E+02  0.51100000000E-03 0. -1.
    9900012    2    1    2    0    0 -0.18347990825E+02 -0.46229738573E+01 -0.39058970691E+02  0.47787264453E+02  0.19999969946E+02 0.  0.
        -12    1    1    2    0    0  0.18347990825E+02  0.46229738573E+01  0.39058970691E+02  0.43400735547E+02  0.00000000000E+00 0.  1.
         11    1    3    3    0    0 -0.12120725924E+02  0.27759896557E+01 -0.13021155068E+02  0.18004682587E+02  0.51100000000E-03 0. -1.
        -11    1    3    3    0    0 -0.89235459774E+00 -0.55983540442E+01 -0.22335823939E+02  0.23044020830E+02  0.51100000000E-03 0.  1.
        -12    1    3    3    0    0 -0.53349103034E+01 -0.18006094687E+01 -0.37019916844E+01  0.67385610360E+01  0.00000000000E+00 0.  1.
</event>
<event>
 7    1  0.2700100E-010  0.4778726E+02  0.7816164E-02  0.1312668E+00
        -11   -1    0    0    0    0  0.00000000000E+00  0.00000000000E+00  0.45593999997E+02  0.45594000000E+02  0.51100000000E-03 0.  1.
         11   -1    0    0    0    0 -0.00000000000E+00 -0.00000000000E+00 -0.45593999997E+02  0.45594000000E+02  0.51100000000E-03 0. -1.
    9900012    2    1    2    0    0 -0.10654093298E+02 -0.33931455211E+02 -0.24875097455E+02  0.47787264636E+02  0.19999970782E+02 0.  0.
        -12    1    1    2    0    0  0.10654093298E+02  0.33931455211E+02  0.24875097455E+02  0.43400735364E+02  0.00000000000E+00 0.  1.
         11    1    3    3    0    0 -0.86066260078E+01 -0.31125469022E+02 -0.13119381542E+02  0.34856663716E+02  0.51100000000E-03 0. -1.
        -11    1    3    3    0    0 -0.21298143328E+01  0.21884996438E+00 -0.31530308238E+01  0.38112475695E+01  0.51100000000E-03 0.  1.
         12    1    3    3    0    0  0.82347042154E-01 -0.30248361529E+01 -0.86026850898E+01  0.91193533511E+01  0.00000000000E+00 0. -1.
</event>
<event>
 7    1  0.2700100E-010  0.4778727E+02  0.7816164E-02  0.1312668E+00
        -11   -1    0    0    0    0  0.00000000000E+00  0.00000000000E+00  0.45593999997E+02  0.45594000000E+02  0.51100000000E-03 0.  1.
         11   -1    0    0    0    0 -0.00000000000E+00 -0.00000000000E+00 -0.45593999997E+02  0.45594000000E+02  0.51100000000E-03 0. -1.
    9900012    2    1    2    0    0  0.74743633955E-02  0.10560346357E+02 -0.42096344910E+02  0.47787271598E+02  0.20000002525E+02 0.  0.
        -12    1    1    2    0    0 -0.74743633955E-02 -0.10560346357E+02  0.42096344910E+02  0.43400728402E+02  0.00000000000E+00 0.  1.
         11    1    3    3    0    0  0.30700800957E+01 -0.45947487375E+01 -0.18363369663E+02  0.19176820732E+02  0.51100000000E-03 0. -1.
        -11    1    3    3    0    0 -0.36303401821E+01  0.89981302932E+01 -0.15962862802E+02  0.18680436497E+02  0.51100000000E-03 0.  1.
         12    1    3    3    0    0  0.56773444981E+00  0.61569648011E+01 -0.77701124446E+01  0.99300143691E+01  0.00000000000E+00 0. -1.
</event>
<event>
 7    1  0.2700100E-010  0.4778728E+02  0.7816164E-02  0.1312668E+00
        -11   -1    0    0    0    0  0.00000000000E+00  0.00000000000E+00  0.45593999997E+02  0.45594000000E+02  0.51100000000E-03 0. -1.
         11   -1    0    0    0    0 -0.00000000000E+00 -0.00000000000E+00 -0.45593999997E+02  0.45594000000E+02  0.51100000000E-03 0.  1.
    9900012    2    1    2    0    0 -0.63489942025E+01 -0.70690404539E+00  0.42927999803E+02  0.47787278718E+02  0.20000034988E+02 0.  0.
        -12    1    1    2    0    0  0.63489942025E+01  0.70690404539E+00 -0.42927999803E+02  0.43400721282E+02  0.00000000000E+00 0.  1.
         11    1    3    3    0    0  0.75891055528E+00 -0.35198918804E+01  0.52672662181E+01  0.63804136037E+01  0.51100000000E-03 0. -1.
        -11    1    3    3    0    0 -0.63571706846E+01  0.98781344972E+00  0.37658950071E+01  0.74546200433E+01  0.51100000000E-03 0.  1.
        -12    1    3    3    0    0 -0.75073407315E+00  0.18251743853E+01  0.33894838578E+02  0.33952245071E+02  0.00000000000E+00 0.  1.
</event>
<event>
 7    1  0.2700100E-010  0.4778727E+02  0.7816164E-02  0.1312668E+00
        -11   -1    0    0    0    0  0.00000000000E+00  0.00000000000E+00  0.45593999997E+02  0.45594000000E+02  0.51100000000E-03 0. -1.
         11   -1    0    0    0    0 -0.00000000000E+00 -0.00000000000E+00 -0.45593999997E+02  0.45594000000E+02  0.51100000000E-03 0.  1.
    9900012    2    1    2    0    0 -0.29837555213E+02  0.31500870113E+02 -0.10192860147E+01  0.47787268866E+02  0.19999990070E+02 0.  0.
        -12    1    1    2    0    0  0.29837555213E+02 -0.31500870113E+02  0.10192860147E+01  0.43400731134E+02  0.00000000000E+00 0.  1.
         11    1    3    3    0    0 -0.69186393617E+01  0.83677699622E+01  0.51238528833E+01  0.12005874120E+02  0.51100000000E-03 0. -1.
        -11    1    3    3    0    0 -0.23298556876E+02  0.16443510941E+02 -0.43639498880E+01  0.28848845098E+02  0.51100000000E-03 0.  1.
        -12    1    3    3    0    0  0.37964102494E+00  0.66895892092E+01 -0.17791890100E+01  0.69325496485E+01  0.00000000000E+00 0.  1.
</event>
<event>
 7    1  0.2700100E-010  0.4778728E+02  0.7816164E-02  0.1312668E+00
        -11   -1    0    0    0    0  0.00000000000E+00  0.00000000000E+00  0.45593999997E+02  0.45594000000E+02  0.51100000000E-03 0. -1.
         11   -1    0    0    0    0 -0.00000000000E+00 -0.00000000000E+00 -0.45593999997E+02  0.45594000000E+02  0.51100000000E-03 0.  1.
    9900012    2    1    2    0    0  0.16857675742E+02 -0.45962254198E+01  0.39728028802E+02  0.47787276596E+02  0.20000025310E+02 0.  0.
        -12    1    1    2    0    0 -0.16857675742E+02  0.45962254198E+01 -0.39728028802E+02  0.43400723404E+02  0.00000000000E+00 0.  1.
         11    1    3    3    0    0  0.64601495349E+01 -0.81418723956E+01  0.17640876020E+02  0.20474963373E+02  0.51100000000E-03 0. -1.
        -11    1    3    3    0    0 -0.12761302244E+01  0.41173702555E+01  0.71080719499E+01  0.83129978514E+01  0.51100000000E-03 0.  1.
        -12    1    3    3    0    0  0.11673656432E+02 -0.57172327973E+00  0.14979080832E+02  0.18999315371E+02  0.00000000000E+00 0.  1.
</event>
<event>
 7    1  0.2700100E-010  0.4778727E+02  0.7816164E-02  0.1312668E+00
        -11   -1    0    0    0    0  0.00000000000E+00  0.00000000000E+00  0.45593999997E+02  0.45594000000E+02  0.51100000000E-03 0. -1.
         11   -1    0    0    0    0 -0.00000000000E+00 -0.00000000000E+00 -0.45593999997E+02  0.45594000000E+02  0.51100000000E-03 0.  1.
    9900012    2    1    2    0    0  0.10700523350E+02  0.22720019624E+02  0.35396649930E+02  0.47787270537E+02  0.19999997685E+02 0.  0.
        -12    1    1    2    0    0 -0.10700523350E+02 -0.22720019624E+02 -0.35396649930E+02  0.43400729463E+02  0.00000000000E+00 0.  1.
         11    1    3    3    0    0  0.71637565832E+01  0.20138265772E+02  0.29022091873E+02  0.36043736954E+02  0.51100000000E-03 0. -1.
        -11    1    3    3    0    0  0.63723588585E+01  0.14820638035E+01  0.29901714706E+01  0.71933716867E+01  0.51100000000E-03 0.  1.
         12    1    3    3    0    0 -0.28355920913E+01  0.10996900481E+01  0.33843865870E+01  0.45501618960E+01  0.00000000000E+00 0. -1.
</event>
<event>
 7    1  0.2700100E-010  0.4778727E+02  0.7816164E-02  0.1312668E+00
        -11   -1    0    0    0    0  0.00000000000E+00  0.00000000000E+00  0.45593999997E+02  0.45594000000E+02  0.51100000000E-03 0. -1.
         11   -1    0    0    0    0 -0.00000000000E+00 -0.00000000000E+00 -0.45593999997E+02  0.45594000000E+02  0.51100000000E-03 0.  1.
    9900012    2    1    2    0    0 -0.22615896487E+02  0.10837353646E+02  0.35421690366E+02  0.47787272398E+02  0.20000006173E+02 0.  0.
        -12    1    1    2    0    0  0.22615896487E+02 -0.10837353646E+02 -0.35421690366E+02  0.43400727602E+02  0.00000000000E+00 0.  1.
         11    1    3    3    0    0 -0.20168428483E+02  0.49010454593E+01  0.19138608444E+02  0.28232465134E+02  0.51100000000E-03 0. -1.
        -11    1    3    3    0    0  0.79669557980E+00  0.56772506993E+01  0.43793301481E+01  0.72141827088E+01  0.51100000000E-03 0.  1.
         12    1    3    3    0    0 -0.32441635833E+01  0.25905748767E+00  0.11903751774E+02  0.12340624556E+02  0.00000000000E+00 0. -1.
</event>
<event>
 7    1  0.2700100E-010  0.4778727E+02  0.7816164E-02  0.1312668E+00
        -11   -1    0    0    0    0  0.00000000000E+00  0.00000000000E+00  0.45593999997E+02  0.45594000000E+02  0.51100000000E-03 0. -1.
         11   -1    0    0    0    0 -0.00000000000E+00 -0.00000000000E+00 -0.45593999997E+02  0.45594000000E+02  0.51100000000E-03 0.  1.
    9900012    2    1    2    0    0  0.11256617528E+02 -0.25602812188E+02  0.33187466449E+02  0.47787270059E+02  0.19999995506E+02 0.  0.
        -12    1    1    2    0    0 -0.11256617528E+02  0.25602812188E+02 -0.33187466449E+02  0.43400729941E+02  0.00000000000E+00 0.  1.
         11    1    3    3    0    0  0.99826254853E+01 -0.21525619545E+02  0.13954465837E+02  0.27526936361E+02  0.51100000000E-03 0. -1.
        -11    1    3    3    0    0  0.55279684118E+00 -0.50803143514E+01  0.16140517587E+02  0.16930194521E+02  0.51100000000E-03 0.  1.
         12    1    3    3    0    0  0.72119520127E+00  0.10031217081E+01  0.30924830249E+01  0.33301391771E+01  0.00000000000E+00 0. -1.
</event>
<event>
 7    1  0.2700100E-010  0.4778727E+02  0.7816164E-02  0.1312668E+00
        -11   -1    0    0    0    0  0.00000000000E+00  0.00000000000E+00  0.45593999997E+02  0.45594000000E+02  0.51100000000E-03 0.  1.
         11   -1    0    0    0    0 -0.00000000000E+00 -0.00000000000E+00 -0.45593999997E+02  0.45594000000E+02  0.51100000000E-03 0. -1.
    9900012    2    1    2    0    0  0.59402920105E+01  0.37833478411E+02 -0.20419701071E+02  0.47787270171E+02  0.19999996018E+02 0.  0.
        -12    1    1    2    0    0 -0.59402920105E+01 -0.37833478411E+02  0.20419701071E+02  0.43400729829E+02  0.00000000000E+00 0.  1.
         11    1    3    3    0    0  0.15140189417E+01  0.34203936207E+02 -0.16486402141E+02  0.38000038964E+02  0.51100000000E-03 0. -1.
        -11    1    3    3    0    0  0.14023498955E+01  0.13652515321E+01  0.19711085869E+01  0.27777268220E+01  0.51100000000E-03 0.  1.
         12    1    3    3    0    0  0.30239231733E+01  0.22642906719E+01 -0.59044075169E+01  0.70095043855E+01  0.00000000000E+00 0. -1.
</event>
<event>
 7    1  0.2700100E-010  0.4778727E+02  0.7816164E-02  0.1312668E+00
        -11   -1    0    0    0    0  0.00000000000E+00  0.00000000000E+00  0.45593999997E+02  0.45594000000E+02  0.51100000000E-03 0. -1.
         11   -1    0    0    0    0 -0.00000000000E+00 -0.00000000000E+00 -0.45593999997E+02  0.45594000000E+02  0.51100000000E-03 0.  1.
    9900012    2    1    2    0    0 -0.32602705525E+02 -0.28541075267E+02  0.24685259871E+01  0.47787274136E+02  0.20000014095E+02 0.  0.
        -12    1    1    2    0    0  0.32602705525E+02  0.28541075267E+02 -0.24685259871E+01  0.43400725864E+02  0.00000000000E+00 0.  1.
         11    1    3    3    0    0 -0.44603766190E+01 -0.14539484658E+01  0.28544949017E+01  0.54915450585E+01  0.51100000000E-03 0. -1.
        -11    1    3    3    0    0 -0.23718445504E+02 -0.25961538412E+02  0.46818413214E+01  0.35475143020E+02  0.51100000000E-03 0.  1.
        -12    1    3    3    0    0 -0.44238834025E+01 -0.11255883894E+01 -0.50678102360E+01  0.68205860576E+01  0.00000000000E+00 0.  1.
</event>
<event>
 7    1  0.2700100E-010  0.4778727E+02  0.7816164E-02  0.1312668E+00
        -11   -1    0    0    0    0  0.00000000000E+00  0.00000000000E+00  0.45593999997E+02  0.45594000000E+02  0.51100000000E-03 0. -1.
         11   -1    0    0    0    0 -0.00000000000E+00 -0.00000000000E+00 -0.45593999997E+02  0.45594000000E+02  0.51100000000E-03 0.  1.
    9900012    2    1    2    0    0  0.24796940933E+01  0.19454533202E+02  0.38716863410E+02  0.47787271236E+02  0.20000000873E+02 0.  0.
        -12    1    1    2    0    0 -0.24796940933E+01 -0.19454533202E+02 -0.38716863410E+02  0.43400728764E+02  0.00000000000E+00 0.  1.
         11    1    3    3    0    0 -0.46223568264E+01 -0.83231572780E-01  0.80750081542E+01  0.93047765732E+01  0.51100000000E-03 0. -1.
        -11    1    3    3    0    0  0.77142958670E+01  0.13068022976E+02  0.14118744071E+02  0.20727337495E+02  0.51100000000E-03 0.  1.
        -12    1    3    3    0    0 -0.61224494732E+00  0.64697417994E+01  0.16523111185E+02  0.17755157168E+02  0.00000000000E+00 0.  1.
</event>
<event>
 7    1  0.2700100E-010  0.4778727E+02  0.7816164E-02  0.1312668E+00
        -11   -1    0    0    0    0  0.00000000000E+00  0.00000000000E+00  0.45593999997E+02  0.45594000000E+02  0.51100000000E-03 0. -1.
         11   -1    0    0    0    0 -0.00000000000E+00 -0.00000000000E+00 -0.45593999997E+02  0.45594000000E+02  0.51100000000E-03 0.  1.
    9900012    2    1    2    0    0 -0.14749681617E+01 -0.43309794220E+02  0.23893968615E+01  0.47787273926E+02  0.20000013137E+02 0.  0.
        -12    1    1    2    0    0  0.14749681617E+01  0.43309794220E+02 -0.23893968615E+01  0.43400726074E+02  0.00000000000E+00 0.  1.
         11    1    3    3    0    0 -0.75663823224E+01 -0.15781990945E+02  0.26795635345E+01  0.17705971892E+02  0.51100000000E-03 0. -1.
        -11    1    3    3    0    0  0.57131840737E+01 -0.26639622231E+02  0.22753102954E+01  0.27340208158E+02  0.51100000000E-03 0.  1.
        -12    1    3    3    0    0  0.37823008703E+00 -0.88818104312E+00 -0.25654769684E+01  0.27410938764E+01  0.00000000000E+00 0.  1.
</event>
<event>
 7    1  0.2700100E-010  0.4778727E+02  0.7816164E-02  0.1312668E+00
        -11   -1    0    0    0    0  0.00000000000E+00  0.00000000000E+00  0.45593999997E+02  0.45594000000E+02  0.51100000000E-03 0. -1.
         11   -1    0    0    0    0 -0.00000000000E+00 -0.00000000000E+00 -0.45593999997E+02  0.45594000000E+02  0.51100000000E-03 0.  1.
    9900012    2    1    2    0    0 -0.91579882075E+01  0.41282140581E+02  0.97744267726E+01  0.47787270770E+02  0.19999998748E+02 0.  0.
        -12    1    1    2    0    0  0.91579882075E+01 -0.41282140581E+02 -0.97744267726E+01  0.43400729230E+02  0.00000000000E+00 0.  1.
         11    1    3    3    0    0 -0.38272939392E+01  0.92146339636E+01  0.33802542556E+01  0.10534883819E+02  0.51100000000E-03 0. -1.
        -11    1    3    3    0    0 -0.65761887754E+01  0.15536509594E+02 -0.44435007293E+01  0.17446320190E+02  0.51100000000E-03 0.  1.
        -12    1    3    3    0    0  0.12454945070E+01  0.16530997024E+02  0.10837673246E+02  0.19806066762E+02  0.00000000000E+00 0.  1.
</event>
<event>
 7    1  0.2700100E-010  0.4778727E+02  0.7816164E-02  0.1312668E+00
        -11   -1    0    0    0    0  0.00000000000E+00  0.00000000000E+00  0.45593999997E+02  0.45594000000E+02  0.51100000000E-03 0. -1.
         11   -1    0    0    0    0 -0.00000000000E+00 -0.00000000000E+00 -0.45593999997E+02  0.45594000000E+02  0.51100000000E-03 0.  1.
    9900012    2    1    2    0    0  0.43076770279E+02 -0.71831374297E+00  0.52439637539E+01  0.47787271110E+02  0.20000000300E+02 0.  0.
        -12    1    1    2    0    0 -0.43076770279E+02  0.71831374297E+00 -0.52439637539E+01  0.43400728890E+02  0.00000000000E+00 0.  1.
         11    1    3    3    0    0  0.25477445461E+02  0.67599980547E+01  0.44561242852E+01  0.26733029099E+02  0.51100000000E-03 0. -1.
        -11    1    3    3    0    0  0.37965312154E+01 -0.15074394601E+01 -0.35396479036E+01  0.54051022690E+01  0.51100000000E-03 0.  1.
         12    1    3    3    0    0  0.13802793603E+02 -0.59708723375E+01  0.43274873723E+01  0.15649139742E+02  0.00000000000E+00 0. -1.
</event>
<event>
 7    1  0.2700100E-010  0.4778727E+02  0.7816164E-02  0.1312668E+00
        -11   -1    0    0    0    0  0.00000000000E+00  0.00000000000E+00  0.45593999997E+02  0.45594000000E+02  0.51100000000E-03 0.  1.
         11   -1    0    0    0    0 -0.00000000000E+00 -0.00000000000E+00 -0.45593999997E+02  0.45594000000E+02  0.51100000000E-03 0. -1.
    9900012    2    1    2    0    0 -0.17484966058E+02  0.38806879686E+02  0.84808751791E+01  0.47787271978E+02  0.20000004257E+02 0.  0.
        -12    1    1    2    0    0  0.17484966058E+02 -0.38806879686E+02 -0.84808751791E+01  0.43400728022E+02  0.00000000000E+00 0.  1.
         11    1    3    3    0    0  0.18683707535E+01  0.14707496258E+01 -0.18174896816E+01  0.29928552819E+01  0.51100000000E-03 0.  1.
        -11    1    3    3    0    0 -0.13157570211E+02  0.21951631111E+02  0.63796966791E+00  0.25600835296E+02  0.51100000000E-03 0. -1.
         12    1    3    3    0    0 -0.61957666007E+01  0.15384498950E+02  0.96603951928E+01  0.19193581401E+02  0.00000000000E+00 0. -1.
</event>
<event>
 7    1  0.2700100E-010  0.4778728E+02  0.7816164E-02  0.1312668E+00
        -11   -1    0    0    0    0  0.00000000000E+00  0.00000000000E+00  0.45593999997E+02  0.45594000000E+02  0.51100000000E-03 0.  1.
         11   -1    0    0    0    0 -0.00000000000E+00 -0.00000000000E+00 -0.45593999997E+02  0.45594000000E+02  0.51100000000E-03 0. -1.
    9900012    2    1    2    0    0 -0.19846976758E-01 -0.32986554087E+02 -0.28204772126E+02  0.47787282090E+02  0.20000050361E+02 0.  0.
        -12    1    1    2    0    0  0.19846976758E-01  0.32986554087E+02  0.28204772126E+02  0.43400717910E+02  0.00000000000E+00 0.  1.
         11    1    3    3    0    0 -0.40972650599E+01 -0.10925456095E+02 -0.10610303319E+01  0.11716610324E+02  0.51100000000E-03 0. -1.
        -11    1    3    3    0    0  0.11419961930E+01  0.28312876250E+00 -0.91889056471E+00  0.14928755246E+01  0.51100000000E-03 0.  1.
         12    1    3    3    0    0  0.29354218902E+01 -0.22344226754E+02 -0.26224851230E+02  0.34577796241E+02  0.00000000000E+00 0. -1.
</event>
<event>
 7    1  0.2700100E-010  0.4778727E+02  0.7816164E-02  0.1312668E+00
        -11   -1    0    0    0    0  0.00000000000E+00  0.00000000000E+00  0.45593999997E+02  0.45594000000E+02  0.51100000000E-03 0.  1.
         11   -1    0    0    0    0 -0.00000000000E+00 -0.00000000000E+00 -0.45593999997E+02  0.45594000000E+02  0.51100000000E-03 0. -1.
    9900012    2    1    2    0    0  0.23020912711E+00  0.31789967409E+02 -0.29546033458E+02  0.47787272849E+02  0.20000008229E+02 0.  0.
        -12    1    1    2    0    0 -0.23020912711E+00 -0.31789967409E+02  0.29546033458E+02  0.43400727151E+02  0.00000000000E+00 0.  1.
         11    1    3    3    0    0  0.30503467253E+01 -0.28061135563E+00 -0.54191073962E+01  0.62249564745E+01  0.51100000000E-03 0.  1.
        -11    1    3    3    0    0 -0.64812205798E+01  0.15316677839E+02 -0.10624177905E+02  0.19735247570E+02  0.51100000000E-03 0. -1.
         12    1    3    3    0    0  0.36610829817E+01  0.16753900926E+02 -0.13502748157E+02  0.21827068805E+02  0.00000000000E+00 0. -1.
</event>
<event>
 7    1  0.2700100E-010  0.4778727E+02  0.7816164E-02  0.1312668E+00
        -11   -1    0    0    0    0  0.00000000000E+00  0.00000000000E+00  0.45593999997E+02  0.45594000000E+02  0.51100000000E-03 0.  1.
         11   -1    0    0    0    0 -0.00000000000E+00 -0.00000000000E+00 -0.45593999997E+02  0.45594000000E+02  0.51100000000E-03 0. -1.
    9900012    2    1    2    0    0 -0.23488597950E+02 -0.15010549909E+02 -0.33265482577E+02  0.47787272203E+02  0.20000005284E+02 0.  0.
        -12    1    1    2    0    0  0.23488597950E+02  0.15010549909E+02  0.33265482577E+02  0.43400727797E+02  0.00000000000E+00 0.  1.
         11    1    3    3    0    0 -0.10712449149E-02 -0.57911022761E+01 -0.90662055360E+01  0.10757924977E+02  0.51100000000E-03 0. -1.
        -11    1    3    3    0    0 -0.18997069223E+02 -0.54473488445E+01 -0.11074832817E+02  0.22654230745E+02  0.51100000000E-03 0.  1.
         12    1    3    3    0    0 -0.44904574821E+01 -0.37720987884E+01 -0.13124444224E+02  0.14375116481E+02  0.00000000000E+00 0. -1.
</event>
<event>
 7    1  0.2700100E-010  0.4778727E+02  0.7816164E-02  0.1312668E+00
        -11   -1    0    0    0    0  0.00000000000E+00  0.00000000000E+00  0.45593999997E+02  0.45594000000E+02  0.51100000000E-03 0.  1.
         11   -1    0    0    0    0 -0.00000000000E+00 -0.00000000000E+00 -0.45593999997E+02  0.45594000000E+02  0.51100000000E-03 0. -1.
    9900012    2    1    2    0    0  0.19964586944E+02  0.19765264025E+02 -0.33081311944E+02  0.47787267359E+02  0.19999983197E+02 0.  0.
        -12    1    1    2    0    0 -0.19964586944E+02 -0.19765264025E+02  0.33081311944E+02  0.43400732641E+02  0.00000000000E+00 0.  1.
         11    1    3    3    0    0 -0.18679299516E+01  0.39767995466E+00 -0.90701664993E+01  0.92690469973E+01  0.51100000000E-03 0.  1.
        -11    1    3    3    0    0  0.11834901553E+02  0.14729058688E+02 -0.17274580800E+02  0.25601195415E+02  0.51100000000E-03 0. -1.
         12    1    3    3    0    0  0.99976153426E+01  0.46385253825E+01 -0.67365646446E+01  0.12917024947E+02  0.00000000000E+00 0. -1.
</event>
<event>
 7    1  0.2700100E-010  0.4778727E+02  0.7816164E-02  0.1312668E+00
        -11   -1    0    0    0    0  0.00000000000E+00  0.00000000000E+00  0.45593999997E+02  0.45594000000E+02  0.51100000000E-03 0. -1.
         11   -1    0    0    0    0 -0.00000000000E+00 -0.00000000000E+00 -0.45593999997E+02  0.45594000000E+02  0.51100000000E-03 0.  1.
    9900012    2    1    2    0    0 -0.84661793590E+00 -0.32923743526E+02  0.28265414939E+02  0.47787270382E+02  0.19999996980E+02 0.  0.
        -12    1    1    2    0    0  0.84661793590E+00  0.32923743526E+02 -0.28265414939E+02  0.43400729618E+02  0.00000000000E+00 0.  1.
         11    1    3    3    0    0  0.40233197948E+01 -0.23224433478E+02  0.21080377466E+02  0.31621886834E+02  0.51100000000E-03 0. -1.
        -11    1    3    3    0    0  0.13483312194E+01  0.75668865136E+00 -0.66937427083E+00  0.16848255007E+01  0.51100000000E-03 0.  1.
         12    1    3    3    0    0 -0.62182689501E+01 -0.10455998699E+02  0.78544117434E+01  0.14480558047E+02  0.00000000000E+00 0. -1.
</event>
<event>
 7    1  0.2700100E-010  0.4778727E+02  0.7816164E-02  0.1312668E+00
        -11   -1    0    0    0    0  0.00000000000E+00  0.00000000000E+00  0.45593999997E+02  0.45594000000E+02  0.51100000000E-03 0. -1.
         11   -1    0    0    0    0 -0.00000000000E+00 -0.00000000000E+00 -0.45593999997E+02  0.45594000000E+02  0.51100000000E-03 0.  1.
    9900012    2    1    2    0    0 -0.22404180307E+02  0.18630094381E+02  0.32165131442E+02  0.47787269677E+02  0.19999993767E+02 0.  0.
        -12    1    1    2    0    0  0.22404180307E+02 -0.18630094381E+02 -0.32165131442E+02  0.43400730323E+02  0.00000000000E+00 0.  1.
         11    1    3    3    0    0 -0.63577624742E+01  0.56139652049E+01  0.16396804534E+02  0.18460578219E+02  0.51100000000E-03 0. -1.
        -11    1    3    3    0    0 -0.43071561818E+01  0.79934390037E+01  0.55806218245E-01  0.90801859053E+01  0.51100000000E-03 0.  1.
        -12    1    3    3    0    0 -0.11739261651E+02  0.50226901724E+01  0.15712520690E+02  0.20246505553E+02  0.00000000000E+00 0.  1.
</event>
<event>
 7    1  0.2700100E-010  0.4778727E+02  0.7816164E-02  0.1312668E+00
        -11   -1    0    0    0    0  0.00000000000E+00  0.00000000000E+00  0.45593999997E+02  0.45594000000E+02  0.51100000000E-03 0. -1.
         11   -1    0    0    0    0 -0.00000000000E+00 -0.00000000000E+00 -0.45593999997E+02  0.45594000000E+02  0.51100000000E-03 0.  1.
    9900012    2    1    2    0    0  0.29559657262E+02  0.30806542108E+02  0.77978739887E+01  0.47787271748E+02  0.20000003208E+02 0.  0.
        -12    1    1    2    0    0 -0.29559657262E+02 -0.30806542108E+02 -0.77978739887E+01  0.43400728252E+02  0.00000000000E+00 0.  1.
         11    1    3    3    0    0  0.95535656040E+01  0.96915744815E-01 -0.32650187841E+00  0.95596345197E+01  0.51100000000E-03 0. -1.
        -11    1    3    3    0    0 -0.41318969411E+00  0.23626200953E+01  0.21696808261E+00  0.24082721707E+01  0.51100000000E-03 0.  1.
         12    1    3    3    0    0  0.20419281352E+02  0.28347006268E+02  0.79074077845E+01  0.35819365058E+02  0.00000000000E+00 0. -1.
</event>
<event>
 7    1  0.2700100E-010  0.4778727E+02  0.7816164E-02  0.1312668E+00
        -11   -1    0    0    0    0  0.00000000000E+00  0.00000000000E+00  0.45593999997E+02  0.45594000000E+02  0.51100000000E-03 0.  1.
         11   -1    0    0    0    0 -0.00000000000E+00 -0.00000000000E+00 -0.45593999997E+02  0.45594000000E+02  0.51100000000E-03 0. -1.
    9900012    2    1    2    0    0 -0.15383268690E+02 -0.37723971107E+02 -0.14962629818E+02  0.47787271403E+02  0.20000001635E+02 0.  0.
        -12    1    1    2    0    0  0.15383268690E+02  0.37723971107E+02  0.14962629818E+02  0.43400728597E+02  0.00000000000E+00 0.  1.
         11    1    3    3    0    0 -0.29125486324E+01 -0.15477651606E+02 -0.62061371094E+01  0.16927987974E+02  0.51100000000E-03 0. -1.
        -11    1    3    3    0    0 -0.58090687474E+01 -0.31770577928E+01  0.32344770667E+01  0.73689088804E+01  0.51100000000E-03 0.  1.
        -12    1    3    3    0    0 -0.66616513106E+01 -0.19069261708E+02 -0.11990969776E+02  0.23490374548E+02  0.00000000000E+00 0.  1.
</event>
<event>
 7    1  0.2700100E-010  0.4778727E+02  0.7816164E-02  0.1312668E+00
        -11   -1    0    0    0    0  0.00000000000E+00  0.00000000000E+00  0.45593999997E+02  0.45594000000E+02  0.51100000000E-03 0.  1.
         11   -1    0    0    0    0 -0.00000000000E+00 -0.00000000000E+00 -0.45593999997E+02  0.45594000000E+02  0.51100000000E-03 0. -1.
    9900012    2    1    2    0    0  0.18411919834E+02  0.39213983684E+02 -0.26245060433E+01  0.47787270279E+02  0.19999996510E+02 0.  0.
        -12    1    1    2    0    0 -0.18411919834E+02 -0.39213983684E+02  0.26245060433E+01  0.43400729721E+02  0.00000000000E+00 0.  1.
         11    1    3    3    0    0  0.11333530755E+02  0.77094735103E+01  0.84783294269E+00  0.13733307036E+02  0.51100000000E-03 0. -1.
        -11    1    3    3    0    0  0.43478233984E+01  0.30520421644E+02 -0.40534026752E+01  0.31093886524E+02  0.51100000000E-03 0.  1.
        -12    1    3    3    0    0  0.27305656811E+01  0.98408852920E+00  0.58106368928E+00  0.29600767191E+01  0.00000000000E+00 0.  1.
</event>
<event>
 7    1  0.2700100E-010  0.4778726E+02  0.7816164E-02  0.1312668E+00
        -11   -1    0    0    0    0  0.00000000000E+00  0.00000000000E+00  0.45593999997E+02  0.45594000000E+02  0.51100000000E-03 0. -1.
         11   -1    0    0    0    0 -0.00000000000E+00 -0.00000000000E+00 -0.45593999997E+02  0.45594000000E+02  0.51100000000E-03 0.  1.
    9900012    2    1    2    0    0  0.22612450741E+02 -0.10897471087E+02  0.35405454212E+02  0.47787262764E+02  0.19999962248E+02 0.  0.
        -12    1    1    2    0    0 -0.22612450741E+02  0.10897471087E+02 -0.35405454212E+02  0.43400737236E+02  0.00000000000E+00 0.  1.
         11    1    3    3    0    0  0.10183496195E+02  0.26222148895E+00  0.14653385742E+02  0.17846402125E+02  0.51100000000E-03 0. -1.
        -11    1    3    3    0    0  0.81261812187E+01 -0.11903979074E+02  0.80492996641E+01  0.16508505818E+02  0.51100000000E-03 0.  1.
        -12    1    3    3    0    0  0.43027733280E+01  0.74428649792E+00  0.12702768806E+02  0.13432354821E+02  0.00000000000E+00 0.  1.
</event>
<event>
 7    1  0.2700100E-010  0.4778727E+02  0.7816164E-02  0.1312668E+00
        -11   -1    0    0    0    0  0.00000000000E+00  0.00000000000E+00  0.45593999997E+02  0.45594000000E+02  0.51100000000E-03 0.  1.
         11   -1    0    0    0    0 -0.00000000000E+00 -0.00000000000E+00 -0.45593999997E+02  0.45594000000E+02  0.51100000000E-03 0. -1.
    9900012    2    1    2    0    0  0.49585442097E+01  0.19718736994E+02 -0.38343283683E+02  0.47787272438E+02  0.20000006352E+02 0.  0.
        -12    1    1    2    0    0 -0.49585442097E+01 -0.19718736994E+02  0.38343283683E+02  0.43400727562E+02  0.00000000000E+00 0.  1.
         11    1    3    3    0    0 -0.19292984484E+01  0.63341702380E+01 -0.87484279434E+01  0.10971731716E+02  0.51100000000E-03 0. -1.
        -11    1    3    3    0    0 -0.18184384390E+01  0.84460867972E+01 -0.23638710408E+02  0.25168069663E+02  0.51100000000E-03 0.  1.
        -12    1    3    3    0    0  0.87062810971E+01  0.49384799588E+01 -0.59561453317E+01  0.11647471058E+02  0.00000000000E+00 0.  1.
</event>
<event>
 7    1  0.2700100E-010  0.4778727E+02  0.7816164E-02  0.1312668E+00
        -11   -1    0    0    0    0  0.00000000000E+00  0.00000000000E+00  0.45593999997E+02  0.45594000000E+02  0.51100000000E-03 0.  1.
         11   -1    0    0    0    0 -0.00000000000E+00 -0.00000000000E+00 -0.45593999997E+02  0.45594000000E+02  0.51100000000E-03 0. -1.
    9900012    2    1    2    0    0  0.11351084108E+02 -0.35578278985E+02 -0.22112498524E+02  0.47787266862E+02  0.19999980929E+02 0.  0.
        -12    1    1    2    0    0 -0.11351084108E+02  0.35578278985E+02  0.22112498524E+02  0.43400733138E+02  0.00000000000E+00 0.  1.
         11    1    3    3    0    0  0.10464914076E+01 -0.71264162645E+00  0.93020058387E-01  0.12695098843E+01  0.51100000000E-03 0.  1.
        -11    1    3    3    0    0  0.45312049489E+01 -0.12261265535E+00 -0.65739817965E+01  0.79852419546E+01  0.51100000000E-03 0. -1.
        -12    1    3    3    0    0  0.57733877513E+01 -0.34743024704E+02 -0.15631536786E+02  0.38532515023E+02  0.00000000000E+00 0.  1.
</event>
<event>
 7    1  0.2700100E-010  0.4778727E+02  0.7816164E-02  0.1312668E+00
        -11   -1    0    0    0    0  0.00000000000E+00  0.00000000000E+00  0.45593999997E+02  0.45594000000E+02  0.51100000000E-03 0. -1.
         11   -1    0    0    0    0 -0.00000000000E+00 -0.00000000000E+00 -0.45593999997E+02  0.45594000000E+02  0.51100000000E-03 0.  1.
    9900012    2    1    2    0    0 -0.51133218512E+01 -0.37585244780E+02  0.21090906643E+02  0.47787273871E+02  0.20000012886E+02 0.  0.
        -12    1    1    2    0    0  0.51133218512E+01  0.37585244780E+02 -0.21090906643E+02  0.43400726129E+02  0.00000000000E+00 0.  1.
         11    1    3    3    0    0 -0.31378588472E+01 -0.10897790267E+02  0.13216752619E+02  0.17415238755E+02  0.51100000000E-03 0. -1.
        -11    1    3    3    0    0 -0.33756549440E+00 -0.22990398919E+02  0.17843655605E+01  0.23062011050E+02  0.51100000000E-03 0.  1.
        -12    1    3    3    0    0 -0.16378975095E+01 -0.36970555940E+01  0.60897884638E+01  0.73100240664E+01  0.00000000000E+00 0.  1.
</event>
<event>
 7    1  0.2700100E-010  0.4778727E+02  0.7816164E-02  0.1312668E+00
        -11   -1    0    0    0    0  0.00000000000E+00  0.00000000000E+00  0.45593999997E+02  0.45594000000E+02  0.51100000000E-03 0. -1.
         11   -1    0    0    0    0 -0.00000000000E+00 -0.00000000000E+00 -0.45593999997E+02  0.45594000000E+02  0.51100000000E-03 0.  1.
    9900012    2    1    2    0    0 -0.21705526893E+02 -0.56449245182E+01  0.37156805059E+02  0.47787271519E+02  0.20000002162E+02 0.  0.
        -12    1    1    2    0    0  0.21705526893E+02  0.56449245182E+01 -0.37156805059E+02  0.43400728481E+02  0.00000000000E+00 0.  1.
         11    1    3    3    0    0 -0.12927188106E+02  0.46236881072E+01  0.11477865667E+02  0.17895029605E+02  0.51100000000E-03 0. -1.
        -11    1    3    3    0    0 -0.66133059897E+01 -0.11098451772E+02  0.22678780350E+02  0.26100546475E+02  0.51100000000E-03 0.  1.
        -12    1    3    3    0    0 -0.21650327969E+01  0.82983914667E+00  0.30001590420E+01  0.37916954385E+01  0.00000000000E+00 0.  1.
</event>
<event>
 7    1  0.2700100E-010  0.4778727E+02  0.7816164E-02  0.1312668E+00
        -11   -1    0    0    0    0  0.00000000000E+00  0.00000000000E+00  0.45593999997E+02  0.45594000000E+02  0.51100000000E-03 0.  1.
         11   -1    0    0    0    0 -0.00000000000E+00 -0.00000000000E+00 -0.45593999997E+02  0.45594000000E+02  0.51100000000E-03 0. -1.
    9900012    2    1    2    0    0  0.26645965066E+02 -0.77747077141E+00 -0.34249253827E+02  0.47787270711E+02  0.19999998480E+02 0.  0.
        -12    1    1    2    0    0 -0.26645965066E+02  0.77747077141E+00  0.34249253827E+02  0.43400729289E+02  0.00000000000E+00 0.  1.
         11    1    3    3    0    0  0.24665240859E+01 -0.16373421863E+01 -0.54561898535E+01  0.62076274437E+01  0.51100000000E-03 0. -1.
        -11    1    3    3    0    0  0.14328488017E+02 -0.81097486973E+01 -0.13451220524E+02  0.21260501562E+02  0.51100000000E-03 0.  1.
        -12    1    3    3    0    0  0.98509529629E+01  0.89696201121E+01 -0.15341843449E+02  0.20319141706E+02  0.00000000000E+00 0.  1.
</event>
<event>
 7    1  0.2700100E-010  0.4778731E+02  0.7816164E-02  0.1312668E+00
        -11   -1    0    0    0    0  0.00000000000E+00  0.00000000000E+00  0.45593999997E+02  0.45594000000E+02  0.51100000000E-03 0.  1.
         11   -1    0    0    0    0 -0.00000000000E+00 -0.00000000000E+00 -0.45593999997E+02  0.45594000000E+02  0.51100000000E-03 0. -1.
    9900012    2    1    2    0    0  0.26613491670E+02 -0.32556021753E+02 -0.10744656366E+02  0.47787307245E+02  0.20000165051E+02 0.  0.
        -12    1    1    2    0    0 -0.26613491670E+02  0.32556021753E+02  0.10744656366E+02  0.43400692755E+02  0.00000000000E+00 0.  1.
         11    1    3    3    0    0  0.82985462223E+01 -0.23567572237E+02 -0.90101812632E+01  0.26560867780E+02  0.51100000000E-03 0. -1.
        -11    1    3    3    0    0  0.64128656969E+01 -0.63962982615E+00 -0.17877011449E+01  0.66880377097E+01  0.51100000000E-03 0.  1.
         12    1    3    3    0    0  0.11902079750E+02 -0.83488196896E+01  0.53226042191E-01  0.14538401756E+02  0.00000000000E+00 0. -1.
</event>
<event>
 7    1  0.2700100E-010  0.4778726E+02  0.7816164E-02  0.1312668E+00
        -11   -1    0    0    0    0  0.00000000000E+00  0.00000000000E+00  0.45593999997E+02  0.45594000000E+02  0.51100000000E-03 0.  1.
         11   -1    0    0    0    0 -0.00000000000E+00 -0.00000000000E+00 -0.45593999997E+02  0.45594000000E+02  0.51100000000E-03 0. -1.
    9900012    2    1    2    0    0 -0.20360518764E+02 -0.22567775470E+02 -0.30980139136E+02  0.47787259973E+02  0.19999949521E+02 0.  0.
        -12    1    1    2    0    0  0.20360518764E+02  0.22567775470E+02  0.30980139136E+02  0.43400740027E+02  0.00000000000E+00 0.  1.
         11    1    3    3    0    0  0.19375860341E+01 -0.50953894217E+01 -0.10587517172E+02  0.11908515992E+02  0.51100000000E-03 0. -1.
        -11    1    3    3    0    0 -0.81170541505E+01 -0.66354319911E+01 -0.28762550330E+01  0.10871447423E+02  0.51100000000E-03 0.  1.
         12    1    3    3    0    0 -0.14181050648E+02 -0.10836954057E+02 -0.17516366931E+02  0.25007296558E+02  0.00000000000E+00 0. -1.
</event>
<event>
 7    1  0.2700100E-010  0.4778727E+02  0.7816164E-02  0.1312668E+00
        -11   -1    0    0    0    0  0.00000000000E+00  0.00000000000E+00  0.45593999997E+02  0.45594000000E+02  0.51100000000E-03 0. -1.
         11   -1    0    0    0    0 -0.00000000000E+00 -0.00000000000E+00 -0.45593999997E+02  0.45594000000E+02  0.51100000000E-03 0.  1.
    9900012    2    1    2    0    0  0.38497948575E+02  0.19978096503E+02 -0.15513859492E+01  0.47787272095E+02  0.20000004789E+02 0.  0.
        -12    1    1    2    0    0 -0.38497948575E+02 -0.19978096503E+02  0.15513859492E+01  0.43400727905E+02  0.00000000000E+00 0.  1.
         11    1    3    3    0    0  0.16505876949E+02  0.10579932468E+02 -0.92546988303E+01  0.21680138274E+02  0.51100000000E-03 0.  1.
        -11    1    3    3    0    0  0.21078049172E+02  0.10462890671E+02  0.71009190726E+01  0.24580058788E+02  0.51100000000E-03 0. -1.
         12    1    3    3    0    0  0.91402245399E+00 -0.10647266358E+01  0.60239380852E+00  0.15270750329E+01  0.00000000000E+00 0. -1.
</event>
<event>
 7    1  0.2700100E-010  0.4778726E+02  0.7816164E-02  0.1312668E+00
        -11   -1    0    0    0    0  0.00000000000E+00  0.00000000000E+00  0.45593999997E+02  0.45594000000E+02  0.51100000000E-03 0. -1.
         11   -1    0    0    0    0 -0.00000000000E+00 -0.00000000000E+00 -0.45593999997E+02  0.45594000000E+02  0.51100000000E-03 0.  1.
    9900012    2    1    2    0    0 -0.41545954624E+02  0.52824969595E+01  0.11386543473E+02  0.47787257011E+02  0.19999936014E+02 0.  0.
        -12    1    1    2    0    0  0.41545954624E+02 -0.52824969595E+01 -0.11386543473E+02  0.43400742989E+02  0.00000000000E+00 0.  1.
         11    1    3    3    0    0 -0.35162923577E+02  0.10375076023E+02  0.10484579838E+02  0.38131349460E+02  0.51100000000E-03 0. -1.
        -11    1    3    3    0    0 -0.16067714028E+01 -0.40532336490E+01  0.17438604615E+01  0.46958989474E+01  0.51100000000E-03 0.  1.
         12    1    3    3    0    0 -0.47762596444E+01 -0.10393454140E+01 -0.84189682689E+00  0.49600086036E+01  0.00000000000E+00 0. -1.
</event>
<event>
 7    1  0.2700100E-010  0.4778728E+02  0.7816164E-02  0.1312668E+00
        -11   -1    0    0    0    0  0.00000000000E+00  0.00000000000E+00  0.45593999997E+02  0.45594000000E+02  0.51100000000E-03 0.  1.
         11   -1    0    0    0    0 -0.00000000000E+00 -0.00000000000E+00 -0.45593999997E+02  0.45594000000E+02  0.51100000000E-03 0. -1.
    9900012    2    1    2    0    0 -0.73377365335E+01  0.24855537242E+02 -0.34813531910E+02  0.47787284417E+02  0.20000060972E+02 0.  0.
        -12    1    1    2    0    0  0.73377365335E+01 -0.24855537242E+02  0.34813531910E+02  0.43400715583E+02  0.00000000000E+00 0.  1.
         11    1    3    3    0    0 -0.99740799557E+01  0.24153260434E+02 -0.30749438192E+02  0.40353317211E+02  0.51100000000E-03 0.  1.
        -11    1    3    3    0    0  0.15571479088E+01  0.82521678670E+00  0.11523686782E+01  0.21056225176E+01  0.51100000000E-03 0. -1.
         12    1    3    3    0    0  0.10791955134E+01 -0.12293997770E+00 -0.52164623960E+01  0.53283446888E+01  0.00000000000E+00 0. -1.
</event>
<event>
 7    1  0.2700100E-010  0.4778727E+02  0.7816164E-02  0.1312668E+00
        -11   -1    0    0    0    0  0.00000000000E+00  0.00000000000E+00  0.45593999997E+02  0.45594000000E+02  0.51100000000E-03 0.  1.
         11   -1    0    0    0    0 -0.00000000000E+00 -0.00000000000E+00 -0.45593999997E+02  0.45594000000E+02  0.51100000000E-03 0. -1.
    9900012    2    1    2    0    0  0.14837916458E+02 -0.38289679935E+02 -0.14048481305E+02  0.47787272111E+02  0.20000004861E+02 0.  0.
        -12    1    1    2    0    0 -0.14837916458E+02  0.38289679935E+02  0.14048481305E+02  0.43400727889E+02  0.00000000000E+00 0.  1.
         11    1    3    3    0    0  0.37239087293E+00 -0.15503473571E+02  0.10984976133E+01  0.15546802404E+02  0.51100000000E-03 0. -1.
        -11    1    3    3    0    0  0.10983917001E+02 -0.10446905013E+02 -0.52435598108E+01  0.16039924463E+02  0.51100000000E-03 0.  1.
         12    1    3    3    0    0  0.34816085849E+01 -0.12339301352E+02 -0.99034191071E+01  0.16200545244E+02  0.00000000000E+00 0. -1.
</event>
<event>
 7    1  0.2700100E-010  0.4778727E+02  0.7816164E-02  0.1312668E+00
        -11   -1    0    0    0    0  0.00000000000E+00  0.00000000000E+00  0.45593999997E+02  0.45594000000E+02  0.51100000000E-03 0.  1.
         11   -1    0    0    0    0 -0.00000000000E+00 -0.00000000000E+00 -0.45593999997E+02  0.45594000000E+02  0.51100000000E-03 0. -1.
    9900012    2    1    2    0    0  0.37845177997E+02 -0.72613731346E+01 -0.19965922310E+02  0.47787273150E+02  0.20000009599E+02 0.  0.
        -12    1    1    2    0    0 -0.37845177997E+02  0.72613731346E+01  0.19965922310E+02  0.43400726850E+02  0.00000000000E+00 0.  1.
         11    1    3    3    0    0  0.21267981037E+01  0.33665621463E+01 -0.41907186423E+01  0.57809284599E+01  0.51100000000E-03 0. -1.
        -11    1    3    3    0    0  0.26591491318E+02 -0.11655290056E+02 -0.15278687404E+02  0.32808405720E+02  0.51100000000E-03 0.  1.
         12    1    3    3    0    0  0.91268885750E+01  0.10273547753E+01 -0.49651626357E+00  0.91979389700E+01  0.00000000000E+00 0. -1.
</event>
<event>
 7    1  0.2700100E-010  0.4778726E+02  0.7816164E-02  0.1312668E+00
        -11   -1    0    0    0    0  0.00000000000E+00  0.00000000000E+00  0.45593999997E+02  0.45594000000E+02  0.51100000000E-03 0. -1.
         11   -1    0    0    0    0 -0.00000000000E+00 -0.00000000000E+00 -0.45593999997E+02  0.45594000000E+02  0.51100000000E-03 0.  1.
    9900012    2    1    2    0    0  0.27248980966E+02 -0.23501506657E+02  0.24265136054E+02  0.47787255691E+02  0.19999929998E+02 0.  0.
        -12    1    1    2    0    0 -0.27248980966E+02  0.23501506657E+02 -0.24265136054E+02  0.43400744309E+02  0.00000000000E+00 0.  1.
         11    1    3    3    0    0  0.26449370897E+02 -0.14392077841E+02  0.20271600151E+02  0.36299296114E+02  0.51100000000E-03 0. -1.
        -11    1    3    3    0    0 -0.20525878841E+01 -0.57280107532E+01  0.35438943799E+01  0.70414779591E+01  0.51100000000E-03 0.  1.
        -12    1    3    3    0    0  0.28521979532E+01 -0.33814180632E+01  0.44964152305E+00  0.44464816183E+01  0.00000000000E+00 0.  1.
</event>
<event>
 7    1  0.2700100E-010  0.4778727E+02  0.7816164E-02  0.1312668E+00
        -11   -1    0    0    0    0  0.00000000000E+00  0.00000000000E+00  0.45593999997E+02  0.45594000000E+02  0.51100000000E-03 0.  1.
         11   -1    0    0    0    0 -0.00000000000E+00 -0.00000000000E+00 -0.45593999997E+02  0.45594000000E+02  0.51100000000E-03 0. -1.
    9900012    2    1    2    0    0 -0.30197026546E+01 -0.21564283800E+02 -0.37543122346E+02  0.47787274483E+02  0.20000015676E+02 0.  0.
        -12    1    1    2    0    0  0.30197026546E+01  0.21564283800E+02  0.37543122346E+02  0.43400725517E+02  0.00000000000E+00 0.  1.
         11    1    3    3    0    0 -0.70182198358E+01 -0.17543693427E+02 -0.18078073330E+02  0.26150589368E+02  0.51100000000E-03 0. -1.
        -11    1    3    3    0    0  0.37638837077E+01 -0.84030716776E+00 -0.30558221569E+01  0.49204660365E+01  0.51100000000E-03 0.  1.
         12    1    3    3    0    0  0.23463347348E+00 -0.31802832052E+01 -0.16409226859E+02  0.16716219078E+02  0.00000000000E+00 0. -1.
</event>
<event>
 7    1  0.2700100E-010  0.4778727E+02  0.7816164E-02  0.1312668E+00
        -11   -1    0    0    0    0  0.00000000000E+00  0.00000000000E+00  0.45593999997E+02  0.45594000000E+02  0.51100000000E-03 0. -1.
         11   -1    0    0    0    0 -0.00000000000E+00 -0.00000000000E+00 -0.45593999997E+02  0.45594000000E+02  0.51100000000E-03 0.  1.
    9900012    2    1    2    0    0 -0.42761363165E+02 -0.71409147190E+01 -0.20239965625E+01  0.47787269535E+02  0.19999993120E+02 0.  0.
        -12    1    1    2    0    0  0.42761363165E+02  0.71409147190E+01  0.20239965625E+01  0.43400730465E+02  0.00000000000E+00 0.  1.
         11    1    3    3    0    0 -0.29613078953E+01  0.43789260721E+01 -0.64925524168E-01  0.52866391574E+01  0.51100000000E-03 0. -1.
        -11    1    3    3    0    0 -0.31822099290E+02 -0.12849041536E+02 -0.23886699830E+01  0.34401302536E+02  0.51100000000E-03 0.  1.
         12    1    3    3    0    0 -0.79779559803E+01  0.13292007452E+01  0.42959894467E+00  0.80993278424E+01  0.00000000000E+00 0. -1.
</event>
<event>
 7    1  0.2700100E-010  0.4778727E+02  0.7816164E-02  0.1312668E+00
        -11   -1    0    0    0    0  0.00000000000E+00  0.00000000000E+00  0.45593999997E+02  0.45594000000E+02  0.51100000000E-03 0. -1.
         11   -1    0    0    0    0 -0.00000000000E+00 -0.00000000000E+00 -0.45593999997E+02  0.45594000000E+02  0.51100000000E-03 0.  1.
    9900012    2    1    2    0    0  0.25787339085E+02  0.28849700459E+02  0.19655306807E+02  0.47787272364E+02  0.20000006016E+02 0.  0.
        -12    1    1    2    0    0 -0.25787339085E+02 -0.28849700459E+02 -0.19655306807E+02  0.43400727636E+02  0.00000000000E+00 0.  1.
         11    1    3    3    0    0  0.21856475653E+02  0.10432373340E+02  0.14584892437E+02  0.28271169575E+02  0.51100000000E-03 0. -1.
        -11    1    3    3    0    0  0.26288080678E+01  0.11161085258E+02  0.28206310742E+01  0.11808319776E+02  0.51100000000E-03 0.  1.
         12    1    3    3    0    0  0.13020553639E+01  0.72562418598E+01  0.22497832967E+01  0.77077830134E+01  0.00000000000E+00 0. -1.
</event>
<event>
 7    1  0.2700100E-010  0.4778727E+02  0.7816164E-02  0.1312668E+00
        -11   -1    0    0    0    0  0.00000000000E+00  0.00000000000E+00  0.45593999997E+02  0.45594000000E+02  0.51100000000E-03 0. -1.
         11   -1    0    0    0    0 -0.00000000000E+00 -0.00000000000E+00 -0.45593999997E+02  0.45594000000E+02  0.51100000000E-03 0.  1.
    9900012    2    1    2    0    0 -0.33012303819E+01 -0.41107375901E+02  0.13524375798E+02  0.47787271709E+02  0.20000003028E+02 0.  0.
        -12    1    1    2    0    0  0.33012303819E+01  0.41107375901E+02 -0.13524375798E+02  0.43400728291E+02  0.00000000000E+00 0.  1.
         11    1    3    3    0    0 -0.97369592417E+01 -0.17549820398E+02  0.98943744219E+00  0.20094366325E+02  0.51100000000E-03 0. -1.
        -11    1    3    3    0    0  0.41799216123E+01 -0.85477129863E+01  0.47806416001E+01  0.10648458872E+02  0.51100000000E-03 0.  1.
         12    1    3    3    0    0  0.22558072475E+01 -0.15009842516E+02  0.77542967561E+01  0.17044446511E+02  0.00000000000E+00 0. -1.
</event>
<event>
 7    1  0.2700100E-010  0.4778727E+02  0.7816164E-02  0.1312668E+00
        -11   -1    0    0    0    0  0.00000000000E+00  0.00000000000E+00  0.45593999997E+02  0.45594000000E+02  0.51100000000E-03 0.  1.
         11   -1    0    0    0    0 -0.00000000000E+00 -0.00000000000E+00 -0.45593999997E+02  0.45594000000E+02  0.51100000000E-03 0. -1.
    9900012    2    1    2    0    0  0.52360173884E+01  0.34616818170E+02 -0.25649238589E+02  0.47787269378E+02  0.19999992401E+02 0.  0.
        -12    1    1    2    0    0 -0.52360173884E+01 -0.34616818170E+02  0.25649238589E+02  0.43400730622E+02  0.00000000000E+00 0.  1.
         11    1    3    3    0    0 -0.27626069346E+01  0.17760493955E+02 -0.18588490637E+02  0.25857283829E+02  0.51100000000E-03 0. -1.
        -11    1    3    3    0    0  0.76024011358E+00 -0.51544961406E+00 -0.23598131164E+01  0.25322660880E+01  0.51100000000E-03 0.  1.
         12    1    3    3    0    0  0.72383842094E+01  0.17371773829E+02 -0.47009348361E+01  0.19397719461E+02  0.00000000000E+00 0. -1.
</event>
<event>
 7    1  0.2700100E-010  0.4778727E+02  0.7816164E-02  0.1312668E+00
        -11   -1    0    0    0    0  0.00000000000E+00  0.00000000000E+00  0.45593999997E+02  0.45594000000E+02  0.51100000000E-03 0.  1.
         11   -1    0    0    0    0 -0.00000000000E+00 -0.00000000000E+00 -0.45593999997E+02  0.45594000000E+02  0.51100000000E-03 0. -1.
    9900012    2    1    2    0    0  0.47000962550E+01 -0.35551481868E+01 -0.42998758221E+02  0.47787271988E+02  0.20000004303E+02 0.  0.
        -12    1    1    2    0    0 -0.47000962550E+01  0.35551481868E+01  0.42998758221E+02  0.43400728012E+02  0.00000000000E+00 0.  1.
         11    1    3    3    0    0  0.10865066666E+01 -0.63561889620E+00 -0.16621845646E+02  0.16669440934E+02  0.51100000000E-03 0. -1.
        -11    1    3    3    0    0  0.80607579082E+01  0.77448443209E+00 -0.23087045624E+02  0.24466044226E+02  0.51100000000E-03 0.  1.
        -12    1    3    3    0    0 -0.44471683198E+01 -0.36940137227E+01 -0.32898669510E+01  0.66517868279E+01  0.00000000000E+00 0.  1.
</event>
<event>
 7    1  0.2700100E-010  0.4778726E+02  0.7816164E-02  0.1312668E+00
        -11   -1    0    0    0    0  0.00000000000E+00  0.00000000000E+00  0.45593999997E+02  0.45594000000E+02  0.51100000000E-03 0.  1.
         11   -1    0    0    0    0 -0.00000000000E+00 -0.00000000000E+00 -0.45593999997E+02  0.45594000000E+02  0.51100000000E-03 0. -1.
    9900012    2    1    2    0    0  0.12622878815E+02 -0.35600078107E+02 -0.21375717540E+02  0.47787263472E+02  0.19999965474E+02 0.  0.
        -12    1    1    2    0    0 -0.12622878815E+02  0.35600078107E+02  0.21375717540E+02  0.43400736528E+02  0.00000000000E+00 0.  1.
         11    1    3    3    0    0  0.45696333017E+01 -0.25266310666E+02 -0.79956426693E+01  0.26892346591E+02  0.51100000000E-03 0. -1.
        -11    1    3    3    0    0  0.21510171224E+01 -0.69514620632E+01 -0.11875938477E+02  0.13927943655E+02  0.51100000000E-03 0.  1.
        -12    1    3    3    0    0  0.59022283911E+01 -0.33823053776E+01 -0.15041363937E+01  0.69669732265E+01  0.00000000000E+00 0.  1.
</event>
<event>
 7    1  0.2700100E-010  0.4778727E+02  0.7816164E-02  0.1312668E+00
        -11   -1    0    0    0    0  0.00000000000E+00  0.00000000000E+00  0.45593999997E+02  0.45594000000E+02  0.51100000000E-03 0.  1.
         11   -1    0    0    0    0 -0.00000000000E+00 -0.00000000000E+00 -0.45593999997E+02  0.45594000000E+02  0.51100000000E-03 0. -1.
    9900012    2    1    2    0    0  0.24128583403E+02 -0.25592561687E+02 -0.25425486206E+02  0.47787273053E+02  0.20000009156E+02 0.  0.
        -12    1    1    2    0    0 -0.24128583403E+02  0.25592561687E+02  0.25425486206E+02  0.43400726947E+02  0.00000000000E+00 0.  1.
         11    1    3    3    0    0  0.13374987891E+02 -0.91989889769E+01 -0.91644174901E+01  0.18641304876E+02  0.51100000000E-03 0. -1.
        -11    1    3    3    0    0  0.63417922864E+00 -0.11901437455E+02 -0.12927940660E+02  0.17583459465E+02  0.51100000000E-03 0.  1.
        -12    1    3    3    0    0  0.10119416284E+02 -0.44921352553E+01 -0.33331280557E+01  0.11562508712E+02  0.00000000000E+00 0.  1.
</event>
<event>
 7    1  0.2700100E-010  0.4778727E+02  0.7816164E-02  0.1312668E+00
        -11   -1    0    0    0    0  0.00000000000E+00  0.00000000000E+00  0.45593999997E+02  0.45594000000E+02  0.51100000000E-03 0.  1.
         11   -1    0    0    0    0 -0.00000000000E+00 -0.00000000000E+00 -0.45593999997E+02  0.45594000000E+02  0.51100000000E-03 0. -1.
    9900012    2    1    2    0    0 -0.14577404568E+02 -0.23636030654E+01 -0.40810978460E+02  0.47787270671E+02  0.19999998298E+02 0.  0.
        -12    1    1    2    0    0  0.14577404568E+02  0.23636030654E+01  0.40810978460E+02  0.43400729329E+02  0.00000000000E+00 0.  1.
         11    1    3    3    0    0 -0.10378616842E+02  0.38703498355E+01 -0.13717547720E+02  0.17631404117E+02  0.51100000000E-03 0. -1.
        -11    1    3    3    0    0 -0.15744096865E+01 -0.25391403238E+01 -0.24975225573E+02  0.25153287899E+02  0.51100000000E-03 0.  1.
         12    1    3    3    0    0 -0.26243780395E+01 -0.36948125771E+01 -0.21182051668E+01  0.50025786553E+01  0.00000000000E+00 0. -1.
</event>
<event>
 7    1  0.2700100E-010  0.4778727E+02  0.7816164E-02  0.1312668E+00
        -11   -1    0    0    0    0  0.00000000000E+00  0.00000000000E+00  0.45593999997E+02  0.45594000000E+02  0.51100000000E-03 0.  1.
         11   -1    0    0    0    0 -0.00000000000E+00 -0.00000000000E+00 -0.45593999997E+02  0.45594000000E+02  0.51100000000E-03 0. -1.
    9900012    2    1    2    0    0  0.10430776452E+01 -0.35390525291E+02 -0.25100714347E+02  0.47787272447E+02  0.20000006396E+02 0.  0.
        -12    1    1    2    0    0 -0.10430776452E+01  0.35390525291E+02  0.25100714347E+02  0.43400727553E+02  0.00000000000E+00 0.  1.
         11    1    3    3    0    0  0.52879512597E+01 -0.59063992617E+01 -0.11981494400E+02  0.14366773788E+02  0.51100000000E-03 0. -1.
        -11    1    3    3    0    0 -0.19914139474E+00 -0.19976905957E+02 -0.59517730519E+01  0.20845623801E+02  0.51100000000E-03 0.  1.
         12    1    3    3    0    0 -0.40457322197E+01 -0.95072200722E+01 -0.71674468952E+01  0.12574874858E+02  0.00000000000E+00 0. -1.
</event>
<event>
 7    1  0.2700100E-010  0.4778727E+02  0.7816164E-02  0.1312668E+00
        -11   -1    0    0    0    0  0.00000000000E+00  0.00000000000E+00  0.45593999997E+02  0.45594000000E+02  0.51100000000E-03 0.  1.
         11   -1    0    0    0    0 -0.00000000000E+00 -0.00000000000E+00 -0.45593999997E+02  0.45594000000E+02  0.51100000000E-03 0. -1.
    9900012    2    1    2    0    0 -0.85962380128E+01  0.17881234299E+02 -0.38600385163E+02  0.47787267486E+02  0.19999983777E+02 0.  0.
        -12    1    1    2    0    0  0.85962380128E+01 -0.17881234299E+02  0.38600385163E+02  0.43400732514E+02  0.00000000000E+00 0.  1.
         11    1    3    3    0    0 -0.46171463846E+01  0.11023642181E+02 -0.24917224858E+02  0.27635246020E+02  0.51100000000E-03 0. -1.
        -11    1    3    3    0    0  0.19915635658E+01 -0.27593917262E+01 -0.23611597533E+01  0.41419372010E+01  0.51100000000E-03 0.  1.
        -12    1    3    3    0    0 -0.59706551939E+01  0.96169838448E+01 -0.11322000551E+02  0.16010084265E+02  0.00000000000E+00 0.  1.
</event>
<event>
 7    1  0.2700100E-010  0.4778727E+02  0.7816164E-02  0.1312668E+00
        -11   -1    0    0    0    0  0.00000000000E+00  0.00000000000E+00  0.45593999997E+02  0.45594000000E+02  0.51100000000E-03 0.  1.
         11   -1    0    0    0    0 -0.00000000000E+00 -0.00000000000E+00 -0.45593999997E+02  0.45594000000E+02  0.51100000000E-03 0. -1.
    9900012    2    1    2    0    0  0.16980029365E+02 -0.71782142726E+01 -0.39290903484E+02  0.47787271273E+02  0.20000001044E+02 0.  0.
        -12    1    1    2    0    0 -0.16980029365E+02  0.71782142726E+01  0.39290903484E+02  0.43400728727E+02  0.00000000000E+00 0.  1.
         11    1    3    3    0    0  0.72749023878E+01 -0.67270965145E+01 -0.22460830246E+02  0.24549275506E+02  0.51100000000E-03 0. -1.
        -11    1    3    3    0    0  0.11221308679E+01  0.48042514002E+01 -0.97682766227E+01  0.10943456385E+02  0.51100000000E-03 0.  1.
        -12    1    3    3    0    0  0.85829961092E+01 -0.52553691584E+01 -0.70617966162E+01  0.12294539383E+02  0.00000000000E+00 0.  1.
</event>
<event>
 7    1  0.2700100E-010  0.4778727E+02  0.7816164E-02  0.1312668E+00
        -11   -1    0    0    0    0  0.00000000000E+00  0.00000000000E+00  0.45593999997E+02  0.45594000000E+02  0.51100000000E-03 0.  1.
         11   -1    0    0    0    0 -0.00000000000E+00 -0.00000000000E+00 -0.45593999997E+02  0.45594000000E+02  0.51100000000E-03 0. -1.
    9900012    2    1    2    0    0 -0.42528563653E+02  0.83364710579E+01  0.23340748836E+01  0.47787269803E+02  0.19999994340E+02 0.  0.
        -12    1    1    2    0    0  0.42528563653E+02 -0.83364710579E+01 -0.23340748836E+01  0.43400730197E+02  0.00000000000E+00 0.  1.
         11    1    3    3    0    0 -0.11994700124E+02 -0.98459197516E+00 -0.71222747579E+01  0.13984600474E+02  0.51100000000E-03 0. -1.
        -11    1    3    3    0    0 -0.11200252665E+02  0.61136649577E+01  0.49978943757E+01  0.13704069010E+02  0.51100000000E-03 0.  1.
         12    1    3    3    0    0 -0.19333610863E+02  0.32073980753E+01  0.44584552657E+01  0.20098600319E+02  0.00000000000E+00 0. -1.
</event>
<event>
 7    1  0.2700100E-010  0.4778727E+02  0.7816164E-02  0.1312668E+00
        -11   -1    0    0    0    0  0.00000000000E+00  0.00000000000E+00  0.45593999997E+02  0.45594000000E+02  0.51100000000E-03 0.  1.
         11   -1    0    0    0    0 -0.00000000000E+00 -0.00000000000E+00 -0.45593999997E+02  0.45594000000E+02  0.51100000000E-03 0. -1.
    9900012    2    1    2    0    0  0.39803686778E+01  0.80861779339E+00 -0.43210256111E+02  0.47787269238E+02  0.19999991763E+02 0.  0.
        -12    1    1    2    0    0 -0.39803686778E+01 -0.80861779339E+00  0.43210256111E+02  0.43400730762E+02  0.00000000000E+00 0.  1.
         11    1    3    3    0    0 -0.41093640272E+01  0.24702333749E+01 -0.12991270427E+02  0.13847816911E+02  0.51100000000E-03 0. -1.
        -11    1    3    3    0    0  0.83334037585E+01 -0.30976589282E+01 -0.31025721644E+02  0.32274394074E+02  0.51100000000E-03 0.  1.
        -12    1    3    3    0    0 -0.24367105346E+00  0.14360433467E+01  0.80673596036E+00  0.16650582529E+01  0.00000000000E+00 0.  1.
</event>
<event>
 7    1  0.2700100E-010  0.4778727E+02  0.7816164E-02  0.1312668E+00
        -11   -1    0    0    0    0  0.00000000000E+00  0.00000000000E+00  0.45593999997E+02  0.45594000000E+02  0.51100000000E-03 0.  1.
         11   -1    0    0    0    0 -0.00000000000E+00 -0.00000000000E+00 -0.45593999997E+02  0.45594000000E+02  0.51100000000E-03 0. -1.
    9900012    2    1    2    0    0  0.26543120124E+02  0.14590238586E+02 -0.31083935676E+02  0.47787270225E+02  0.19999996262E+02 0.  0.
        -12    1    1    2    0    0 -0.26543120124E+02 -0.14590238586E+02  0.31083935676E+02  0.43400729775E+02  0.00000000000E+00 0.  1.
         11    1    3    3    0    0  0.99418244355E+01  0.27476241969E+00 -0.94801479625E+01  0.13740035413E+02  0.51100000000E-03 0. -1.
        -11    1    3    3    0    0  0.25149764467E+01  0.16830685865E+01 -0.12846212294E+02  0.13197840617E+02  0.51100000000E-03 0.  1.
        -12    1    3    3    0    0  0.14086319242E+02  0.12632407580E+02 -0.87575754194E+01  0.20849394195E+02  0.00000000000E+00 0.  1.
</event>
<event>
 7    1  0.2700100E-010  0.4778727E+02  0.7816164E-02  0.1312668E+00
        -11   -1    0    0    0    0  0.00000000000E+00  0.00000000000E+00  0.45593999997E+02  0.45594000000E+02  0.51100000000E-03 0. -1.
         11   -1    0    0    0    0 -0.00000000000E+00 -0.00000000000E+00 -0.45593999997E+02  0.45594000000E+02  0.51100000000E-03 0.  1.
    9900012    2    1    2    0    0  0.17889356089E+02  0.34860449975E+02  0.18663961986E+02  0.47787268316E+02  0.19999987558E+02 0.  0.
        -12    1    1    2    0    0 -0.17889356089E+02 -0.34860449975E+02 -0.18663961986E+02  0.43400731684E+02  0.00000000000E+00 0.  1.
         11    1    3    3    0    0  0.16090901717E+01  0.19162769545E+02  0.83810172822E+01  0.20977186626E+02  0.51100000000E-03 0. -1.
        -11    1    3    3    0    0  0.94867409184E+01  0.36783424988E+01  0.11123521947E+01  0.10235515837E+02  0.51100000000E-03 0.  1.
         12    1    3    3    0    0  0.67935249987E+01  0.12019337931E+02  0.91705925089E+01  0.16574565852E+02  0.00000000000E+00 0. -1.
</event>
<event>
 7    1  0.2700100E-010  0.4778727E+02  0.7816164E-02  0.1312668E+00
        -11   -1    0    0    0    0  0.00000000000E+00  0.00000000000E+00  0.45593999997E+02  0.45594000000E+02  0.51100000000E-03 0.  1.
         11   -1    0    0    0    0 -0.00000000000E+00 -0.00000000000E+00 -0.45593999997E+02  0.45594000000E+02  0.51100000000E-03 0. -1.
    9900012    2    1    2    0    0 -0.27285107917E+02 -0.33745435832E+02 -0.62588877704E+00  0.47787270855E+02  0.19999999137E+02 0.  0.
        -12    1    1    2    0    0  0.27285107917E+02  0.33745435832E+02  0.62588877704E+00  0.43400729145E+02  0.00000000000E+00 0.  1.
         11    1    3    3    0    0  0.17801678104E+01 -0.24107812011E+01  0.16658905910E+01  0.34287104216E+01  0.51100000000E-03 0.  1.
        -11    1    3    3    0    0 -0.29745720221E+02 -0.31020239871E+02 -0.32980059279E+01  0.43103828095E+02  0.51100000000E-03 0. -1.
         12    1    3    3    0    0  0.68044449383E+00 -0.31441476047E+00  0.10062265598E+01  0.12547323382E+01  0.00000000000E+00 0. -1.
</event>
<event>
 7    1  0.2700100E-010  0.4778726E+02  0.7816164E-02  0.1312668E+00
        -11   -1    0    0    0    0  0.00000000000E+00  0.00000000000E+00  0.45593999997E+02  0.45594000000E+02  0.51100000000E-03 0.  1.
         11   -1    0    0    0    0 -0.00000000000E+00 -0.00000000000E+00 -0.45593999997E+02  0.45594000000E+02  0.51100000000E-03 0. -1.
    9900012    2    1    2    0    0  0.11438790149E+02 -0.36590934356E+02 -0.20344084069E+02  0.47787260908E+02  0.19999953785E+02 0.  0.
        -12    1    1    2    0    0 -0.11438790149E+02  0.36590934356E+02  0.20344084069E+02  0.43400739092E+02  0.00000000000E+00 0.  1.
         11    1    3    3    0    0  0.98136292793E+01 -0.27033190612E+02 -0.11204211785E+02  0.30864786995E+02  0.51100000000E-03 0. -1.
        -11    1    3    3    0    0  0.12124583041E+01 -0.19440834513E+01 -0.90097663122E+01  0.92965264947E+01  0.51100000000E-03 0.  1.
         12    1    3    3    0    0  0.41270256570E+00 -0.76136602928E+01 -0.13010597122E+00  0.76259474182E+01  0.00000000000E+00 0. -1.
</event>
<event>
 7    1  0.2700100E-010  0.4778728E+02  0.7816164E-02  0.1312668E+00
        -11   -1    0    0    0    0  0.00000000000E+00  0.00000000000E+00  0.45593999997E+02  0.45594000000E+02  0.51100000000E-03 0.  1.
         11   -1    0    0    0    0 -0.00000000000E+00 -0.00000000000E+00 -0.45593999997E+02  0.45594000000E+02  0.51100000000E-03 0. -1.
    9900012    2    1    2    0    0  0.33753573570E+02  0.13155068154E+01 -0.27250476854E+02  0.47787276784E+02  0.20000026168E+02 0.  0.
        -12    1    1    2    0    0 -0.33753573570E+02 -0.13155068154E+01  0.27250476854E+02  0.43400723216E+02  0.00000000000E+00 0.  1.
         11    1    3    3    0    0  0.15660471374E+02  0.78481761353E+01 -0.13698434369E+02  0.22237161166E+02  0.51100000000E-03 0. -1.
        -11    1    3    3    0    0 -0.74386471801E-01  0.14233663302E+01 -0.24141273635E+01  0.28034828777E+01  0.51100000000E-03 0.  1.
         12    1    3    3    0    0  0.18167488667E+02 -0.79560356501E+01 -0.11137915122E+02  0.22746632740E+02  0.00000000000E+00 0. -1.
</event>
<event>
 7    1  0.2700100E-010  0.4778727E+02  0.7816164E-02  0.1312668E+00
        -11   -1    0    0    0    0  0.00000000000E+00  0.00000000000E+00  0.45593999997E+02  0.45594000000E+02  0.51100000000E-03 0. -1.
         11   -1    0    0    0    0 -0.00000000000E+00 -0.00000000000E+00 -0.45593999997E+02  0.45594000000E+02  0.51100000000E-03 0.  1.
    9900012    2    1    2    0    0  0.17725943150E+02  0.30303532083E+02  0.25516858174E+02  0.47787272260E+02  0.20000005542E+02 0.  0.
        -12    1    1    2    0    0 -0.17725943150E+02 -0.30303532083E+02 -0.25516858174E+02  0.43400727740E+02  0.00000000000E+00 0.  1.
         11    1    3    3    0    0  0.52080541222E+01  0.66152816782E+01  0.14869489260E+02  0.17087641456E+02  0.51100000000E-03 0. -1.
        -11    1    3    3    0    0 -0.17699711251E+01  0.11887883223E+01  0.99529032607E+00  0.23530020300E+01  0.51100000000E-03 0.  1.
         12    1    3    3    0    0  0.14287860153E+02  0.22499462083E+02  0.96520785883E+01  0.28346628774E+02  0.00000000000E+00 0. -1.
</event>
<event>
 7    1  0.2700100E-010  0.4778727E+02  0.7816164E-02  0.1312668E+00
        -11   -1    0    0    0    0  0.00000000000E+00  0.00000000000E+00  0.45593999997E+02  0.45594000000E+02  0.51100000000E-03 0.  1.
         11   -1    0    0    0    0 -0.00000000000E+00 -0.00000000000E+00 -0.45593999997E+02  0.45594000000E+02  0.51100000000E-03 0. -1.
    9900012    2    1    2    0    0 -0.34831702335E+02  0.25448034402E+02 -0.47721204744E+01  0.47787273321E+02  0.20000010378E+02 0.  0.
        -12    1    1    2    0    0  0.34831702335E+02 -0.25448034402E+02  0.47721204744E+01  0.43400726679E+02  0.00000000000E+00 0.  1.
         11    1    3    3    0    0 -0.54272510105E+01 -0.96001855746E+00  0.28963369490E+01  0.62261912229E+01  0.51100000000E-03 0. -1.
        -11    1    3    3    0    0 -0.35640831737E+01  0.87849400563E+01 -0.29543675159E+01  0.99300628569E+01  0.51100000000E-03 0.  1.
         12    1    3    3    0    0 -0.25840368150E+02  0.17623112904E+02 -0.47140899076E+01  0.31631019241E+02  0.00000000000E+00 0. -1.
</event>
<event>
 7    1  0.2700100E-010  0.4778727E+02  0.7816164E-02  0.1312668E+00
        -11   -1    0    0    0    0  0.00000000000E+00  0.00000000000E+00  0.45593999997E+02  0.45594000000E+02  0.51100000000E-03 0.  1.
         11   -1    0    0    0    0 -0.00000000000E+00 -0.00000000000E+00 -0.45593999997E+02  0.45594000000E+02  0.51100000000E-03 0. -1.
    9900012    2    1    2    0    0 -0.16091796266E+02 -0.40307190719E+02 -0.87997290492E-01  0.47787271041E+02  0.19999999982E+02 0.  0.
        -12    1    1    2    0    0  0.16091796266E+02  0.40307190719E+02  0.87997290492E-01  0.43400728959E+02  0.00000000000E+00 0.  1.
         11    1    3    3    0    0 -0.12714286298E+02 -0.33047750176E+02 -0.82093058273E+01  0.36348309042E+02  0.51100000000E-03 0. -1.
        -11    1    3    3    0    0 -0.14831471620E+01 -0.42286292117E+01  0.45726253544E+01  0.64023381203E+01  0.51100000000E-03 0.  1.
         12    1    3    3    0    0 -0.18943628058E+01 -0.30308113305E+01  0.35486831825E+01  0.50366238782E+01  0.00000000000E+00 0. -1.
</event>
<event>
 7    1  0.2700100E-010  0.4778727E+02  0.7816164E-02  0.1312668E+00
        -11   -1    0    0    0    0  0.00000000000E+00  0.00000000000E+00  0.45593999997E+02  0.45594000000E+02  0.51100000000E-03 0.  1.
         11   -1    0    0    0    0 -0.00000000000E+00 -0.00000000000E+00 -0.45593999997E+02  0.45594000000E+02  0.51100000000E-03 0. -1.
    9900012    2    1    2    0    0 -0.23145935571E+02  0.16853921071E+02 -0.32616473072E+02  0.47787270690E+02  0.19999998384E+02 0.  0.
        -12    1    1    2    0    0  0.23145935571E+02 -0.16853921071E+02  0.32616473072E+02  0.43400729310E+02  0.00000000000E+00 0.  1.
         11    1    3    3    0    0 -0.14325275068E+02  0.14109486948E+02 -0.16616412082E+02  0.26084406807E+02  0.51100000000E-03 0. -1.
        -11    1    3    3    0    0  0.10848845884E+01 -0.95780516541E+00  0.94531288740E+00  0.17285780345E+01  0.51100000000E-03 0.  1.
        -12    1    3    3    0    0 -0.99055450920E+01  0.37022392888E+01 -0.16945373877E+02  0.19974285849E+02  0.00000000000E+00 0.  1.
</event>
<event>
 7    1  0.2700100E-010  0.4778727E+02  0.7816164E-02  0.1312668E+00
        -11   -1    0    0    0    0  0.00000000000E+00  0.00000000000E+00  0.45593999997E+02  0.45594000000E+02  0.51100000000E-03 0.  1.
         11   -1    0    0    0    0 -0.00000000000E+00 -0.00000000000E+00 -0.45593999997E+02  0.45594000000E+02  0.51100000000E-03 0. -1.
    9900012    2    1    2    0    0  0.70067882902E+01 -0.14674948603E+02 -0.40238959183E+02  0.47787273799E+02  0.20000012559E+02 0.  0.
        -12    1    1    2    0    0 -0.70067882902E+01  0.14674948603E+02  0.40238959183E+02  0.43400726201E+02  0.00000000000E+00 0.  1.
         11    1    3    3    0    0 -0.35875188693E+00  0.25402684620E+00 -0.81802737212E+01  0.81920761086E+01  0.51100000000E-03 0. -1.
        -11    1    3    3    0    0  0.11781328236E+02 -0.67471595767E+01 -0.22367138609E+02  0.26165105526E+02  0.51100000000E-03 0.  1.
        -12    1    3    3    0    0 -0.44157880584E+01 -0.81818158725E+01 -0.96915468525E+01  0.13430092164E+02  0.00000000000E+00 0.  1.
</event>
<event>
 7    1  0.2700100E-010  0.4778727E+02  0.7816164E-02  0.1312668E+00
        -11   -1    0    0    0    0  0.00000000000E+00  0.00000000000E+00  0.45593999997E+02  0.45594000000E+02  0.51100000000E-03 0.  1.
         11   -1    0    0    0    0 -0.00000000000E+00 -0.00000000000E+00 -0.45593999997E+02  0.45594000000E+02  0.51100000000E-03 0. -1.
    9900012    2    1    2    0    0 -0.15558325068E+02 -0.29378537055E+02 -0.27900956135E+02  0.47787271070E+02  0.20000000116E+02 0.  0.
        -12    1    1    2    0    0  0.15558325068E+02  0.29378537055E+02  0.27900956135E+02  0.43400728930E+02  0.00000000000E+00 0.  1.
         11    1    3    3    0    0 -0.16689608337E+01 -0.14279499157E+02 -0.20916484392E+02  0.25380875597E+02  0.51100000000E-03 0. -1.
        -11    1    3    3    0    0 -0.47524307580E+01 -0.59580991880E+01  0.19099624201E+00  0.76237145715E+01  0.51100000000E-03 0.  1.
        -12    1    3    3    0    0 -0.91369334759E+01 -0.91409387096E+01 -0.71754679850E+01  0.14782680902E+02  0.00000000000E+00 0.  1.
</event>
<event>
 7    1  0.2700100E-010  0.4778728E+02  0.7816164E-02  0.1312668E+00
        -11   -1    0    0    0    0  0.00000000000E+00  0.00000000000E+00  0.45593999997E+02  0.45594000000E+02  0.51100000000E-03 0.  1.
         11   -1    0    0    0    0 -0.00000000000E+00 -0.00000000000E+00 -0.45593999997E+02  0.45594000000E+02  0.51100000000E-03 0. -1.
    9900012    2    1    2    0    0  0.35044713729E+02  0.53535280440E+01 -0.25036585892E+02  0.47787275859E+02  0.20000021950E+02 0.  0.
        -12    1    1    2    0    0 -0.35044713729E+02 -0.53535280440E+01  0.25036585892E+02  0.43400724141E+02  0.00000000000E+00 0.  1.
         11    1    3    3    0    0  0.12696498324E+02  0.59722426617E+01 -0.15186910788E+02  0.20676339416E+02  0.51100000000E-03 0. -1.
        -11    1    3    3    0    0  0.10772850688E+02  0.55642927167E+01 -0.43456149771E+01  0.12880218755E+02  0.51100000000E-03 0.  1.
         12    1    3    3    0    0  0.11575364718E+02 -0.61830073344E+01 -0.55040601270E+01  0.14230717689E+02  0.00000000000E+00 0. -1.
</event>
<event>
 7    1  0.2700100E-010  0.4778726E+02  0.7816164E-02  0.1312668E+00
        -11   -1    0    0    0    0  0.00000000000E+00  0.00000000000E+00  0.45593999997E+02  0.45594000000E+02  0.51100000000E-03 0.  1.
         11   -1    0    0    0    0 -0.00000000000E+00 -0.00000000000E+00 -0.45593999997E+02  0.45594000000E+02  0.51100000000E-03 0. -1.
    9900012    2    1    2    0    0  0.43297158375E+02 -0.23211896678E+01  0.18953897342E+01  0.47787258681E+02  0.19999943629E+02 0.  0.
        -12    1    1    2    0    0 -0.43297158375E+02  0.23211896678E+01 -0.18953897342E+01  0.43400741319E+02  0.00000000000E+00 0.  1.
         11    1    3    3    0    0  0.11504202134E+01  0.14351716085E+01 -0.38096620040E+01  0.42304502195E+01  0.51100000000E-03 0. -1.
        -11    1    3    3    0    0  0.21273212472E+02  0.22814323279E+01  0.17104165516E+01  0.21463457955E+02  0.51100000000E-03 0.  1.
         12    1    3    3    0    0  0.20873525690E+02 -0.60377936042E+01  0.39946351866E+01  0.22093350507E+02  0.00000000000E+00 0. -1.
</event>
<event>
 7    1  0.2700100E-010  0.4778727E+02  0.7816164E-02  0.1312668E+00
        -11   -1    0    0    0    0  0.00000000000E+00  0.00000000000E+00  0.45593999997E+02  0.45594000000E+02  0.51100000000E-03 0.  1.
         11   -1    0    0    0    0 -0.00000000000E+00 -0.00000000000E+00 -0.45593999997E+02  0.45594000000E+02  0.51100000000E-03 0. -1.
    9900012    2    1    2    0    0 -0.19906334257E+02 -0.38537163121E+02  0.14995222587E+01  0.47787266689E+02  0.19999980141E+02 0.  0.
        -12    1    1    2    0    0  0.19906334257E+02  0.38537163121E+02 -0.14995222587E+01  0.43400733311E+02  0.00000000000E+00 0.  1.
         11    1    3    3    0    0 -0.15680605283E+02 -0.36252473056E+02  0.79661234503E+00  0.39506427024E+02  0.51100000000E-03 0. -1.
        -11    1    3    3    0    0 -0.98664209781E+00 -0.41869431386E+01  0.12624107130E+01  0.44830387623E+01  0.51100000000E-03 0.  1.
         12    1    3    3    0    0 -0.32390868760E+01  0.19022530740E+01 -0.55950079939E+00  0.37978009022E+01  0.00000000000E+00 0. -1.
</event>
<event>
 7    1  0.2700100E-010  0.4778727E+02  0.7816164E-02  0.1312668E+00
        -11   -1    0    0    0    0  0.00000000000E+00  0.00000000000E+00  0.45593999997E+02  0.45594000000E+02  0.51100000000E-03 0. -1.
         11   -1    0    0    0    0 -0.00000000000E+00 -0.00000000000E+00 -0.45593999997E+02  0.45594000000E+02  0.51100000000E-03 0.  1.
    9900012    2    1    2    0    0  0.16618506614E+02 -0.30186452449E+02  0.26386105878E+02  0.47787271240E+02  0.20000000890E+02 0.  0.
        -12    1    1    2    0    0 -0.16618506614E+02  0.30186452449E+02 -0.26386105878E+02  0.43400728760E+02  0.00000000000E+00 0.  1.
         11    1    3    3    0    0  0.10446925586E+02 -0.38931266211E+01  0.13492161925E+02  0.17502374775E+02  0.51100000000E-03 0. -1.
        -11    1    3    3    0    0  0.66941770853E+01 -0.23118329262E+02  0.12239184860E+02  0.27001237028E+02  0.51100000000E-03 0.  1.
         12    1    3    3    0    0 -0.52259605732E+00 -0.31749965654E+01  0.65475909311E+00  0.32836594372E+01  0.00000000000E+00 0. -1.
</event>
<event>
 7    1  0.2700100E-010  0.4778727E+02  0.7816164E-02  0.1312668E+00
        -11   -1    0    0    0    0  0.00000000000E+00  0.00000000000E+00  0.45593999997E+02  0.45594000000E+02  0.51100000000E-03 0.  1.
         11   -1    0    0    0    0 -0.00000000000E+00 -0.00000000000E+00 -0.45593999997E+02  0.45594000000E+02  0.51100000000E-03 0. -1.
    9900012    2    1    2    0    0 -0.19120164906E+02  0.34561395843E+02 -0.17987568511E+02  0.47787269481E+02  0.19999992871E+02 0.  0.
        -12    1    1    2    0    0  0.19120164906E+02 -0.34561395843E+02  0.17987568511E+02  0.43400730519E+02  0.00000000000E+00 0.  1.
         11    1    3    3    0    0 -0.11196363554E+02  0.31085754713E+02 -0.14230712986E+02  0.35974934263E+02  0.51100000000E-03 0. -1.
        -11    1    3    3    0    0 -0.89035406575E+01  0.22775899051E+01 -0.18815331986E+01  0.93808645366E+01  0.51100000000E-03 0.  1.
         12    1    3    3    0    0  0.97973930507E+00  0.11980512247E+01 -0.18753223268E+01  0.24314706809E+01  0.00000000000E+00 0. -1.
</event>
<event>
 7    1  0.2700100E-010  0.4778728E+02  0.7816164E-02  0.1312668E+00
        -11   -1    0    0    0    0  0.00000000000E+00  0.00000000000E+00  0.45593999997E+02  0.45594000000E+02  0.51100000000E-03 0.  1.
         11   -1    0    0    0    0 -0.00000000000E+00 -0.00000000000E+00 -0.45593999997E+02  0.45594000000E+02  0.51100000000E-03 0. -1.
    9900012    2    1    2    0    0  0.34398670637E+02  0.19259353071E+02  0.18150249467E+02  0.47787276757E+02  0.20000026046E+02 0.  0.
        -12    1    1    2    0    0 -0.34398670637E+02 -0.19259353071E+02 -0.18150249467E+02  0.43400723243E+02  0.00000000000E+00 0.  1.
         11    1    3    3    0    0  0.16224954350E+02  0.14731258218E+02  0.15024268093E+02  0.26570429886E+02  0.51100000000E-03 0. -1.
        -11    1    3    3    0    0  0.54019462704E+01  0.22841606707E+01  0.54924798866E+01  0.80352815162E+01  0.51100000000E-03 0.  1.
         12    1    3    3    0    0  0.12771770017E+02  0.22439341821E+01 -0.23664985135E+01  0.13181565355E+02  0.00000000000E+00 0. -1.
</event>
<event>
 7    1  0.2700100E-010  0.4778727E+02  0.7816164E-02  0.1312668E+00
        -11   -1    0    0    0    0  0.00000000000E+00  0.00000000000E+00  0.45593999997E+02  0.45594000000E+02  0.51100000000E-03 0.  1.
         11   -1    0    0    0    0 -0.00000000000E+00 -0.00000000000E+00 -0.45593999997E+02  0.45594000000E+02  0.51100000000E-03 0. -1.
    9900012    2    1    2    0    0  0.23216860028E+02  0.30817273404E+02 -0.19871996509E+02  0.47787272185E+02  0.20000005201E+02 0.  0.
        -12    1    1    2    0    0 -0.23216860028E+02 -0.30817273404E+02  0.19871996509E+02  0.43400727815E+02  0.00000000000E+00 0.  1.
         11    1    3    3    0    0  0.10514655158E+02  0.65383830355E+01 -0.12261351190E+02  0.17425531816E+02  0.51100000000E-03 0. -1.
        -11    1    3    3    0    0  0.69129553694E+01  0.21127030507E+02 -0.32680443673E+01  0.22468210525E+02  0.51100000000E-03 0.  1.
         12    1    3    3    0    0  0.57892495003E+01  0.31518598616E+01 -0.43426009520E+01  0.78935298437E+01  0.00000000000E+00 0. -1.
</event>
<event>
 7    1  0.2700100E-010  0.4778728E+02  0.7816164E-02  0.1312668E+00
        -11   -1    0    0    0    0  0.00000000000E+00  0.00000000000E+00  0.45593999997E+02  0.45594000000E+02  0.51100000000E-03 0.  1.
         11   -1    0    0    0    0 -0.00000000000E+00 -0.00000000000E+00 -0.45593999997E+02  0.45594000000E+02  0.51100000000E-03 0. -1.
    9900012    2    1    2    0    0  0.40601241587E+02  0.26283973200E+01 -0.15108044954E+02  0.47787282111E+02  0.20000050459E+02 0.  0.
        -12    1    1    2    0    0 -0.40601241587E+02 -0.26283973200E+01  0.15108044954E+02  0.43400717889E+02  0.00000000000E+00 0.  1.
         11    1    3    3    0    0  0.13009089751E+02  0.62146758623E+01 -0.22611101050E+01  0.14593533890E+02  0.51100000000E-03 0. -1.
        -11    1    3    3    0    0  0.22243543704E+02 -0.41778376520E+01 -0.15259779300E+02  0.27296344600E+02  0.51100000000E-03 0.  1.
        -12    1    3    3    0    0  0.53486081323E+01  0.59155910971E+00  0.24128444513E+01  0.58974036219E+01  0.00000000000E+00 0.  1.
</event>
<event>
 7    1  0.2700100E-010  0.4778727E+02  0.7816164E-02  0.1312668E+00
        -11   -1    0    0    0    0  0.00000000000E+00  0.00000000000E+00  0.45593999997E+02  0.45594000000E+02  0.51100000000E-03 0.  1.
         11   -1    0    0    0    0 -0.00000000000E+00 -0.00000000000E+00 -0.45593999997E+02  0.45594000000E+02  0.51100000000E-03 0. -1.
    9900012    2    1    2    0    0  0.23399629179E+02 -0.38073252609E+01 -0.36353609332E+02  0.47787270942E+02  0.19999999531E+02 0.  0.
        -12    1    1    2    0    0 -0.23399629179E+02  0.38073252609E+01  0.36353609332E+02  0.43400729058E+02  0.00000000000E+00 0.  1.
         11    1    3    3    0    0  0.17526748470E+02 -0.34029210063E+01 -0.14051284657E+02  0.22720153699E+02  0.51100000000E-03 0. -1.
        -11    1    3    3    0    0  0.60393868613E+00 -0.15786859731E+01 -0.18222202922E+02  0.18300428163E+02  0.51100000000E-03 0.  1.
        -12    1    3    3    0    0  0.52689420227E+01  0.11742817185E+01 -0.40801217524E+01  0.67666890802E+01  0.00000000000E+00 0.  1.
</event>
<event>
 7    1  0.2700100E-010  0.4778727E+02  0.7816164E-02  0.1312668E+00
        -11   -1    0    0    0    0  0.00000000000E+00  0.00000000000E+00  0.45593999997E+02  0.45594000000E+02  0.51100000000E-03 0.  1.
         11   -1    0    0    0    0 -0.00000000000E+00 -0.00000000000E+00 -0.45593999997E+02  0.45594000000E+02  0.51100000000E-03 0. -1.
    9900012    2    1    2    0    0  0.31984463326E+02  0.29261275668E+02 -0.20964303862E+01  0.47787272260E+02  0.20000005543E+02 0.  0.
        -12    1    1    2    0    0 -0.31984463326E+02 -0.29261275668E+02  0.20964303862E+01  0.43400727740E+02  0.00000000000E+00 0.  1.
         11    1    3    3    0    0  0.10599315081E+02  0.12121876539E+02 -0.54856624116E+01  0.17011109999E+02  0.51100000000E-03 0. -1.
        -11    1    3    3    0    0  0.43649791441E+01 -0.21479159321E+01  0.62400586078E+00  0.49046885075E+01  0.51100000000E-03 0.  1.
        -12    1    3    3    0    0  0.17020169101E+02  0.19287315061E+02  0.27652261646E+01  0.25871473754E+02  0.00000000000E+00 0.  1.
</event>
<event>
 7    1  0.2700100E-010  0.4778727E+02  0.7816164E-02  0.1312668E+00
        -11   -1    0    0    0    0  0.00000000000E+00  0.00000000000E+00  0.45593999997E+02  0.45594000000E+02  0.51100000000E-03 0. -1.
         11   -1    0    0    0    0 -0.00000000000E+00 -0.00000000000E+00 -0.45593999997E+02  0.45594000000E+02  0.51100000000E-03 0.  1.
    9900012    2    1    2    0    0  0.68725267781E+01 -0.24534195385E+02  0.35134953092E+02  0.47787270786E+02  0.19999998823E+02 0.  0.
        -12    1    1    2    0    0 -0.68725267781E+01  0.24534195385E+02 -0.35134953092E+02  0.43400729214E+02  0.00000000000E+00 0.  1.
         11    1    3    3    0    0 -0.34515559667E+01 -0.83339942048E+01  0.53086945482E+01  0.10466658305E+02  0.51100000000E-03 0. -1.
        -11    1    3    3    0    0  0.12918567987E+02 -0.13443287936E+02  0.24580108428E+02  0.30851144549E+02  0.51100000000E-03 0.  1.
         12    1    3    3    0    0 -0.25944852418E+01 -0.27569132448E+01  0.52461501151E+01  0.64694679332E+01  0.00000000000E+00 0. -1.
</event>
<event>
 7    1  0.2700100E-010  0.4778727E+02  0.7816164E-02  0.1312668E+00
        -11   -1    0    0    0    0  0.00000000000E+00  0.00000000000E+00  0.45593999997E+02  0.45594000000E+02  0.51100000000E-03 0.  1.
         11   -1    0    0    0    0 -0.00000000000E+00 -0.00000000000E+00 -0.45593999997E+02  0.45594000000E+02  0.51100000000E-03 0. -1.
    9900012    2    1    2    0    0 -0.46863202041E+01  0.29622769577E+02 -0.31371214547E+02  0.47787272165E+02  0.20000005107E+02 0.  0.
        -12    1    1    2    0    0  0.46863202041E+01 -0.29622769577E+02  0.31371214547E+02  0.43400727835E+02  0.00000000000E+00 0.  1.
         11    1    3    3    0    0 -0.12064046255E+00 -0.54079106337E+00 -0.91738755651E+01  0.91905931387E+01  0.51100000000E-03 0. -1.
        -11    1    3    3    0    0 -0.32776517458E+01  0.17703089403E+02 -0.81129077677E+01  0.19747446622E+02  0.51100000000E-03 0.  1.
         12    1    3    3    0    0 -0.12880279958E+01  0.12460471237E+02 -0.14084431215E+02  0.18849232404E+02  0.00000000000E+00 0. -1.
</event>
<event>
 7    1  0.2700100E-010  0.4778727E+02  0.7816164E-02  0.1312668E+00
        -11   -1    0    0    0    0  0.00000000000E+00  0.00000000000E+00  0.45593999997E+02  0.45594000000E+02  0.51100000000E-03 0. -1.
         11   -1    0    0    0    0 -0.00000000000E+00 -0.00000000000E+00 -0.45593999997E+02  0.45594000000E+02  0.51100000000E-03 0.  1.
    9900012    2    1    2    0    0 -0.21615151953E+02  0.28293988937E+02  0.24816506061E+02  0.47787267552E+02  0.19999984078E+02 0.  0.
        -12    1    1    2    0    0  0.21615151953E+02 -0.28293988937E+02 -0.24816506061E+02  0.43400732448E+02  0.00000000000E+00 0.  1.
         11    1    3    3    0    0  0.79536604971E+00  0.54512999989E+01  0.32505357733E+01  0.63965038814E+01  0.51100000000E-03 0.  1.
        -11    1    3    3    0    0 -0.18079329266E+02  0.24703219310E+02  0.18524619036E+02  0.35780898559E+02  0.51100000000E-03 0. -1.
        -12    1    3    3    0    0 -0.43311887368E+01 -0.18605303719E+01  0.30413512518E+01  0.56098651120E+01  0.00000000000E+00 0.  1.
</event>
<event>
 7    1  0.2700100E-010  0.4778722E+02  0.7816164E-02  0.1312668E+00
        -11   -1    0    0    0    0  0.00000000000E+00  0.00000000000E+00  0.45593999997E+02  0.45594000000E+02  0.51100000000E-03 0.  1.
         11   -1    0    0    0    0 -0.00000000000E+00 -0.00000000000E+00 -0.45593999997E+02  0.45594000000E+02  0.51100000000E-03 0. -1.
    9900012    2    1    2    0    0  0.85651739979E+01 -0.41100217592E+02 -0.11001701774E+02  0.47787221969E+02  0.19999776245E+02 0.  0.
        -12    1    1    2    0    0 -0.85651739979E+01  0.41100217592E+02  0.11001701774E+02  0.43400778031E+02  0.00000000000E+00 0.  1.
         11    1    3    3    0    0  0.60151222548E+01 -0.23893623423E+02 -0.26110477279E+01  0.24777096410E+02  0.51100000000E-03 0. -1.
        -11    1    3    3    0    0 -0.12306720973E+00  0.20105096379E+01 -0.99069443751E+00  0.22447205332E+01  0.51100000000E-03 0.  1.
        -12    1    3    3    0    0  0.26731189528E+01 -0.19217103807E+02 -0.73999596089E+01  0.20765405026E+02  0.00000000000E+00 0.  1.
</event>
<event>
 7    1  0.2700100E-010  0.4778726E+02  0.7816164E-02  0.1312668E+00
        -11   -1    0    0    0    0  0.00000000000E+00  0.00000000000E+00  0.45593999997E+02  0.45594000000E+02  0.51100000000E-03 0.  1.
         11   -1    0    0    0    0 -0.00000000000E+00 -0.00000000000E+00 -0.45593999997E+02  0.45594000000E+02  0.51100000000E-03 0. -1.
    9900012    2    1    2    0    0 -0.38948621377E+02 -0.56398255191E+01 -0.18298126812E+02  0.47787260561E+02  0.19999952200E+02 0.  0.
        -12    1    1    2    0    0  0.38948621377E+02  0.56398255191E+01  0.18298126812E+02  0.43400739439E+02  0.00000000000E+00 0.  1.
         11    1    3    3    0    0 -0.34314376522E+02 -0.11248520185E+02 -0.14449550721E+02  0.38894667485E+02  0.51100000000E-03 0. -1.
        -11    1    3    3    0    0 -0.73145946209E+00  0.22069224172E+01 -0.27481414925E+01  0.35996974073E+01  0.51100000000E-03 0.  1.
         12    1    3    3    0    0 -0.39027853925E+01  0.34017722486E+01 -0.11004345989E+01  0.52928956685E+01  0.00000000000E+00 0. -1.
</event>
<event>
 7    1  0.2700100E-010  0.4778727E+02  0.7816164E-02  0.1312668E+00
        -11   -1    0    0    0    0  0.00000000000E+00  0.00000000000E+00  0.45593999997E+02  0.45594000000E+02  0.51100000000E-03 0. -1.
         11   -1    0    0    0    0 -0.00000000000E+00 -0.00000000000E+00 -0.45593999997E+02  0.45594000000E+02  0.51100000000E-03 0.  1.
    9900012    2    1    2    0    0  0.55926111551E+00  0.39357488949E+02  0.18283833757E+02  0.47787270903E+02  0.19999999354E+02 0.  0.
        -12    1    1    2    0    0 -0.55926111551E+00 -0.39357488949E+02 -0.18283833757E+02  0.43400729097E+02  0.00000000000E+00 0.  1.
         11    1    3    3    0    0 -0.72667958676E+01  0.25254650530E+02  0.64740979296E+01  0.27065063086E+02  0.51100000000E-03 0. -1.
        -11    1    3    3    0    0  0.57496657645E+01  0.70211825620E+01  0.91245903373E+01  0.12869102924E+02  0.51100000000E-03 0.  1.
         12    1    3    3    0    0  0.20763912186E+01  0.70816558566E+01  0.26851454897E+01  0.78531048933E+01  0.00000000000E+00 0. -1.
</event>
<event>
 7    1  0.2700100E-010  0.4778727E+02  0.7816164E-02  0.1312668E+00
        -11   -1    0    0    0    0  0.00000000000E+00  0.00000000000E+00  0.45593999997E+02  0.45594000000E+02  0.51100000000E-03 0. -1.
         11   -1    0    0    0    0 -0.00000000000E+00 -0.00000000000E+00 -0.45593999997E+02  0.45594000000E+02  0.51100000000E-03 0.  1.
    9900012    2    1    2    0    0  0.33219756979E+02 -0.24821832940E+02  0.12804202921E+02  0.47787271242E+02  0.20000000902E+02 0.  0.
        -12    1    1    2    0    0 -0.33219756979E+02  0.24821832940E+02 -0.12804202921E+02  0.43400728758E+02  0.00000000000E+00 0.  1.
         11    1    3    3    0    0  0.19061957877E+02 -0.26685498072E+01  0.24516506012E+01  0.19403349894E+02  0.51100000000E-03 0. -1.
        -11    1    3    3    0    0  0.53495020804E+01 -0.96148232720E+01  0.55661457318E+01  0.12330611405E+02  0.51100000000E-03 0.  1.
         12    1    3    3    0    0  0.88082970222E+01 -0.12538459861E+02  0.47864065884E+01  0.16053309943E+02  0.00000000000E+00 0. -1.
</event>
<event>
 7    1  0.2700100E-010  0.4778727E+02  0.7816164E-02  0.1312668E+00
        -11   -1    0    0    0    0  0.00000000000E+00  0.00000000000E+00  0.45593999997E+02  0.45594000000E+02  0.51100000000E-03 0.  1.
         11   -1    0    0    0    0 -0.00000000000E+00 -0.00000000000E+00 -0.45593999997E+02  0.45594000000E+02  0.51100000000E-03 0. -1.
    9900012    2    1    2    0    0  0.21006934549E+02 -0.19718836861E+02 -0.32457654752E+02  0.47787272146E+02  0.20000005020E+02 0.  0.
        -12    1    1    2    0    0 -0.21006934549E+02  0.19718836861E+02  0.32457654752E+02  0.43400727854E+02  0.00000000000E+00 0.  1.
         11    1    3    3    0    0  0.18477575447E+02 -0.13263658989E+02 -0.21637288948E+02  0.31392956495E+02  0.51100000000E-03 0. -1.
        -11    1    3    3    0    0 -0.32122078325E+01 -0.56356406393E+01 -0.51421729294E+01  0.82777211400E+01  0.51100000000E-03 0.  1.
        -12    1    3    3    0    0  0.57415669342E+01 -0.81953723273E+00 -0.56781928745E+01  0.81165945110E+01  0.00000000000E+00 0.  1.
</event>
<event>
 7    1  0.2700100E-010  0.4778727E+02  0.7816164E-02  0.1312668E+00
        -11   -1    0    0    0    0  0.00000000000E+00  0.00000000000E+00  0.45593999997E+02  0.45594000000E+02  0.51100000000E-03 0. -1.
         11   -1    0    0    0    0 -0.00000000000E+00 -0.00000000000E+00 -0.45593999997E+02  0.45594000000E+02  0.51100000000E-03 0.  1.
    9900012    2    1    2    0    0 -0.38474920435E+02 -0.12650240088E+02  0.15597275929E+02  0.47787273126E+02  0.20000009491E+02 0.  0.
        -12    1    1    2    0    0  0.38474920435E+02  0.12650240088E+02 -0.15597275929E+02  0.43400726874E+02  0.00000000000E+00 0.  1.
         11    1    3    3    0    0 -0.94783499085E+01  0.22701156193E+01  0.73123667184E+01  0.12184549610E+02  0.51100000000E-03 0. -1.
        -11    1    3    3    0    0 -0.24926205346E+02 -0.88411565964E+01  0.30850726462E+01  0.26627043328E+02  0.51100000000E-03 0.  1.
         12    1    3    3    0    0 -0.40703651805E+01 -0.60791991112E+01  0.51998365643E+01  0.89756801877E+01  0.00000000000E+00 0. -1.
</event>
<event>
 7    1  0.2700100E-010  0.4778727E+02  0.7816164E-02  0.1312668E+00
        -11   -1    0    0    0    0  0.00000000000E+00  0.00000000000E+00  0.45593999997E+02  0.45594000000E+02  0.51100000000E-03 0.  1.
         11   -1    0    0    0    0 -0.00000000000E+00 -0.00000000000E+00 -0.45593999997E+02  0.45594000000E+02  0.51100000000E-03 0. -1.
    9900012    2    1    2    0    0 -0.23332173426E+02  0.23963404033E+02 -0.27658419520E+02  0.47787271665E+02  0.20000002832E+02 0.  0.
        -12    1    1    2    0    0  0.23332173426E+02 -0.23963404033E+02  0.27658419520E+02  0.43400728335E+02  0.00000000000E+00 0.  1.
         11    1    3    3    0    0 -0.11571318379E+02  0.50565933485E+01 -0.18635816791E+02  0.22511290790E+02  0.51100000000E-03 0. -1.
        -11    1    3    3    0    0 -0.21039930157E+01  0.95235143858E+01 -0.15468325921E+01  0.98750597060E+01  0.51100000000E-03 0.  1.
         12    1    3    3    0    0 -0.96568620313E+01  0.93832962991E+01 -0.74757701367E+01  0.15400921169E+02  0.00000000000E+00 0. -1.
</event>
<event>
 7    1  0.2700100E-010  0.4778727E+02  0.7816164E-02  0.1312668E+00
        -11   -1    0    0    0    0  0.00000000000E+00  0.00000000000E+00  0.45593999997E+02  0.45594000000E+02  0.51100000000E-03 0.  1.
         11   -1    0    0    0    0 -0.00000000000E+00 -0.00000000000E+00 -0.45593999997E+02  0.45594000000E+02  0.51100000000E-03 0. -1.
    9900012    2    1    2    0    0 -0.30697504259E+02  0.16618998195E+02 -0.25789447132E+02  0.47787268991E+02  0.19999990638E+02 0.  0.
        -12    1    1    2    0    0  0.30697504259E+02 -0.16618998195E+02  0.25789447132E+02  0.43400731009E+02  0.00000000000E+00 0.  1.
         11    1    3    3    0    0 -0.28494725474E+02  0.12648942860E+02 -0.14221636903E+02  0.34266603155E+02  0.51100000000E-03 0. -1.
        -11    1    3    3    0    0 -0.10874434230E+01 -0.32969252855E+00 -0.75544525192E-02  0.11363484028E+01  0.51100000000E-03 0.  1.
         12    1    3    3    0    0 -0.11153353614E+01  0.42997478631E+01 -0.11560255777E+02  0.12384317433E+02  0.00000000000E+00 0. -1.
</event>
<event>
 7    1  0.2700100E-010  0.4778727E+02  0.7816164E-02  0.1312668E+00
        -11   -1    0    0    0    0  0.00000000000E+00  0.00000000000E+00  0.45593999997E+02  0.45594000000E+02  0.51100000000E-03 0.  1.
         11   -1    0    0    0    0 -0.00000000000E+00 -0.00000000000E+00 -0.45593999997E+02  0.45594000000E+02  0.51100000000E-03 0. -1.
    9900012    2    1    2    0    0 -0.26509154949E+02 -0.17123301793E+02 -0.29793970669E+02  0.47787269031E+02  0.19999990820E+02 0.  0.
        -12    1    1    2    0    0  0.26509154949E+02  0.17123301793E+02  0.29793970669E+02  0.43400730969E+02  0.00000000000E+00 0.  1.
         11    1    3    3    0    0 -0.99925144904E+01 -0.87646396553E+01 -0.12217537130E+02  0.18053738336E+02  0.51100000000E-03 0. -1.
        -11    1    3    3    0    0 -0.99123514071E+01  0.17317291796E+01 -0.23921165657E+01  0.10342911500E+02  0.51100000000E-03 0.  1.
        -12    1    3    3    0    0 -0.66042890511E+01 -0.10090391317E+02 -0.15184316974E+02  0.19390619195E+02  0.00000000000E+00 0.  1.
</event>
<event>
 7    1  0.2700100E-010  0.4778727E+02  0.7816164E-02  0.1312668E+00
        -11   -1    0    0    0    0  0.00000000000E+00  0.00000000000E+00  0.45593999997E+02  0.45594000000E+02  0.51100000000E-03 0.  1.
         11   -1    0    0    0    0 -0.00000000000E+00 -0.00000000000E+00 -0.45593999997E+02  0.45594000000E+02  0.51100000000E-03 0. -1.
    9900012    2    1    2    0    0 -0.90190373803E+01 -0.79172532760E+01 -0.41708480616E+02  0.47787270858E+02  0.19999999152E+02 0.  0.
        -12    1    1    2    0    0  0.90190373803E+01  0.79172532760E+01  0.41708480616E+02  0.43400729142E+02  0.00000000000E+00 0.  1.
         11    1    3    3    0    0  0.23118347642E+01 -0.42926612265E+01 -0.21755720768E+02  0.22295356171E+02  0.51100000000E-03 0. -1.
        -11    1    3    3    0    0 -0.12509310901E+02 -0.52740803780E+00 -0.15098858015E+02  0.19614701937E+02  0.51100000000E-03 0.  1.
        -12    1    3    3    0    0  0.11784387570E+01 -0.30971840117E+01 -0.48539018334E+01  0.58772127505E+01  0.00000000000E+00 0.  1.
</event>
<event>
 7    1  0.2700100E-010  0.4778724E+02  0.7816164E-02  0.1312668E+00
        -11   -1    0    0    0    0  0.00000000000E+00  0.00000000000E+00  0.45593999997E+02  0.45594000000E+02  0.51100000000E-03 0.  1.
         11   -1    0    0    0    0 -0.00000000000E+00 -0.00000000000E+00 -0.45593999997E+02  0.45594000000E+02  0.51100000000E-03 0. -1.
    9900012    2    1    2    0    0 -0.30949433650E+02  0.26428388974E+02  0.15076430914E+02  0.47787240144E+02  0.19999859110E+02 0.  0.
        -12    1    1    2    0    0  0.30949433650E+02 -0.26428388974E+02 -0.15076430914E+02  0.43400759856E+02  0.00000000000E+00 0.  1.
         11    1    3    3    0    0 -0.98261449618E+01  0.11605508797E+02  0.12640140504E+02  0.19774076754E+02  0.51100000000E-03 0. -1.
        -11    1    3    3    0    0 -0.27810946435E+01 -0.73126214236E+00 -0.20728165688E+01  0.35448272914E+01  0.51100000000E-03 0.  1.
         12    1    3    3    0    0 -0.18342194045E+02  0.15554142318E+02  0.45091069787E+01  0.24468336098E+02  0.00000000000E+00 0. -1.
</event>
<event>
 7    1  0.2700100E-010  0.4778727E+02  0.7816164E-02  0.1312668E+00
        -11   -1    0    0    0    0  0.00000000000E+00  0.00000000000E+00  0.45593999997E+02  0.45594000000E+02  0.51100000000E-03 0. -1.
         11   -1    0    0    0    0 -0.00000000000E+00 -0.00000000000E+00 -0.45593999997E+02  0.45594000000E+02  0.51100000000E-03 0.  1.
    9900012    2    1    2    0    0 -0.17439088346E+02 -0.13226948334E+02  0.37477317023E+02  0.47787271252E+02  0.20000000947E+02 0.  0.
        -12    1    1    2    0    0  0.17439088346E+02  0.13226948334E+02 -0.37477317023E+02  0.43400728748E+02  0.00000000000E+00 0.  1.
         11    1    3    3    0    0 -0.90746653243E+01 -0.13132576190E+02  0.26405873141E+02  0.30855862404E+02  0.51100000000E-03 0. -1.
        -11    1    3    3    0    0 -0.10412222430E+02 -0.50410883696E+00  0.76779472609E+01  0.12946790184E+02  0.51100000000E-03 0.  1.
        -12    1    3    3    0    0  0.20477994084E+01  0.40973669304E+00  0.33934966217E+01  0.39846186638E+01  0.00000000000E+00 0.  1.
</event>
<event>
 7    1  0.2700100E-010  0.4778727E+02  0.7816164E-02  0.1312668E+00
        -11   -1    0    0    0    0  0.00000000000E+00  0.00000000000E+00  0.45593999997E+02  0.45594000000E+02  0.51100000000E-03 0. -1.
         11   -1    0    0    0    0 -0.00000000000E+00 -0.00000000000E+00 -0.45593999997E+02  0.45594000000E+02  0.51100000000E-03 0.  1.
    9900012    2    1    2    0    0  0.19157475600E+02  0.26343290389E+02  0.28681805535E+02  0.47787265115E+02  0.19999972963E+02 0.  0.
        -12    1    1    2    0    0 -0.19157475600E+02 -0.26343290389E+02 -0.28681805535E+02  0.43400734885E+02  0.00000000000E+00 0.  1.
         11    1    3    3    0    0  0.51991068603E+01 -0.15994712762E+01  0.90904755479E+01  0.10593666337E+02  0.51100000000E-03 0. -1.
        -11    1    3    3    0    0  0.12611736266E+02  0.23407513312E+02  0.18338217936E+02  0.32299501675E+02  0.51100000000E-03 0.  1.
         12    1    3    3    0    0  0.13466324736E+01  0.45352483531E+01  0.12531120502E+01  0.48940971030E+01  0.00000000000E+00 0. -1.
</event>
<event>
 7    1  0.2700100E-010  0.4778727E+02  0.7816164E-02  0.1312668E+00
        -11   -1    0    0    0    0  0.00000000000E+00  0.00000000000E+00  0.45593999997E+02  0.45594000000E+02  0.51100000000E-03 0.  1.
         11   -1    0    0    0    0 -0.00000000000E+00 -0.00000000000E+00 -0.45593999997E+02  0.45594000000E+02  0.51100000000E-03 0. -1.
    9900012    2    1    2    0    0 -0.23667560290E+02  0.20861996162E+02 -0.29803471347E+02  0.47787271916E+02  0.20000003972E+02 0.  0.
        -12    1    1    2    0    0  0.23667560290E+02 -0.20861996162E+02  0.29803471347E+02  0.43400728084E+02  0.00000000000E+00 0.  1.
         11    1    3    3    0    0  0.72337051049E+00 -0.18554914159E+01  0.11685879169E+00  0.19949359709E+01  0.51100000000E-03 0.  1.
        -11    1    3    3    0    0 -0.46625301123E+01  0.10425797888E+02 -0.97330345026E+01  0.15005612601E+02  0.51100000000E-03 0. -1.
         12    1    3    3    0    0 -0.19728400688E+02  0.12291689690E+02 -0.20187295636E+02  0.30786723343E+02  0.00000000000E+00 0. -1.
</event>
<event>
 7    1  0.2700100E-010  0.4778727E+02  0.7816164E-02  0.1312668E+00
        -11   -1    0    0    0    0  0.00000000000E+00  0.00000000000E+00  0.45593999997E+02  0.45594000000E+02  0.51100000000E-03 0.  1.
         11   -1    0    0    0    0 -0.00000000000E+00 -0.00000000000E+00 -0.45593999997E+02  0.45594000000E+02  0.51100000000E-03 0. -1.
    9900012    2    1    2    0    0 -0.15870666926E+02 -0.18994187609E+02 -0.35650613330E+02  0.47787268873E+02  0.19999990097E+02 0.  0.
        -12    1    1    2    0    0  0.15870666926E+02  0.18994187609E+02  0.35650613330E+02  0.43400731127E+02  0.00000000000E+00 0.  1.
         11    1    3    3    0    0  0.77573688086E-01  0.28815852412E+01 -0.12719456444E+01  0.31507772316E+01  0.51100000000E-03 0. -1.
        -11    1    3    3    0    0 -0.57431340376E+01 -0.13912261279E+02 -0.14395225776E+02  0.20826836722E+02  0.51100000000E-03 0.  1.
         12    1    3    3    0    0 -0.10205106576E+02 -0.79635115720E+01 -0.19983441910E+02  0.23809654919E+02  0.00000000000E+00 0. -1.
</event>
<event>
 7    1  0.2700100E-010  0.4778728E+02  0.7816164E-02  0.1312668E+00
        -11   -1    0    0    0    0  0.00000000000E+00  0.00000000000E+00  0.45593999997E+02  0.45594000000E+02  0.51100000000E-03 0.  1.
         11   -1    0    0    0    0 -0.00000000000E+00 -0.00000000000E+00 -0.45593999997E+02  0.45594000000E+02  0.51100000000E-03 0. -1.
    9900012    2    1    2    0    0  0.31748539277E+02 -0.55977997450E+01 -0.29057133521E+02  0.47787284376E+02  0.20000060784E+02 0.  0.
        -12    1    1    2    0    0 -0.31748539277E+02  0.55977997450E+01  0.29057133521E+02  0.43400715624E+02  0.00000000000E+00 0.  1.
         11    1    3    3    0    0  0.49652616401E+01 -0.85669921917E+01 -0.58607785253E+01  0.11506341884E+02  0.51100000000E-03 0. -1.
        -11    1    3    3    0    0  0.23204876799E+02  0.17052382920E+01 -0.22604958737E+02  0.32440072514E+02  0.51100000000E-03 0.  1.
        -12    1    3    3    0    0  0.35784008372E+01  0.12639541547E+01 -0.59139625897E+00  0.38408699785E+01  0.00000000000E+00 0.  1.
</event>
<event>
 7    1  0.2700100E-010  0.4778727E+02  0.7816164E-02  0.1312668E+00
        -11   -1    0    0    0    0  0.00000000000E+00  0.00000000000E+00  0.45593999997E+02  0.45594000000E+02  0.51100000000E-03 0. -1.
         11   -1    0    0    0    0 -0.00000000000E+00 -0.00000000000E+00 -0.45593999997E+02  0.45594000000E+02  0.51100000000E-03 0.  1.
    9900012    2    1    2    0    0 -0.18017563780E+02  0.32590332254E+02  0.22290387227E+02  0.47787265862E+02  0.19999976372E+02 0.  0.
        -12    1    1    2    0    0  0.18017563780E+02 -0.32590332254E+02 -0.22290387227E+02  0.43400734138E+02  0.00000000000E+00 0.  1.
         11    1    3    3    0    0 -0.17230225974E+02  0.24038079820E+02  0.18314479505E+02  0.34786924675E+02  0.51100000000E-03 0. -1.
        -11    1    3    3    0    0  0.17179880595E+01  0.86658017593E+01  0.51556699402E+01  0.10228809114E+02  0.51100000000E-03 0.  1.
        -12    1    3    3    0    0 -0.25053258651E+01 -0.11354932548E+00 -0.11797622178E+01  0.27715320727E+01  0.00000000000E+00 0.  1.
</event>
<event>
 7    1  0.2700100E-010  0.4778727E+02  0.7816164E-02  0.1312668E+00
        -11   -1    0    0    0    0  0.00000000000E+00  0.00000000000E+00  0.45593999997E+02  0.45594000000E+02  0.51100000000E-03 0.  1.
         11   -1    0    0    0    0 -0.00000000000E+00 -0.00000000000E+00 -0.45593999997E+02  0.45594000000E+02  0.51100000000E-03 0. -1.
    9900012    2    1    2    0    0 -0.75265814105E+01  0.35472729587E+02 -0.23846579114E+02  0.47787270656E+02  0.19999998230E+02 0.  0.
        -12    1    1    2    0    0  0.75265814105E+01 -0.35472729587E+02  0.23846579114E+02  0.43400729344E+02  0.00000000000E+00 0.  1.
         11    1    3    3    0    0 -0.30774094798E+01  0.32823381209E+02 -0.21004262654E+02  0.39089945676E+02  0.51100000000E-03 0. -1.
        -11    1    3    3    0    0 -0.70351654222E+00 -0.19577693717E+01 -0.16163217947E+01  0.26344435547E+01  0.51100000000E-03 0.  1.
        -12    1    3    3    0    0 -0.37456553885E+01  0.46071177505E+01 -0.12259946654E+01  0.60628814252E+01  0.00000000000E+00 0.  1.
</event>
<event>
 7    1  0.2700100E-010  0.4778727E+02  0.7816164E-02  0.1312668E+00
        -11   -1    0    0    0    0  0.00000000000E+00  0.00000000000E+00  0.45593999997E+02  0.45594000000E+02  0.51100000000E-03 0.  1.
         11   -1    0    0    0    0 -0.00000000000E+00 -0.00000000000E+00 -0.45593999997E+02  0.45594000000E+02  0.51100000000E-03 0. -1.
    9900012    2    1    2    0    0  0.44264620430E+01  0.25163022985E+02 -0.35083504887E+02  0.47787267206E+02  0.19999982497E+02 0.  0.
        -12    1    1    2    0    0 -0.44264620430E+01 -0.25163022985E+02  0.35083504887E+02  0.43400732794E+02  0.00000000000E+00 0.  1.
         11    1    3    3    0    0  0.30917090601E+01  0.11101348950E+02 -0.10570008694E+02  0.15637253514E+02  0.51100000000E-03 0. -1.
        -11    1    3    3    0    0  0.67742510953E+01  0.13338739620E+01 -0.70692327199E+01  0.98814851697E+01  0.51100000000E-03 0.  1.
        -12    1    3    3    0    0 -0.54394981124E+01  0.12727800073E+02 -0.17444263473E+02  0.22268528522E+02  0.00000000000E+00 0.  1.
</event>
<event>
 7    1  0.2700100E-010  0.4778727E+02  0.7816164E-02  0.1312668E+00
        -11   -1    0    0    0    0  0.00000000000E+00  0.00000000000E+00  0.45593999997E+02  0.45594000000E+02  0.51100000000E-03 0. -1.
         11   -1    0    0    0    0 -0.00000000000E+00 -0.00000000000E+00 -0.45593999997E+02  0.45594000000E+02  0.51100000000E-03 0.  1.
    9900012    2    1    2    0    0  0.40957690328E+02 -0.97860721555E+01 -0.10503514888E+02  0.47787269243E+02  0.19999991788E+02 0.  0.
        -12    1    1    2    0    0 -0.40957690328E+02  0.97860721555E+01  0.10503514888E+02  0.43400730757E+02  0.00000000000E+00 0.  1.
         11    1    3    3    0    0  0.15312341297E+02 -0.48937088846E+01  0.55745963454E+01  0.17014473465E+02  0.51100000000E-03 0. -1.
        -11    1    3    3    0    0  0.16011152539E+02 -0.43125169187E+01 -0.10454975070E+02  0.19602584314E+02  0.51100000000E-03 0.  1.
         12    1    3    3    0    0  0.96341964923E+01 -0.57984635217E+00 -0.56231361633E+01  0.11170211464E+02  0.00000000000E+00 0. -1.
</event>
<event>
 7    1  0.2700100E-010  0.4778726E+02  0.7816164E-02  0.1312668E+00
        -11   -1    0    0    0    0  0.00000000000E+00  0.00000000000E+00  0.45593999997E+02  0.45594000000E+02  0.51100000000E-03 0. -1.
         11   -1    0    0    0    0 -0.00000000000E+00 -0.00000000000E+00 -0.45593999997E+02  0.45594000000E+02  0.51100000000E-03 0.  1.
    9900012    2    1    2    0    0 -0.67812444733E+01  0.34685894694E+02  0.25189827663E+02  0.47787262851E+02  0.19999962645E+02 0.  0.
        -12    1    1    2    0    0  0.67812444733E+01 -0.34685894694E+02 -0.25189827663E+02  0.43400737149E+02  0.00000000000E+00 0.  1.
         11    1    3    3    0    0 -0.25423592368E+00  0.74902896168E+01  0.13206664502E+02  0.15185027560E+02  0.51100000000E-03 0. -1.
        -11    1    3    3    0    0  0.11277819465E+01  0.11982406800E+01  0.40384580865E+01  0.43608275388E+01  0.51100000000E-03 0.  1.
         12    1    3    3    0    0 -0.76547904961E+01  0.25997364397E+02  0.79447050741E+01  0.28241407753E+02  0.00000000000E+00 0. -1.
</event>
<event>
 7    1  0.2700100E-010  0.4778727E+02  0.7816164E-02  0.1312668E+00
        -11   -1    0    0    0    0  0.00000000000E+00  0.00000000000E+00  0.45593999997E+02  0.45594000000E+02  0.51100000000E-03 0.  1.
         11   -1    0    0    0    0 -0.00000000000E+00 -0.00000000000E+00 -0.45593999997E+02  0.45594000000E+02  0.51100000000E-03 0. -1.
    9900012    2    1    2    0    0 -0.15193196751E+02  0.25179920542E+02 -0.31918044994E+02  0.47787271639E+02  0.20000002709E+02 0.  0.
        -12    1    1    2    0    0  0.15193196751E+02 -0.25179920542E+02  0.31918044994E+02  0.43400728361E+02  0.00000000000E+00 0.  1.
         11    1    3    3    0    0 -0.36896443518E+01  0.16085216244E+02 -0.22714423950E+02  0.28076550940E+02  0.51100000000E-03 0. -1.
        -11    1    3    3    0    0  0.36018568309E+00 -0.14868766788E+01 -0.70515150220E+00  0.16845696443E+01  0.51100000000E-03 0.  1.
         12    1    3    3    0    0 -0.11863738083E+02  0.10581580977E+02 -0.84984695424E+01  0.18026151055E+02  0.00000000000E+00 0. -1.
</event>
<event>
 7    1  0.2700100E-010  0.4778729E+02  0.7816164E-02  0.1312668E+00
        -11   -1    0    0    0    0  0.00000000000E+00  0.00000000000E+00  0.45593999997E+02  0.45594000000E+02  0.51100000000E-03 0.  1.
         11   -1    0    0    0    0 -0.00000000000E+00 -0.00000000000E+00 -0.45593999997E+02  0.45594000000E+02  0.51100000000E-03 0. -1.
    9900012    2    1    2    0    0 -0.11839770309E+01 -0.14419669890E+02 -0.40918126243E+02  0.47787288755E+02  0.20000080751E+02 0.  0.
        -12    1    1    2    0    0  0.11839770309E+01  0.14419669890E+02  0.40918126243E+02  0.43400711245E+02  0.00000000000E+00 0.  1.
         11    1    3    3    0    0 -0.39976425697E+01 -0.40148090244E+01 -0.19429868847E+02  0.20239062263E+02  0.51100000000E-03 0. -1.
        -11    1    3    3    0    0  0.79031860343E+01 -0.40928147187E+01 -0.89913418182E+01  0.12651312571E+02  0.51100000000E-03 0.  1.
        -12    1    3    3    0    0 -0.50895204955E+01 -0.63120461467E+01 -0.12496915577E+02  0.14896913921E+02  0.00000000000E+00 0.  1.
</event>
<event>
 7    1  0.2700100E-010  0.4778727E+02  0.7816164E-02  0.1312668E+00
        -11   -1    0    0    0    0  0.00000000000E+00  0.00000000000E+00  0.45593999997E+02  0.45594000000E+02  0.51100000000E-03 0.  1.
         11   -1    0    0    0    0 -0.00000000000E+00 -0.00000000000E+00 -0.45593999997E+02  0.45594000000E+02  0.51100000000E-03 0. -1.
    9900012    2    1    2    0    0 -0.18052022271E+02 -0.19077165529E+02 -0.34551550085E+02  0.47787269984E+02  0.19999995163E+02 0.  0.
        -12    1    1    2    0    0  0.18052022271E+02  0.19077165529E+02  0.34551550085E+02  0.43400730016E+02  0.00000000000E+00 0.  1.
         11    1    3    3    0    0 -0.10520810623E+02 -0.15550738345E+02 -0.22324479516E+02  0.29170109791E+02  0.51100000000E-03 0. -1.
        -11    1    3    3    0    0 -0.76823810744E+01  0.11859290078E+01 -0.11449114431E+02  0.13838628115E+02  0.51100000000E-03 0.  1.
         12    1    3    3    0    0  0.15116942662E+00 -0.47123561917E+01 -0.77795613742E+00  0.47785320784E+01  0.00000000000E+00 0. -1.
</event>
<event>
 7    1  0.2700100E-010  0.4778727E+02  0.7816164E-02  0.1312668E+00
        -11   -1    0    0    0    0  0.00000000000E+00  0.00000000000E+00  0.45593999997E+02  0.45594000000E+02  0.51100000000E-03 0. -1.
         11   -1    0    0    0    0 -0.00000000000E+00 -0.00000000000E+00 -0.45593999997E+02  0.45594000000E+02  0.51100000000E-03 0.  1.
    9900012    2    1    2    0    0 -0.25390225724E+01  0.39203804332E+01  0.43148664119E+02  0.47787271508E+02  0.20000002116E+02 0.  0.
        -12    1    1    2    0    0  0.25390225724E+01 -0.39203804332E+01 -0.43148664119E+02  0.43400728492E+02  0.00000000000E+00 0.  1.
         11    1    3    3    0    0 -0.42007166575E+01 -0.72800138970E+00  0.24425642583E+02  0.24794919285E+02  0.51100000000E-03 0. -1.
        -11    1    3    3    0    0  0.60893959005E+01  0.28641178101E+01  0.47784976193E+01  0.82533601050E+01  0.51100000000E-03 0.  1.
        -12    1    3    3    0    0 -0.44277018154E+01  0.17842640128E+01  0.13944523916E+02  0.14738992119E+02  0.00000000000E+00 0.  1.
</event>
<event>
 7    1  0.2700100E-010  0.4778727E+02  0.7816164E-02  0.1312668E+00
        -11   -1    0    0    0    0  0.00000000000E+00  0.00000000000E+00  0.45593999997E+02  0.45594000000E+02  0.51100000000E-03 0.  1.
         11   -1    0    0    0    0 -0.00000000000E+00 -0.00000000000E+00 -0.45593999997E+02  0.45594000000E+02  0.51100000000E-03 0. -1.
    9900012    2    1    2    0    0 -0.20852297917E+02 -0.37901690094E+02 -0.35024410380E+01  0.47787268052E+02  0.19999986354E+02 0.  0.
        -12    1    1    2    0    0  0.20852297917E+02  0.37901690094E+02  0.35024410380E+01  0.43400731948E+02  0.00000000000E+00 0.  1.
         11    1    3    3    0    0 -0.78084927786E+01 -0.21269879436E+02  0.58315516807E+00  0.22665400965E+02  0.51100000000E-03 0. -1.
        -11    1    3    3    0    0 -0.60997750684E+01 -0.29962373869E+01 -0.67628265856E+01  0.95875188684E+01  0.51100000000E-03 0.  1.
        -12    1    3    3    0    0 -0.69440300703E+01 -0.13635573271E+02  0.26772303795E+01  0.15534348218E+02  0.00000000000E+00 0.  1.
</event>
<event>
 7    1  0.2700100E-010  0.4778727E+02  0.7816164E-02  0.1312668E+00
        -11   -1    0    0    0    0  0.00000000000E+00  0.00000000000E+00  0.45593999997E+02  0.45594000000E+02  0.51100000000E-03 0. -1.
         11   -1    0    0    0    0 -0.00000000000E+00 -0.00000000000E+00 -0.45593999997E+02  0.45594000000E+02  0.51100000000E-03 0.  1.
    9900012    2    1    2    0    0 -0.29765202746E+02 -0.30249693877E+02  0.90891289542E+01  0.47787267986E+02  0.19999986056E+02 0.  0.
        -12    1    1    2    0    0  0.29765202746E+02  0.30249693877E+02 -0.90891289542E+01  0.43400732014E+02  0.00000000000E+00 0.  1.
         11    1    3    3    0    0 -0.69650011047E+01  0.41391938515E+00 -0.13123941908E+01  0.70996442460E+01  0.51100000000E-03 0. -1.
        -11    1    3    3    0    0 -0.11234257899E+01 -0.61201215576E+01  0.37763870919E+01  0.72786724829E+01  0.51100000000E-03 0.  1.
         12    1    3    3    0    0 -0.21676775852E+02 -0.24543491705E+02  0.66251360531E+01  0.33408951257E+02  0.00000000000E+00 0. -1.
</event>
<event>
 7    1  0.2700100E-010  0.4778727E+02  0.7816164E-02  0.1312668E+00
        -11   -1    0    0    0    0  0.00000000000E+00  0.00000000000E+00  0.45593999997E+02  0.45594000000E+02  0.51100000000E-03 0. -1.
         11   -1    0    0    0    0 -0.00000000000E+00 -0.00000000000E+00 -0.45593999997E+02  0.45594000000E+02  0.51100000000E-03 0.  1.
    9900012    2    1    2    0    0  0.12366870183E+02 -0.31715983088E+02  0.26921740107E+02  0.47787272451E+02  0.20000006415E+02 0.  0.
        -12    1    1    2    0    0 -0.12366870183E+02  0.31715983088E+02 -0.26921740107E+02  0.43400727549E+02  0.00000000000E+00 0.  1.
         11    1    3    3    0    0  0.26136370236E+00 -0.12477589330E+02  0.17868255206E+02  0.21795253860E+02  0.51100000000E-03 0. -1.
        -11    1    3    3    0    0  0.21520868357E+01 -0.90900353043E+00 -0.13348325083E+01  0.26906399338E+01  0.51100000000E-03 0.  1.
         12    1    3    3    0    0  0.99534196444E+01 -0.18329390227E+02  0.10388317410E+02  0.23301378657E+02  0.00000000000E+00 0. -1.
</event>
<event>
 7    1  0.2700100E-010  0.4778727E+02  0.7816164E-02  0.1312668E+00
        -11   -1    0    0    0    0  0.00000000000E+00  0.00000000000E+00  0.45593999997E+02  0.45594000000E+02  0.51100000000E-03 0. -1.
         11   -1    0    0    0    0 -0.00000000000E+00 -0.00000000000E+00 -0.45593999997E+02  0.45594000000E+02  0.51100000000E-03 0.  1.
    9900012    2    1    2    0    0 -0.36819059285E+02 -0.20374196526E+02 -0.10624134262E+02  0.47787271440E+02  0.20000001805E+02 0.  0.
        -12    1    1    2    0    0  0.36819059285E+02  0.20374196526E+02  0.10624134262E+02  0.43400728560E+02  0.00000000000E+00 0.  1.
         11    1    3    3    0    0 -0.12719600373E+02 -0.11148671307E+02  0.33601127114E+01  0.17244461814E+02  0.51100000000E-03 0. -1.
        -11    1    3    3    0    0 -0.15550891608E+02 -0.76748403863E+01 -0.13249158650E+02  0.21823693775E+02  0.51100000000E-03 0.  1.
         12    1    3    3    0    0 -0.85485673037E+01 -0.15506848326E+01 -0.73508832306E+00  0.87191158519E+01  0.00000000000E+00 0. -1.
</event>
<event>
 7    1  0.2700100E-010  0.4778727E+02  0.7816164E-02  0.1312668E+00
        -11   -1    0    0    0    0  0.00000000000E+00  0.00000000000E+00  0.45593999997E+02  0.45594000000E+02  0.51100000000E-03 0.  1.
         11   -1    0    0    0    0 -0.00000000000E+00 -0.00000000000E+00 -0.45593999997E+02  0.45594000000E+02  0.51100000000E-03 0. -1.
    9900012    2    1    2    0    0 -0.10575583286E+02 -0.27662610571E+02 -0.31726341545E+02  0.47787265752E+02  0.19999975869E+02 0.  0.
        -12    1    1    2    0    0  0.10575583286E+02  0.27662610571E+02  0.31726341545E+02  0.43400734248E+02  0.00000000000E+00 0.  1.
         11    1    3    3    0    0 -0.13726810251E+02 -0.22706550501E+02 -0.30735176699E+02  0.40603741728E+02  0.51100000000E-03 0. -1.
        -11    1    3    3    0    0  0.64800786243E+00 -0.28880791786E+01  0.12761810525E+01  0.32232830890E+01  0.51100000000E-03 0.  1.
         12    1    3    3    0    0  0.25032191021E+01 -0.20679808917E+01 -0.22673458985E+01  0.39602409352E+01  0.00000000000E+00 0. -1.
</event>
<event>
 7    1  0.2700100E-010  0.4778727E+02  0.7816164E-02  0.1312668E+00
        -11   -1    0    0    0    0  0.00000000000E+00  0.00000000000E+00  0.45593999997E+02  0.45594000000E+02  0.51100000000E-03 0.  1.
         11   -1    0    0    0    0 -0.00000000000E+00 -0.00000000000E+00 -0.45593999997E+02  0.45594000000E+02  0.51100000000E-03 0. -1.
    9900012    2    1    2    0    0 -0.26584286712E+02  0.11132773832E+02 -0.32449350258E+02  0.47787270912E+02  0.19999999396E+02 0.  0.
        -12    1    1    2    0    0  0.26584286712E+02 -0.11132773832E+02  0.32449350258E+02  0.43400729088E+02  0.00000000000E+00 0.  1.
         11    1    3    3    0    0 -0.11408380713E+02 -0.18592920253E+01 -0.42158413975E+01  0.12303716360E+02  0.51100000000E-03 0.  1.
        -11    1    3    3    0    0 -0.10774940839E+02  0.13081318693E+02 -0.20639230942E+02  0.26705769095E+02  0.51100000000E-03 0. -1.
         12    1    3    3    0    0 -0.44009651602E+01 -0.89252836108E-01 -0.75942779189E+01  0.87777854564E+01  0.00000000000E+00 0. -1.
</event>
<event>
 7    1  0.2700100E-010  0.4778727E+02  0.7816164E-02  0.1312668E+00
        -11   -1    0    0    0    0  0.00000000000E+00  0.00000000000E+00  0.45593999997E+02  0.45594000000E+02  0.51100000000E-03 0.  1.
         11   -1    0    0    0    0 -0.00000000000E+00 -0.00000000000E+00 -0.45593999997E+02  0.45594000000E+02  0.51100000000E-03 0. -1.
    9900012    2    1    2    0    0  0.38466547767E+02 -0.18310761872E+02 -0.82863592206E+01  0.47787273663E+02  0.20000011937E+02 0.  0.
        -12    1    1    2    0    0 -0.38466547767E+02  0.18310761872E+02  0.82863592206E+01  0.43400726337E+02  0.00000000000E+00 0.  1.
         11    1    3    3    0    0  0.67775811475E+01 -0.52654469327E+00 -0.41844504789E+00  0.68108701386E+01  0.51100000000E-03 0. -1.
        -11    1    3    3    0    0  0.30921459749E+02 -0.10155132531E+02 -0.63492371693E+01  0.33159858302E+02  0.51100000000E-03 0.  1.
        -12    1    3    3    0    0  0.76750687103E+00 -0.76290846481E+01 -0.15186770034E+01  0.78165452219E+01  0.00000000000E+00 0.  1.
</event>
<event>
 7    1  0.2700100E-010  0.4778727E+02  0.7816164E-02  0.1312668E+00
        -11   -1    0    0    0    0  0.00000000000E+00  0.00000000000E+00  0.45593999997E+02  0.45594000000E+02  0.51100000000E-03 0. -1.
         11   -1    0    0    0    0 -0.00000000000E+00 -0.00000000000E+00 -0.45593999997E+02  0.45594000000E+02  0.51100000000E-03 0.  1.
    9900012    2    1    2    0    0  0.42694093613E+02  0.33010320841E+01 -0.70668808075E+01  0.47787271359E+02  0.20000001433E+02 0.  0.
        -12    1    1    2    0    0 -0.42694093613E+02 -0.33010320841E+01  0.70668808075E+01  0.43400728641E+02  0.00000000000E+00 0.  1.
         11    1    3    3    0    0  0.20357201299E+02  0.76904762777E+01 -0.26023653290E+01  0.21916463576E+02  0.51100000000E-03 0. -1.
        -11    1    3    3    0    0  0.17511916955E+02 -0.47956038539E+01 -0.80345536315E+01  0.19854951626E+02  0.51100000000E-03 0.  1.
         12    1    3    3    0    0  0.48249753583E+01  0.40615966036E+00  0.35700381529E+01  0.60158561561E+01  0.00000000000E+00 0. -1.
</event>
<event>
 7    1  0.2700100E-010  0.4778727E+02  0.7816164E-02  0.1312668E+00
        -11   -1    0    0    0    0  0.00000000000E+00  0.00000000000E+00  0.45593999997E+02  0.45594000000E+02  0.51100000000E-03 0. -1.
         11   -1    0    0    0    0 -0.00000000000E+00 -0.00000000000E+00 -0.45593999997E+02  0.45594000000E+02  0.51100000000E-03 0.  1.
    9900012    2    1    2    0    0 -0.10810566619E+02  0.30481468486E+02  0.28941926995E+02  0.47787269478E+02  0.19999992858E+02 0.  0.
        -12    1    1    2    0    0  0.10810566619E+02 -0.30481468486E+02 -0.28941926995E+02  0.43400730522E+02  0.00000000000E+00 0.  1.
         11    1    3    3    0    0 -0.94920607760E+01  0.93301778035E+01  0.17319592282E+02  0.21843070130E+02  0.51100000000E-03 0. -1.
        -11    1    3    3    0    0  0.40792434092E+01  0.96754049626E+01  0.57005308225E+01  0.11947792261E+02  0.51100000000E-03 0.  1.
        -12    1    3    3    0    0 -0.53977492518E+01  0.11475885720E+02  0.59218038898E+01  0.13996407087E+02  0.00000000000E+00 0.  1.
</event>
<event>
 7    1  0.2700100E-010  0.4778726E+02  0.7816164E-02  0.1312668E+00
        -11   -1    0    0    0    0  0.00000000000E+00  0.00000000000E+00  0.45593999997E+02  0.45594000000E+02  0.51100000000E-03 0. -1.
         11   -1    0    0    0    0 -0.00000000000E+00 -0.00000000000E+00 -0.45593999997E+02  0.45594000000E+02  0.51100000000E-03 0.  1.
    9900012    2    1    2    0    0  0.12929483022E+02 -0.39891185877E+02  0.11186850926E+02  0.47787264113E+02  0.19999968396E+02 0.  0.
        -12    1    1    2    0    0 -0.12929483022E+02  0.39891185877E+02 -0.11186850926E+02  0.43400735887E+02  0.00000000000E+00 0.  1.
         11    1    3    3    0    0  0.73810422307E+01 -0.93123492833E+01  0.18884147807E+01  0.12031863706E+02  0.51100000000E-03 0. -1.
        -11    1    3    3    0    0  0.87589384868E+01 -0.94909470364E+01  0.13241194917E+01  0.12982695088E+02  0.51100000000E-03 0.  1.
        -12    1    3    3    0    0 -0.32104976957E+01 -0.21087889558E+02  0.79743166540E+01  0.22772705319E+02  0.00000000000E+00 0.  1.
</event>
<event>
 7    1  0.2736465E-010  0.4778723E+02  0.7816164E-02  0.1312668E+00
        -11   -1    0    0    0    0  0.00000000000E+00  0.00000000000E+00  0.45593999997E+02  0.45594000000E+02  0.51100000000E-03 0. -1.
         11   -1    0    0    0    0 -0.00000000000E+00 -0.00000000000E+00 -0.45593999997E+02  0.45594000000E+02  0.51100000000E-03 0.  1.
    9900012    2    1    2    0    0 -0.56894922227E+01 -0.25827528047E+02  0.34412142669E+02  0.47787227082E+02  0.19999799558E+02 0.  0.
        -12    1    1    2    0    0  0.56894922227E+01  0.25827528047E+02 -0.34412142669E+02  0.43400772918E+02  0.00000000000E+00 0.  1.
         11    1    3    3    0    0 -0.47270199531E+01 -0.19720593459E+02  0.27599640619E+02  0.34248893217E+02  0.51100000000E-03 0. -1.
        -11    1    3    3    0    0  0.38285662683E+01 -0.81551581379E+00  0.38592549816E+00  0.39334367244E+01  0.51100000000E-03 0.  1.
        -12    1    3    3    0    0 -0.47910385379E+01 -0.52914187736E+01  0.64265765521E+01  0.96048971410E+01  0.00000000000E+00 0.  1.
</event>
<event>
 7    1  0.2700100E-010  0.4778727E+02  0.7816164E-02  0.1312668E+00
        -11   -1    0    0    0    0  0.00000000000E+00  0.00000000000E+00  0.45593999997E+02  0.45594000000E+02  0.51100000000E-03 0.  1.
         11   -1    0    0    0    0 -0.00000000000E+00 -0.00000000000E+00 -0.45593999997E+02  0.45594000000E+02  0.51100000000E-03 0. -1.
    9900012    2    1    2    0    0  0.14601771792E+02 -0.29328098545E+01 -0.40765306338E+02  0.47787270583E+02  0.19999997895E+02 0.  0.
        -12    1    1    2    0    0 -0.14601771792E+02  0.29328098545E+01  0.40765306338E+02  0.43400729417E+02  0.00000000000E+00 0.  1.
         11    1    3    3    0    0  0.66355196234E+01 -0.78001838766E+01 -0.12078785856E+02  0.15835720924E+02  0.51100000000E-03 0. -1.
        -11    1    3    3    0    0  0.58915453998E+00  0.64606660429E+01 -0.12126186443E+02  0.13752516377E+02  0.51100000000E-03 0.  1.
         12    1    3    3    0    0  0.73770976282E+01 -0.15932920208E+01 -0.16560334039E+02  0.18199033281E+02  0.00000000000E+00 0. -1.
</event>
<event>
 7    1  0.2700100E-010  0.4778727E+02  0.7816164E-02  0.1312668E+00
        -11   -1    0    0    0    0  0.00000000000E+00  0.00000000000E+00  0.45593999997E+02  0.45594000000E+02  0.51100000000E-03 0. -1.
         11   -1    0    0    0    0 -0.00000000000E+00 -0.00000000000E+00 -0.45593999997E+02  0.45594000000E+02  0.51100000000E-03 0.  1.
    9900012    2    1    2    0    0 -0.10790490328E+02  0.36516301972E+02  0.20826624198E+02  0.47787271127E+02  0.20000000375E+02 0.  0.
        -12    1    1    2    0    0  0.10790490328E+02 -0.36516301972E+02 -0.20826624198E+02  0.43400728873E+02  0.00000000000E+00 0.  1.
         11    1    3    3    0    0  0.88365487807E+00 -0.16430276292E+01  0.21243493194E+00  0.18776353734E+01  0.51100000000E-03 0.  1.
        -11    1    3    3    0    0 -0.59137937906E+01  0.31760696416E+02  0.14904801955E+02  0.35579037584E+02  0.51100000000E-03 0. -1.
         12    1    3    3    0    0 -0.57603514154E+01  0.63986331857E+01  0.57093873105E+01  0.10330598169E+02  0.00000000000E+00 0. -1.
</event>
<event>
 7    1  0.2700100E-010  0.4778727E+02  0.7816164E-02  0.1312668E+00
        -11   -1    0    0    0    0  0.00000000000E+00  0.00000000000E+00  0.45593999997E+02  0.45594000000E+02  0.51100000000E-03 0.  1.
         11   -1    0    0    0    0 -0.00000000000E+00 -0.00000000000E+00 -0.45593999997E+02  0.45594000000E+02  0.51100000000E-03 0. -1.
    9900012    2    1    2    0    0  0.16238907020E+02 -0.18429464586E+02 -0.35780946849E+02  0.47787269320E+02  0.19999992139E+02 0.  0.
        -12    1    1    2    0    0 -0.16238907020E+02  0.18429464586E+02  0.35780946849E+02  0.43400730680E+02  0.00000000000E+00 0.  1.
         11    1    3    3    0    0  0.16015409658E+02 -0.15491874188E+02 -0.20294984307E+02  0.30139308231E+02  0.51100000000E-03 0. -1.
        -11    1    3    3    0    0 -0.23436694901E+01  0.18783610424E+01 -0.57169587073E+01  0.64579132858E+01  0.51100000000E-03 0.  1.
         12    1    3    3    0    0  0.25671668521E+01 -0.48159514405E+01 -0.97690038345E+01  0.11190047803E+02  0.00000000000E+00 0. -1.
</event>
<event>
 7    1  0.2700100E-010  0.4778727E+02  0.7816164E-02  0.1312668E+00
        -11   -1    0    0    0    0  0.00000000000E+00  0.00000000000E+00  0.45593999997E+02  0.45594000000E+02  0.51100000000E-03 0. -1.
         11   -1    0    0    0    0 -0.00000000000E+00 -0.00000000000E+00 -0.45593999997E+02  0.45594000000E+02  0.51100000000E-03 0.  1.
    9900012    2    1    2    0    0 -0.24083351631E+02  0.30559682487E+02  0.19228134658E+02  0.47787272104E+02  0.20000004830E+02 0.  0.
        -12    1    1    2    0    0  0.24083351631E+02 -0.30559682487E+02 -0.19228134658E+02  0.43400727896E+02  0.00000000000E+00 0.  1.
         11    1    3    3    0    0 -0.13928301510E+02  0.81409540897E+01  0.27576424765E+01  0.16366957834E+02  0.51100000000E-03 0. -1.
        -11    1    3    3    0    0 -0.32128874485E+01  0.78266438789E+01  0.11947932068E+02  0.14640084738E+02  0.51100000000E-03 0.  1.
        -12    1    3    3    0    0 -0.69421626725E+01  0.14592084518E+02  0.45225601135E+01  0.16780229532E+02  0.00000000000E+00 0.  1.
</event>
<event>
 7    1  0.2700100E-010  0.4778727E+02  0.7816164E-02  0.1312668E+00
        -11   -1    0    0    0    0  0.00000000000E+00  0.00000000000E+00  0.45593999997E+02  0.45594000000E+02  0.51100000000E-03 0. -1.
         11   -1    0    0    0    0 -0.00000000000E+00 -0.00000000000E+00 -0.45593999997E+02  0.45594000000E+02  0.51100000000E-03 0.  1.
    9900012    2    1    2    0    0  0.71300120952E+01 -0.69318074032E+01  0.42246141004E+02  0.47787268945E+02  0.19999990428E+02 0.  0.
        -12    1    1    2    0    0 -0.71300120952E+01  0.69318074032E+01 -0.42246141004E+02  0.43400731055E+02  0.00000000000E+00 0.  1.
         11    1    3    3    0    0  0.36062630093E+01  0.63581004653E+00  0.80585518335E+01  0.88515334955E+01  0.51100000000E-03 0. -1.
        -11    1    3    3    0    0  0.29303020642E+01  0.34332900666E+01  0.20410366529E+01  0.49537845884E+01  0.51100000000E-03 0.  1.
        -12    1    3    3    0    0  0.59344702183E+00 -0.11000907516E+02  0.32146552518E+02  0.33981950861E+02  0.00000000000E+00 0.  1.
</event>
<event>
 7    1  0.2700100E-010  0.4778728E+02  0.7816164E-02  0.1312668E+00
        -11   -1    0    0    0    0  0.00000000000E+00  0.00000000000E+00  0.45593999997E+02  0.45594000000E+02  0.51100000000E-03 0.  1.
         11   -1    0    0    0    0 -0.00000000000E+00 -0.00000000000E+00 -0.45593999997E+02  0.45594000000E+02  0.51100000000E-03 0. -1.
    9900012    2    1    2    0    0 -0.36957165202E+02  0.19027611588E+02  0.12479596934E+02  0.47787281087E+02  0.20000045789E+02 0.  0.
        -12    1    1    2    0    0  0.36957165202E+02 -0.19027611588E+02 -0.12479596934E+02  0.43400718913E+02  0.00000000000E+00 0.  1.
         11    1    3    3    0    0 -0.89012013698E+01  0.95815695280E+01  0.97712883301E+01  0.16325315811E+02  0.51100000000E-03 0. -1.
        -11    1    3    3    0    0 -0.73996731266E+01 -0.18514037375E+01  0.20943801250E+01  0.79100750028E+01  0.51100000000E-03 0.  1.
         12    1    3    3    0    0 -0.20656290705E+02  0.11297445798E+02  0.61392847902E+00  0.23551890273E+02  0.00000000000E+00 0. -1.
</event>
<event>
 7    1  0.2700100E-010  0.4778727E+02  0.7816164E-02  0.1312668E+00
        -11   -1    0    0    0    0  0.00000000000E+00  0.00000000000E+00  0.45593999997E+02  0.45594000000E+02  0.51100000000E-03 0.  1.
         11   -1    0    0    0    0 -0.00000000000E+00 -0.00000000000E+00 -0.45593999997E+02  0.45594000000E+02  0.51100000000E-03 0. -1.
    9900012    2    1    2    0    0  0.52252811014E+01 -0.34502239136E+02 -0.25805329366E+02  0.47787273144E+02  0.20000009571E+02 0.  0.
        -12    1    1    2    0    0 -0.52252811014E+01  0.34502239136E+02  0.25805329366E+02  0.43400726856E+02  0.00000000000E+00 0.  1.
         11    1    3    3    0    0  0.44539109372E+01 -0.92910790546E+01 -0.14795074818E+02  0.18029301478E+02  0.51100000000E-03 0. -1.
        -11    1    3    3    0    0 -0.39986799633E+01 -0.37670998431E+01 -0.86901779205E+00  0.55619847950E+01  0.51100000000E-03 0.  1.
        -12    1    3    3    0    0  0.47700501275E+01 -0.21444060238E+02 -0.10141236755E+02  0.24195986871E+02  0.00000000000E+00 0.  1.
</event>
<event>
 7    1  0.2700100E-010  0.4778727E+02  0.7816164E-02  0.1312668E+00
        -11   -1    0    0    0    0  0.00000000000E+00  0.00000000000E+00  0.45593999997E+02  0.45594000000E+02  0.51100000000E-03 0.  1.
         11   -1    0    0    0    0 -0.00000000000E+00 -0.00000000000E+00 -0.45593999997E+02  0.45594000000E+02  0.51100000000E-03 0. -1.
    9900012    2    1    2    0    0 -0.20544560050E+02  0.38189856012E+02  0.17548019670E+01  0.47787269824E+02  0.19999994434E+02 0.  0.
        -12    1    1    2    0    0  0.20544560050E+02 -0.38189856012E+02 -0.17548019670E+01  0.43400730176E+02  0.00000000000E+00 0.  1.
         11    1    3    3    0    0 -0.20177072771E+02  0.29201560448E+02  0.78487883868E+01  0.36351738302E+02  0.51100000000E-03 0. -1.
        -11    1    3    3    0    0  0.31151243965E+00  0.41279542630E+01 -0.48427923966E+01  0.63710034418E+01  0.51100000000E-03 0.  1.
         12    1    3    3    0    0 -0.67899971826E+00  0.48603413016E+01 -0.12511940231E+01  0.50645280796E+01  0.00000000000E+00 0. -1.
</event>
<event>
 7    1  0.2700100E-010  0.4778727E+02  0.7816164E-02  0.1312668E+00
        -11   -1    0    0    0    0  0.00000000000E+00  0.00000000000E+00  0.45593999997E+02  0.45594000000E+02  0.51100000000E-03 0.  1.
         11   -1    0    0    0    0 -0.00000000000E+00 -0.00000000000E+00 -0.45593999997E+02  0.45594000000E+02  0.51100000000E-03 0. -1.
    9900012    2    1    2    0    0 -0.25270194184E+02  0.95670849232E+01 -0.33963380813E+02  0.47787273459E+02  0.20000011010E+02 0.  0.
        -12    1    1    2    0    0  0.25270194184E+02 -0.95670849232E+01  0.33963380813E+02  0.43400726541E+02  0.00000000000E+00 0.  1.
         11    1    3    3    0    0 -0.10863525558E+02  0.11414734755E+02 -0.12485981898E+02  0.20105026767E+02  0.51100000000E-03 0. -1.
        -11    1    3    3    0    0  0.11479114472E+01  0.78653679883E-02 -0.62662860937E-01  0.11496475329E+01  0.51100000000E-03 0.  1.
         12    1    3    3    0    0 -0.15554580073E+02 -0.18555151997E+01 -0.21414736054E+02  0.26532599159E+02  0.00000000000E+00 0. -1.
</event>
<event>
 7    1  0.2700100E-010  0.4778727E+02  0.7816164E-02  0.1312668E+00
        -11   -1    0    0    0    0  0.00000000000E+00  0.00000000000E+00  0.45593999997E+02  0.45594000000E+02  0.51100000000E-03 0.  1.
         11   -1    0    0    0    0 -0.00000000000E+00 -0.00000000000E+00 -0.45593999997E+02  0.45594000000E+02  0.51100000000E-03 0. -1.
    9900012    2    1    2    0    0 -0.35101661205E+02  0.28128487126E+01 -0.25368964125E+02  0.47787273301E+02  0.20000010290E+02 0.  0.
        -12    1    1    2    0    0  0.35101661205E+02 -0.28128487126E+01  0.25368964125E+02  0.43400726699E+02  0.00000000000E+00 0.  1.
         11    1    3    3    0    0 -0.16384007522E+02  0.85072586678E+01 -0.19754613593E+02  0.27038008636E+02  0.51100000000E-03 0. -1.
        -11    1    3    3    0    0 -0.18300672069E+02 -0.49762197392E+01 -0.47507225752E+01  0.19551131076E+02  0.51100000000E-03 0.  1.
         12    1    3    3    0    0 -0.41698161328E+00 -0.71819021597E+00 -0.86362795689E+00  0.11981335902E+01  0.00000000000E+00 0. -1.
</event>
<event>
 7    1  0.2700100E-010  0.4778727E+02  0.7816164E-02  0.1312668E+00
        -11   -1    0    0    0    0  0.00000000000E+00  0.00000000000E+00  0.45593999997E+02  0.45594000000E+02  0.51100000000E-03 0.  1.
         11   -1    0    0    0    0 -0.00000000000E+00 -0.00000000000E+00 -0.45593999997E+02  0.45594000000E+02  0.51100000000E-03 0. -1.
    9900012    2    1    2    0    0 -0.40401887339E+02  0.14706595456E+02 -0.59183847091E+01  0.47787265813E+02  0.19999976146E+02 0.  0.
        -12    1    1    2    0    0  0.40401887339E+02 -0.14706595456E+02  0.59183847091E+01  0.43400734187E+02  0.00000000000E+00 0.  1.
         11    1    3    3    0    0 -0.20875051120E+01 -0.47570957807E+00  0.10518079252E+01  0.23854302271E+01  0.51100000000E-03 0. -1.
        -11    1    3    3    0    0 -0.34771097939E+02  0.64562352743E+01 -0.43905089228E+01  0.35636902147E+02  0.51100000000E-03 0.  1.
        -12    1    3    3    0    0 -0.35432842878E+01  0.87260697601E+01 -0.25796837115E+01  0.97649334383E+01  0.00000000000E+00 0.  1.
</event>
<event>
 7    1  0.2700100E-010  0.4778727E+02  0.7816164E-02  0.1312668E+00
        -11   -1    0    0    0    0  0.00000000000E+00  0.00000000000E+00  0.45593999997E+02  0.45594000000E+02  0.51100000000E-03 0. -1.
         11   -1    0    0    0    0 -0.00000000000E+00 -0.00000000000E+00 -0.45593999997E+02  0.45594000000E+02  0.51100000000E-03 0.  1.
    9900012    2    1    2    0    0  0.31118360975E+02  0.26817935220E+02  0.14002467963E+02  0.47787272491E+02  0.20000006596E+02 0.  0.
        -12    1    1    2    0    0 -0.31118360975E+02 -0.26817935220E+02 -0.14002467963E+02  0.43400727509E+02  0.00000000000E+00 0.  1.
         11    1    3    3    0    0  0.15630126008E+02  0.25176768240E+02  0.67330307072E+01  0.30389211915E+02  0.51100000000E-03 0. -1.
        -11    1    3    3    0    0  0.11639714155E+02  0.23233336796E+01  0.50089941625E+01  0.12882967351E+02  0.51100000000E-03 0.  1.
         12    1    3    3    0    0  0.38485208120E+01 -0.68216670000E+00  0.22604430938E+01  0.45150932246E+01  0.00000000000E+00 0. -1.
</event>
<event>
 7    1  0.2700100E-010  0.4778727E+02  0.7816164E-02  0.1312668E+00
        -11   -1    0    0    0    0  0.00000000000E+00  0.00000000000E+00  0.45593999997E+02  0.45594000000E+02  0.51100000000E-03 0.  1.
         11   -1    0    0    0    0 -0.00000000000E+00 -0.00000000000E+00 -0.45593999997E+02  0.45594000000E+02  0.51100000000E-03 0. -1.
    9900012    2    1    2    0    0  0.37535615620E+02 -0.21344612678E+02  0.43712982287E+01  0.47787272142E+02  0.20000005006E+02 0.  0.
        -12    1    1    2    0    0 -0.37535615620E+02  0.21344612678E+02 -0.43712982287E+01  0.43400727858E+02  0.00000000000E+00 0.  1.
         11    1    3    3    0    0  0.31321666576E+02 -0.80181332780E+01  0.42646247636E+01  0.32611720025E+02  0.51100000000E-03 0. -1.
        -11    1    3    3    0    0  0.30000181437E+01 -0.32200820158E+01 -0.99888353027E+00  0.45129597405E+01  0.51100000000E-03 0.  1.
         12    1    3    3    0    0  0.32139309004E+01 -0.10106397385E+02  0.11055569953E+01  0.10662592377E+02  0.00000000000E+00 0. -1.
</event>
<event>
 7    1  0.2700100E-010  0.4778728E+02  0.7816164E-02  0.1312668E+00
        -11   -1    0    0    0    0  0.00000000000E+00  0.00000000000E+00  0.45593999997E+02  0.45594000000E+02  0.51100000000E-03 0. -1.
         11   -1    0    0    0    0 -0.00000000000E+00 -0.00000000000E+00 -0.45593999997E+02  0.45594000000E+02  0.51100000000E-03 0.  1.
    9900012    2    1    2    0    0 -0.28323447589E+02 -0.17065500192E+01  0.32840411906E+02  0.47787278226E+02  0.20000032745E+02 0.  0.
        -12    1    1    2    0    0  0.28323447589E+02  0.17065500192E+01 -0.32840411906E+02  0.43400721774E+02  0.00000000000E+00 0.  1.
         11    1    3    3    0    0 -0.13223954529E+02 -0.90268557885E+01  0.17301618698E+02  0.23573355906E+02  0.51100000000E-03 0. -1.
        -11    1    3    3    0    0 -0.98618887997E+01  0.85546001019E+01  0.12279576875E+02  0.17922779976E+02  0.51100000000E-03 0.  1.
        -12    1    3    3    0    0 -0.52376042602E+01 -0.12342943326E+01  0.32592163335E+01  0.62911423441E+01  0.00000000000E+00 0.  1.
</event>
<event>
 7    1  0.2700100E-010  0.4778727E+02  0.7816164E-02  0.1312668E+00
        -11   -1    0    0    0    0  0.00000000000E+00  0.00000000000E+00  0.45593999997E+02  0.45594000000E+02  0.51100000000E-03 0.  1.
         11   -1    0    0    0    0 -0.00000000000E+00 -0.00000000000E+00 -0.45593999997E+02  0.45594000000E+02  0.51100000000E-03 0. -1.
    9900012    2    1    2    0    0 -0.75834673152E+01 -0.16168015404E+02 -0.39556410355E+02  0.47787270757E+02  0.19999998690E+02 0.  0.
        -12    1    1    2    0    0  0.75834673152E+01  0.16168015404E+02  0.39556410355E+02  0.43400729243E+02  0.00000000000E+00 0.  1.
         11    1    3    3    0    0  0.37802082407E+00 -0.40653791491E+01 -0.25610928311E+02  0.25934337404E+02  0.51100000000E-03 0. -1.
        -11    1    3    3    0    0 -0.42336244114E+01 -0.16821930937E+01 -0.72716439616E+00  0.46132545542E+01  0.51100000000E-03 0.  1.
         12    1    3    3    0    0 -0.37278637278E+01 -0.10420443162E+02 -0.13218317648E+02  0.17239678799E+02  0.00000000000E+00 0. -1.
</event>
<event>
 7    1  0.2700100E-010  0.4778728E+02  0.7816164E-02  0.1312668E+00
        -11   -1    0    0    0    0  0.00000000000E+00  0.00000000000E+00  0.45593999997E+02  0.45594000000E+02  0.51100000000E-03 0. -1.
         11   -1    0    0    0    0 -0.00000000000E+00 -0.00000000000E+00 -0.45593999997E+02  0.45594000000E+02  0.51100000000E-03 0.  1.
    9900012    2    1    2    0    0 -0.39811173424E+02  0.17271335944E+02 -0.62778066028E+00  0.47787277848E+02  0.20000031022E+02 0.  0.
        -12    1    1    2    0    0  0.39811173424E+02 -0.17271335944E+02  0.62778066028E+00  0.43400722152E+02  0.00000000000E+00 0.  1.
         11    1    3    3    0    0 -0.19450865486E+02  0.48510801428E+01 -0.85538304821E+00  0.20064915328E+02  0.51100000000E-03 0. -1.
        -11    1    3    3    0    0  0.19114865487E+01 -0.40225014662E-01  0.10642238026E+01  0.21881433776E+01  0.51100000000E-03 0.  1.
        -12    1    3    3    0    0 -0.22271794487E+02  0.12460480816E+02 -0.83662141471E+00  0.25534219143E+02  0.00000000000E+00 0.  1.
</event>
<event>
 7    1  0.2700100E-010  0.4778727E+02  0.7816164E-02  0.1312668E+00
        -11   -1    0    0    0    0  0.00000000000E+00  0.00000000000E+00  0.45593999997E+02  0.45594000000E+02  0.51100000000E-03 0.  1.
         11   -1    0    0    0    0 -0.00000000000E+00 -0.00000000000E+00 -0.45593999997E+02  0.45594000000E+02  0.51100000000E-03 0. -1.
    9900012    2    1    2    0    0 -0.19434501483E+01 -0.28542046905E+02 -0.32637368716E+02  0.47787271012E+02  0.19999999852E+02 0.  0.
        -12    1    1    2    0    0  0.19434501483E+01  0.28542046905E+02  0.32637368716E+02  0.43400728988E+02  0.00000000000E+00 0.  1.
         11    1    3    3    0    0 -0.46631885604E+01 -0.14002003636E+02 -0.18294040182E+02  0.23504751431E+02  0.51100000000E-03 0. -1.
        -11    1    3    3    0    0  0.37476642634E+01 -0.11815085205E+02 -0.32513207010E+01  0.12814535200E+02  0.51100000000E-03 0.  1.
        -12    1    3    3    0    0 -0.10279258513E+01 -0.27249580642E+01 -0.11092007833E+02  0.11467984381E+02  0.00000000000E+00 0.  1.
</event>
<event>
 7    1  0.2700100E-010  0.4778727E+02  0.7816164E-02  0.1312668E+00
        -11   -1    0    0    0    0  0.00000000000E+00  0.00000000000E+00  0.45593999997E+02  0.45594000000E+02  0.51100000000E-03 0.  1.
         11   -1    0    0    0    0 -0.00000000000E+00 -0.00000000000E+00 -0.45593999997E+02  0.45594000000E+02  0.51100000000E-03 0. -1.
    9900012    2    1    2    0    0  0.32293226868E+02  0.19527720655E+02 -0.21434534369E+02  0.47787266836E+02  0.19999980814E+02 0.  0.
        -12    1    1    2    0    0 -0.32293226868E+02 -0.19527720655E+02  0.21434534369E+02  0.43400733164E+02  0.00000000000E+00 0.  1.
         11    1    3    3    0    0  0.57769540708E+01  0.56541820546E+01 -0.69002220222E+01  0.10628077778E+02  0.51100000000E-03 0. -1.
        -11    1    3    3    0    0  0.87179678026E+01  0.12308900231E+02 -0.11654904878E+02  0.19061710193E+02  0.51100000000E-03 0.  1.
        -12    1    3    3    0    0  0.17798304995E+02  0.15646383697E+01 -0.28794074685E+01  0.18097478865E+02  0.00000000000E+00 0.  1.
</event>
<event>
 7    1  0.2700100E-010  0.4778727E+02  0.7816164E-02  0.1312668E+00
        -11   -1    0    0    0    0  0.00000000000E+00  0.00000000000E+00  0.45593999997E+02  0.45594000000E+02  0.51100000000E-03 0.  1.
         11   -1    0    0    0    0 -0.00000000000E+00 -0.00000000000E+00 -0.45593999997E+02  0.45594000000E+02  0.51100000000E-03 0. -1.
    9900012    2    1    2    0    0  0.60708822012E+00  0.92493964151E+01 -0.42399332768E+02  0.47787270636E+02  0.19999998140E+02 0.  0.
        -12    1    1    2    0    0 -0.60708822012E+00 -0.92493964151E+01  0.42399332768E+02  0.43400729364E+02  0.00000000000E+00 0.  1.
         11    1    3    3    0    0  0.18875025617E+01  0.38585314847E+01 -0.23456273592E+02  0.23846335194E+02  0.51100000000E-03 0. -1.
        -11    1    3    3    0    0  0.28524655332E+01  0.30077795517E+01  0.26069687839E+00  0.41534636839E+01  0.51100000000E-03 0.  1.
        -12    1    3    3    0    0 -0.41328798749E+01  0.23830853787E+01 -0.19203756054E+02  0.19787471758E+02  0.00000000000E+00 0.  1.
</event>
<event>
 7    1  0.2700100E-010  0.4778727E+02  0.7816164E-02  0.1312668E+00
        -11   -1    0    0    0    0  0.00000000000E+00  0.00000000000E+00  0.45593999997E+02  0.45594000000E+02  0.51100000000E-03 0.  1.
         11   -1    0    0    0    0 -0.00000000000E+00 -0.00000000000E+00 -0.45593999997E+02  0.45594000000E+02  0.51100000000E-03 0. -1.
    9900012    2    1    2    0    0  0.31213740735E+02  0.23549460385E+02 -0.18834772581E+02  0.47787270130E+02  0.19999995830E+02 0.  0.
        -12    1    1    2    0    0 -0.31213740735E+02 -0.23549460385E+02  0.18834772581E+02  0.43400729870E+02  0.00000000000E+00 0.  1.
         11    1    3    3    0    0  0.19425476582E+02  0.41092636991E+01 -0.47139061601E+01  0.20407256066E+02  0.51100000000E-03 0. -1.
        -11    1    3    3    0    0  0.10095185856E+02  0.12859825327E+02 -0.78583187457E+01  0.18139488931E+02  0.51100000000E-03 0.  1.
         12    1    3    3    0    0  0.16930782960E+01  0.65803713583E+01 -0.62625476756E+01  0.92405251321E+01  0.00000000000E+00 0. -1.
</event>
<event>
 7    1  0.2700100E-010  0.4778727E+02  0.7816164E-02  0.1312668E+00
        -11   -1    0    0    0    0  0.00000000000E+00  0.00000000000E+00  0.45593999997E+02  0.45594000000E+02  0.51100000000E-03 0.  1.
         11   -1    0    0    0    0 -0.00000000000E+00 -0.00000000000E+00 -0.45593999997E+02  0.45594000000E+02  0.51100000000E-03 0. -1.
    9900012    2    1    2    0    0  0.10858469487E+02 -0.56519363876E+01 -0.41638594179E+02  0.47787271092E+02  0.20000000215E+02 0.  0.
        -12    1    1    2    0    0 -0.10858469487E+02  0.56519363876E+01  0.41638594179E+02  0.43400728908E+02  0.00000000000E+00 0.  1.
         11    1    3    3    0    0 -0.89977842988E-01 -0.37543489949E+01 -0.22387009385E+02  0.22699811053E+02  0.51100000000E-03 0. -1.
        -11    1    3    3    0    0  0.12718164544E+02 -0.24777879589E+01 -0.19274484617E+02  0.23224919807E+02  0.51100000000E-03 0.  1.
        -12    1    3    3    0    0 -0.17697172133E+01  0.58020056617E+00  0.22899822575E-01  0.18625402315E+01  0.00000000000E+00 0.  1.
</event>
<event>
 7    1  0.2700100E-010  0.4778727E+02  0.7816164E-02  0.1312668E+00
        -11   -1    0    0    0    0  0.00000000000E+00  0.00000000000E+00  0.45593999997E+02  0.45594000000E+02  0.51100000000E-03 0.  1.
         11   -1    0    0    0    0 -0.00000000000E+00 -0.00000000000E+00 -0.45593999997E+02  0.45594000000E+02  0.51100000000E-03 0. -1.
    9900012    2    1    2    0    0  0.10962473770E+02  0.32684646766E+02 -0.26365914191E+02  0.47787269632E+02  0.19999993559E+02 0.  0.
        -12    1    1    2    0    0 -0.10962473770E+02 -0.32684646766E+02  0.26365914191E+02  0.43400730368E+02  0.00000000000E+00 0.  1.
         11    1    3    3    0    0  0.14542148545E+02  0.14840227224E+02 -0.12462664818E+02  0.24228587309E+02  0.51100000000E-03 0. -1.
        -11    1    3    3    0    0 -0.24769700696E+01  0.10866035172E+02 -0.50596387891E+01  0.12239528015E+02  0.51100000000E-03 0.  1.
         12    1    3    3    0    0 -0.11027047056E+01  0.69783843705E+01 -0.88436105837E+01  0.11319154308E+02  0.00000000000E+00 0. -1.
</event>
<event>
 7    1  0.2700100E-010  0.4778727E+02  0.7816164E-02  0.1312668E+00
        -11   -1    0    0    0    0  0.00000000000E+00  0.00000000000E+00  0.45593999997E+02  0.45594000000E+02  0.51100000000E-03 0. -1.
         11   -1    0    0    0    0 -0.00000000000E+00 -0.00000000000E+00 -0.45593999997E+02  0.45594000000E+02  0.51100000000E-03 0.  1.
    9900012    2    1    2    0    0  0.62107549478E+01  0.42826215766E+02 -0.33113621623E+01  0.47787270130E+02  0.19999995830E+02 0.  0.
        -12    1    1    2    0    0 -0.62107549478E+01 -0.42826215766E+02  0.33113621623E+01  0.43400729870E+02  0.00000000000E+00 0.  1.
         11    1    3    3    0    0  0.77598749148E+01  0.34481818895E+02  0.89186179350E+00  0.35355436792E+02  0.51100000000E-03 0. -1.
        -11    1    3    3    0    0  0.29289101236E+01  0.41182558390E+01 -0.14163506946E+00  0.50555520393E+01  0.51100000000E-03 0.  1.
         12    1    3    3    0    0 -0.44780300906E+01  0.42261410324E+01 -0.40615888863E+01  0.73762812988E+01  0.00000000000E+00 0. -1.
</event>
<event>
 7    1  0.2700100E-010  0.4778728E+02  0.7816164E-02  0.1312668E+00
        -11   -1    0    0    0    0  0.00000000000E+00  0.00000000000E+00  0.45593999997E+02  0.45594000000E+02  0.51100000000E-03 0.  1.
         11   -1    0    0    0    0 -0.00000000000E+00 -0.00000000000E+00 -0.45593999997E+02  0.45594000000E+02  0.51100000000E-03 0. -1.
    9900012    2    1    2    0    0  0.41279074611E+02  0.16519559530E+01 -0.13301546371E+02  0.47787284625E+02  0.20000061919E+02 0.  0.
        -12    1    1    2    0    0 -0.41279074611E+02 -0.16519559530E+01  0.13301546371E+02  0.43400715375E+02  0.00000000000E+00 0.  1.
         11    1    3    3    0    0  0.19496717794E+02 -0.66601693504E+01 -0.56374554601E+01  0.21360261348E+02  0.51100000000E-03 0. -1.
        -11    1    3    3    0    0  0.18908019050E+02  0.74637802824E+01 -0.99742819127E+01  0.22643045300E+02  0.51100000000E-03 0.  1.
        -12    1    3    3    0    0  0.28743377663E+01  0.84834502109E+00  0.23101910014E+01  0.37839779773E+01  0.00000000000E+00 0.  1.
</event>
<event>
 7    1  0.2700100E-010  0.4778726E+02  0.7816164E-02  0.1312668E+00
        -11   -1    0    0    0    0  0.00000000000E+00  0.00000000000E+00  0.45593999997E+02  0.45594000000E+02  0.51100000000E-03 0.  1.
         11   -1    0    0    0    0 -0.00000000000E+00 -0.00000000000E+00 -0.45593999997E+02  0.45594000000E+02  0.51100000000E-03 0. -1.
    9900012    2    1    2    0    0 -0.27813046823E+02  0.30454947502E+02 -0.13511276393E+02  0.47787262786E+02  0.19999962347E+02 0.  0.
        -12    1    1    2    0    0  0.27813046823E+02 -0.30454947502E+02  0.13511276393E+02  0.43400737214E+02  0.00000000000E+00 0.  1.
         11    1    3    3    0    0 -0.25558696977E+02  0.18910244265E+02 -0.60642237326E+01  0.32366945161E+02  0.51100000000E-03 0. -1.
        -11    1    3    3    0    0 -0.13169139697E+01  0.98320474388E+01 -0.26898847684E+01  0.10278078593E+02  0.51100000000E-03 0.  1.
        -12    1    3    3    0    0 -0.93743587626E+00  0.17126557986E+01 -0.47571678925E+01  0.51422390321E+01  0.00000000000E+00 0.  1.
</event>
<event>
 7    1  0.2700100E-010  0.4778726E+02  0.7816164E-02  0.1312668E+00
        -11   -1    0    0    0    0  0.00000000000E+00  0.00000000000E+00  0.45593999997E+02  0.45594000000E+02  0.51100000000E-03 0. -1.
         11   -1    0    0    0    0 -0.00000000000E+00 -0.00000000000E+00 -0.45593999997E+02  0.45594000000E+02  0.51100000000E-03 0.  1.
    9900012    2    1    2    0    0 -0.78626466037E+01  0.27962146015E+02  0.32247808897E+02  0.47787262679E+02  0.19999961856E+02 0.  0.
        -12    1    1    2    0    0  0.78626466037E+01 -0.27962146015E+02 -0.32247808897E+02  0.43400737321E+02  0.00000000000E+00 0.  1.
         11    1    3    3    0    0 -0.31020891679E+01  0.15916963517E+02  0.16774827126E+02  0.23331684683E+02  0.51100000000E-03 0. -1.
        -11    1    3    3    0    0  0.30165591866E+00 -0.29285306207E+01  0.12725811977E+01  0.32072965337E+01  0.51100000000E-03 0.  1.
        -12    1    3    3    0    0 -0.50622133544E+01  0.14973713119E+02  0.14200400574E+02  0.21248281462E+02  0.00000000000E+00 0.  1.
</event>
<event>
 7    1  0.2700100E-010  0.4778730E+02  0.7816164E-02  0.1312668E+00
        -11   -1    0    0    0    0  0.00000000000E+00  0.00000000000E+00  0.45593999997E+02  0.45594000000E+02  0.51100000000E-03 0.  1.
         11   -1    0    0    0    0 -0.00000000000E+00 -0.00000000000E+00 -0.45593999997E+02  0.45594000000E+02  0.51100000000E-03 0. -1.
    9900012    2    1    2    0    0 -0.71678875464E+00  0.31474138861E+02 -0.29874493422E+02  0.47787302305E+02  0.20000142530E+02 0.  0.
        -12    1    1    2    0    0  0.71678875464E+00 -0.31474138861E+02  0.29874493422E+02  0.43400697695E+02  0.00000000000E+00 0.  1.
         11    1    3    3    0    0  0.23660327818E+01  0.21794097650E+02 -0.19959978968E+02  0.29647623246E+02  0.51100000000E-03 0. -1.
        -11    1    3    3    0    0 -0.11539562928E+01  0.24307671596E+01  0.24751406604E+01  0.36560314085E+01  0.51100000000E-03 0.  1.
        -12    1    3    3    0    0 -0.19288652437E+01  0.72492740521E+01 -0.12389655115E+02  0.14483647651E+02  0.00000000000E+00 0.  1.
</event>
<event>
 7    1  0.2700100E-010  0.4778727E+02  0.7816164E-02  0.1312668E+00
        -11   -1    0    0    0    0  0.00000000000E+00  0.00000000000E+00  0.45593999997E+02  0.45594000000E+02  0.51100000000E-03 0.  1.
         11   -1    0    0    0    0 -0.00000000000E+00 -0.00000000000E+00 -0.45593999997E+02  0.45594000000E+02  0.51100000000E-03 0. -1.
    9900012    2    1    2    0    0 -0.41950083317E+02  0.89257262390E+01 -0.66441794262E+01  0.47787271902E+02  0.20000003908E+02 0.  0.
        -12    1    1    2    0    0  0.41950083317E+02 -0.89257262390E+01  0.66441794262E+01  0.43400728098E+02  0.00000000000E+00 0.  1.
         11    1    3    3    0    0 -0.17784221180E+02  0.85028970953E+01  0.41445467231E+01  0.20143362425E+02  0.51100000000E-03 0. -1.
        -11    1    3    3    0    0 -0.23933411761E+02 -0.44233012320E+00 -0.88730175780E+01  0.25529087247E+02  0.51100000000E-03 0.  1.
        -12    1    3    3    0    0 -0.23245037710E+00  0.86515926683E+00 -0.19157085713E+01  0.21148222301E+01  0.00000000000E+00 0.  1.
</event>
<event>
 7    1  0.2700100E-010  0.4778728E+02  0.7816164E-02  0.1312668E+00
        -11   -1    0    0    0    0  0.00000000000E+00  0.00000000000E+00  0.45593999997E+02  0.45594000000E+02  0.51100000000E-03 0.  1.
         11   -1    0    0    0    0 -0.00000000000E+00 -0.00000000000E+00 -0.45593999997E+02  0.45594000000E+02  0.51100000000E-03 0. -1.
    9900012    2    1    2    0    0 -0.10672964160E+02 -0.26746281324E+02 -0.32470712568E+02  0.47787275313E+02  0.20000019464E+02 0.  0.
        -12    1    1    2    0    0  0.10672964160E+02  0.26746281324E+02  0.32470712568E+02  0.43400724687E+02  0.00000000000E+00 0.  1.
         11    1    3    3    0    0 -0.49072734881E+01 -0.91700690733E+01 -0.26154079793E+02  0.28146178958E+02  0.51100000000E-03 0. -1.
        -11    1    3    3    0    0 -0.56000540086E+01 -0.14941733993E+02 -0.55002541033E+01  0.16878057207E+02  0.51100000000E-03 0.  1.
         12    1    3    3    0    0 -0.16563666293E+00 -0.26344782586E+01 -0.81637867211E+00  0.27630391483E+01  0.00000000000E+00 0. -1.
</event>
<event>
 7    1  0.2700100E-010  0.4778727E+02  0.7816164E-02  0.1312668E+00
        -11   -1    0    0    0    0  0.00000000000E+00  0.00000000000E+00  0.45593999997E+02  0.45594000000E+02  0.51100000000E-03 0.  1.
         11   -1    0    0    0    0 -0.00000000000E+00 -0.00000000000E+00 -0.45593999997E+02  0.45594000000E+02  0.51100000000E-03 0. -1.
    9900012    2    1    2    0    0 -0.72192609171E+01  0.42692348854E+02  0.29780645987E+01  0.47787271347E+02  0.20000001379E+02 0.  0.
        -12    1    1    2    0    0  0.72192609171E+01 -0.42692348854E+02 -0.29780645987E+01  0.43400728653E+02  0.00000000000E+00 0.  1.
         11    1    3    3    0    0 -0.61093273293E+01  0.30079895495E+02  0.76487505679E+01  0.31632694778E+02  0.51100000000E-03 0. -1.
        -11    1    3    3    0    0 -0.42244209860E+01  0.86908222899E+01 -0.54380422471E+01  0.11088211239E+02  0.51100000000E-03 0.  1.
         12    1    3    3    0    0  0.31144873982E+01  0.39216310688E+01  0.76735627797E+00  0.50663653294E+01  0.00000000000E+00 0. -1.
</event>
<event>
 7    1  0.2700100E-010  0.4778727E+02  0.7816164E-02  0.1312668E+00
        -11   -1    0    0    0    0  0.00000000000E+00  0.00000000000E+00  0.45593999997E+02  0.45594000000E+02  0.51100000000E-03 0.  1.
         11   -1    0    0    0    0 -0.00000000000E+00 -0.00000000000E+00 -0.45593999997E+02  0.45594000000E+02  0.51100000000E-03 0. -1.
    9900012    2    1    2    0    0 -0.14768579304E+02  0.31174413023E+02 -0.26337582323E+02  0.47787271843E+02  0.20000003639E+02 0.  0.
        -12    1    1    2    0    0  0.14768579304E+02 -0.31174413023E+02  0.26337582323E+02  0.43400728157E+02  0.00000000000E+00 0.  1.
         11    1    3    3    0    0 -0.74067697599E+01  0.75772318009E+01 -0.67096088383E+01  0.12541671781E+02  0.51100000000E-03 0. -1.
        -11    1    3    3    0    0  0.48867728483E+01  0.64165847862E+01 -0.68220238116E+01  0.10563764402E+02  0.51100000000E-03 0.  1.
        -12    1    3    3    0    0 -0.12248582392E+02  0.17180596436E+02 -0.12805949673E+02  0.24681835660E+02  0.00000000000E+00 0.  1.
</event>
<event>
 7    1  0.2700100E-010  0.4778727E+02  0.7816164E-02  0.1312668E+00
        -11   -1    0    0    0    0  0.00000000000E+00  0.00000000000E+00  0.45593999997E+02  0.45594000000E+02  0.51100000000E-03 0.  1.
         11   -1    0    0    0    0 -0.00000000000E+00 -0.00000000000E+00 -0.45593999997E+02  0.45594000000E+02  0.51100000000E-03 0. -1.
    9900012    2    1    2    0    0 -0.37845641494E+02  0.95068529951E+01 -0.18998694705E+02  0.47787271498E+02  0.20000002068E+02 0.  0.
        -12    1    1    2    0    0  0.37845641494E+02 -0.95068529951E+01  0.18998694705E+02  0.43400728502E+02  0.00000000000E+00 0.  1.
         11    1    3    3    0    0 -0.26291592453E+02  0.27985990429E+01 -0.47659425438E+01  0.26866227851E+02  0.51100000000E-03 0. -1.
        -11    1    3    3    0    0  0.98527022383E+00  0.98826514641E+00 -0.23025429338E+01  0.26924207763E+01  0.51100000000E-03 0.  1.
         12    1    3    3    0    0 -0.12539319265E+02  0.57199888058E+01 -0.11930209227E+02  0.18228622871E+02  0.00000000000E+00 0. -1.
</event>
<event>
 7    1  0.2700100E-010  0.4778727E+02  0.7816164E-02  0.1312668E+00
        -11   -1    0    0    0    0  0.00000000000E+00  0.00000000000E+00  0.45593999997E+02  0.45594000000E+02  0.51100000000E-03 0.  1.
         11   -1    0    0    0    0 -0.00000000000E+00 -0.00000000000E+00 -0.45593999997E+02  0.45594000000E+02  0.51100000000E-03 0. -1.
    9900012    2    1    2    0    0 -0.19959518518E+02 -0.27106220162E+02 -0.27395139722E+02  0.47787271535E+02  0.20000002235E+02 0.  0.
        -12    1    1    2    0    0  0.19959518518E+02  0.27106220162E+02  0.27395139722E+02  0.43400728465E+02  0.00000000000E+00 0.  1.
         11    1    3    3    0    0 -0.16112644874E+02 -0.26786910244E+02 -0.21182211051E+02  0.37760322436E+02  0.51100000000E-03 0. -1.
        -11    1    3    3    0    0  0.12429291527E+01 -0.60894378249E+00  0.60769661203E+00  0.15116153089E+01  0.51100000000E-03 0.  1.
         12    1    3    3    0    0 -0.50898027972E+01  0.28963386461E+00 -0.68206252831E+01  0.85153337893E+01  0.00000000000E+00 0. -1.
</event>
<event>
 7    1  0.2700100E-010  0.4778726E+02  0.7816164E-02  0.1312668E+00
        -11   -1    0    0    0    0  0.00000000000E+00  0.00000000000E+00  0.45593999997E+02  0.45594000000E+02  0.51100000000E-03 0.  1.
         11   -1    0    0    0    0 -0.00000000000E+00 -0.00000000000E+00 -0.45593999997E+02  0.45594000000E+02  0.51100000000E-03 0. -1.
    9900012    2    1    2    0    0 -0.13530203839E+02 -0.12902634996E+02 -0.39167331385E+02  0.47787259758E+02  0.19999948538E+02 0.  0.
        -12    1    1    2    0    0  0.13530203839E+02  0.12902634996E+02  0.39167331385E+02  0.43400740242E+02  0.00000000000E+00 0.  1.
         11    1    3    3    0    0 -0.12828341877E+02 -0.23610402926E+01 -0.25791104866E+02  0.28901936908E+02  0.51100000000E-03 0. -1.
        -11    1    3    3    0    0 -0.36502365591E+01 -0.79180178485E+01 -0.62105632538E+01  0.10704687281E+02  0.51100000000E-03 0.  1.
         12    1    3    3    0    0  0.29483745969E+01 -0.26235768553E+01 -0.71656632650E+01  0.81806355686E+01  0.00000000000E+00 0. -1.
</event>
<event>
 7    1  0.2700100E-010  0.4778727E+02  0.7816164E-02  0.1312668E+00
        -11   -1    0    0    0    0  0.00000000000E+00  0.00000000000E+00  0.45593999997E+02  0.45594000000E+02  0.51100000000E-03 0.  1.
         11   -1    0    0    0    0 -0.00000000000E+00 -0.00000000000E+00 -0.45593999997E+02  0.45594000000E+02  0.51100000000E-03 0. -1.
    9900012    2    1    2    0    0  0.29867263169E+02  0.31108561399E+02 -0.48813276584E+01  0.47787270038E+02  0.19999995412E+02 0.  0.
        -12    1    1    2    0    0 -0.29867263169E+02 -0.31108561399E+02  0.48813276584E+01  0.43400729962E+02  0.00000000000E+00 0.  1.
         11    1    3    3    0    0  0.10794137771E+02  0.21771155464E+02  0.74363842285E+00  0.24311512064E+02  0.51100000000E-03 0. -1.
        -11    1    3    3    0    0  0.11331231066E+02  0.59150953656E+01 -0.74804327810E+01  0.14810200050E+02  0.51100000000E-03 0.  1.
        -12    1    3    3    0    0  0.77418943315E+01  0.34223105694E+01  0.18554666997E+01  0.86655579247E+01  0.00000000000E+00 0.  1.
</event>
<event>
 7    1  0.2700100E-010  0.4778727E+02  0.7816164E-02  0.1312668E+00
        -11   -1    0    0    0    0  0.00000000000E+00  0.00000000000E+00  0.45593999997E+02  0.45594000000E+02  0.51100000000E-03 0.  1.
         11   -1    0    0    0    0 -0.00000000000E+00 -0.00000000000E+00 -0.45593999997E+02  0.45594000000E+02  0.51100000000E-03 0. -1.
    9900012    2    1    2    0    0  0.31719218420E+02 -0.10258564484E+02 -0.27789860418E+02  0.47787270691E+02  0.19999998390E+02 0.  0.
        -12    1    1    2    0    0 -0.31719218420E+02  0.10258564484E+02  0.27789860418E+02  0.43400729309E+02  0.00000000000E+00 0.  1.
         11    1    3    3    0    0  0.16910516174E+02 -0.47086446312E+01 -0.11901733785E+02  0.21208209705E+02  0.51100000000E-03 0. -1.
        -11    1    3    3    0    0 -0.62756536646E+00 -0.43016762210E+01 -0.82182047818E+01  0.92971579902E+01  0.51100000000E-03 0.  1.
        -12    1    3    3    0    0  0.15436267612E+02 -0.12482436322E+01 -0.76699218515E+01  0.17281902996E+02  0.00000000000E+00 0.  1.
</event>
<event>
 7    1  0.2700100E-010  0.4778727E+02  0.7816164E-02  0.1312668E+00
        -11   -1    0    0    0    0  0.00000000000E+00  0.00000000000E+00  0.45593999997E+02  0.45594000000E+02  0.51100000000E-03 0.  1.
         11   -1    0    0    0    0 -0.00000000000E+00 -0.00000000000E+00 -0.45593999997E+02  0.45594000000E+02  0.51100000000E-03 0. -1.
    9900012    2    1    2    0    0  0.92396994364E+01  0.13150888626E+02 -0.40315081911E+02  0.47787265596E+02  0.19999975159E+02 0.  0.
        -12    1    1    2    0    0 -0.92396994364E+01 -0.13150888626E+02  0.40315081911E+02  0.43400734404E+02  0.00000000000E+00 0.  1.
         11    1    3    3    0    0 -0.15204827811E+01 -0.35586897984E+01 -0.68042442149E+01  0.78277634459E+01  0.51100000000E-03 0. -1.
        -11    1    3    3    0    0  0.47160903148E+01  0.14619374966E+02 -0.24207641352E+02  0.28670150546E+02  0.51100000000E-03 0.  1.
         12    1    3    3    0    0  0.60440919027E+01  0.20902034588E+01 -0.93031963436E+01  0.11289351604E+02  0.00000000000E+00 0. -1.
</event>
<event>
 7    1  0.2700100E-010  0.4778726E+02  0.7816164E-02  0.1312668E+00
        -11   -1    0    0    0    0  0.00000000000E+00  0.00000000000E+00  0.45593999997E+02  0.45594000000E+02  0.51100000000E-03 0. -1.
         11   -1    0    0    0    0 -0.00000000000E+00 -0.00000000000E+00 -0.45593999997E+02  0.45594000000E+02  0.51100000000E-03 0.  1.
    9900012    2    1    2    0    0 -0.22797663239E+02 -0.14253914971E+02  0.34069292035E+02  0.47787260364E+02  0.19999951302E+02 0.  0.
        -12    1    1    2    0    0  0.22797663239E+02  0.14253914971E+02 -0.34069292035E+02  0.43400739636E+02  0.00000000000E+00 0.  1.
         11    1    3    3    0    0 -0.26751620046E+01  0.13215472442E+01  0.35155320545E+00  0.30044248679E+01  0.51100000000E-03 0. -1.
        -11    1    3    3    0    0 -0.21129852757E+02 -0.15720397257E+02  0.34567473167E+02  0.43457010583E+02  0.51100000000E-03 0.  1.
        -12    1    3    3    0    0  0.10073515219E+01  0.14493504180E+00 -0.84973433688E+00  0.13258249123E+01  0.00000000000E+00 0.  1.
</event>
<event>
 7    1  0.2700100E-010  0.4778727E+02  0.7816164E-02  0.1312668E+00
        -11   -1    0    0    0    0  0.00000000000E+00  0.00000000000E+00  0.45593999997E+02  0.45594000000E+02  0.51100000000E-03 0.  1.
         11   -1    0    0    0    0 -0.00000000000E+00 -0.00000000000E+00 -0.45593999997E+02  0.45594000000E+02  0.51100000000E-03 0. -1.
    9900012    2    1    2    0    0 -0.18030164163E+02 -0.33470850503E+02 -0.20934144728E+02  0.47787273409E+02  0.20000010779E+02 0.  0.
        -12    1    1    2    0    0  0.18030164163E+02  0.33470850503E+02  0.20934144728E+02  0.43400726591E+02  0.00000000000E+00 0.  1.
         11    1    3    3    0    0 -0.12648084671E+02 -0.30014625452E+02 -0.10712976939E+02  0.34287310510E+02  0.51100000000E-03 0. -1.
        -11    1    3    3    0    0 -0.37078619795E+01 -0.38088736273E+01 -0.30520341960E+01  0.61294919661E+01  0.51100000000E-03 0.  1.
         12    1    3    3    0    0 -0.16742175127E+01  0.35264857552E+00 -0.71691335926E+01  0.73704709324E+01  0.00000000000E+00 0. -1.
</event>
<event>
 7    1  0.2700100E-010  0.4778727E+02  0.7816164E-02  0.1312668E+00
        -11   -1    0    0    0    0  0.00000000000E+00  0.00000000000E+00  0.45593999997E+02  0.45594000000E+02  0.51100000000E-03 0.  1.
         11   -1    0    0    0    0 -0.00000000000E+00 -0.00000000000E+00 -0.45593999997E+02  0.45594000000E+02  0.51100000000E-03 0. -1.
    9900012    2    1    2    0    0  0.35569326598E+02 -0.11812474398E+02 -0.21884050979E+02  0.47787271512E+02  0.20000002132E+02 0.  0.
        -12    1    1    2    0    0 -0.35569326598E+02  0.11812474398E+02  0.21884050979E+02  0.43400728488E+02  0.00000000000E+00 0.  1.
         11    1    3    3    0    0  0.20734086823E+02 -0.19440201666E+01 -0.68336984950E+01  0.21917595812E+02  0.51100000000E-03 0. -1.
        -11    1    3    3    0    0  0.73991828522E+01 -0.25760853652E+01 -0.13113964363E+02  0.15276131195E+02  0.51100000000E-03 0.  1.
        -12    1    3    3    0    0  0.74360569230E+01 -0.72923688660E+01 -0.19363881203E+01  0.10593544506E+02  0.00000000000E+00 0.  1.
</event>
<event>
 7    1  0.2700100E-010  0.4778727E+02  0.7816164E-02  0.1312668E+00
        -11   -1    0    0    0    0  0.00000000000E+00  0.00000000000E+00  0.45593999997E+02  0.45594000000E+02  0.51100000000E-03 0.  1.
         11   -1    0    0    0    0 -0.00000000000E+00 -0.00000000000E+00 -0.45593999997E+02  0.45594000000E+02  0.51100000000E-03 0. -1.
    9900012    2    1    2    0    0  0.38956177401E+02  0.82849074587E+01 -0.17245279892E+02  0.47787272727E+02  0.20000007671E+02 0.  0.
        -12    1    1    2    0    0 -0.38956177401E+02 -0.82849074587E+01  0.17245279892E+02  0.43400727273E+02  0.00000000000E+00 0.  1.
         11    1    3    3    0    0  0.21998654944E+01 -0.51147880989E+00  0.34696867472E+01  0.41400175303E+01  0.51100000000E-03 0.  1.
        -11    1    3    3    0    0  0.21597535343E+02  0.27509863554E+01 -0.90041524997E+01  0.23560480074E+02  0.51100000000E-03 0. -1.
        -12    1    3    3    0    0  0.15158776564E+02  0.60453999132E+01 -0.11710814140E+02  0.20086775123E+02  0.00000000000E+00 0.  1.
</event>
<event>
 7    1  0.2700100E-010  0.4778727E+02  0.7816164E-02  0.1312668E+00
        -11   -1    0    0    0    0  0.00000000000E+00  0.00000000000E+00  0.45593999997E+02  0.45594000000E+02  0.51100000000E-03 0.  1.
         11   -1    0    0    0    0 -0.00000000000E+00 -0.00000000000E+00 -0.45593999997E+02  0.45594000000E+02  0.51100000000E-03 0. -1.
    9900012    2    1    2    0    0  0.30077721518E+02 -0.15040887804E+02 -0.27435849591E+02  0.47787268665E+02  0.19999989151E+02 0.  0.
        -12    1    1    2    0    0 -0.30077721518E+02  0.15040887804E+02  0.27435849591E+02  0.43400731335E+02  0.00000000000E+00 0.  1.
         11    1    3    3    0    0  0.16496962947E+02 -0.12205898118E+02 -0.20556252015E+02  0.29046397927E+02  0.51100000000E-03 0. -1.
        -11    1    3    3    0    0  0.13949336893E+02 -0.15472973158E+01 -0.26221946184E+01  0.14277746097E+02  0.51100000000E-03 0.  1.
         12    1    3    3    0    0 -0.36857832253E+00 -0.12876923704E+01 -0.42574029572E+01  0.44631246410E+01  0.00000000000E+00 0. -1.
</event>
<event>
 7    1  0.2700100E-010  0.4778728E+02  0.7816164E-02  0.1312668E+00
        -11   -1    0    0    0    0  0.00000000000E+00  0.00000000000E+00  0.45593999997E+02  0.45594000000E+02  0.51100000000E-03 0.  1.
         11   -1    0    0    0    0 -0.00000000000E+00 -0.00000000000E+00 -0.45593999997E+02  0.45594000000E+02  0.51100000000E-03 0. -1.
    9900012    2    1    2    0    0 -0.43373032241E+01  0.74912350439E+01 -0.42528718224E+02  0.47787277938E+02  0.20000031431E+02 0.  0.
        -12    1    1    2    0    0  0.43373032241E+01 -0.74912350439E+01  0.42528718224E+02  0.43400722062E+02  0.00000000000E+00 0.  1.
         11    1    3    3    0    0 -0.31998555411E+01  0.20686291838E+01 -0.11341613286E+02  0.11964551575E+02  0.51100000000E-03 0. -1.
        -11    1    3    3    0    0  0.13905331371E+01  0.11148730144E+02 -0.22049018774E+02  0.24746454198E+02  0.51100000000E-03 0.  1.
        -12    1    3    3    0    0 -0.25279808202E+01 -0.57261242840E+01 -0.91380861636E+01  0.11076272165E+02  0.00000000000E+00 0.  1.
</event>
<event>
 7    1  0.2700100E-010  0.4778727E+02  0.7816164E-02  0.1312668E+00
        -11   -1    0    0    0    0  0.00000000000E+00  0.00000000000E+00  0.45593999997E+02  0.45594000000E+02  0.51100000000E-03 0.  1.
         11   -1    0    0    0    0 -0.00000000000E+00 -0.00000000000E+00 -0.45593999997E+02  0.45594000000E+02  0.51100000000E-03 0. -1.
    9900012    2    1    2    0    0  0.17033641134E+02 -0.17867584090E+02 -0.35696328368E+02  0.47787270162E+02  0.19999995978E+02 0.  0.
        -12    1    1    2    0    0 -0.17033641134E+02  0.17867584090E+02  0.35696328368E+02  0.43400729838E+02  0.00000000000E+00 0.  1.
         11    1    3    3    0    0  0.76957640174E+01 -0.95785448340E+01 -0.12799286407E+02  0.17742464252E+02  0.51100000000E-03 0. -1.
        -11    1    3    3    0    0  0.16635069659E+01 -0.38714837703E+01 -0.20419521824E+02  0.20849760521E+02  0.51100000000E-03 0.  1.
        -12    1    3    3    0    0  0.76743701507E+01 -0.44175554862E+01 -0.24775201370E+01  0.91950453894E+01  0.00000000000E+00 0.  1.
</event>
<event>
 7    1  0.2700100E-010  0.4778725E+02  0.7816164E-02  0.1312668E+00
        -11   -1    0    0    0    0  0.00000000000E+00  0.00000000000E+00  0.45593999997E+02  0.45594000000E+02  0.51100000000E-03 0.  1.
         11   -1    0    0    0    0 -0.00000000000E+00 -0.00000000000E+00 -0.45593999997E+02  0.45594000000E+02  0.51100000000E-03 0. -1.
    9900012    2    1    2    0    0 -0.43129962575E+02  0.16650452703E+01 -0.45452016120E+01  0.47787252251E+02  0.19999914312E+02 0.  0.
        -12    1    1    2    0    0  0.43129962575E+02 -0.16650452703E+01  0.45452016120E+01  0.43400747749E+02  0.00000000000E+00 0.  1.
         11    1    3    3    0    0 -0.14003574905E+02 -0.70330434696E+00 -0.12416567231E+01  0.14076095297E+02  0.51100000000E-03 0. -1.
        -11    1    3    3    0    0 -0.59155136405E+01 -0.64087847079E+01 -0.45833062071E+00  0.87336069457E+01  0.51100000000E-03 0.  1.
        -12    1    3    3    0    0 -0.23210874030E+02  0.87771343252E+01 -0.28452142681E+01  0.24977550009E+02  0.00000000000E+00 0.  1.
</event>
<event>
 7    1  0.2700100E-010  0.4778728E+02  0.7816164E-02  0.1312668E+00
        -11   -1    0    0    0    0  0.00000000000E+00  0.00000000000E+00  0.45593999997E+02  0.45594000000E+02  0.51100000000E-03 0. -1.
         11   -1    0    0    0    0 -0.00000000000E+00 -0.00000000000E+00 -0.45593999997E+02  0.45594000000E+02  0.51100000000E-03 0.  1.
    9900012    2    1    2    0    0 -0.15428025521E+02 -0.14477125851E+02  0.37894746063E+02  0.47787275080E+02  0.20000018400E+02 0.  0.
        -12    1    1    2    0    0  0.15428025521E+02  0.14477125851E+02 -0.37894746063E+02  0.43400724920E+02  0.00000000000E+00 0.  1.
         11    1    3    3    0    0 -0.48226826323E+01 -0.75368069239E+01  0.28357265435E+02  0.29735437269E+02  0.51100000000E-03 0. -1.
        -11    1    3    3    0    0 -0.56540981160E+01 -0.77291000328E+01  0.34811534172E+01  0.10189516289E+02  0.51100000000E-03 0.  1.
        -12    1    3    3    0    0 -0.49512447730E+01  0.78878110536E+00  0.60563272108E+01  0.78623215222E+01  0.00000000000E+00 0.  1.
</event>
<event>
 7    1  0.2700100E-010  0.4778727E+02  0.7816164E-02  0.1312668E+00
        -11   -1    0    0    0    0  0.00000000000E+00  0.00000000000E+00  0.45593999997E+02  0.45594000000E+02  0.51100000000E-03 0. -1.
         11   -1    0    0    0    0 -0.00000000000E+00 -0.00000000000E+00 -0.45593999997E+02  0.45594000000E+02  0.51100000000E-03 0.  1.
    9900012    2    1    2    0    0 -0.36116406834E+02 -0.22165389238E+02  0.93767854618E+01  0.47787269266E+02  0.19999991890E+02 0.  0.
        -12    1    1    2    0    0  0.36116406834E+02  0.22165389238E+02 -0.93767854618E+01  0.43400730734E+02  0.00000000000E+00 0.  1.
         11    1    3    3    0    0 -0.17592221733E+02 -0.10055935085E+02  0.12086582768E+02  0.23594354817E+02  0.51100000000E-03 0. -1.
        -11    1    3    3    0    0 -0.19405613879E+02 -0.10733856221E+02 -0.33695873386E+01  0.22430952688E+02  0.51100000000E-03 0.  1.
        -12    1    3    3    0    0  0.88142877812E+00 -0.13755979319E+01  0.65979003231E+00  0.17619617612E+01  0.00000000000E+00 0.  1.
</event>
<event>
 7    1  0.2700100E-010  0.4778727E+02  0.7816164E-02  0.1312668E+00
        -11   -1    0    0    0    0  0.00000000000E+00  0.00000000000E+00  0.45593999997E+02  0.45594000000E+02  0.51100000000E-03 0. -1.
         11   -1    0    0    0    0 -0.00000000000E+00 -0.00000000000E+00 -0.45593999997E+02  0.45594000000E+02  0.51100000000E-03 0.  1.
    9900012    2    1    2    0    0 -0.27724347706E+02 -0.32844791664E+02 -0.60169443766E+01  0.47787269420E+02  0.19999992596E+02 0.  0.
        -12    1    1    2    0    0  0.27724347706E+02  0.32844791664E+02  0.60169443766E+01  0.43400730580E+02  0.00000000000E+00 0.  1.
         11    1    3    3    0    0 -0.14605522891E+02 -0.23492775603E+02 -0.74701913708E+01  0.28653718150E+02  0.51100000000E-03 0. -1.
        -11    1    3    3    0    0 -0.92620809391E+01 -0.69799038768E+01  0.57027791285E+01  0.12923888405E+02  0.51100000000E-03 0.  1.
         12    1    3    3    0    0 -0.38567438763E+01 -0.23721121845E+01 -0.42495321343E+01  0.62096628655E+01  0.00000000000E+00 0. -1.
</event>
<event>
 7    1  0.2700100E-010  0.4778727E+02  0.7816164E-02  0.1312668E+00
        -11   -1    0    0    0    0  0.00000000000E+00  0.00000000000E+00  0.45593999997E+02  0.45594000000E+02  0.51100000000E-03 0. -1.
         11   -1    0    0    0    0 -0.00000000000E+00 -0.00000000000E+00 -0.45593999997E+02  0.45594000000E+02  0.51100000000E-03 0.  1.
    9900012    2    1    2    0    0 -0.39608507889E+02  0.17642390027E+02 -0.18802141092E+01  0.47787273876E+02  0.20000012908E+02 0.  0.
        -12    1    1    2    0    0  0.39608507889E+02 -0.17642390027E+02  0.18802141092E+01  0.43400726124E+02  0.00000000000E+00 0.  1.
         11    1    3    3    0    0 -0.12730069373E+02  0.12733885635E+02  0.41487840858E+01  0.18477524706E+02  0.51100000000E-03 0. -1.
        -11    1    3    3    0    0 -0.24668026680E+02  0.60938976697E+01 -0.73816183642E+01  0.26460072166E+02  0.51100000000E-03 0.  1.
         12    1    3    3    0    0 -0.22104118351E+01 -0.11853932772E+01  0.13526201692E+01  0.28496770035E+01  0.00000000000E+00 0. -1.
</event>
<event>
 7    1  0.2700100E-010  0.4778727E+02  0.7816164E-02  0.1312668E+00
        -11   -1    0    0    0    0  0.00000000000E+00  0.00000000000E+00  0.45593999997E+02  0.45594000000E+02  0.51100000000E-03 0.  1.
         11   -1    0    0    0    0 -0.00000000000E+00 -0.00000000000E+00 -0.45593999997E+02  0.45594000000E+02  0.51100000000E-03 0. -1.
    9900012    2    1    2    0    0 -0.20341800639E+02 -0.36705128556E+02 -0.11071052858E+02  0.47787268129E+02  0.19999986706E+02 0.  0.
        -12    1    1    2    0    0  0.20341800639E+02  0.36705128556E+02  0.11071052858E+02  0.43400731871E+02  0.00000000000E+00 0.  1.
         11    1    3    3    0    0 -0.45852620198E+01 -0.18539577694E+01 -0.14844767736E+00  0.49481131934E+01  0.51100000000E-03 0. -1.
        -11    1    3    3    0    0 -0.17199033373E+02 -0.22086140897E+02 -0.10766214876E+02  0.29991928109E+02  0.51100000000E-03 0.  1.
        -12    1    3    3    0    0  0.14424947528E+01 -0.12765029890E+02 -0.15639030445E+00  0.12847226827E+02  0.00000000000E+00 0.  1.
</event>
<event>
 7    1  0.2700100E-010  0.4778727E+02  0.7816164E-02  0.1312668E+00
        -11   -1    0    0    0    0  0.00000000000E+00  0.00000000000E+00  0.45593999997E+02  0.45594000000E+02  0.51100000000E-03 0. -1.
         11   -1    0    0    0    0 -0.00000000000E+00 -0.00000000000E+00 -0.45593999997E+02  0.45594000000E+02  0.51100000000E-03 0.  1.
    9900012    2    1    2    0    0 -0.22993877000E+02  0.12049936038E+02  0.34780803144E+02  0.47787267226E+02  0.19999982589E+02 0.  0.
        -12    1    1    2    0    0  0.22993877000E+02 -0.12049936038E+02 -0.34780803144E+02  0.43400732774E+02  0.00000000000E+00 0.  1.
         11    1    3    3    0    0 -0.56429010616E+01  0.36932465611E+01  0.16925775862E+02  0.18219887249E+02  0.51100000000E-03 0. -1.
        -11    1    3    3    0    0  0.13266319182E+01  0.38084954887E+01  0.50799747026E+01  0.64861956010E+01  0.51100000000E-03 0.  1.
        -12    1    3    3    0    0 -0.18677607857E+02  0.45481939882E+01  0.12775052579E+02  0.23081184376E+02  0.00000000000E+00 0.  1.
</event>
<event>
 7    1  0.2700100E-010  0.4778729E+02  0.7816164E-02  0.1312668E+00
        -11   -1    0    0    0    0  0.00000000000E+00  0.00000000000E+00  0.45593999997E+02  0.45594000000E+02  0.51100000000E-03 0.  1.
         11   -1    0    0    0    0 -0.00000000000E+00 -0.00000000000E+00 -0.45593999997E+02  0.45594000000E+02  0.51100000000E-03 0. -1.
    9900012    2    1    2    0    0 -0.29400862518E+02 -0.90234971540E+01 -0.30623321836E+02  0.47787285053E+02  0.20000063870E+02 0.  0.
        -12    1    1    2    0    0  0.29400862518E+02  0.90234971540E+01  0.30623321836E+02  0.43400714947E+02  0.00000000000E+00 0.  1.
         11    1    3    3    0    0 -0.25008467860E+02 -0.12922894348E+02 -0.25008260760E+02  0.37654186614E+02  0.51100000000E-03 0. -1.
        -11    1    3    3    0    0  0.31072630212E+00  0.37036211808E+01 -0.27382193406E+01  0.46164061893E+01  0.51100000000E-03 0.  1.
        -12    1    3    3    0    0 -0.47031209599E+01  0.19577601346E+00 -0.28768417353E+01  0.55166922500E+01  0.00000000000E+00 0.  1.
</event>
<event>
 7    1  0.2700100E-010  0.4778727E+02  0.7816164E-02  0.1312668E+00
        -11   -1    0    0    0    0  0.00000000000E+00  0.00000000000E+00  0.45593999997E+02  0.45594000000E+02  0.51100000000E-03 0. -1.
         11   -1    0    0    0    0 -0.00000000000E+00 -0.00000000000E+00 -0.45593999997E+02  0.45594000000E+02  0.51100000000E-03 0.  1.
    9900012    2    1    2    0    0  0.14602833644E+01 -0.39979690768E+02  0.16826026554E+02  0.47787271078E+02  0.20000000152E+02 0.  0.
        -12    1    1    2    0    0 -0.14602833644E+01  0.39979690768E+02 -0.16826026554E+02  0.43400728922E+02  0.00000000000E+00 0.  1.
         11    1    3    3    0    0 -0.60675410109E+01 -0.24020176738E+02  0.64255101241E+01  0.25594357289E+02  0.51100000000E-03 0. -1.
        -11    1    3    3    0    0  0.42740074333E+01 -0.14376458451E+02  0.52341560658E+01  0.15885404846E+02  0.51100000000E-03 0.  1.
         12    1    3    3    0    0  0.32538169419E+01 -0.15830555797E+01  0.51663603636E+01  0.63075089431E+01  0.00000000000E+00 0. -1.
</event>
<event>
 7    1  0.2700100E-010  0.4778727E+02  0.7816164E-02  0.1312668E+00
        -11   -1    0    0    0    0  0.00000000000E+00  0.00000000000E+00  0.45593999997E+02  0.45594000000E+02  0.51100000000E-03 0.  1.
         11   -1    0    0    0    0 -0.00000000000E+00 -0.00000000000E+00 -0.45593999997E+02  0.45594000000E+02  0.51100000000E-03 0. -1.
    9900012    2    1    2    0    0  0.40750363176E+02  0.95102199980E+00 -0.14903923668E+02  0.47787268641E+02  0.19999989040E+02 0.  0.
        -12    1    1    2    0    0 -0.40750363176E+02 -0.95102199980E+00  0.14903923668E+02  0.43400731359E+02  0.00000000000E+00 0.  1.
         11    1    3    3    0    0  0.13425577735E+02 -0.39973138497E+01 -0.12955560874E+02  0.19080650234E+02  0.51100000000E-03 0. -1.
        -11    1    3    3    0    0  0.71523450539E+01  0.24045448570E+01  0.23930388721E+01  0.79160919047E+01  0.51100000000E-03 0.  1.
         12    1    3    3    0    0  0.20172440388E+02  0.25437909925E+01 -0.43414016661E+01  0.20790526502E+02  0.00000000000E+00 0. -1.
</event>
<event>
 7    1  0.2700100E-010  0.4778728E+02  0.7816164E-02  0.1312668E+00
        -11   -1    0    0    0    0  0.00000000000E+00  0.00000000000E+00  0.45593999997E+02  0.45594000000E+02  0.51100000000E-03 0.  1.
         11   -1    0    0    0    0 -0.00000000000E+00 -0.00000000000E+00 -0.45593999997E+02  0.45594000000E+02  0.51100000000E-03 0. -1.
    9900012    2    1    2    0    0 -0.20363165166E+02 -0.36311461809E+02 -0.12265482689E+02  0.47787276275E+02  0.20000023847E+02 0.  0.
        -12    1    1    2    0    0  0.20363165166E+02  0.36311461809E+02  0.12265482689E+02  0.43400723725E+02  0.00000000000E+00 0.  1.
         11    1    3    3    0    0 -0.20278076891E+02 -0.32767406558E+02 -0.11548787775E+02  0.40227824130E+02  0.51100000000E-03 0. -1.
        -11    1    3    3    0    0  0.25381760942E+01 -0.26967561191E+01  0.15262678999E+01  0.40055368448E+01  0.51100000000E-03 0.  1.
        -12    1    3    3    0    0 -0.26232643700E+01 -0.84729913191E+00 -0.22429628140E+01  0.35539152999E+01  0.00000000000E+00 0.  1.
</event>
<event>
 7    1  0.2700100E-010  0.4778726E+02  0.7816164E-02  0.1312668E+00
        -11   -1    0    0    0    0  0.00000000000E+00  0.00000000000E+00  0.45593999997E+02  0.45594000000E+02  0.51100000000E-03 0.  1.
         11   -1    0    0    0    0 -0.00000000000E+00 -0.00000000000E+00 -0.45593999997E+02  0.45594000000E+02  0.51100000000E-03 0. -1.
    9900012    2    1    2    0    0  0.39521298696E+02  0.17787347670E+02 -0.23025699526E+01  0.47787255581E+02  0.19999929496E+02 0.  0.
        -12    1    1    2    0    0 -0.39521298696E+02 -0.17787347670E+02  0.23025699526E+01  0.43400744419E+02  0.00000000000E+00 0.  1.
         11    1    3    3    0    0  0.30791292651E+02  0.14196003842E+02 -0.41930758489E+00  0.33908790119E+02  0.51100000000E-03 0. -1.
        -11    1    3    3    0    0 -0.43423134078E+00 -0.52478748480E+00 -0.36197772342E+01  0.36833064287E+01  0.51100000000E-03 0.  1.
        -12    1    3    3    0    0  0.91642373853E+01  0.41161313130E+01  0.17365148664E+01  0.10195159034E+02  0.00000000000E+00 0.  1.
</event>
<event>
 7    1  0.2700100E-010  0.4778728E+02  0.7816164E-02  0.1312668E+00
        -11   -1    0    0    0    0  0.00000000000E+00  0.00000000000E+00  0.45593999997E+02  0.45594000000E+02  0.51100000000E-03 0.  1.
         11   -1    0    0    0    0 -0.00000000000E+00 -0.00000000000E+00 -0.45593999997E+02  0.45594000000E+02  0.51100000000E-03 0. -1.
    9900012    2    1    2    0    0  0.33921049554E+02 -0.19307199111E+02 -0.18979387594E+02  0.47787277727E+02  0.20000030470E+02 0.  0.
        -12    1    1    2    0    0 -0.33921049554E+02  0.19307199111E+02  0.18979387594E+02  0.43400722273E+02  0.00000000000E+00 0.  1.
         11    1    3    3    0    0  0.20547119961E+01 -0.87953076371E+01 -0.70903948525E+00  0.90599125311E+01  0.51100000000E-03 0. -1.
        -11    1    3    3    0    0  0.66532953571E+01  0.27458546855E+00 -0.45341033286E+01  0.80560430450E+01  0.51100000000E-03 0.  1.
         12    1    3    3    0    0  0.25213042201E+02 -0.10786476942E+02 -0.13736244780E+02  0.30671322151E+02  0.00000000000E+00 0. -1.
</event>
<event>
 7    1  0.2700100E-010  0.4778724E+02  0.7816164E-02  0.1312668E+00
        -11   -1    0    0    0    0  0.00000000000E+00  0.00000000000E+00  0.45593999997E+02  0.45594000000E+02  0.51100000000E-03 0.  1.
         11   -1    0    0    0    0 -0.00000000000E+00 -0.00000000000E+00 -0.45593999997E+02  0.45594000000E+02  0.51100000000E-03 0. -1.
    9900012    2    1    2    0    0 -0.13860549414E+02 -0.38429252939E+02 -0.14652758640E+02  0.47787243701E+02  0.19999875331E+02 0.  0.
        -12    1    1    2    0    0  0.13860549414E+02  0.38429252939E+02  0.14652758640E+02  0.43400756299E+02  0.00000000000E+00 0.  1.
         11    1    3    3    0    0 -0.98606387279E+01 -0.19147455726E+02 -0.10173487964E+02  0.23819259319E+02  0.51100000000E-03 0. -1.
        -11    1    3    3    0    0  0.38608897690E+01 -0.15995095473E+01 -0.46229694160E+00  0.42045950250E+01  0.51100000000E-03 0.  1.
        -12    1    3    3    0    0 -0.78608004553E+01 -0.17682287666E+02 -0.40169737344E+01  0.19763389357E+02  0.00000000000E+00 0.  1.
</event>
<event>
 7    1  0.2700100E-010  0.4778727E+02  0.7816164E-02  0.1312668E+00
        -11   -1    0    0    0    0  0.00000000000E+00  0.00000000000E+00  0.45593999997E+02  0.45594000000E+02  0.51100000000E-03 0.  1.
         11   -1    0    0    0    0 -0.00000000000E+00 -0.00000000000E+00 -0.45593999997E+02  0.45594000000E+02  0.51100000000E-03 0. -1.
    9900012    2    1    2    0    0  0.25909002850E+01 -0.37544379846E+02  0.21617823758E+02  0.47787268136E+02  0.19999986741E+02 0.  0.
        -12    1    1    2    0    0 -0.25909002850E+01  0.37544379846E+02 -0.21617823758E+02  0.43400731864E+02  0.00000000000E+00 0.  1.
         11    1    3    3    0    0 -0.12472719565E+01  0.19443136079E+01  0.21503069046E+00  0.23199743961E+01  0.51100000000E-03 0. -1.
        -11    1    3    3    0    0  0.50232603140E+01 -0.24919632558E+02  0.12224634628E+02  0.28207497639E+02  0.51100000000E-03 0.  1.
         12    1    3    3    0    0 -0.11850880726E+01 -0.14569060896E+02  0.91781584397E+01  0.17259796102E+02  0.00000000000E+00 0. -1.
</event>
<event>
 7    1  0.2700100E-010  0.4778727E+02  0.7816164E-02  0.1312668E+00
        -11   -1    0    0    0    0  0.00000000000E+00  0.00000000000E+00  0.45593999997E+02  0.45594000000E+02  0.51100000000E-03 0.  1.
         11   -1    0    0    0    0 -0.00000000000E+00 -0.00000000000E+00 -0.45593999997E+02  0.45594000000E+02  0.51100000000E-03 0. -1.
    9900012    2    1    2    0    0 -0.18014046495E+02 -0.74138027504E+00 -0.39478700848E+02  0.47787270323E+02  0.19999996710E+02 0.  0.
        -12    1    1    2    0    0  0.18014046495E+02  0.74138027504E+00  0.39478700848E+02  0.43400729677E+02  0.00000000000E+00 0.  1.
         11    1    3    3    0    0 -0.16431528183E+02 -0.44614901198E+01 -0.19917378923E+02  0.26203091344E+02  0.51100000000E-03 0. -1.
        -11    1    3    3    0    0 -0.14852024583E+01  0.19423197334E+01 -0.19649982429E+02  0.19801521205E+02  0.51100000000E-03 0.  1.
        -12    1    3    3    0    0 -0.97315853800E-01  0.17777901114E+01  0.88660504725E-01  0.17826577744E+01  0.00000000000E+00 0.  1.
</event>
<event>
 7    1  0.2700100E-010  0.4778727E+02  0.7816164E-02  0.1312668E+00
        -11   -1    0    0    0    0  0.00000000000E+00  0.00000000000E+00  0.45593999997E+02  0.45594000000E+02  0.51100000000E-03 0.  1.
         11   -1    0    0    0    0 -0.00000000000E+00 -0.00000000000E+00 -0.45593999997E+02  0.45594000000E+02  0.51100000000E-03 0. -1.
    9900012    2    1    2    0    0 -0.13361847292E+02  0.25453247026E+02 -0.32514865001E+02  0.47787271973E+02  0.20000004235E+02 0.  0.
        -12    1    1    2    0    0  0.13361847292E+02 -0.25453247026E+02  0.32514865001E+02  0.43400728027E+02  0.00000000000E+00 0.  1.
         11    1    3    3    0    0 -0.12733981659E+02  0.19620702964E+02 -0.15065937898E+02  0.27822810043E+02  0.51100000000E-03 0. -1.
        -11    1    3    3    0    0 -0.12946089320E+01  0.10781203986E+01 -0.13881064452E+02  0.13982929109E+02  0.51100000000E-03 0.  1.
         12    1    3    3    0    0  0.66674329868E+00  0.47544236636E+01 -0.35678626501E+01  0.59815328210E+01  0.00000000000E+00 0. -1.
</event>
<event>
 7    1  0.2700100E-010  0.4778727E+02  0.7816164E-02  0.1312668E+00
        -11   -1    0    0    0    0  0.00000000000E+00  0.00000000000E+00  0.45593999997E+02  0.45594000000E+02  0.51100000000E-03 0.  1.
         11   -1    0    0    0    0 -0.00000000000E+00 -0.00000000000E+00 -0.45593999997E+02  0.45594000000E+02  0.51100000000E-03 0. -1.
    9900012    2    1    2    0    0 -0.35918078855E+02  0.14397175525E+02 -0.19652890195E+02  0.47787272532E+02  0.20000006782E+02 0.  0.
        -12    1    1    2    0    0  0.35918078855E+02 -0.14397175525E+02  0.19652890195E+02  0.43400727468E+02  0.00000000000E+00 0.  1.
         11    1    3    3    0    0 -0.56546121494E+01  0.46140752310E+01 -0.61072834827E+01  0.95164720667E+01  0.51100000000E-03 0. -1.
        -11    1    3    3    0    0  0.12421472698E+00  0.31176443713E+00 -0.54068234716E+01  0.54172286897E+01  0.51100000000E-03 0.  1.
        -12    1    3    3    0    0 -0.30387681433E+02  0.94713358572E+01 -0.81387832407E+01  0.32853571776E+02  0.00000000000E+00 0.  1.
</event>
<event>
 7    1  0.2700100E-010  0.4778725E+02  0.7816164E-02  0.1312668E+00
        -11   -1    0    0    0    0  0.00000000000E+00  0.00000000000E+00  0.45593999997E+02  0.45594000000E+02  0.51100000000E-03 0.  1.
         11   -1    0    0    0    0 -0.00000000000E+00 -0.00000000000E+00 -0.45593999997E+02  0.45594000000E+02  0.51100000000E-03 0. -1.
    9900012    2    1    2    0    0 -0.10019969798E+02  0.38941631125E+02  0.16333226745E+02  0.47787254323E+02  0.19999923759E+02 0.  0.
        -12    1    1    2    0    0  0.10019969798E+02 -0.38941631125E+02 -0.16333226745E+02  0.43400745677E+02  0.00000000000E+00 0.  1.
         11    1    3    3    0    0 -0.32952244244E+01  0.11503240637E+02 -0.26520238618E+01  0.12256275126E+02  0.51100000000E-03 0. -1.
        -11    1    3    3    0    0 -0.55700482232E+01  0.16364781617E+02  0.16955052993E+02  0.24213742727E+02  0.51100000000E-03 0.  1.
        -12    1    3    3    0    0 -0.11546971504E+01  0.11073608872E+02  0.20301976132E+01  0.11317236470E+02  0.00000000000E+00 0.  1.
</event>
<event>
 7    1  0.2700100E-010  0.4778726E+02  0.7816164E-02  0.1312668E+00
        -11   -1    0    0    0    0  0.00000000000E+00  0.00000000000E+00  0.45593999997E+02  0.45594000000E+02  0.51100000000E-03 0. -1.
         11   -1    0    0    0    0 -0.00000000000E+00 -0.00000000000E+00 -0.45593999997E+02  0.45594000000E+02  0.51100000000E-03 0.  1.
    9900012    2    1    2    0    0 -0.39067950634E+02  0.51732300079E+01 -0.18181238450E+02  0.47787256838E+02  0.19999935227E+02 0.  0.
        -12    1    1    2    0    0  0.39067950634E+02 -0.51732300079E+01  0.18181238450E+02  0.43400743162E+02  0.00000000000E+00 0.  1.
         11    1    3    3    0    0 -0.16569502251E+02 -0.19391141414E+01 -0.21872041429E+01  0.16825350835E+02  0.51100000000E-03 0. -1.
        -11    1    3    3    0    0 -0.17578681911E+02  0.39171768463E+01 -0.17277033972E+02  0.24956967671E+02  0.51100000000E-03 0.  1.
        -12    1    3    3    0    0 -0.49197664718E+01  0.31951673030E+01  0.12829996652E+01  0.60049383321E+01  0.00000000000E+00 0.  1.
</event>
<event>
 7    1  0.2700100E-010  0.4778727E+02  0.7816164E-02  0.1312668E+00
        -11   -1    0    0    0    0  0.00000000000E+00  0.00000000000E+00  0.45593999997E+02  0.45594000000E+02  0.51100000000E-03 0.  1.
         11   -1    0    0    0    0 -0.00000000000E+00 -0.00000000000E+00 -0.45593999997E+02  0.45594000000E+02  0.51100000000E-03 0. -1.
    9900012    2    1    2    0    0  0.34992348313E+02 -0.12122309972E+02 -0.22632020596E+02  0.47787271944E+02  0.20000004101E+02 0.  0.
        -12    1    1    2    0    0 -0.34992348313E+02  0.12122309972E+02  0.22632020596E+02  0.43400728056E+02  0.00000000000E+00 0.  1.
         11    1    3    3    0    0  0.29014178962E+02 -0.10981556580E+02 -0.23526588407E+02  0.38934785579E+02  0.51100000000E-03 0. -1.
        -11    1    3    3    0    0  0.31288894858E+01 -0.16712153146E+00  0.36224118451E+01  0.47895455794E+01  0.51100000000E-03 0.  1.
        -12    1    3    3    0    0  0.28492798658E+01 -0.97363186073E+00 -0.27278440334E+01  0.40629407852E+01  0.00000000000E+00 0.  1.
</event>
<event>
 7    1  0.2700100E-010  0.4778727E+02  0.7816164E-02  0.1312668E+00
        -11   -1    0    0    0    0  0.00000000000E+00  0.00000000000E+00  0.45593999997E+02  0.45594000000E+02  0.51100000000E-03 0.  1.
         11   -1    0    0    0    0 -0.00000000000E+00 -0.00000000000E+00 -0.45593999997E+02  0.45594000000E+02  0.51100000000E-03 0. -1.
    9900012    2    1    2    0    0  0.35009386602E+02 -0.42350678160E+01 -0.25298819575E+02  0.47787271648E+02  0.20000002751E+02 0.  0.
        -12    1    1    2    0    0 -0.35009386602E+02  0.42350678160E+01  0.25298819575E+02  0.43400728352E+02  0.00000000000E+00 0.  1.
         11    1    3    3    0    0  0.13915901042E+02 -0.52968814642E+01 -0.16112283991E+02  0.21938891283E+02  0.51100000000E-03 0. -1.
        -11    1    3    3    0    0  0.34602916466E+01  0.46231274619E+00  0.28363293688E+01  0.44980124393E+01  0.51100000000E-03 0.  1.
        -12    1    3    3    0    0  0.17633193913E+02  0.59950090195E+00 -0.12022864953E+02  0.21350367926E+02  0.00000000000E+00 0.  1.
</event>
<event>
 7    1  0.2700100E-010  0.4778727E+02  0.7816164E-02  0.1312668E+00
        -11   -1    0    0    0    0  0.00000000000E+00  0.00000000000E+00  0.45593999997E+02  0.45594000000E+02  0.51100000000E-03 0.  1.
         11   -1    0    0    0    0 -0.00000000000E+00 -0.00000000000E+00 -0.45593999997E+02  0.45594000000E+02  0.51100000000E-03 0. -1.
    9900012    2    1    2    0    0  0.42456719965E+02  0.72021529115E+01  0.54017886215E+01  0.47787269626E+02  0.19999993531E+02 0.  0.
        -12    1    1    2    0    0 -0.42456719965E+02 -0.72021529115E+01 -0.54017886215E+01  0.43400730374E+02  0.00000000000E+00 0.  1.
         11    1    3    3    0    0  0.31558409464E+02  0.28178746322E+01 -0.35214352152E+01  0.31879054747E+02  0.51100000000E-03 0. -1.
        -11    1    3    3    0    0  0.93287871034E+01  0.93081384016E+00  0.64588980129E+01  0.11384640839E+02  0.51100000000E-03 0.  1.
         12    1    3    3    0    0  0.15695233977E+01  0.34534644392E+01  0.24643258239E+01  0.45235740399E+01  0.00000000000E+00 0. -1.
</event>
<event>
 7    1  0.2700100E-010  0.4778727E+02  0.7816164E-02  0.1312668E+00
        -11   -1    0    0    0    0  0.00000000000E+00  0.00000000000E+00  0.45593999997E+02  0.45594000000E+02  0.51100000000E-03 0. -1.
         11   -1    0    0    0    0 -0.00000000000E+00 -0.00000000000E+00 -0.45593999997E+02  0.45594000000E+02  0.51100000000E-03 0.  1.
    9900012    2    1    2    0    0 -0.71409559840E+01 -0.33673911266E+02  0.26432889046E+02  0.47787272176E+02  0.20000005159E+02 0.  0.
        -12    1    1    2    0    0  0.71409559840E+01  0.33673911266E+02 -0.26432889046E+02  0.43400727824E+02  0.00000000000E+00 0.  1.
         11    1    3    3    0    0 -0.94455991142E+01 -0.55087899845E+01  0.10347684826E+02  0.15054590371E+02  0.51100000000E-03 0. -1.
        -11    1    3    3    0    0  0.27574543353E+00 -0.11235821289E+01 -0.84859581404E-01  0.11600317901E+01  0.51100000000E-03 0.  1.
         12    1    3    3    0    0  0.20288976967E+01 -0.27041539153E+02  0.16170063802E+02  0.31572650015E+02  0.00000000000E+00 0. -1.
</event>
<event>
 7    1  0.2795859E-010  0.4778727E+02  0.7816164E-02  0.1312668E+00
        -11   -1    0    0    0    0  0.00000000000E+00  0.00000000000E+00  0.45593999997E+02  0.45594000000E+02  0.51100000000E-03 0. -1.
         11   -1    0    0    0    0 -0.00000000000E+00 -0.00000000000E+00 -0.45593999997E+02  0.45594000000E+02  0.51100000000E-03 0.  1.
    9900012    2    1    2    0    0 -0.79593027755E+01  0.20256609042E+02  0.37549201539E+02  0.47787271357E+02  0.20000001423E+02 0.  0.
        -12    1    1    2    0    0  0.79593027755E+01 -0.20256609042E+02 -0.37549201539E+02  0.43400728643E+02  0.00000000000E+00 0.  1.
         11    1    3    3    0    0 -0.15303613864E+01  0.66728595231E+01  0.66419577869E+01  0.95385881393E+01  0.51100000000E-03 0. -1.
        -11    1    3    3    0    0 -0.56350785591E+01  0.16695327717E+02  0.30193520482E+02  0.34959072604E+02  0.51100000000E-03 0.  1.
        -12    1    3    3    0    0 -0.79386283008E+00 -0.31115781990E+01  0.71372327076E+00  0.32896106135E+01  0.00000000000E+00 0.  1.
</event>
<event>
 7    1  0.2700100E-010  0.4778727E+02  0.7816164E-02  0.1312668E+00
        -11   -1    0    0    0    0  0.00000000000E+00  0.00000000000E+00  0.45593999997E+02  0.45594000000E+02  0.51100000000E-03 0.  1.
         11   -1    0    0    0    0 -0.00000000000E+00 -0.00000000000E+00 -0.45593999997E+02  0.45594000000E+02  0.51100000000E-03 0. -1.
    9900012    2    1    2    0    0  0.55046995731E+01 -0.55758735917E+01 -0.42687599396E+02  0.47787271597E+02  0.20000002518E+02 0.  0.
        -12    1    1    2    0    0 -0.55046995731E+01  0.55758735917E+01  0.42687599396E+02  0.43400728403E+02  0.00000000000E+00 0.  1.
         11    1    3    3    0    0  0.52032379664E+01 -0.32410952904E+01 -0.34518750757E+02  0.35058843936E+02  0.51100000000E-03 0. -1.
        -11    1    3    3    0    0 -0.34742908992E+01 -0.20938393967E+01 -0.38610961554E+00  0.40747934387E+01  0.51100000000E-03 0.  1.
         12    1    3    3    0    0  0.37757525059E+01 -0.24093890460E+00 -0.77827390236E+01  0.86536342222E+01  0.00000000000E+00 0. -1.
</event>
<event>
 7    1  0.2700100E-010  0.4778727E+02  0.7816164E-02  0.1312668E+00
        -11   -1    0    0    0    0  0.00000000000E+00  0.00000000000E+00  0.45593999997E+02  0.45594000000E+02  0.51100000000E-03 0. -1.
         11   -1    0    0    0    0 -0.00000000000E+00 -0.00000000000E+00 -0.45593999997E+02  0.45594000000E+02  0.51100000000E-03 0.  1.
    9900012    2    1    2    0    0  0.26155791871E+02 -0.15470499937E+02  0.30986471330E+02  0.47787271640E+02  0.20000002717E+02 0.  0.
        -12    1    1    2    0    0 -0.26155791871E+02  0.15470499937E+02 -0.30986471330E+02  0.43400728360E+02  0.00000000000E+00 0.  1.
         11    1    3    3    0    0  0.44837233979E+01  0.94276394344E+00  0.72067809770E+01  0.85399222288E+01  0.51100000000E-03 0. -1.
        -11    1    3    3    0    0  0.23398778168E+02 -0.11635260425E+02  0.20281762485E+02  0.33079177660E+02  0.51100000000E-03 0.  1.
        -12    1    3    3    0    0 -0.17267096949E+01 -0.47780034548E+01  0.34979278674E+01  0.61681717510E+01  0.00000000000E+00 0.  1.
</event>
<event>
 7    1  0.2700100E-010  0.4778727E+02  0.7816164E-02  0.1312668E+00
        -11   -1    0    0    0    0  0.00000000000E+00  0.00000000000E+00  0.45593999997E+02  0.45594000000E+02  0.51100000000E-03 0.  1.
         11   -1    0    0    0    0 -0.00000000000E+00 -0.00000000000E+00 -0.45593999997E+02  0.45594000000E+02  0.51100000000E-03 0. -1.
    9900012    2    1    2    0    0  0.17101608875E+01  0.31588426665E+02 -0.29713135065E+02  0.47787265619E+02  0.19999975263E+02 0.  0.
        -12    1    1    2    0    0 -0.17101608875E+01 -0.31588426665E+02  0.29713135065E+02  0.43400734381E+02  0.00000000000E+00 0.  1.
         11    1    3    3    0    0  0.50608917802E+01  0.70199194627E+00 -0.53143940363E+01  0.73721233399E+01  0.51100000000E-03 0. -1.
        -11    1    3    3    0    0 -0.10259011921E+01  0.26343853475E+02 -0.16798958647E+02  0.31261095648E+02  0.51100000000E-03 0.  1.
         12    1    3    3    0    0 -0.23248297005E+01  0.45425812434E+01 -0.75997823812E+01  0.91540466315E+01  0.00000000000E+00 0. -1.
</event>
<event>
 7    1  0.2700100E-010  0.4778727E+02  0.7816164E-02  0.1312668E+00
        -11   -1    0    0    0    0  0.00000000000E+00  0.00000000000E+00  0.45593999997E+02  0.45594000000E+02  0.51100000000E-03 0.  1.
         11   -1    0    0    0    0 -0.00000000000E+00 -0.00000000000E+00 -0.45593999997E+02  0.45594000000E+02  0.51100000000E-03 0. -1.
    9900012    2    1    2    0    0 -0.38717636187E+02 -0.19058616767E+02 -0.46192209307E+01  0.47787269280E+02  0.19999991956E+02 0.  0.
        -12    1    1    2    0    0  0.38717636187E+02  0.19058616767E+02  0.46192209307E+01  0.43400730720E+02  0.00000000000E+00 0.  1.
         11    1    3    3    0    0 -0.14235158529E+02  0.11307019683E+01 -0.46270324944E+01  0.15010917869E+02  0.51100000000E-03 0. -1.
        -11    1    3    3    0    0 -0.16476850628E+01 -0.36228870958E+01  0.20769831207E+01  0.44893246842E+01  0.51100000000E-03 0.  1.
         12    1    3    3    0    0 -0.22834792595E+02 -0.16566431640E+02 -0.20691715570E+01  0.28287026727E+02  0.00000000000E+00 0. -1.
</event>
<event>
 7    1  0.3820599E-010  0.4778728E+02  0.7816164E-02  0.1312668E+00
        -11   -1    0    0    0    0  0.00000000000E+00  0.00000000000E+00  0.45593999997E+02  0.45594000000E+02  0.51100000000E-03 0. -1.
         11   -1    0    0    0    0 -0.00000000000E+00 -0.00000000000E+00 -0.45593999997E+02  0.45594000000E+02  0.51100000000E-03 0.  1.
    9900012    2    1    2    0    0 -0.67202533854E+01  0.20759208238E+02  0.37516880901E+02  0.47787275527E+02  0.20000020439E+02 0.  0.
        -12    1    1    2    0    0  0.67202533854E+01 -0.20759208238E+02 -0.37516880901E+02  0.43400724473E+02  0.00000000000E+00 0.  1.
         11    1    3    3    0    0 -0.39457225718E+00  0.11838694368E+02  0.21843705060E+02  0.24848698610E+02  0.51100000000E-03 0. -1.
        -11    1    3    3    0    0 -0.71040995326E+01 -0.50292087804E+00  0.83775745130E+01  0.10995677085E+02  0.51100000000E-03 0.  1.
        -12    1    3    3    0    0  0.77841840435E+00  0.94234347478E+01  0.72956013279E+01  0.11942899832E+02  0.00000000000E+00 0.  1.
</event>
<event>
 7    1  0.2700100E-010  0.4778727E+02  0.7816164E-02  0.1312668E+00
        -11   -1    0    0    0    0  0.00000000000E+00  0.00000000000E+00  0.45593999997E+02  0.45594000000E+02  0.51100000000E-03 0.  1.
         11   -1    0    0    0    0 -0.00000000000E+00 -0.00000000000E+00 -0.45593999997E+02  0.45594000000E+02  0.51100000000E-03 0. -1.
    9900012    2    1    2    0    0 -0.29928802118E+02  0.15403795518E+02 -0.27397319632E+02  0.47787271486E+02  0.20000002012E+02 0.  0.
        -12    1    1    2    0    0  0.29928802118E+02 -0.15403795518E+02  0.27397319632E+02  0.43400728514E+02  0.00000000000E+00 0.  1.
         11    1    3    3    0    0 -0.26808129458E+02  0.15093681461E+02 -0.21536701948E+02  0.37554288120E+02  0.51100000000E-03 0. -1.
        -11    1    3    3    0    0  0.74175883612E+00 -0.24502555867E+01 -0.46902192097E+01  0.53434179237E+01  0.51100000000E-03 0.  1.
        -12    1    3    3    0    0 -0.38624314959E+01  0.27603696433E+01 -0.11703984736E+01  0.48895654423E+01  0.00000000000E+00 0.  1.
</event>
<event>
 7    1  0.2700100E-010  0.4778729E+02  0.7816164E-02  0.1312668E+00
        -11   -1    0    0    0    0  0.00000000000E+00  0.00000000000E+00  0.45593999997E+02  0.45594000000E+02  0.51100000000E-03 0.  1.
         11   -1    0    0    0    0 -0.00000000000E+00 -0.00000000000E+00 -0.45593999997E+02  0.45594000000E+02  0.51100000000E-03 0. -1.
    9900012    2    1    2    0    0 -0.31747589693E+02 -0.29499182543E+02 -0.23474883652E+01  0.47787286600E+02  0.20000070924E+02 0.  0.
        -12    1    1    2    0    0  0.31747589693E+02  0.29499182543E+02  0.23474883652E+01  0.43400713400E+02  0.00000000000E+00 0.  1.
         11    1    3    3    0    0 -0.25540813042E+02 -0.22953696918E+02 -0.65210356030E+01  0.34953243607E+02  0.51100000000E-03 0. -1.
        -11    1    3    3    0    0 -0.65068799098E+01 -0.10015987466E+01  0.21836673652E+01  0.69362158006E+01  0.51100000000E-03 0.  1.
         12    1    3    3    0    0  0.30010325877E+00 -0.55438868781E+01  0.19898798726E+01  0.58978271923E+01  0.00000000000E+00 0. -1.
</event>
<event>
 7    1  0.2700100E-010  0.4778727E+02  0.7816164E-02  0.1312668E+00
        -11   -1    0    0    0    0  0.00000000000E+00  0.00000000000E+00  0.45593999997E+02  0.45594000000E+02  0.51100000000E-03 0. -1.
         11   -1    0    0    0    0 -0.00000000000E+00 -0.00000000000E+00 -0.45593999997E+02  0.45594000000E+02  0.51100000000E-03 0.  1.
    9900012    2    1    2    0    0 -0.35007086348E+02 -0.21447663123E+02  0.14075683405E+02  0.47787271765E+02  0.20000003286E+02 0.  0.
        -12    1    1    2    0    0  0.35007086348E+02  0.21447663123E+02 -0.14075683405E+02  0.43400728235E+02  0.00000000000E+00 0.  1.
         11    1    3    3    0    0 -0.17189487816E+02 -0.96722686865E-01  0.20146649682E+01  0.17307418116E+02  0.51100000000E-03 0. -1.
        -11    1    3    3    0    0 -0.12770849679E+02 -0.14405998110E+02  0.97981762661E+01  0.21601658304E+02  0.51100000000E-03 0.  1.
         12    1    3    3    0    0 -0.50467488526E+01 -0.69449423264E+01  0.22628421708E+01  0.88781953452E+01  0.00000000000E+00 0. -1.
</event>
<event>
 7    1  0.2700100E-010  0.4778727E+02  0.7816164E-02  0.1312668E+00
        -11   -1    0    0    0    0  0.00000000000E+00  0.00000000000E+00  0.45593999997E+02  0.45594000000E+02  0.51100000000E-03 0.  1.
         11   -1    0    0    0    0 -0.00000000000E+00 -0.00000000000E+00 -0.45593999997E+02  0.45594000000E+02  0.51100000000E-03 0. -1.
    9900012    2    1    2    0    0  0.34280500291E+02 -0.25248486270E+02 -0.84252177681E+01  0.47787273583E+02  0.20000011573E+02 0.  0.
        -12    1    1    2    0    0 -0.34280500291E+02  0.25248486270E+02  0.84252177681E+01  0.43400726417E+02  0.00000000000E+00 0.  1.
         11    1    3    3    0    0  0.68357245301E+01 -0.52511561077E+01 -0.32850758700E+01  0.92246134906E+01  0.51100000000E-03 0. -1.
        -11    1    3    3    0    0  0.19675399890E+02 -0.82087231169E+01 -0.10110070896E+02  0.23594872957E+02  0.51100000000E-03 0.  1.
        -12    1    3    3    0    0  0.77693758708E+01 -0.11788607045E+02  0.49699289981E+01  0.14967787135E+02  0.00000000000E+00 0.  1.
</event>
<event>
 7    1  0.2700100E-010  0.4778727E+02  0.7816164E-02  0.1312668E+00
        -11   -1    0    0    0    0  0.00000000000E+00  0.00000000000E+00  0.45593999997E+02  0.45594000000E+02  0.51100000000E-03 0. -1.
         11   -1    0    0    0    0 -0.00000000000E+00 -0.00000000000E+00 -0.45593999997E+02  0.45594000000E+02  0.51100000000E-03 0.  1.
    9900012    2    1    2    0    0 -0.42440598318E+02  0.50274025784E+01  0.75593744229E+01  0.47787270698E+02  0.19999998422E+02 0.  0.
        -12    1    1    2    0    0  0.42440598318E+02 -0.50274025784E+01 -0.75593744229E+01  0.43400729302E+02  0.00000000000E+00 0.  1.
         11    1    3    3    0    0 -0.31248812702E+02  0.10409291376E+02  0.89030469197E+01  0.34118995984E+02  0.51100000000E-03 0. -1.
        -11    1    3    3    0    0 -0.63178896039E+01 -0.59693661978E+01 -0.93818971607E+00  0.87423830879E+01  0.51100000000E-03 0.  1.
         12    1    3    3    0    0 -0.48738960117E+01  0.58747740032E+00 -0.40548278074E+00  0.49258916263E+01  0.00000000000E+00 0. -1.
</event>
<event>
 7    1  0.2700100E-010  0.4778727E+02  0.7816164E-02  0.1312668E+00
        -11   -1    0    0    0    0  0.00000000000E+00  0.00000000000E+00  0.45593999997E+02  0.45594000000E+02  0.51100000000E-03 0.  1.
         11   -1    0    0    0    0 -0.00000000000E+00 -0.00000000000E+00 -0.45593999997E+02  0.45594000000E+02  0.51100000000E-03 0. -1.
    9900012    2    1    2    0    0 -0.14083968222E+02 -0.34124825393E+02 -0.22820202440E+02  0.47787268343E+02  0.19999987682E+02 0.  0.
        -12    1    1    2    0    0  0.14083968222E+02  0.34124825393E+02  0.22820202440E+02  0.43400731657E+02  0.00000000000E+00 0.  1.
         11    1    3    3    0    0 -0.43267653189E+01 -0.90256037746E+01 -0.94657399240E+01  0.13776162535E+02  0.51100000000E-03 0. -1.
        -11    1    3    3    0    0 -0.12455125188E+02 -0.14486749790E+02 -0.12898830544E+02  0.23051591975E+02  0.51100000000E-03 0.  1.
        -12    1    3    3    0    0  0.26979222850E+01 -0.10612471828E+02 -0.45563197239E+00  0.10959513832E+02  0.00000000000E+00 0.  1.
</event>
<event>
 7    1  0.2700100E-010  0.4778728E+02  0.7816164E-02  0.1312668E+00
        -11   -1    0    0    0    0  0.00000000000E+00  0.00000000000E+00  0.45593999997E+02  0.45594000000E+02  0.51100000000E-03 0.  1.
         11   -1    0    0    0    0 -0.00000000000E+00 -0.00000000000E+00 -0.45593999997E+02  0.45594000000E+02  0.51100000000E-03 0. -1.
    9900012    2    1    2    0    0  0.26323463141E+02 -0.33757987383E+02  0.71481698786E+01  0.47787277005E+02  0.20000027175E+02 0.  0.
        -12    1    1    2    0    0 -0.26323463141E+02  0.33757987383E+02 -0.71481698786E+01  0.43400722995E+02  0.00000000000E+00 0.  1.
         11    1    3    3    0    0  0.10168014300E+01 -0.34481954267E+01 -0.30814580379E+01  0.47349045131E+01  0.51100000000E-03 0. -1.
        -11    1    3    3    0    0 -0.10323731063E+01  0.61094099147E+00  0.23072866031E+00  0.12215887612E+01  0.51100000000E-03 0.  1.
         12    1    3    3    0    0  0.26339034818E+02 -0.30920732948E+02  0.99988992562E+01  0.41830783730E+02  0.00000000000E+00 0. -1.
</event>
<event>
 7    1  0.2700100E-010  0.4778727E+02  0.7816164E-02  0.1312668E+00
        -11   -1    0    0    0    0  0.00000000000E+00  0.00000000000E+00  0.45593999997E+02  0.45594000000E+02  0.51100000000E-03 0. -1.
         11   -1    0    0    0    0 -0.00000000000E+00 -0.00000000000E+00 -0.45593999997E+02  0.45594000000E+02  0.51100000000E-03 0.  1.
    9900012    2    1    2    0    0 -0.20766113761E+02  0.23433295679E+02  0.30054492280E+02  0.47787270360E+02  0.19999996877E+02 0.  0.
        -12    1    1    2    0    0  0.20766113761E+02 -0.23433295679E+02 -0.30054492280E+02  0.43400729640E+02  0.00000000000E+00 0.  1.
         11    1    3    3    0    0 -0.20813682022E+02  0.24079276183E+02  0.26669919169E+02  0.41524757550E+02  0.51100000000E-03 0. -1.
        -11    1    3    3    0    0  0.12534343228E+00  0.23077684869E+01  0.13776251697E+01  0.26906054587E+01  0.51100000000E-03 0.  1.
         12    1    3    3    0    0 -0.77775171140E-01 -0.29537489917E+01  0.20069479415E+01  0.35719073508E+01  0.00000000000E+00 0. -1.
</event>
<event>
 7    1  0.2700100E-010  0.4778724E+02  0.7816164E-02  0.1312668E+00
        -11   -1    0    0    0    0  0.00000000000E+00  0.00000000000E+00  0.45593999997E+02  0.45594000000E+02  0.51100000000E-03 0.  1.
         11   -1    0    0    0    0 -0.00000000000E+00 -0.00000000000E+00 -0.45593999997E+02  0.45594000000E+02  0.51100000000E-03 0. -1.
    9900012    2    1    2    0    0 -0.11932979500E+02 -0.39428351296E+02 -0.13661445382E+02  0.47787239919E+02  0.19999858088E+02 0.  0.
        -12    1    1    2    0    0  0.11932979500E+02  0.39428351296E+02  0.13661445382E+02  0.43400760081E+02  0.00000000000E+00 0.  1.
         11    1    3    3    0    0  0.12834591233E+00 -0.75709698241E+00 -0.43425388842E+00  0.88218207572E+00  0.51100000000E-03 0. -1.
        -11    1    3    3    0    0 -0.11101261943E+02 -0.98395559824E+01  0.74266970991E+00  0.14852825900E+02  0.51100000000E-03 0.  1.
        -12    1    3    3    0    0 -0.96006346940E+00 -0.28831698331E+02 -0.13969861204E+02  0.32052231943E+02  0.00000000000E+00 0.  1.
</event>
<event>
 7    1  0.2700100E-010  0.4778727E+02  0.7816164E-02  0.1312668E+00
        -11   -1    0    0    0    0  0.00000000000E+00  0.00000000000E+00  0.45593999997E+02  0.45594000000E+02  0.51100000000E-03 0.  1.
         11   -1    0    0    0    0 -0.00000000000E+00 -0.00000000000E+00 -0.45593999997E+02  0.45594000000E+02  0.51100000000E-03 0. -1.
    9900012    2    1    2    0    0  0.23740708387E+02 -0.81483547246E+01 -0.35406303799E+02  0.47787271110E+02  0.20000000299E+02 0.  0.
        -12    1    1    2    0    0 -0.23740708387E+02  0.81483547246E+01  0.35406303799E+02  0.43400728890E+02  0.00000000000E+00 0.  1.
         11    1    3    3    0    0  0.13106166140E+02 -0.10455974295E+02 -0.18783623523E+02  0.25177837522E+02  0.51100000000E-03 0. -1.
        -11    1    3    3    0    0 -0.87502835289E+00  0.17247810243E+01 -0.79620823868E+01  0.81936133906E+01  0.51100000000E-03 0.  1.
        -12    1    3    3    0    0  0.11509570600E+02  0.58283854636E+00 -0.86605978895E+01  0.14415820198E+02  0.00000000000E+00 0.  1.
</event>
<event>
 7    1  0.2700100E-010  0.4778727E+02  0.7816164E-02  0.1312668E+00
        -11   -1    0    0    0    0  0.00000000000E+00  0.00000000000E+00  0.45593999997E+02  0.45594000000E+02  0.51100000000E-03 0.  1.
         11   -1    0    0    0    0 -0.00000000000E+00 -0.00000000000E+00 -0.45593999997E+02  0.45594000000E+02  0.51100000000E-03 0. -1.
    9900012    2    1    2    0    0  0.28582861971E+02 -0.78891288572E+01 -0.31692346375E+02  0.47787272225E+02  0.20000005384E+02 0.  0.
        -12    1    1    2    0    0 -0.28582861971E+02  0.78891288572E+01  0.31692346375E+02  0.43400727775E+02  0.00000000000E+00 0.  1.
         11    1    3    3    0    0  0.12946784492E+02 -0.99368227334E+00 -0.13943495059E+02  0.19053285487E+02  0.51100000000E-03 0. -1.
        -11    1    3    3    0    0  0.26160177748E+01 -0.60640198087E+01  0.12461431974E+00  0.66054079532E+01  0.51100000000E-03 0.  1.
        -12    1    3    3    0    0  0.13020059705E+02 -0.83142677510E+00 -0.17873465636E+02  0.22128578785E+02  0.00000000000E+00 0.  1.
</event>
<event>
 7    1  0.2700100E-010  0.4778728E+02  0.7816164E-02  0.1312668E+00
        -11   -1    0    0    0    0  0.00000000000E+00  0.00000000000E+00  0.45593999997E+02  0.45594000000E+02  0.51100000000E-03 0.  1.
         11   -1    0    0    0    0 -0.00000000000E+00 -0.00000000000E+00 -0.45593999997E+02  0.45594000000E+02  0.51100000000E-03 0. -1.
    9900012    2    1    2    0    0 -0.91395992736E+01 -0.21794549694E+02 -0.36401757088E+02  0.47787278919E+02  0.20000035901E+02 0.  0.
        -12    1    1    2    0    0  0.91395992736E+01  0.21794549694E+02  0.36401757088E+02  0.43400721081E+02  0.00000000000E+00 0.  1.
         11    1    3    3    0    0 -0.92786257429E+00 -0.20137830293E+02 -0.31068882393E+02  0.37036044487E+02  0.51100000000E-03 0. -1.
        -11    1    3    3    0    0 -0.49688502360E+01  0.73294356265E+00 -0.42513504609E+01  0.65803236954E+01  0.51100000000E-03 0.  1.
         12    1    3    3    0    0 -0.32428864633E+01 -0.23896629646E+01 -0.10815242348E+01  0.41709107361E+01  0.00000000000E+00 0. -1.
</event>
<event>
 7    1  0.2700100E-010  0.4778727E+02  0.7816164E-02  0.1312668E+00
        -11   -1    0    0    0    0  0.00000000000E+00  0.00000000000E+00  0.45593999997E+02  0.45594000000E+02  0.51100000000E-03 0.  1.
         11   -1    0    0    0    0 -0.00000000000E+00 -0.00000000000E+00 -0.45593999997E+02  0.45594000000E+02  0.51100000000E-03 0. -1.
    9900012    2    1    2    0    0  0.31371124018E+02 -0.20264436791E+02 -0.22109471141E+02  0.47787268039E+02  0.19999986295E+02 0.  0.
        -12    1    1    2    0    0 -0.31371124018E+02  0.20264436791E+02  0.22109471141E+02  0.43400731961E+02  0.00000000000E+00 0.  1.
         11    1    3    3    0    0  0.91435013357E+01 -0.14034216126E+02 -0.13298593871E+02  0.21387272808E+02  0.51100000000E-03 0. -1.
        -11    1    3    3    0    0  0.38892764339E+00 -0.24940806034E+01 -0.20008575189E+01  0.32210454576E+01  0.51100000000E-03 0.  1.
         12    1    3    3    0    0  0.21838695039E+02 -0.37361400620E+01 -0.68100197510E+01  0.23178949773E+02  0.00000000000E+00 0. -1.
</event>
<event>
 7    1  0.2700100E-010  0.4778727E+02  0.7816164E-02  0.1312668E+00
        -11   -1    0    0    0    0  0.00000000000E+00  0.00000000000E+00  0.45593999997E+02  0.45594000000E+02  0.51100000000E-03 0.  1.
         11   -1    0    0    0    0 -0.00000000000E+00 -0.00000000000E+00 -0.45593999997E+02  0.45594000000E+02  0.51100000000E-03 0. -1.
    9900012    2    1    2    0    0 -0.31779867682E+02 -0.57327162117E+01 -0.28996538787E+02  0.47787270897E+02  0.19999999327E+02 0.  0.
        -12    1    1    2    0    0  0.31779867682E+02  0.57327162117E+01  0.28996538787E+02  0.43400729103E+02  0.00000000000E+00 0.  1.
         11    1    3    3    0    0 -0.12939331583E+02 -0.23341339411E+01 -0.72404513295E+01  0.15009950659E+02  0.51100000000E-03 0. -1.
        -11    1    3    3    0    0 -0.16060818042E+02 -0.84728703712E+01 -0.19276776495E+02  0.26482702294E+02  0.51100000000E-03 0.  1.
        -12    1    3    3    0    0 -0.27797180566E+01  0.50742881006E+01 -0.24793109633E+01  0.62946179436E+01  0.00000000000E+00 0.  1.
</event>
<event>
 7    1  0.2700100E-010  0.4778727E+02  0.7816164E-02  0.1312668E+00
        -11   -1    0    0    0    0  0.00000000000E+00  0.00000000000E+00  0.45593999997E+02  0.45594000000E+02  0.51100000000E-03 0.  1.
         11   -1    0    0    0    0 -0.00000000000E+00 -0.00000000000E+00 -0.45593999997E+02  0.45594000000E+02  0.51100000000E-03 0. -1.
    9900012    2    1    2    0    0 -0.13338770030E+02  0.20545580811E+02 -0.35827076391E+02  0.47787273284E+02  0.20000010209E+02 0.  0.
        -12    1    1    2    0    0  0.13338770030E+02 -0.20545580811E+02  0.35827076391E+02  0.43400726716E+02  0.00000000000E+00 0.  1.
         11    1    3    3    0    0 -0.13175306543E+02  0.64341049448E+01 -0.92854289297E+01  0.17355275844E+02  0.51100000000E-03 0. -1.
        -11    1    3    3    0    0  0.12451646007E+01  0.31134396976E+01 -0.97442150885E+01  0.10305031275E+02  0.51100000000E-03 0.  1.
         12    1    3    3    0    0 -0.14086280880E+01  0.10998036169E+02 -0.16797432373E+02  0.20126966164E+02  0.00000000000E+00 0. -1.
</event>
<event>
 7    1  0.2700100E-010  0.4778725E+02  0.7816164E-02  0.1312668E+00
        -11   -1    0    0    0    0  0.00000000000E+00  0.00000000000E+00  0.45593999997E+02  0.45594000000E+02  0.51100000000E-03 0.  1.
         11   -1    0    0    0    0 -0.00000000000E+00 -0.00000000000E+00 -0.45593999997E+02  0.45594000000E+02  0.51100000000E-03 0. -1.
    9900012    2    1    2    0    0 -0.10860338073E+02 -0.37535733933E+02 -0.18887731550E+02  0.47787254983E+02  0.19999926768E+02 0.  0.
        -12    1    1    2    0    0  0.10860338073E+02  0.37535733933E+02  0.18887731550E+02  0.43400745017E+02  0.00000000000E+00 0.  1.
         11    1    3    3    0    0  0.15159607010E+01  0.14164771774E+01 -0.16607755436E+01  0.26575778650E+01  0.51100000000E-03 0.  1.
        -11    1    3    3    0    0  0.11063888160E+01 -0.55122887964E+01 -0.29612916992E+01  0.63544215138E+01  0.51100000000E-03 0. -1.
         12    1    3    3    0    0 -0.13482687590E+02 -0.33439922314E+02 -0.14265664307E+02  0.38775255604E+02  0.00000000000E+00 0. -1.
</event>
<event>
 7    1  0.2700100E-010  0.4778727E+02  0.7816164E-02  0.1312668E+00
        -11   -1    0    0    0    0  0.00000000000E+00  0.00000000000E+00  0.45593999997E+02  0.45594000000E+02  0.51100000000E-03 0. -1.
         11   -1    0    0    0    0 -0.00000000000E+00 -0.00000000000E+00 -0.45593999997E+02  0.45594000000E+02  0.51100000000E-03 0.  1.
    9900012    2    1    2    0    0 -0.24032501559E+02  0.42089460994E+01  0.35893546227E+02  0.47787273978E+02  0.20000013375E+02 0.  0.
        -12    1    1    2    0    0  0.24032501559E+02 -0.42089460994E+01 -0.35893546227E+02  0.43400726022E+02  0.00000000000E+00 0.  1.
         11    1    3    3    0    0 -0.13393472502E+02  0.53830172845E+01  0.23218284503E+02  0.27339544917E+02  0.51100000000E-03 0. -1.
        -11    1    3    3    0    0 -0.43337283936E+01 -0.38553342012E+01 -0.26390749299E+00  0.58064146440E+01  0.51100000000E-03 0.  1.
        -12    1    3    3    0    0 -0.63053006637E+01  0.26812630161E+01  0.12939169218E+02  0.14641314417E+02  0.00000000000E+00 0.  1.
</event>
<event>
 7    1  0.3090173E-010  0.4778727E+02  0.7816164E-02  0.1312668E+00
        -11   -1    0    0    0    0  0.00000000000E+00  0.00000000000E+00  0.45593999997E+02  0.45594000000E+02  0.51100000000E-03 0. -1.
         11   -1    0    0    0    0 -0.00000000000E+00 -0.00000000000E+00 -0.45593999997E+02  0.45594000000E+02  0.51100000000E-03 0.  1.
    9900012    2    1    2    0    0  0.20584838720E+00  0.40522457471E+02  0.15540631794E+02  0.47787272246E+02  0.20000005476E+02 0.  0.
        -12    1    1    2    0    0 -0.20584838720E+00 -0.40522457471E+02 -0.15540631794E+02  0.43400727754E+02  0.00000000000E+00 0.  1.
         11    1    3    3    0    0  0.11888839125E+00  0.32369259574E+02  0.13869325769E+02  0.35215639954E+02  0.51100000000E-03 0. -1.
        -11    1    3    3    0    0 -0.24872684455E+01 -0.11488617142E+01 -0.17333440480E+00  0.27452563879E+01  0.51100000000E-03 0.  1.
        -12    1    3    3    0    0  0.25742284415E+01  0.93020596116E+01  0.18446404291E+01  0.98263759037E+01  0.00000000000E+00 0.  1.
</event>
<event>
 7    1  0.2700100E-010  0.4778727E+02  0.7816164E-02  0.1312668E+00
        -11   -1    0    0    0    0  0.00000000000E+00  0.00000000000E+00  0.45593999997E+02  0.45594000000E+02  0.51100000000E-03 0.  1.
         11   -1    0    0    0    0 -0.00000000000E+00 -0.00000000000E+00 -0.45593999997E+02  0.45594000000E+02  0.51100000000E-03 0. -1.
    9900012    2    1    2    0    0 -0.35254477896E+02 -0.18141786732E+02 -0.17652780689E+02  0.47787270702E+02  0.19999998439E+02 0.  0.
        -12    1    1    2    0    0  0.35254477896E+02  0.18141786732E+02  0.17652780689E+02  0.43400729298E+02  0.00000000000E+00 0.  1.
         11    1    3    3    0    0 -0.78025876132E+01 -0.10596499887E+02 -0.55136122249E+01  0.14267659351E+02  0.51100000000E-03 0. -1.
        -11    1    3    3    0    0 -0.85336443472E+01  0.14070171533E+01  0.11538621166E+01  0.87254903106E+01  0.51100000000E-03 0.  1.
        -12    1    3    3    0    0 -0.18918245935E+02 -0.89523039980E+01 -0.13293030581E+02  0.24794121040E+02  0.00000000000E+00 0.  1.
</event>
<event>
 7    1  0.2700100E-010  0.4778727E+02  0.7816164E-02  0.1312668E+00
        -11   -1    0    0    0    0  0.00000000000E+00  0.00000000000E+00  0.45593999997E+02  0.45594000000E+02  0.51100000000E-03 0.  1.
         11   -1    0    0    0    0 -0.00000000000E+00 -0.00000000000E+00 -0.45593999997E+02  0.45594000000E+02  0.51100000000E-03 0. -1.
    9900012    2    1    2    0    0 -0.21886830709E+02  0.64424761849E+01 -0.36919971271E+02  0.47787272627E+02  0.20000007214E+02 0.  0.
        -12    1    1    2    0    0  0.21886830709E+02 -0.64424761849E+01  0.36919971271E+02  0.43400727373E+02  0.00000000000E+00 0.  1.
         11    1    3    3    0    0 -0.13763807330E+02  0.70883807207E+01 -0.19111002344E+02  0.24595079677E+02  0.51100000000E-03 0. -1.
        -11    1    3    3    0    0 -0.55268444600E+01 -0.50192588872E+01 -0.16233275377E+02  0.17867797827E+02  0.51100000000E-03 0.  1.
        -12    1    3    3    0    0 -0.25961789191E+01  0.43733543515E+01 -0.15756935510E+01  0.53243951234E+01  0.00000000000E+00 0.  1.
</event>
<event>
 7    1  0.2700100E-010  0.4778727E+02  0.7816164E-02  0.1312668E+00
        -11   -1    0    0    0    0  0.00000000000E+00  0.00000000000E+00  0.45593999997E+02  0.45594000000E+02  0.51100000000E-03 0.  1.
         11   -1    0    0    0    0 -0.00000000000E+00 -0.00000000000E+00 -0.45593999997E+02  0.45594000000E+02  0.51100000000E-03 0. -1.
    9900012    2    1    2    0    0 -0.27214408788E+00 -0.30888368897E+02 -0.30487020214E+02  0.47787265017E+02  0.19999972519E+02 0.  0.
        -12    1    1    2    0    0  0.27214408788E+00  0.30888368897E+02  0.30487020214E+02  0.43400734983E+02  0.00000000000E+00 0.  1.
         11    1    3    3    0    0  0.49073008425E+00 -0.29889303703E+01 -0.84440407751E+01  0.89708609201E+01  0.51100000000E-03 0. -1.
        -11    1    3    3    0    0  0.44861254570E+01 -0.20290318620E+02 -0.20950018182E+02  0.29508060142E+02  0.51100000000E-03 0.  1.
        -12    1    3    3    0    0 -0.52489996291E+01 -0.76091199071E+01 -0.10929612573E+01  0.93083439546E+01  0.00000000000E+00 0.  1.
</event>
<event>
 7    1  0.2700100E-010  0.4778727E+02  0.7816164E-02  0.1312668E+00
        -11   -1    0    0    0    0  0.00000000000E+00  0.00000000000E+00  0.45593999997E+02  0.45594000000E+02  0.51100000000E-03 0.  1.
         11   -1    0    0    0    0 -0.00000000000E+00 -0.00000000000E+00 -0.45593999997E+02  0.45594000000E+02  0.51100000000E-03 0. -1.
    9900012    2    1    2    0    0 -0.42490717052E+02  0.47359594740E+01 -0.74654379339E+01  0.47787272918E+02  0.20000008540E+02 0.  0.
        -12    1    1    2    0    0  0.42490717052E+02 -0.47359594740E+01  0.74654379339E+01  0.43400727082E+02  0.00000000000E+00 0.  1.
         11    1    3    3    0    0 -0.17312203424E+02 -0.47834314929E+01 -0.55481116728E+01  0.18798275124E+02  0.51100000000E-03 0. -1.
        -11    1    3    3    0    0 -0.12123409962E+02  0.10181531501E+02 -0.48738600242E+00  0.15839135020E+02  0.51100000000E-03 0.  1.
        -12    1    3    3    0    0 -0.13055103667E+02 -0.66214053355E+00 -0.14299402587E+01  0.13149862774E+02  0.00000000000E+00 0.  1.
</event>
<event>
 7    1  0.2700100E-010  0.4778727E+02  0.7816164E-02  0.1312668E+00
        -11   -1    0    0    0    0  0.00000000000E+00  0.00000000000E+00  0.45593999997E+02  0.45594000000E+02  0.51100000000E-03 0.  1.
         11   -1    0    0    0    0 -0.00000000000E+00 -0.00000000000E+00 -0.45593999997E+02  0.45594000000E+02  0.51100000000E-03 0. -1.
    9900012    2    1    2    0    0 -0.10669598882E+01  0.42671272807E+02  0.78515691446E+01  0.47787273457E+02  0.20000011001E+02 0.  0.
        -12    1    1    2    0    0  0.10669598882E+01 -0.42671272807E+02 -0.78515691446E+01  0.43400726543E+02  0.00000000000E+00 0.  1.
         11    1    3    3    0    0 -0.31578197661E+01  0.37084449749E+02  0.91341477091E+01  0.38323111741E+02  0.51100000000E-03 0. -1.
        -11    1    3    3    0    0  0.41150409587E+01  0.50527307262E+01 -0.25718204897E+01  0.70055628450E+01  0.51100000000E-03 0.  1.
         12    1    3    3    0    0 -0.20241810808E+01  0.53409233182E+00  0.12892419252E+01  0.24585988710E+01  0.00000000000E+00 0. -1.
</event>
<event>
 7    1  0.2700100E-010  0.4778727E+02  0.7816164E-02  0.1312668E+00
        -11   -1    0    0    0    0  0.00000000000E+00  0.00000000000E+00  0.45593999997E+02  0.45594000000E+02  0.51100000000E-03 0. -1.
         11   -1    0    0    0    0 -0.00000000000E+00 -0.00000000000E+00 -0.45593999997E+02  0.45594000000E+02  0.51100000000E-03 0.  1.
    9900012    2    1    2    0    0 -0.38280323945E+02 -0.11456603731E+02  0.16940669567E+02  0.47787271254E+02  0.20000000953E+02 0.  0.
        -12    1    1    2    0    0  0.38280323945E+02  0.11456603731E+02 -0.16940669567E+02  0.43400728746E+02  0.00000000000E+00 0.  1.
         11    1    3    3    0    0 -0.27079840992E+02 -0.32684623066E+00  0.10771778715E+02  0.29145425603E+02  0.51100000000E-03 0. -1.
        -11    1    3    3    0    0 -0.12517423360E+01 -0.56824526988E+01  0.40853147513E+01  0.71096360264E+01  0.51100000000E-03 0.  1.
        -12    1    3    3    0    0 -0.99487406169E+01 -0.54473048011E+01  0.20835761001E+01  0.11532209625E+02  0.00000000000E+00 0.  1.
</event>
<event>
 7    1  0.2700100E-010  0.4778725E+02  0.7816164E-02  0.1312668E+00
        -11   -1    0    0    0    0  0.00000000000E+00  0.00000000000E+00  0.45593999997E+02  0.45594000000E+02  0.51100000000E-03 0.  1.
         11   -1    0    0    0    0 -0.00000000000E+00 -0.00000000000E+00 -0.45593999997E+02  0.45594000000E+02  0.51100000000E-03 0. -1.
    9900012    2    1    2    0    0  0.69004206163E+01  0.20691081784E+01 -0.42798694269E+02  0.47787248343E+02  0.19999896493E+02 0.  0.
        -12    1    1    2    0    0 -0.69004206163E+01 -0.20691081784E+01  0.42798694269E+02  0.43400751657E+02  0.00000000000E+00 0.  1.
         11    1    3    3    0    0 -0.48855771566E+00 -0.11072255917E+01 -0.49552609861E+01  0.51009066698E+01  0.51100000000E-03 0. -1.
        -11    1    3    3    0    0 -0.10593534700E+01 -0.63655676779E+01 -0.83171680584E+01  0.10527011276E+02  0.51100000000E-03 0.  1.
        -12    1    3    3    0    0  0.84483318019E+01  0.95419014480E+01 -0.29526265224E+02  0.32159330397E+02  0.00000000000E+00 0.  1.
</event>
<event>
 7    1  0.2700100E-010  0.4778727E+02  0.7816164E-02  0.1312668E+00
        -11   -1    0    0    0    0  0.00000000000E+00  0.00000000000E+00  0.45593999997E+02  0.45594000000E+02  0.51100000000E-03 0.  1.
         11   -1    0    0    0    0 -0.00000000000E+00 -0.00000000000E+00 -0.45593999997E+02  0.45594000000E+02  0.51100000000E-03 0. -1.
    9900012    2    1    2    0    0 -0.79917812288E+01  0.33304381931E+02 -0.26656574276E+02  0.47787269878E+02  0.19999994681E+02 0.  0.
        -12    1    1    2    0    0  0.79917812288E+01 -0.33304381931E+02  0.26656574276E+02  0.43400730122E+02  0.00000000000E+00 0.  1.
         11    1    3    3    0    0 -0.47861797127E+01  0.66650936693E+01 -0.73364035094E+01  0.11006988988E+02  0.51100000000E-03 0. -1.
        -11    1    3    3    0    0  0.16133261385E+01  0.16001194164E+02 -0.19272921795E+02  0.25101524868E+02  0.51100000000E-03 0.  1.
        -12    1    3    3    0    0 -0.48189276546E+01  0.10638094097E+02 -0.47248971418E-01  0.11678756022E+02  0.00000000000E+00 0.  1.
</event>
<event>
 7    1  0.2700100E-010  0.4778727E+02  0.7816164E-02  0.1312668E+00
        -11   -1    0    0    0    0  0.00000000000E+00  0.00000000000E+00  0.45593999997E+02  0.45594000000E+02  0.51100000000E-03 0.  1.
         11   -1    0    0    0    0 -0.00000000000E+00 -0.00000000000E+00 -0.45593999997E+02  0.45594000000E+02  0.51100000000E-03 0. -1.
    9900012    2    1    2    0    0 -0.74211765070E+01 -0.34932600959E+02  0.24662989709E+02  0.47787268072E+02  0.19999986446E+02 0.  0.
        -12    1    1    2    0    0  0.74211765070E+01  0.34932600959E+02 -0.24662989709E+02  0.43400731928E+02  0.00000000000E+00 0.  1.
         11    1    3    3    0    0 -0.37840176226E+00 -0.38504611521E+01  0.51151650958E+00  0.39026770784E+01  0.51100000000E-03 0. -1.
        -11    1    3    3    0    0 -0.37833807525E+01 -0.21871484108E+02  0.55598907830E+01  0.22882049139E+02  0.51100000000E-03 0.  1.
        -12    1    3    3    0    0 -0.32593939922E+01 -0.92106556987E+01  0.18591582416E+02  0.21002541854E+02  0.00000000000E+00 0.  1.
</event>
<event>
 7    1  0.2700100E-010  0.4778727E+02  0.7816164E-02  0.1312668E+00
        -11   -1    0    0    0    0  0.00000000000E+00  0.00000000000E+00  0.45593999997E+02  0.45594000000E+02  0.51100000000E-03 0.  1.
         11   -1    0    0    0    0 -0.00000000000E+00 -0.00000000000E+00 -0.45593999997E+02  0.45594000000E+02  0.51100000000E-03 0. -1.
    9900012    2    1    2    0    0 -0.12444190994E+02  0.80722809304E+01 -0.40787299060E+02  0.47787269896E+02  0.19999994764E+02 0.  0.
        -12    1    1    2    0    0  0.12444190994E+02 -0.80722809304E+01  0.40787299060E+02  0.43400730104E+02  0.00000000000E+00 0.  1.
         11    1    3    3    0    0 -0.27966827473E+01 -0.31287243201E+01 -0.37445239580E+01  0.56242164070E+01  0.51100000000E-03 0. -1.
        -11    1    3    3    0    0 -0.12082385455E+02  0.12483684322E+02 -0.32484362555E+02  0.36838298324E+02  0.51100000000E-03 0.  1.
        -12    1    3    3    0    0  0.24348772078E+01 -0.12826790713E+01 -0.45584125473E+01  0.53247551651E+01  0.00000000000E+00 0.  1.
</event>
<event>
 7    1  0.2700100E-010  0.4778727E+02  0.7816164E-02  0.1312668E+00
        -11   -1    0    0    0    0  0.00000000000E+00  0.00000000000E+00  0.45593999997E+02  0.45594000000E+02  0.51100000000E-03 0.  1.
         11   -1    0    0    0    0 -0.00000000000E+00 -0.00000000000E+00 -0.45593999997E+02  0.45594000000E+02  0.51100000000E-03 0. -1.
    9900012    2    1    2    0    0 -0.21136304470E+02 -0.33148148627E+02 -0.18386949322E+02  0.47787273860E+02  0.20000012839E+02 0.  0.
        -12    1    1    2    0    0  0.21136304470E+02  0.33148148627E+02  0.18386949322E+02  0.43400726140E+02  0.00000000000E+00 0.  1.
         11    1    3    3    0    0 -0.76330918886E+01 -0.12934443907E+02 -0.85882519785E+01  0.17300924925E+02  0.51100000000E-03 0. -1.
        -11    1    3    3    0    0 -0.17023147086E+02 -0.16278539214E+02 -0.74137778958E+01  0.24692964151E+02  0.51100000000E-03 0.  1.
        -12    1    3    3    0    0  0.35199345043E+01 -0.39351655069E+01 -0.23849194481E+01  0.57933847839E+01  0.00000000000E+00 0.  1.
</event>
<event>
 7    1  0.2700100E-010  0.4778726E+02  0.7816164E-02  0.1312668E+00
        -11   -1    0    0    0    0  0.00000000000E+00  0.00000000000E+00  0.45593999997E+02  0.45594000000E+02  0.51100000000E-03 0. -1.
         11   -1    0    0    0    0 -0.00000000000E+00 -0.00000000000E+00 -0.45593999997E+02  0.45594000000E+02  0.51100000000E-03 0.  1.
    9900012    2    1    2    0    0  0.30896741460E+02 -0.27935601844E+02 -0.12190875969E+02  0.47787263369E+02  0.19999965005E+02 0.  0.
        -12    1    1    2    0    0 -0.30896741460E+02  0.27935601844E+02  0.12190875969E+02  0.43400736631E+02  0.00000000000E+00 0.  1.
         11    1    3    3    0    0  0.25159628950E+01 -0.10549151190E+02 -0.34995508348E-01  0.10845085756E+02  0.51100000000E-03 0. -1.
        -11    1    3    3    0    0  0.45712256491E+01 -0.80901630570E+01 -0.25400805601E+01  0.96332160640E+01  0.51100000000E-03 0.  1.
         12    1    3    3    0    0  0.23809552916E+02 -0.92962875971E+01 -0.96157999008E+01  0.27308961549E+02  0.00000000000E+00 0. -1.
</event>
<event>
 7    1  0.2700100E-010  0.4778727E+02  0.7816164E-02  0.1312668E+00
        -11   -1    0    0    0    0  0.00000000000E+00  0.00000000000E+00  0.45593999997E+02  0.45594000000E+02  0.51100000000E-03 0. -1.
         11   -1    0    0    0    0 -0.00000000000E+00 -0.00000000000E+00 -0.45593999997E+02  0.45594000000E+02  0.51100000000E-03 0.  1.
    9900012    2    1    2    0    0 -0.23204669394E+02  0.23184072789E+02  0.28419451171E+02  0.47787272844E+02  0.20000008206E+02 0.  0.
        -12    1    1    2    0    0  0.23204669394E+02 -0.23184072789E+02 -0.28419451171E+02  0.43400727156E+02  0.00000000000E+00 0.  1.
         11    1    3    3    0    0 -0.53425971701E+01  0.26554670344E+01  0.77170039379E+01  0.97543323571E+01  0.51100000000E-03 0. -1.
        -11    1    3    3    0    0 -0.97196451418E+00  0.12092493215E+02  0.38552237028E+01  0.12729330588E+02  0.51100000000E-03 0.  1.
        -12    1    3    3    0    0 -0.16890107710E+02  0.84361125398E+01  0.16847223531E+02  0.25303609899E+02  0.00000000000E+00 0.  1.
</event>
<event>
 7    1  0.2700100E-010  0.4778727E+02  0.7816164E-02  0.1312668E+00
        -11   -1    0    0    0    0  0.00000000000E+00  0.00000000000E+00  0.45593999997E+02  0.45594000000E+02  0.51100000000E-03 0. -1.
         11   -1    0    0    0    0 -0.00000000000E+00 -0.00000000000E+00 -0.45593999997E+02  0.45594000000E+02  0.51100000000E-03 0.  1.
    9900012    2    1    2    0    0 -0.26483737776E+02  0.33123479968E+02  0.92233392528E+01  0.47787270989E+02  0.19999999746E+02 0.  0.
        -12    1    1    2    0    0  0.26483737776E+02 -0.33123479968E+02 -0.92233392528E+01  0.43400729011E+02  0.00000000000E+00 0.  1.
         11    1    3    3    0    0 -0.20435764824E+01  0.54455774913E+01 -0.14639702937E+00  0.58182429826E+01  0.51100000000E-03 0. -1.
        -11    1    3    3    0    0 -0.24356085182E+01 -0.16948645564E+01 -0.19634574887E+01  0.35580781736E+01  0.51100000000E-03 0.  1.
        -12    1    3    3    0    0 -0.22004552775E+02  0.29372767033E+02  0.11333193771E+02  0.38410949833E+02  0.00000000000E+00 0.  1.
</event>
<event>
 7    1  0.2700100E-010  0.4778727E+02  0.7816164E-02  0.1312668E+00
        -11   -1    0    0    0    0  0.00000000000E+00  0.00000000000E+00  0.45593999997E+02  0.45594000000E+02  0.51100000000E-03 0.  1.
         11   -1    0    0    0    0 -0.00000000000E+00 -0.00000000000E+00 -0.45593999997E+02  0.45594000000E+02  0.51100000000E-03 0. -1.
    9900012    2    1    2    0    0  0.36040476361E+02 -0.24044433374E+02  0.25637822800E+01  0.47787266225E+02  0.19999978026E+02 0.  0.
        -12    1    1    2    0    0 -0.36040476361E+02  0.24044433374E+02 -0.25637822800E+01  0.43400733775E+02  0.00000000000E+00 0.  1.
         11    1    3    3    0    0  0.27877170669E+01  0.19741910769E+01 -0.28399093370E+00  0.34277467766E+01  0.51100000000E-03 0. -1.
        -11    1    3    3    0    0  0.31869253011E+02 -0.24253270628E+02  0.59952971085E+01  0.40494617066E+02  0.51100000000E-03 0.  1.
        -12    1    3    3    0    0  0.13835062836E+01 -0.17653538227E+01 -0.31475238948E+01  0.38649023823E+01  0.00000000000E+00 0.  1.
</event>
<event>
 7    1  0.2700100E-010  0.4778727E+02  0.7816164E-02  0.1312668E+00
        -11   -1    0    0    0    0  0.00000000000E+00  0.00000000000E+00  0.45593999997E+02  0.45594000000E+02  0.51100000000E-03 0.  1.
         11   -1    0    0    0    0 -0.00000000000E+00 -0.00000000000E+00 -0.45593999997E+02  0.45594000000E+02  0.51100000000E-03 0. -1.
    9900012    2    1    2    0    0  0.37488549033E+02 -0.20836359248E+02 -0.66391178098E+01  0.47787273502E+02  0.20000011205E+02 0.  0.
        -12    1    1    2    0    0 -0.37488549033E+02  0.20836359248E+02  0.66391178098E+01  0.43400726498E+02  0.00000000000E+00 0.  1.
         11    1    3    3    0    0  0.17488532567E+02 -0.58925725667E+01 -0.96196920852E+01  0.20811286815E+02  0.51100000000E-03 0. -1.
        -11    1    3    3    0    0  0.53595493293E+01 -0.58653821886E+01  0.53621279687E+01  0.95854000357E+01  0.51100000000E-03 0.  1.
         12    1    3    3    0    0  0.14640467136E+02 -0.90784044924E+01 -0.23815536933E+01  0.17390586651E+02  0.00000000000E+00 0. -1.
</event>
<event>
 7    1  0.2700100E-010  0.4778727E+02  0.7816164E-02  0.1312668E+00
        -11   -1    0    0    0    0  0.00000000000E+00  0.00000000000E+00  0.45593999997E+02  0.45594000000E+02  0.51100000000E-03 0.  1.
         11   -1    0    0    0    0 -0.00000000000E+00 -0.00000000000E+00 -0.45593999997E+02  0.45594000000E+02  0.51100000000E-03 0. -1.
    9900012    2    1    2    0    0 -0.40880227224E+02 -0.13561447191E+02 -0.53401664453E+01  0.47787271833E+02  0.20000003595E+02 0.  0.
        -12    1    1    2    0    0  0.40880227224E+02  0.13561447191E+02  0.53401664453E+01  0.43400728167E+02  0.00000000000E+00 0.  1.
         11    1    3    3    0    0 -0.81161113655E+01 -0.82922863598E+00 -0.34537509741E+01  0.88593047064E+01  0.51100000000E-03 0. -1.
        -11    1    3    3    0    0 -0.11764635232E+02 -0.75560580103E+00 -0.76785578286E+01  0.14069038093E+02  0.51100000000E-03 0.  1.
        -12    1    3    3    0    0 -0.20999480626E+02 -0.11976612754E+02  0.57921423574E+01  0.24858929034E+02  0.00000000000E+00 0.  1.
</event>
<event>
 7    1  0.2700100E-010  0.4778727E+02  0.7816164E-02  0.1312668E+00
        -11   -1    0    0    0    0  0.00000000000E+00  0.00000000000E+00  0.45593999997E+02  0.45594000000E+02  0.51100000000E-03 0.  1.
         11   -1    0    0    0    0 -0.00000000000E+00 -0.00000000000E+00 -0.45593999997E+02  0.45594000000E+02  0.51100000000E-03 0. -1.
    9900012    2    1    2    0    0  0.35462069931E+02  0.24499161348E+02 -0.50849166450E+01  0.47787266275E+02  0.19999978254E+02 0.  0.
        -12    1    1    2    0    0 -0.35462069931E+02 -0.24499161348E+02  0.50849166450E+01  0.43400733725E+02  0.00000000000E+00 0.  1.
         11    1    3    3    0    0 -0.90925012868E+00  0.71247807364E+00 -0.29076148939E+01  0.31286715127E+01  0.51100000000E-03 0. -1.
        -11    1    3    3    0    0  0.46354765239E+01  0.36794085442E+01  0.31646341596E+01  0.67112293556E+01  0.51100000000E-03 0.  1.
         12    1    3    3    0    0  0.31735843536E+02  0.20107274730E+02 -0.53419359107E+01  0.37947365407E+02  0.00000000000E+00 0. -1.
</event>
<event>
 7    1  0.2700100E-010  0.4778727E+02  0.7816164E-02  0.1312668E+00
        -11   -1    0    0    0    0  0.00000000000E+00  0.00000000000E+00  0.45593999997E+02  0.45594000000E+02  0.51100000000E-03 0.  1.
         11   -1    0    0    0    0 -0.00000000000E+00 -0.00000000000E+00 -0.45593999997E+02  0.45594000000E+02  0.51100000000E-03 0. -1.
    9900012    2    1    2    0    0  0.11540049072E+01 -0.22115541369E+02 -0.37325517675E+02  0.47787272275E+02  0.20000005611E+02 0.  0.
        -12    1    1    2    0    0 -0.11540049072E+01  0.22115541369E+02  0.37325517675E+02  0.43400727725E+02  0.00000000000E+00 0.  1.
         11    1    3    3    0    0 -0.32421941989E+01 -0.20035447800E+01 -0.71995573199E+01  0.81461426929E+01  0.51100000000E-03 0. -1.
        -11    1    3    3    0    0 -0.47974879811E+01 -0.21674354809E+01 -0.38558758941E+01  0.65254460893E+01  0.51100000000E-03 0.  1.
         12    1    3    3    0    0  0.91936870872E+01 -0.17944561108E+02 -0.26270084461E+02  0.33115683493E+02  0.00000000000E+00 0. -1.
</event>
<event>
 7    1  0.2700100E-010  0.4778727E+02  0.7816164E-02  0.1312668E+00
        -11   -1    0    0    0    0  0.00000000000E+00  0.00000000000E+00  0.45593999997E+02  0.45594000000E+02  0.51100000000E-03 0. -1.
         11   -1    0    0    0    0 -0.00000000000E+00 -0.00000000000E+00 -0.45593999997E+02  0.45594000000E+02  0.51100000000E-03 0.  1.
    9900012    2    1    2    0    0 -0.25465455444E+02 -0.15034520403E+02  0.31766285226E+02  0.47787273028E+02  0.20000009042E+02 0.  0.
        -12    1    1    2    0    0  0.25465455444E+02  0.15034520403E+02 -0.31766285226E+02  0.43400726972E+02  0.00000000000E+00 0.  1.
         11    1    3    3    0    0 -0.12069655450E+02 -0.78173511891E+01  0.16426081029E+02  0.21831255129E+02  0.51100000000E-03 0. -1.
        -11    1    3    3    0    0 -0.35981670823E+01 -0.33039795225E+01 -0.23017560369E+01  0.54001081611E+01  0.51100000000E-03 0.  1.
        -12    1    3    3    0    0 -0.97976329117E+01 -0.39131896912E+01  0.17641960234E+02  0.20555909737E+02  0.00000000000E+00 0.  1.
</event>
<event>
 7    1  0.2700100E-010  0.4778727E+02  0.7816164E-02  0.1312668E+00
        -11   -1    0    0    0    0  0.00000000000E+00  0.00000000000E+00  0.45593999997E+02  0.45594000000E+02  0.51100000000E-03 0.  1.
         11   -1    0    0    0    0 -0.00000000000E+00 -0.00000000000E+00 -0.45593999997E+02  0.45594000000E+02  0.51100000000E-03 0. -1.
    9900012    2    1    2    0    0 -0.35330848293E+02 -0.24777246964E+02  0.46306398207E+01  0.47787266903E+02  0.19999981116E+02 0.  0.
        -12    1    1    2    0    0  0.35330848293E+02  0.24777246964E+02 -0.46306398207E+01  0.43400733097E+02  0.00000000000E+00 0.  1.
         11    1    3    3    0    0 -0.11958616001E+02 -0.15131178018E+02 -0.43298842952E+01  0.19766358875E+02  0.51100000000E-03 0. -1.
        -11    1    3    3    0    0 -0.12999737698E+02 -0.29753718709E+01  0.82213702447E+01  0.15666427383E+02  0.51100000000E-03 0.  1.
         12    1    3    3    0    0 -0.10372494594E+02 -0.66706970750E+01  0.73915387117E+00  0.12354480645E+02  0.00000000000E+00 0. -1.
</event>
<event>
 7    1  0.2700100E-010  0.4778727E+02  0.7816164E-02  0.1312668E+00
        -11   -1    0    0    0    0  0.00000000000E+00  0.00000000000E+00  0.45593999997E+02  0.45594000000E+02  0.51100000000E-03 0.  1.
         11   -1    0    0    0    0 -0.00000000000E+00 -0.00000000000E+00 -0.45593999997E+02  0.45594000000E+02  0.51100000000E-03 0. -1.
    9900012    2    1    2    0    0 -0.34990550272E+02 -0.24432434916E+02 -0.78956198464E+01  0.47787270778E+02  0.19999998783E+02 0.  0.
        -12    1    1    2    0    0  0.34990550272E+02  0.24432434916E+02  0.78956198464E+01  0.43400729222E+02  0.00000000000E+00 0.  1.
         11    1    3    3    0    0 -0.17532871131E+02 -0.13035404019E+02 -0.11144498980E+02  0.24525969620E+02  0.51100000000E-03 0. -1.
        -11    1    3    3    0    0 -0.14819090593E+02 -0.10845477700E+02  0.60876784604E+01  0.19346567185E+02  0.51100000000E-03 0.  1.
        -12    1    3    3    0    0 -0.26385885481E+01 -0.55155319687E+00 -0.28387993272E+01  0.39147339725E+01  0.00000000000E+00 0.  1.
</event>
<event>
 7    1  0.2700100E-010  0.4778727E+02  0.7816164E-02  0.1312668E+00
        -11   -1    0    0    0    0  0.00000000000E+00  0.00000000000E+00  0.45593999997E+02  0.45594000000E+02  0.51100000000E-03 0.  1.
         11   -1    0    0    0    0 -0.00000000000E+00 -0.00000000000E+00 -0.45593999997E+02  0.45594000000E+02  0.51100000000E-03 0. -1.
    9900012    2    1    2    0    0  0.70220177727E+01  0.18729141782E+02 -0.38516670877E+02  0.47787269350E+02  0.19999992276E+02 0.  0.
        -12    1    1    2    0    0 -0.70220177727E+01 -0.18729141782E+02  0.38516670877E+02  0.43400730650E+02  0.00000000000E+00 0.  1.
         11    1    3    3    0    0  0.31160442735E+01 -0.17513988181E+01 -0.12664143453E+02  0.13158938384E+02  0.51100000000E-03 0. -1.
        -11    1    3    3    0    0 -0.17094092117E+01  0.10897586109E+01 -0.27791014957E+00  0.20461886510E+01  0.51100000000E-03 0.  1.
         12    1    3    3    0    0  0.56153827109E+01  0.19390781989E+02 -0.25574617274E+02  0.32582142316E+02  0.00000000000E+00 0. -1.
</event>
<event>
 7    1  0.3372501E-010  0.4778727E+02  0.7816164E-02  0.1312668E+00
        -11   -1    0    0    0    0  0.00000000000E+00  0.00000000000E+00  0.45593999997E+02  0.45594000000E+02  0.51100000000E-03 0. -1.
         11   -1    0    0    0    0 -0.00000000000E+00 -0.00000000000E+00 -0.45593999997E+02  0.45594000000E+02  0.51100000000E-03 0.  1.
    9900012    2    1    2    0    0 -0.18223217794E+02  0.22350149746E+02  0.32434682300E+02  0.47787268712E+02  0.19999989366E+02 0.  0.
        -12    1    1    2    0    0  0.18223217794E+02 -0.22350149746E+02 -0.32434682300E+02  0.43400731288E+02  0.00000000000E+00 0.  1.
         11    1    3    3    0    0 -0.76000998070E+01  0.62362487989E+01  0.97707167234E+01  0.13860707836E+02  0.51100000000E-03 0. -1.
        -11    1    3    3    0    0 -0.82815658641E+01 -0.37378733263E-01  0.42066148174E+01  0.92887748823E+01  0.51100000000E-03 0.  1.
        -12    1    3    3    0    0 -0.23415521231E+01  0.16151279680E+02  0.18457350759E+02  0.24637785994E+02  0.00000000000E+00 0.  1.
</event>
<event>
 7    1  0.2700100E-010  0.4778726E+02  0.7816164E-02  0.1312668E+00
        -11   -1    0    0    0    0  0.00000000000E+00  0.00000000000E+00  0.45593999997E+02  0.45594000000E+02  0.51100000000E-03 0.  1.
         11   -1    0    0    0    0 -0.00000000000E+00 -0.00000000000E+00 -0.45593999997E+02  0.45594000000E+02  0.51100000000E-03 0. -1.
    9900012    2    1    2    0    0 -0.30457194982E+02 -0.17173971399E+02  0.25710658548E+02  0.47787262878E+02  0.19999962765E+02 0.  0.
        -12    1    1    2    0    0  0.30457194982E+02  0.17173971399E+02 -0.25710658548E+02  0.43400737122E+02  0.00000000000E+00 0.  1.
         11    1    3    3    0    0 -0.39469950261E+01 -0.95315963144E+01  0.11002687252E+02  0.15082745939E+02  0.51100000000E-03 0.  1.
        -11    1    3    3    0    0 -0.13674054839E+02 -0.37497974617E+01  0.21705151172E+01  0.14344054269E+02  0.51100000000E-03 0. -1.
         12    1    3    3    0    0 -0.12836145117E+02 -0.38925776233E+01  0.12537456178E+02  0.18360462670E+02  0.00000000000E+00 0. -1.
</event>
<event>
 7    1  0.2700100E-010  0.4778727E+02  0.7816164E-02  0.1312668E+00
        -11   -1    0    0    0    0  0.00000000000E+00  0.00000000000E+00  0.45593999997E+02  0.45594000000E+02  0.51100000000E-03 0.  1.
         11   -1    0    0    0    0 -0.00000000000E+00 -0.00000000000E+00 -0.45593999997E+02  0.45594000000E+02  0.51100000000E-03 0. -1.
    9900012    2    1    2    0    0 -0.45484518774E+01  0.21969859012E+02 -0.37151850190E+02  0.47787273139E+02  0.20000009552E+02 0.  0.
        -12    1    1    2    0    0  0.45484518774E+01 -0.21969859012E+02  0.37151850190E+02  0.43400726861E+02  0.00000000000E+00 0.  1.
         11    1    3    3    0    0 -0.78662116462E+01  0.62387919536E+01 -0.22480454378E+02  0.24620532894E+02  0.51100000000E-03 0. -1.
        -11    1    3    3    0    0  0.13859066560E+01  0.71398297293E+01 -0.16673725574E+01  0.74617717286E+01  0.51100000000E-03 0.  1.
         12    1    3    3    0    0  0.19318531127E+01  0.85912373289E+01 -0.13004023255E+02  0.15704968516E+02  0.00000000000E+00 0. -1.
</event>
<event>
 7    1  0.2700100E-010  0.4778727E+02  0.7816164E-02  0.1312668E+00
        -11   -1    0    0    0    0  0.00000000000E+00  0.00000000000E+00  0.45593999997E+02  0.45594000000E+02  0.51100000000E-03 0. -1.
         11   -1    0    0    0    0 -0.00000000000E+00 -0.00000000000E+00 -0.45593999997E+02  0.45594000000E+02  0.51100000000E-03 0.  1.
    9900012    2    1    2    0    0 -0.21074487278E+02  0.19356717966E+02  0.32631373415E+02  0.47787273331E+02  0.20000010425E+02 0.  0.
        -12    1    1    2    0    0  0.21074487278E+02 -0.19356717966E+02 -0.32631373415E+02  0.43400726669E+02  0.00000000000E+00 0.  1.
         11    1    3    3    0    0 -0.21020350327E+02  0.11833780807E+02  0.16269985767E+02  0.29096493486E+02  0.51100000000E-03 0. -1.
        -11    1    3    3    0    0  0.71631865217E+00  0.58235897285E+01  0.69471137856E+01  0.90933877047E+01  0.51100000000E-03 0.  1.
         12    1    3    3    0    0 -0.77045560270E+00  0.16993474299E+01  0.94142738626E+01  0.95973921398E+01  0.00000000000E+00 0. -1.
</event>
<event>
 7    1  0.2700100E-010  0.4778733E+02  0.7816164E-02  0.1312668E+00
        -11   -1    0    0    0    0  0.00000000000E+00  0.00000000000E+00  0.45593999997E+02  0.45594000000E+02  0.51100000000E-03 0.  1.
         11   -1    0    0    0    0 -0.00000000000E+00 -0.00000000000E+00 -0.45593999997E+02  0.45594000000E+02  0.51100000000E-03 0. -1.
    9900012    2    1    2    0    0  0.67311135046E+01  0.29076742131E+00 -0.42874535472E+02  0.47787329191E+02  0.20000265112E+02 0.  0.
        -12    1    1    2    0    0 -0.67311135046E+01 -0.29076742131E+00  0.42874535472E+02  0.43400670809E+02  0.00000000000E+00 0.  1.
         11    1    3    3    0    0  0.11089253179E+02  0.26666435558E+00 -0.32800793118E+02  0.34625636101E+02  0.51100000000E-03 0. -1.
        -11    1    3    3    0    0 -0.23682571743E+01  0.30748291823E+01 -0.21404933031E+01  0.44322599636E+01  0.51100000000E-03 0.  1.
         12    1    3    3    0    0 -0.19898825004E+01 -0.30507261165E+01 -0.79332490513E+01  0.87294331267E+01  0.00000000000E+00 0. -1.
</event>
<event>
 7    1  0.3257930E-010  0.4778727E+02  0.7816164E-02  0.1312668E+00
        -11   -1    0    0    0    0  0.00000000000E+00  0.00000000000E+00  0.45593999997E+02  0.45594000000E+02  0.51100000000E-03 0. -1.
         11   -1    0    0    0    0 -0.00000000000E+00 -0.00000000000E+00 -0.45593999997E+02  0.45594000000E+02  0.51100000000E-03 0.  1.
    9900012    2    1    2    0    0 -0.40632515402E+02  0.14989676515E+02 -0.28163294936E+01  0.47787269341E+02  0.19999992236E+02 0.  0.
        -12    1    1    2    0    0  0.40632515402E+02 -0.14989676515E+02  0.28163294936E+01  0.43400730659E+02  0.00000000000E+00 0.  1.
         11    1    3    3    0    0 -0.98542127052E+01  0.86472643849E+01 -0.38743867602E+01  0.13670828885E+02  0.51100000000E-03 0. -1.
        -11    1    3    3    0    0 -0.16631992890E+02  0.30581561867E+01  0.71598898078E+01  0.18364082582E+02  0.51100000000E-03 0.  1.
        -12    1    3    3    0    0 -0.14146309806E+02  0.32842559431E+01 -0.61018325411E+01  0.15752357874E+02  0.00000000000E+00 0.  1.
</event>
<event>
 7    1  0.2700100E-010  0.4778728E+02  0.7816164E-02  0.1312668E+00
        -11   -1    0    0    0    0  0.00000000000E+00  0.00000000000E+00  0.45593999997E+02  0.45594000000E+02  0.51100000000E-03 0.  1.
         11   -1    0    0    0    0 -0.00000000000E+00 -0.00000000000E+00 -0.45593999997E+02  0.45594000000E+02  0.51100000000E-03 0. -1.
    9900012    2    1    2    0    0 -0.10451037938E+02  0.10688845900E+02 -0.40744905136E+02  0.47787275176E+02  0.20000018839E+02 0.  0.
        -12    1    1    2    0    0  0.10451037938E+02 -0.10688845900E+02  0.40744905136E+02  0.43400724824E+02  0.00000000000E+00 0.  1.
         11    1    3    3    0    0  0.70996875245E+00 -0.39351951387E+01 -0.78475088539E+01  0.88075656048E+01  0.51100000000E-03 0. -1.
        -11    1    3    3    0    0 -0.12990059380E+02  0.11925047057E+02 -0.28279288358E+02  0.33326664104E+02  0.51100000000E-03 0.  1.
        -12    1    3    3    0    0  0.18290526900E+01  0.26989939814E+01 -0.46181079249E+01  0.56530454677E+01  0.00000000000E+00 0.  1.
</event>
<event>
 7    1  0.2700100E-010  0.4778727E+02  0.7816164E-02  0.1312668E+00
        -11   -1    0    0    0    0  0.00000000000E+00  0.00000000000E+00  0.45593999997E+02  0.45594000000E+02  0.51100000000E-03 0.  1.
         11   -1    0    0    0    0 -0.00000000000E+00 -0.00000000000E+00 -0.45593999997E+02  0.45594000000E+02  0.51100000000E-03 0. -1.
    9900012    2    1    2    0    0  0.17209372920E+02  0.92554232218E+01 -0.38753034703E+02  0.47787273347E+02  0.20000010497E+02 0.  0.
        -12    1    1    2    0    0 -0.17209372920E+02 -0.92554232218E+01  0.38753034703E+02  0.43400726653E+02  0.00000000000E+00 0.  1.
         11    1    3    3    0    0  0.14000486676E+02  0.83355755624E+01 -0.40128429995E+02  0.43310349124E+02  0.51100000000E-03 0. -1.
        -11    1    3    3    0    0  0.25576406183E+01  0.15146350313E+01  0.16205562642E+00  0.29768955469E+01  0.51100000000E-03 0.  1.
         12    1    3    3    0    0  0.65124562553E+00 -0.59478737196E+00  0.12133396655E+01  0.15000286752E+01  0.00000000000E+00 0. -1.
</event>
<event>
 7    1  0.2700100E-010  0.4778728E+02  0.7816164E-02  0.1312668E+00
        -11   -1    0    0    0    0  0.00000000000E+00  0.00000000000E+00  0.45593999997E+02  0.45594000000E+02  0.51100000000E-03 0.  1.
         11   -1    0    0    0    0 -0.00000000000E+00 -0.00000000000E+00 -0.45593999997E+02  0.45594000000E+02  0.51100000000E-03 0. -1.
    9900012    2    1    2    0    0  0.30945886157E+01 -0.53953720701E+01 -0.42952721310E+02  0.47787276660E+02  0.20000025606E+02 0.  0.
        -12    1    1    2    0    0 -0.30945886157E+01  0.53953720701E+01  0.42952721310E+02  0.43400723340E+02  0.00000000000E+00 0.  1.
         11    1    3    3    0    0  0.21200724250E+01 -0.57379364723E+01 -0.61654237582E+01  0.86851063567E+01  0.51100000000E-03 0. -1.
        -11    1    3    3    0    0 -0.78550257592E+00  0.22716852843E+01 -0.36379909488E+02  0.36459229050E+02  0.51100000000E-03 0.  1.
        -12    1    3    3    0    0  0.17600187666E+01 -0.19291208820E+01 -0.40738806398E+00  0.26429412538E+01  0.00000000000E+00 0.  1.
</event>
<event>
 7    1  0.2700100E-010  0.4778727E+02  0.7816164E-02  0.1312668E+00
        -11   -1    0    0    0    0  0.00000000000E+00  0.00000000000E+00  0.45593999997E+02  0.45594000000E+02  0.51100000000E-03 0.  1.
         11   -1    0    0    0    0 -0.00000000000E+00 -0.00000000000E+00 -0.45593999997E+02  0.45594000000E+02  0.51100000000E-03 0. -1.
    9900012    2    1    2    0    0  0.15163390277E+02 -0.39856072168E+02 -0.80739304915E+01  0.47787271355E+02  0.20000001414E+02 0.  0.
        -12    1    1    2    0    0 -0.15163390277E+02  0.39856072168E+02  0.80739304915E+01  0.43400728645E+02  0.00000000000E+00 0.  1.
         11    1    3    3    0    0 -0.23715108469E+01 -0.74488610722E+01 -0.35668583784E+01  0.85925592184E+01  0.51100000000E-03 0. -1.
        -11    1    3    3    0    0  0.10487449974E+02 -0.17634498378E+02  0.37579523146E+01  0.20858675554E+02  0.51100000000E-03 0.  1.
        -12    1    3    3    0    0  0.70474511500E+01 -0.14772712718E+02 -0.82650244277E+01  0.18336036582E+02  0.00000000000E+00 0.  1.
</event>
<event>
 7    1  0.2700100E-010  0.4778727E+02  0.7816164E-02  0.1312668E+00
        -11   -1    0    0    0    0  0.00000000000E+00  0.00000000000E+00  0.45593999997E+02  0.45594000000E+02  0.51100000000E-03 0. -1.
         11   -1    0    0    0    0 -0.00000000000E+00 -0.00000000000E+00 -0.45593999997E+02  0.45594000000E+02  0.51100000000E-03 0.  1.
    9900012    2    1    2    0    0  0.29034343121E+02  0.21119729621E+02  0.24384164069E+02  0.47787268243E+02  0.19999987226E+02 0.  0.
        -12    1    1    2    0    0 -0.29034343121E+02 -0.21119729621E+02 -0.24384164069E+02  0.43400731757E+02  0.00000000000E+00 0.  1.
         11    1    3    3    0    0  0.61830628765E+01  0.13617340484E+02  0.10086083846E+02  0.18038606266E+02  0.51100000000E-03 0.  1.
        -11    1    3    3    0    0  0.19177522013E+01  0.54784731405E+00  0.57597645403E+01  0.60953095087E+01  0.51100000000E-03 0. -1.
        -12    1    3    3    0    0  0.20933528043E+02  0.69545418234E+01  0.85383156817E+01  0.23653352468E+02  0.00000000000E+00 0.  1.
</event>
<event>
 7    1  0.2700100E-010  0.4778727E+02  0.7816164E-02  0.1312668E+00
        -11   -1    0    0    0    0  0.00000000000E+00  0.00000000000E+00  0.45593999997E+02  0.45594000000E+02  0.51100000000E-03 0.  1.
         11   -1    0    0    0    0 -0.00000000000E+00 -0.00000000000E+00 -0.45593999997E+02  0.45594000000E+02  0.51100000000E-03 0. -1.
    9900012    2    1    2    0    0 -0.19135900553E+02  0.33863899930E+02 -0.19252967266E+02  0.47787272391E+02  0.20000006142E+02 0.  0.
        -12    1    1    2    0    0  0.19135900553E+02 -0.33863899930E+02  0.19252967266E+02  0.43400727609E+02  0.00000000000E+00 0.  1.
         11    1    3    3    0    0 -0.19964671861E+01  0.12102127352E+02 -0.11615918276E+02  0.16893102892E+02  0.51100000000E-03 0. -1.
        -11    1    3    3    0    0 -0.18236560848E+02  0.18495720775E+02 -0.85226414506E+01  0.27336774793E+02  0.51100000000E-03 0.  1.
        -12    1    3    3    0    0  0.10971274812E+01  0.32660518033E+01  0.88559246055E+00  0.35573947065E+01  0.00000000000E+00 0.  1.
</event>
<event>
 7    1  0.2700100E-010  0.4778727E+02  0.7816164E-02  0.1312668E+00
        -11   -1    0    0    0    0  0.00000000000E+00  0.00000000000E+00  0.45593999997E+02  0.45594000000E+02  0.51100000000E-03 0.  1.
         11   -1    0    0    0    0 -0.00000000000E+00 -0.00000000000E+00 -0.45593999997E+02  0.45594000000E+02  0.51100000000E-03 0. -1.
    9900012    2    1    2    0    0 -0.36178637485E+02  0.35490643247E+01 -0.23709357479E+02  0.47787270744E+02  0.19999998630E+02 0.  0.
        -12    1    1    2    0    0  0.36178637485E+02 -0.35490643247E+01  0.23709357479E+02  0.43400729256E+02  0.00000000000E+00 0.  1.
         11    1    3    3    0    0 -0.23653802372E+02 -0.24058538394E+01 -0.12403684837E+02  0.26816821160E+02  0.51100000000E-03 0. -1.
        -11    1    3    3    0    0  0.61361168295E+00  0.20422034841E+01  0.11721725212E+01  0.24333316766E+01  0.51100000000E-03 0.  1.
        -12    1    3    3    0    0 -0.13138446797E+02  0.39127146801E+01 -0.12477845163E+02  0.18537117907E+02  0.00000000000E+00 0.  1.
</event>
<event>
 7    1  0.2700100E-010  0.4778727E+02  0.7816164E-02  0.1312668E+00
        -11   -1    0    0    0    0  0.00000000000E+00  0.00000000000E+00  0.45593999997E+02  0.45594000000E+02  0.51100000000E-03 0. -1.
         11   -1    0    0    0    0 -0.00000000000E+00 -0.00000000000E+00 -0.45593999997E+02  0.45594000000E+02  0.51100000000E-03 0.  1.
    9900012    2    1    2    0    0  0.41252918993E+02 -0.13482415979E+02 -0.21069407771E+00  0.47787271226E+02  0.20000000829E+02 0.  0.
        -12    1    1    2    0    0 -0.41252918993E+02  0.13482415979E+02  0.21069407771E+00  0.43400728774E+02  0.00000000000E+00 0.  1.
         11    1    3    3    0    0  0.30331909161E+02 -0.87519733494E+01  0.10649910284E+01  0.31587275239E+02  0.51100000000E-03 0. -1.
        -11    1    3    3    0    0  0.47558126472E+01 -0.78716909401E+01 -0.12442691370E+01  0.92805968632E+01  0.51100000000E-03 0.  1.
        -12    1    3    3    0    0  0.61651971848E+01  0.31412483102E+01 -0.31415969132E-01  0.69193991239E+01  0.00000000000E+00 0.  1.
</event>
<event>
 7    1  0.2700100E-010  0.4778728E+02  0.7816164E-02  0.1312668E+00
        -11   -1    0    0    0    0  0.00000000000E+00  0.00000000000E+00  0.45593999997E+02  0.45594000000E+02  0.51100000000E-03 0.  1.
         11   -1    0    0    0    0 -0.00000000000E+00 -0.00000000000E+00 -0.45593999997E+02  0.45594000000E+02  0.51100000000E-03 0. -1.
    9900012    2    1    2    0    0 -0.35923973351E+02  0.10342771687E+02 -0.22048082078E+02  0.47787277531E+02  0.20000029577E+02 0.  0.
        -12    1    1    2    0    0  0.35923973351E+02 -0.10342771687E+02  0.22048082078E+02  0.43400722469E+02  0.00000000000E+00 0.  1.
         11    1    3    3    0    0 -0.32005262410E+01 -0.39786694187E+01  0.75461005603E+00  0.51616484926E+01  0.51100000000E-03 0.  1.
        -11    1    3    3    0    0 -0.26222430177E+02  0.12350559946E+02 -0.20295812239E+02  0.35384631834E+02  0.51100000000E-03 0. -1.
        -12    1    3    3    0    0 -0.65010169330E+01  0.19708811603E+01 -0.25068798950E+01  0.72409972047E+01  0.00000000000E+00 0.  1.
</event>
<event>
 7    1  0.2700100E-010  0.4778727E+02  0.7816164E-02  0.1312668E+00
        -11   -1    0    0    0    0  0.00000000000E+00  0.00000000000E+00  0.45593999997E+02  0.45594000000E+02  0.51100000000E-03 0. -1.
         11   -1    0    0    0    0 -0.00000000000E+00 -0.00000000000E+00 -0.45593999997E+02  0.45594000000E+02  0.51100000000E-03 0.  1.
    9900012    2    1    2    0    0 -0.28373990139E+02  0.16126304601E+02  0.28609128854E+02  0.47787271086E+02  0.20000000188E+02 0.  0.
        -12    1    1    2    0    0  0.28373990139E+02 -0.16126304601E+02 -0.28609128854E+02  0.43400728914E+02  0.00000000000E+00 0.  1.
         11    1    3    3    0    0 -0.40217327278E+01  0.24322023411E+01  0.45539685355E+01  0.65443542115E+01  0.51100000000E-03 0. -1.
        -11    1    3    3    0    0 -0.14485746612E+02  0.14494456573E+02  0.23709533079E+02  0.31337965558E+02  0.51100000000E-03 0.  1.
        -12    1    3    3    0    0 -0.98665107994E+01 -0.80035431374E+00  0.34562723983E+00  0.99049513159E+01  0.00000000000E+00 0.  1.
</event>
<event>
 7    1  0.2700100E-010  0.4778727E+02  0.7816164E-02  0.1312668E+00
        -11   -1    0    0    0    0  0.00000000000E+00  0.00000000000E+00  0.45593999997E+02  0.45594000000E+02  0.51100000000E-03 0.  1.
         11   -1    0    0    0    0 -0.00000000000E+00 -0.00000000000E+00 -0.45593999997E+02  0.45594000000E+02  0.51100000000E-03 0. -1.
    9900012    2    1    2    0    0  0.97985076400E+01 -0.14220575564E+02 -0.39816928659E+02  0.47787270408E+02  0.19999997096E+02 0.  0.
        -12    1    1    2    0    0 -0.97985076400E+01  0.14220575564E+02  0.39816928659E+02  0.43400729592E+02  0.00000000000E+00 0.  1.
         11    1    3    3    0    0  0.14526927864E+02 -0.90779712681E+01 -0.30573184113E+02  0.35045124948E+02  0.51100000000E-03 0. -1.
        -11    1    3    3    0    0 -0.18821036958E+01 -0.49261809246E+01 -0.35031658241E+01  0.63310144429E+01  0.51100000000E-03 0.  1.
         12    1    3    3    0    0 -0.28463165286E+01 -0.21642337080E+00 -0.57405787216E+01  0.64111310168E+01  0.00000000000E+00 0. -1.
</event>
<event>
 7    1  0.2700100E-010  0.4778727E+02  0.7816164E-02  0.1312668E+00
        -11   -1    0    0    0    0  0.00000000000E+00  0.00000000000E+00  0.45593999997E+02  0.45594000000E+02  0.51100000000E-03 0. -1.
         11   -1    0    0    0    0 -0.00000000000E+00 -0.00000000000E+00 -0.45593999997E+02  0.45594000000E+02  0.51100000000E-03 0.  1.
    9900012    2    1    2    0    0  0.27369220496E+02 -0.32226848816E+02  0.97968972667E+01  0.47787271766E+02  0.20000003290E+02 0.  0.
        -12    1    1    2    0    0 -0.27369220496E+02  0.32226848816E+02 -0.97968972667E+01  0.43400728234E+02  0.00000000000E+00 0.  1.
         11    1    3    3    0    0  0.28636343396E+01 -0.47024665590E+01  0.67845995425E+01  0.87375273723E+01  0.51100000000E-03 0. -1.
        -11    1    3    3    0    0  0.96158790373E+01 -0.17810941209E+02 -0.25994614664E+01  0.20407154544E+02  0.51100000000E-03 0.  1.
        -12    1    3    3    0    0  0.14889707119E+02 -0.97134410480E+01  0.56117591906E+01  0.18642589850E+02  0.00000000000E+00 0.  1.
</event>
<event>
 7    1  0.2700100E-010  0.4778728E+02  0.7816164E-02  0.1312668E+00
        -11   -1    0    0    0    0  0.00000000000E+00  0.00000000000E+00  0.45593999997E+02  0.45594000000E+02  0.51100000000E-03 0.  1.
         11   -1    0    0    0    0 -0.00000000000E+00 -0.00000000000E+00 -0.45593999997E+02  0.45594000000E+02  0.51100000000E-03 0. -1.
    9900012    2    1    2    0    0 -0.38304312491E+02 -0.19466804861E+02 -0.61192786223E+01  0.47787280907E+02  0.20000044969E+02 0.  0.
        -12    1    1    2    0    0  0.38304312491E+02  0.19466804861E+02  0.61192786223E+01  0.43400719093E+02  0.00000000000E+00 0.  1.
         11    1    3    3    0    0 -0.27301322656E+02 -0.67960491557E+01 -0.89308543619E+01  0.29517937983E+02  0.51100000000E-03 0. -1.
        -11    1    3    3    0    0 -0.64934496772E+00 -0.14535108628E+01  0.25449758679E+01  0.30018736057E+01  0.51100000000E-03 0.  1.
         12    1    3    3    0    0 -0.10353644868E+02 -0.11217244842E+02  0.26659987164E+00  0.15267469319E+02  0.00000000000E+00 0. -1.
</event>
<event>
 7    1  0.2700100E-010  0.4778727E+02  0.7816164E-02  0.1312668E+00
        -11   -1    0    0    0    0  0.00000000000E+00  0.00000000000E+00  0.45593999997E+02  0.45594000000E+02  0.51100000000E-03 0.  1.
         11   -1    0    0    0    0 -0.00000000000E+00 -0.00000000000E+00 -0.45593999997E+02  0.45594000000E+02  0.51100000000E-03 0. -1.
    9900012    2    1    2    0    0  0.46462825857E+01 -0.35887874726E+02 -0.23960298855E+02  0.47787269413E+02  0.19999992562E+02 0.  0.
        -12    1    1    2    0    0 -0.46462825857E+01  0.35887874726E+02  0.23960298855E+02  0.43400730587E+02  0.00000000000E+00 0.  1.
         11    1    3    3    0    0 -0.16854104784E+01 -0.56625881097E+01 -0.27749523845E+01  0.65273174872E+01  0.51100000000E-03 0. -1.
        -11    1    3    3    0    0  0.79888396189E+01 -0.26122671568E+02 -0.97606593043E+01  0.29008378076E+02  0.51100000000E-03 0.  1.
        -12    1    3    3    0    0 -0.16571465548E+01 -0.41026150486E+01 -0.11424687166E+02  0.12251573850E+02  0.00000000000E+00 0.  1.
</event>
<event>
 7    1  0.2700100E-010  0.4778727E+02  0.7816164E-02  0.1312668E+00
        -11   -1    0    0    0    0  0.00000000000E+00  0.00000000000E+00  0.45593999997E+02  0.45594000000E+02  0.51100000000E-03 0.  1.
         11   -1    0    0    0    0 -0.00000000000E+00 -0.00000000000E+00 -0.45593999997E+02  0.45594000000E+02  0.51100000000E-03 0. -1.
    9900012    2    1    2    0    0 -0.31129248859E+01  0.42962124205E+02 -0.53093083268E+01  0.47787272213E+02  0.20000005327E+02 0.  0.
        -12    1    1    2    0    0  0.31129248859E+01 -0.42962124205E+02  0.53093083268E+01  0.43400727787E+02  0.00000000000E+00 0.  1.
         11    1    3    3    0    0 -0.23269924430E+01  0.32705554330E+02 -0.70730001960E+01  0.33542443410E+02  0.51100000000E-03 0. -1.
        -11    1    3    3    0    0  0.29158048996E+01  0.55706101733E+01 -0.26458009257E+01  0.68215745041E+01  0.51100000000E-03 0.  1.
         12    1    3    3    0    0 -0.37017373425E+01  0.46859597013E+01  0.44094927950E+01  0.74232542987E+01  0.00000000000E+00 0. -1.
</event>
<event>
 7    1  0.2700100E-010  0.4778722E+02  0.7816164E-02  0.1312668E+00
        -11   -1    0    0    0    0  0.00000000000E+00  0.00000000000E+00  0.45593999997E+02  0.45594000000E+02  0.51100000000E-03 0. -1.
         11   -1    0    0    0    0 -0.00000000000E+00 -0.00000000000E+00 -0.45593999997E+02  0.45594000000E+02  0.51100000000E-03 0.  1.
    9900012    2    1    2    0    0 -0.30262778003E+01  0.20486413083E+02  0.38141527416E+02  0.47787221297E+02  0.19999773182E+02 0.  0.
        -12    1    1    2    0    0  0.30262778003E+01 -0.20486413083E+02 -0.38141527416E+02  0.43400778703E+02  0.00000000000E+00 0.  1.
         11    1    3    3    0    0 -0.61199307411E+01  0.76414242462E+01  0.30702425023E+02  0.32225515036E+02  0.51100000000E-03 0. -1.
        -11    1    3    3    0    0  0.10543393737E+01  0.34309899283E+01  0.35907146937E+00  0.36072504743E+01  0.51100000000E-03 0.  1.
         12    1    3    3    0    0  0.20393135671E+01  0.94139989087E+01  0.70800309235E+01  0.11954455787E+02  0.00000000000E+00 0. -1.
</event>
<event>
 7    1  0.2700100E-010  0.4778726E+02  0.7816164E-02  0.1312668E+00
        -11   -1    0    0    0    0  0.00000000000E+00  0.00000000000E+00  0.45593999997E+02  0.45594000000E+02  0.51100000000E-03 0.  1.
         11   -1    0    0    0    0 -0.00000000000E+00 -0.00000000000E+00 -0.45593999997E+02  0.45594000000E+02  0.51100000000E-03 0. -1.
    9900012    2    1    2    0    0 -0.97642422225E+01 -0.30865914939E+02 -0.28906387399E+02  0.47787258489E+02  0.19999942756E+02 0.  0.
        -12    1    1    2    0    0  0.97642422225E+01  0.30865914939E+02  0.28906387399E+02  0.43400741511E+02  0.00000000000E+00 0.  1.
         11    1    3    3    0    0 -0.23624351640E+01  0.15732479727E+01 -0.50633280657E+01  0.58046102755E+01  0.51100000000E-03 0. -1.
        -11    1    3    3    0    0 -0.71037108236E+01 -0.21337544425E+02 -0.20380040858E+02  0.30349622324E+02  0.51100000000E-03 0.  1.
        -12    1    3    3    0    0 -0.29809623491E+00 -0.11101618487E+02 -0.34630184749E+01  0.11633025890E+02  0.00000000000E+00 0.  1.
</event>
<event>
 7    1  0.2700100E-010  0.4778727E+02  0.7816164E-02  0.1312668E+00
        -11   -1    0    0    0    0  0.00000000000E+00  0.00000000000E+00  0.45593999997E+02  0.45594000000E+02  0.51100000000E-03 0. -1.
         11   -1    0    0    0    0 -0.00000000000E+00 -0.00000000000E+00 -0.45593999997E+02  0.45594000000E+02  0.51100000000E-03 0.  1.
    9900012    2    1    2    0    0 -0.21590061292E+02 -0.37297456949E+02 -0.51373867972E+01  0.47787265161E+02  0.19999973177E+02 0.  0.
        -12    1    1    2    0    0  0.21590061292E+02  0.37297456949E+02  0.51373867972E+01  0.43400734839E+02  0.00000000000E+00 0.  1.
         11    1    3    3    0    0 -0.93715000862E+01 -0.58459180306E+01 -0.14691137171E+01  0.11142623877E+02  0.51100000000E-03 0. -1.
        -11    1    3    3    0    0  0.23327872100E+01 -0.11631625866E+02 -0.80621141142E+00  0.11890609469E+02  0.51100000000E-03 0.  1.
        -12    1    3    3    0    0 -0.14551348415E+02 -0.19819913053E+02 -0.28620616687E+01  0.24754031815E+02  0.00000000000E+00 0.  1.
</event>
<event>
 7    1  0.2700100E-010  0.4778727E+02  0.7816164E-02  0.1312668E+00
        -11   -1    0    0    0    0  0.00000000000E+00  0.00000000000E+00  0.45593999997E+02  0.45594000000E+02  0.51100000000E-03 0. -1.
         11   -1    0    0    0    0 -0.00000000000E+00 -0.00000000000E+00 -0.45593999997E+02  0.45594000000E+02  0.51100000000E-03 0.  1.
    9900012    2    1    2    0    0 -0.40835216604E+02 -0.12693863924E+02 -0.74144501830E+01  0.47787272265E+02  0.20000005565E+02 0.  0.
        -12    1    1    2    0    0  0.40835216604E+02  0.12693863924E+02  0.74144501830E+01  0.43400727735E+02  0.00000000000E+00 0.  1.
         11    1    3    3    0    0 -0.86774310933E+01 -0.96474275272E+01 -0.26302119274E+01  0.13239663263E+02  0.51100000000E-03 0. -1.
        -11    1    3    3    0    0  0.47906177564E+00 -0.13130698948E+00  0.11455386204E+01  0.12485994963E+01  0.51100000000E-03 0.  1.
         12    1    3    3    0    0 -0.32636847286E+02 -0.29151294071E+01 -0.59297768761E+01  0.33299009506E+02  0.00000000000E+00 0. -1.
</event>
<event>
 7    1  0.2700100E-010  0.4778728E+02  0.7816164E-02  0.1312668E+00
        -11   -1    0    0    0    0  0.00000000000E+00  0.00000000000E+00  0.45593999997E+02  0.45594000000E+02  0.51100000000E-03 0.  1.
         11   -1    0    0    0    0 -0.00000000000E+00 -0.00000000000E+00 -0.45593999997E+02  0.45594000000E+02  0.51100000000E-03 0. -1.
    9900012    2    1    2    0    0 -0.14381586525E+02  0.26759745744E+02 -0.30995296412E+02  0.47787280848E+02  0.20000044696E+02 0.  0.
        -12    1    1    2    0    0  0.14381586525E+02 -0.26759745744E+02  0.30995296412E+02  0.43400719152E+02  0.00000000000E+00 0.  1.
         11    1    3    3    0    0 -0.71369403741E+01  0.23099505093E+02 -0.30238688215E+02  0.38715646949E+02  0.51100000000E-03 0. -1.
        -11    1    3    3    0    0 -0.67595880552E+01  0.39426147648E+01  0.34748581071E+00  0.78330701842E+01  0.51100000000E-03 0.  1.
        -12    1    3    3    0    0 -0.48505809593E+00 -0.28237411383E+00 -0.11040940077E+01  0.12385637143E+01  0.00000000000E+00 0.  1.
</event>
<event>
 7    1  0.2700100E-010  0.4778727E+02  0.7816164E-02  0.1312668E+00
        -11   -1    0    0    0    0  0.00000000000E+00  0.00000000000E+00  0.45593999997E+02  0.45594000000E+02  0.51100000000E-03 0. -1.
         11   -1    0    0    0    0 -0.00000000000E+00 -0.00000000000E+00 -0.45593999997E+02  0.45594000000E+02  0.51100000000E-03 0.  1.
    9900012    2    1    2    0    0  0.42228554208E+02 -0.51262372313E+01  0.86078006267E+01  0.47787270394E+02  0.19999997036E+02 0.  0.
        -12    1    1    2    0    0 -0.42228554208E+02  0.51262372313E+01 -0.86078006267E+01  0.43400729606E+02  0.00000000000E+00 0.  1.
         11    1    3    3    0    0  0.17581069913E+02 -0.25219222918E+01 -0.57520946090E+01  0.18669244869E+02  0.51100000000E-03 0. -1.
        -11    1    3    3    0    0  0.99566323770E+00 -0.11988671978E+01  0.14837103844E+01  0.21517491970E+01  0.51100000000E-03 0.  1.
         12    1    3    3    0    0  0.23651821058E+02 -0.14054477417E+01  0.12876184851E+02  0.26966276329E+02  0.00000000000E+00 0. -1.
</event>
<event>
 7    1  0.2700100E-010  0.4778728E+02  0.7816164E-02  0.1312668E+00
        -11   -1    0    0    0    0  0.00000000000E+00  0.00000000000E+00  0.45593999997E+02  0.45594000000E+02  0.51100000000E-03 0. -1.
         11   -1    0    0    0    0 -0.00000000000E+00 -0.00000000000E+00 -0.45593999997E+02  0.45594000000E+02  0.51100000000E-03 0.  1.
    9900012    2    1    2    0    0 -0.13623568590E+02  0.32277114820E+02  0.25616563064E+02  0.47787284967E+02  0.20000063476E+02 0.  0.
        -12    1    1    2    0    0  0.13623568590E+02 -0.32277114820E+02 -0.25616563064E+02  0.43400715033E+02  0.00000000000E+00 0.  1.
         11    1    3    3    0    0 -0.16046482555E+01  0.79753928021E+01  0.34657450800E+01  0.88426905177E+01  0.51100000000E-03 0. -1.
        -11    1    3    3    0    0 -0.14606313709E+02  0.15253619379E+02  0.94494268932E+01  0.23136745086E+02  0.51100000000E-03 0.  1.
        -12    1    3    3    0    0  0.25873933743E+01  0.90481026387E+01  0.12701391091E+02  0.15807849363E+02  0.00000000000E+00 0.  1.
</event>
<event>
 7    1  0.2700100E-010  0.4778727E+02  0.7816164E-02  0.1312668E+00
        -11   -1    0    0    0    0  0.00000000000E+00  0.00000000000E+00  0.45593999997E+02  0.45594000000E+02  0.51100000000E-03 0.  1.
         11   -1    0    0    0    0 -0.00000000000E+00 -0.00000000000E+00 -0.45593999997E+02  0.45594000000E+02  0.51100000000E-03 0. -1.
    9900012    2    1    2    0    0  0.18055896959E+02 -0.38658197771E+02 -0.79467849057E+01  0.47787273506E+02  0.20000011222E+02 0.  0.
        -12    1    1    2    0    0 -0.18055896959E+02  0.38658197771E+02  0.79467849057E+01  0.43400726494E+02  0.00000000000E+00 0.  1.
         11    1    3    3    0    0  0.74648009915E+01 -0.22721728498E+02  0.33159050764E+01  0.24145298228E+02  0.51100000000E-03 0. -1.
        -11    1    3    3    0    0 -0.15788564845E-01 -0.27484826392E+01  0.79567258084E+00  0.28613809977E+01  0.51100000000E-03 0.  1.
         12    1    3    3    0    0  0.10606884532E+02 -0.13187986634E+02 -0.12058362563E+02  0.20780594280E+02  0.00000000000E+00 0. -1.
</event>
<event>
 7    1  0.2700100E-010  0.4778727E+02  0.7816164E-02  0.1312668E+00
        -11   -1    0    0    0    0  0.00000000000E+00  0.00000000000E+00  0.45593999997E+02  0.45594000000E+02  0.51100000000E-03 0.  1.
         11   -1    0    0    0    0 -0.00000000000E+00 -0.00000000000E+00 -0.45593999997E+02  0.45594000000E+02  0.51100000000E-03 0. -1.
    9900012    2    1    2    0    0  0.30348698688E+02 -0.29520097638E+02  0.95469285970E+01  0.47787268183E+02  0.19999986955E+02 0.  0.
        -12    1    1    2    0    0 -0.30348698688E+02  0.29520097638E+02 -0.95469285970E+01  0.43400731817E+02  0.00000000000E+00 0.  1.
         11    1    3    3    0    0  0.17049684159E+02 -0.85071458748E+01  0.99679002405E+01  0.21504006518E+02  0.51100000000E-03 0. -1.
        -11    1    3    3    0    0  0.11096857377E+01 -0.13484720837E+01  0.24084410999E+01  0.29749568383E+01  0.51100000000E-03 0.  1.
         12    1    3    3    0    0  0.12189328791E+02 -0.19664479679E+02 -0.28294127435E+01  0.23308304827E+02  0.00000000000E+00 0. -1.
</event>
<event>
 7    1  0.2700100E-010  0.4778727E+02  0.7816164E-02  0.1312668E+00
        -11   -1    0    0    0    0  0.00000000000E+00  0.00000000000E+00  0.45593999997E+02  0.45594000000E+02  0.51100000000E-03 0.  1.
         11   -1    0    0    0    0 -0.00000000000E+00 -0.00000000000E+00 -0.45593999997E+02  0.45594000000E+02  0.51100000000E-03 0. -1.
    9900012    2    1    2    0    0  0.40129109610E+02  0.10431788965E+02 -0.12824023591E+02  0.47787271433E+02  0.20000001770E+02 0.  0.
        -12    1    1    2    0    0 -0.40129109610E+02 -0.10431788965E+02  0.12824023591E+02  0.43400728567E+02  0.00000000000E+00 0.  1.
         11    1    3    3    0    0  0.23956770759E+02  0.59806686503E+01  0.22205074942E+01  0.24791650137E+02  0.51100000000E-03 0. -1.
        -11    1    3    3    0    0  0.14716675859E+02  0.48051217647E+01 -0.11947773883E+02  0.19555537439E+02  0.51100000000E-03 0.  1.
         12    1    3    3    0    0  0.14556629923E+01 -0.35400145045E+00 -0.30967572023E+01  0.34400838571E+01  0.00000000000E+00 0. -1.
</event>
<event>
 7    1  0.2700100E-010  0.4778727E+02  0.7816164E-02  0.1312668E+00
        -11   -1    0    0    0    0  0.00000000000E+00  0.00000000000E+00  0.45593999997E+02  0.45594000000E+02  0.51100000000E-03 0.  1.
         11   -1    0    0    0    0 -0.00000000000E+00 -0.00000000000E+00 -0.45593999997E+02  0.45594000000E+02  0.51100000000E-03 0. -1.
    9900012    2    1    2    0    0 -0.34151118233E+02  0.18553970948E+02 -0.19315142215E+02  0.47787269207E+02  0.19999991624E+02 0.  0.
        -12    1    1    2    0    0  0.34151118233E+02 -0.18553970948E+02  0.19315142215E+02  0.43400730793E+02  0.00000000000E+00 0.  1.
         11    1    3    3    0    0 -0.77203911335E+01  0.12052528221E+02 -0.27163820727E+01  0.14568685857E+02  0.51100000000E-03 0. -1.
        -11    1    3    3    0    0 -0.13214320459E+02  0.28290001551E+01 -0.13610190134E+02  0.19179645013E+02  0.51100000000E-03 0.  1.
         12    1    3    3    0    0 -0.13216406641E+02  0.36724425721E+01 -0.29885700080E+01  0.14038938338E+02  0.00000000000E+00 0. -1.
</event>
<event>
 7    1  0.2700100E-010  0.4778728E+02  0.7816164E-02  0.1312668E+00
        -11   -1    0    0    0    0  0.00000000000E+00  0.00000000000E+00  0.45593999997E+02  0.45594000000E+02  0.51100000000E-03 0. -1.
         11   -1    0    0    0    0 -0.00000000000E+00 -0.00000000000E+00 -0.45593999997E+02  0.45594000000E+02  0.51100000000E-03 0.  1.
    9900012    2    1    2    0    0  0.40624482846E+02  0.55606456788E+01  0.14225097382E+02  0.47787276707E+02  0.20000025816E+02 0.  0.
        -12    1    1    2    0    0 -0.40624482846E+02 -0.55606456788E+01 -0.14225097382E+02  0.43400723293E+02  0.00000000000E+00 0.  1.
         11    1    3    3    0    0  0.32297424342E+02  0.35352605808E+01  0.14913514004E+02  0.35749609602E+02  0.51100000000E-03 0. -1.
        -11    1    3    3    0    0  0.47331350700E+01 -0.28178357673E+01 -0.20097571801E+01  0.58636072674E+01  0.51100000000E-03 0.  1.
         12    1    3    3    0    0  0.35939234338E+01  0.48432208653E+01  0.13213405578E+01  0.61740598368E+01  0.00000000000E+00 0. -1.
</event>
<event>
 7    1  0.3403233E-010  0.4778727E+02  0.7816164E-02  0.1312668E+00
        -11   -1    0    0    0    0  0.00000000000E+00  0.00000000000E+00  0.45593999997E+02  0.45594000000E+02  0.51100000000E-03 0. -1.
         11   -1    0    0    0    0 -0.00000000000E+00 -0.00000000000E+00 -0.45593999997E+02  0.45594000000E+02  0.51100000000E-03 0.  1.
    9900012    2    1    2    0    0 -0.12696421139E+02  0.33838509950E+02  0.24028718152E+02  0.47787272340E+02  0.20000005908E+02 0.  0.
        -12    1    1    2    0    0  0.12696421139E+02 -0.33838509950E+02 -0.24028718152E+02  0.43400727660E+02  0.00000000000E+00 0.  1.
         11    1    3    3    0    0 -0.37561663677E+01  0.86256541035E+01  0.64435500491E+01  0.11403071165E+02  0.51100000000E-03 0. -1.
        -11    1    3    3    0    0 -0.45240669699E+01  0.25002272513E+02  0.94188706454E+01  0.27097895440E+02  0.51100000000E-03 0.  1.
        -12    1    3    3    0    0 -0.44161878018E+01  0.21058333287E+00  0.81662974577E+01  0.92863057353E+01  0.00000000000E+00 0.  1.
</event>
<event>
 7    1  0.2700100E-010  0.4778728E+02  0.7816164E-02  0.1312668E+00
        -11   -1    0    0    0    0  0.00000000000E+00  0.00000000000E+00  0.45593999997E+02  0.45594000000E+02  0.51100000000E-03 0.  1.
         11   -1    0    0    0    0 -0.00000000000E+00 -0.00000000000E+00 -0.45593999997E+02  0.45594000000E+02  0.51100000000E-03 0. -1.
    9900012    2    1    2    0    0 -0.17387197039E+02  0.85735887798E+00 -0.39756420369E+02  0.47787278282E+02  0.20000032999E+02 0.  0.
        -12    1    1    2    0    0  0.17387197039E+02 -0.85735887798E+00  0.39756420369E+02  0.43400721718E+02  0.00000000000E+00 0.  1.
         11    1    3    3    0    0  0.22773844169E+01  0.37673937473E+01 -0.71845341175E+01  0.84259875490E+01  0.51100000000E-03 0. -1.
        -11    1    3    3    0    0 -0.11108073082E+02 -0.50112240322E+01 -0.12582618311E+02  0.17516390544E+02  0.51100000000E-03 0.  1.
         12    1    3    3    0    0 -0.85565083737E+01  0.21011891629E+01 -0.19989267941E+02  0.21844900189E+02  0.00000000000E+00 0. -1.
</event>
<event>
 7    1  0.2700100E-010  0.4778725E+02  0.7816164E-02  0.1312668E+00
        -11   -1    0    0    0    0  0.00000000000E+00  0.00000000000E+00  0.45593999997E+02  0.45594000000E+02  0.51100000000E-03 0. -1.
         11   -1    0    0    0    0 -0.00000000000E+00 -0.00000000000E+00 -0.45593999997E+02  0.45594000000E+02  0.51100000000E-03 0.  1.
    9900012    2    1    2    0    0  0.10306282343E+02  0.39873575781E+02 -0.13693203018E+02  0.47787247585E+02  0.19999893038E+02 0.  0.
        -12    1    1    2    0    0 -0.10306282343E+02 -0.39873575781E+02  0.13693203018E+02  0.43400752415E+02  0.00000000000E+00 0.  1.
         11    1    3    3    0    0 -0.34426527617E+01  0.13384066101E+02  0.93821501573E-01  0.13820053769E+02  0.51100000000E-03 0. -1.
        -11    1    3    3    0    0  0.40522081072E+01  0.54578437566E+01 -0.71719888747E+01  0.98815926700E+01  0.51100000000E-03 0.  1.
         12    1    3    3    0    0  0.96967269975E+01  0.21031665924E+02 -0.66150356445E+01  0.24085601146E+02  0.00000000000E+00 0. -1.
</event>
<event>
 7    1  0.2700100E-010  0.4778725E+02  0.7816164E-02  0.1312668E+00
        -11   -1    0    0    0    0  0.00000000000E+00  0.00000000000E+00  0.45593999997E+02  0.45594000000E+02  0.51100000000E-03 0. -1.
         11   -1    0    0    0    0 -0.00000000000E+00 -0.00000000000E+00 -0.45593999997E+02  0.45594000000E+02  0.51100000000E-03 0.  1.
    9900012    2    1    2    0    0  0.47098203449E+01 -0.42876988517E+02  0.47965165990E+01  0.47787249737E+02  0.19999902849E+02 0.  0.
        -12    1    1    2    0    0 -0.47098203449E+01  0.42876988517E+02 -0.47965165990E+01  0.43400750263E+02  0.00000000000E+00 0.  1.
         11    1    3    3    0    0  0.10563354340E+02 -0.23777383559E+02 -0.25881753808E+01  0.26146645595E+02  0.51100000000E-03 0. -1.
        -11    1    3    3    0    0 -0.28743265368E+01 -0.38561775552E+01  0.17010196193E+01  0.51015023654E+01  0.51100000000E-03 0.  1.
         12    1    3    3    0    0 -0.29792074581E+01 -0.15243427403E+02  0.56836723605E+01  0.16539101776E+02  0.00000000000E+00 0. -1.
</event>
<event>
 7    1  0.2700100E-010  0.4778729E+02  0.7816164E-02  0.1312668E+00
        -11   -1    0    0    0    0  0.00000000000E+00  0.00000000000E+00  0.45593999997E+02  0.45594000000E+02  0.51100000000E-03 0.  1.
         11   -1    0    0    0    0 -0.00000000000E+00 -0.00000000000E+00 -0.45593999997E+02  0.45594000000E+02  0.51100000000E-03 0. -1.
    9900012    2    1    2    0    0 -0.10666930938E+02 -0.13215795428E+02 -0.39939720304E+02  0.47787286615E+02  0.20000070991E+02 0.  0.
        -12    1    1    2    0    0  0.10666930938E+02  0.13215795428E+02  0.39939720304E+02  0.43400713385E+02  0.00000000000E+00 0.  1.
         11    1    3    3    0    0 -0.84922918926E+01 -0.55325856018E+01 -0.87207976997E+01  0.13370895176E+02  0.51100000000E-03 0. -1.
        -11    1    3    3    0    0 -0.24287879451E+01 -0.14178814763E+01 -0.26291605775E+02  0.26441594756E+02  0.51100000000E-03 0.  1.
         12    1    3    3    0    0  0.25414889943E+00 -0.62653283496E+01 -0.49273168287E+01  0.79747966822E+01  0.00000000000E+00 0. -1.
</event>
<event>
 7    1  0.2700100E-010  0.4778727E+02  0.7816164E-02  0.1312668E+00
        -11   -1    0    0    0    0  0.00000000000E+00  0.00000000000E+00  0.45593999997E+02  0.45594000000E+02  0.51100000000E-03 0. -1.
         11   -1    0    0    0    0 -0.00000000000E+00 -0.00000000000E+00 -0.45593999997E+02  0.45594000000E+02  0.51100000000E-03 0.  1.
    9900012    2    1    2    0    0  0.16047633290E+02 -0.78575245869E+01  0.39551939629E+02  0.47787272411E+02  0.20000006230E+02 0.  0.
        -12    1    1    2    0    0 -0.16047633290E+02  0.78575245869E+01 -0.39551939629E+02  0.43400727589E+02  0.00000000000E+00 0.  1.
         11    1    3    3    0    0  0.98516995010E+01 -0.76704372507E+01  0.18197922179E+02  0.22069344407E+02  0.51100000000E-03 0. -1.
        -11    1    3    3    0    0 -0.38568034160E+01 -0.13322244563E+01  0.46291209338E+01  0.61707791625E+01  0.51100000000E-03 0.  1.
        -12    1    3    3    0    0  0.10052737205E+02  0.11451371202E+01  0.16724896517E+02  0.19547148841E+02  0.00000000000E+00 0.  1.
</event>
<event>
 7    1  0.2700100E-010  0.4778727E+02  0.7816164E-02  0.1312668E+00
        -11   -1    0    0    0    0  0.00000000000E+00  0.00000000000E+00  0.45593999997E+02  0.45594000000E+02  0.51100000000E-03 0.  1.
         11   -1    0    0    0    0 -0.00000000000E+00 -0.00000000000E+00 -0.45593999997E+02  0.45594000000E+02  0.51100000000E-03 0. -1.
    9900012    2    1    2    0    0  0.15216348381E+02 -0.38035713806E+02 -0.14330749038E+02  0.47787272463E+02  0.20000006466E+02 0.  0.
        -12    1    1    2    0    0 -0.15216348381E+02  0.38035713806E+02  0.14330749038E+02  0.43400727537E+02  0.00000000000E+00 0.  1.
         11    1    3    3    0    0  0.53605980089E+01 -0.38265938162E+01 -0.90916931707E+01  0.11226652049E+02  0.51100000000E-03 0. -1.
        -11    1    3    3    0    0  0.99833787495E+00 -0.12193496575E+02  0.10928992727E+00  0.12234785727E+02  0.51100000000E-03 0.  1.
         12    1    3    3    0    0  0.88574124967E+01 -0.22015623415E+02 -0.53483457945E+01  0.24325834687E+02  0.00000000000E+00 0. -1.
</event>
<event>
 7    1  0.2700100E-010  0.4778727E+02  0.7816164E-02  0.1312668E+00
        -11   -1    0    0    0    0  0.00000000000E+00  0.00000000000E+00  0.45593999997E+02  0.45594000000E+02  0.51100000000E-03 0.  1.
         11   -1    0    0    0    0 -0.00000000000E+00 -0.00000000000E+00 -0.45593999997E+02  0.45594000000E+02  0.51100000000E-03 0. -1.
    9900012    2    1    2    0    0  0.37370198610E+02  0.14029455938E+02 -0.17037191911E+02  0.47787270902E+02  0.19999999350E+02 0.  0.
        -12    1    1    2    0    0 -0.37370198610E+02 -0.14029455938E+02  0.17037191911E+02  0.43400729098E+02  0.00000000000E+00 0.  1.
         11    1    3    3    0    0  0.24569042790E+02  0.10648149951E+02 -0.12931855252E+02  0.29736405995E+02  0.51100000000E-03 0. -1.
        -11    1    3    3    0    0  0.43753719924E+01  0.55904694387E+01  0.20450307289E+01  0.73877858361E+01  0.51100000000E-03 0.  1.
        -12    1    3    3    0    0  0.84257838273E+01 -0.22091634518E+01 -0.61503673874E+01  0.10663079070E+02  0.00000000000E+00 0.  1.
</event>
<event>
 7    1  0.2700100E-010  0.4778727E+02  0.7816164E-02  0.1312668E+00
        -11   -1    0    0    0    0  0.00000000000E+00  0.00000000000E+00  0.45593999997E+02  0.45594000000E+02  0.51100000000E-03 0.  1.
         11   -1    0    0    0    0 -0.00000000000E+00 -0.00000000000E+00 -0.45593999997E+02  0.45594000000E+02  0.51100000000E-03 0. -1.
    9900012    2    1    2    0    0 -0.21546894892E+01  0.43251471216E+02  0.28793858124E+01  0.47787270607E+02  0.19999998006E+02 0.  0.
        -12    1    1    2    0    0  0.21546894892E+01 -0.43251471216E+02 -0.28793858124E+01  0.43400729393E+02  0.00000000000E+00 0.  1.
         11    1    3    3    0    0  0.50743374948E+00  0.10228541798E+02 -0.30527898127E+01  0.10686443853E+02  0.51100000000E-03 0. -1.
        -11    1    3    3    0    0 -0.31494680857E+01  0.15626672320E+02  0.10524837253E+02  0.19101943265E+02  0.51100000000E-03 0.  1.
        -12    1    3    3    0    0  0.48734484706E+00  0.17396257098E+02 -0.45926616279E+01  0.17998883489E+02  0.00000000000E+00 0.  1.
</event>
<event>
 7    1  0.2700100E-010  0.4778724E+02  0.7816164E-02  0.1312668E+00
        -11   -1    0    0    0    0  0.00000000000E+00  0.00000000000E+00  0.45593999997E+02  0.45594000000E+02  0.51100000000E-03 0. -1.
         11   -1    0    0    0    0 -0.00000000000E+00 -0.00000000000E+00 -0.45593999997E+02  0.45594000000E+02  0.51100000000E-03 0.  1.
    9900012    2    1    2    0    0  0.23909721733E+02  0.33264718129E+02 -0.14332110517E+02  0.47787243585E+02  0.19999874799E+02 0.  0.
        -12    1    1    2    0    0 -0.23909721733E+02 -0.33264718129E+02  0.14332110517E+02  0.43400756415E+02  0.00000000000E+00 0.  1.
         11    1    3    3    0    0  0.14199249736E+02  0.66256859430E+01 -0.65296935674E+01  0.16975137868E+02  0.51100000000E-03 0. -1.
        -11    1    3    3    0    0  0.31910823055E+01  0.45107173612E+01 -0.52167542523E+01  0.75989540454E+01  0.51100000000E-03 0.  1.
         12    1    3    3    0    0  0.65193896912E+01  0.22128314825E+02 -0.25856626976E+01  0.23213151671E+02  0.00000000000E+00 0. -1.
</event>
<event>
 7    1  0.2700100E-010  0.4778727E+02  0.7816164E-02  0.1312668E+00
        -11   -1    0    0    0    0  0.00000000000E+00  0.00000000000E+00  0.45593999997E+02  0.45594000000E+02  0.51100000000E-03 0.  1.
         11   -1    0    0    0    0 -0.00000000000E+00 -0.00000000000E+00 -0.45593999997E+02  0.45594000000E+02  0.51100000000E-03 0. -1.
    9900012    2    1    2    0    0 -0.55452647451E+01 -0.23268031210E+00 -0.43044388400E+02  0.47787268739E+02  0.19999989489E+02 0.  0.
        -12    1    1    2    0    0  0.55452647451E+01  0.23268031210E+00  0.43044388400E+02  0.43400731261E+02  0.00000000000E+00 0.  1.
         11    1    3    3    0    0 -0.36425474804E+01 -0.86148109935E+00 -0.21886192802E+02  0.22203957699E+02  0.51100000000E-03 0. -1.
        -11    1    3    3    0    0  0.58210614325E+01 -0.39707904476E+00 -0.51615228801E+01  0.77899773217E+01  0.51100000000E-03 0.  1.
        -12    1    3    3    0    0 -0.77237786972E+01  0.10258798320E+01 -0.15996672718E+02  0.17793333719E+02  0.00000000000E+00 0.  1.
</event>
<event>
 7    1  0.2700100E-010  0.4778727E+02  0.7816164E-02  0.1312668E+00
        -11   -1    0    0    0    0  0.00000000000E+00  0.00000000000E+00  0.45593999997E+02  0.45594000000E+02  0.51100000000E-03 0.  1.
         11   -1    0    0    0    0 -0.00000000000E+00 -0.00000000000E+00 -0.45593999997E+02  0.45594000000E+02  0.51100000000E-03 0. -1.
    9900012    2    1    2    0    0 -0.20981653411E+02 -0.34211754463E+02 -0.16521183759E+02  0.47787269176E+02  0.19999991481E+02 0.  0.
        -12    1    1    2    0    0  0.20981653411E+02  0.34211754463E+02  0.16521183759E+02  0.43400730824E+02  0.00000000000E+00 0.  1.
         11    1    3    3    0    0 -0.22916760341E+02 -0.24014662099E+02 -0.15239401603E+02  0.36525624727E+02  0.51100000000E-03 0. -1.
        -11    1    3    3    0    0 -0.27558517799E+00 -0.23573005950E+01  0.13136114636E+01  0.27126349965E+01  0.51100000000E-03 0.  1.
         12    1    3    3    0    0  0.22106921081E+01 -0.78397917687E+01 -0.25953936197E+01  0.85490094522E+01  0.00000000000E+00 0. -1.
</event>
<event>
 7    1  0.2700100E-010  0.4778727E+02  0.7816164E-02  0.1312668E+00
        -11   -1    0    0    0    0  0.00000000000E+00  0.00000000000E+00  0.45593999997E+02  0.45594000000E+02  0.51100000000E-03 0. -1.
         11   -1    0    0    0    0 -0.00000000000E+00 -0.00000000000E+00 -0.45593999997E+02  0.45594000000E+02  0.51100000000E-03 0.  1.
    9900012    2    1    2    0    0  0.29819827980E+02  0.30588780971E+02  0.76634100393E+01  0.47787268261E+02  0.19999987309E+02 0.  0.
        -12    1    1    2    0    0 -0.29819827980E+02 -0.30588780971E+02 -0.76634100393E+01  0.43400731739E+02  0.00000000000E+00 0.  1.
         11    1    3    3    0    0  0.12770915027E+02  0.20689352711E+01 -0.33230388968E+00  0.12941684199E+02  0.51100000000E-03 0. -1.
        -11    1    3    3    0    0  0.48175922862E+01  0.12094453926E+02  0.57893007471E+01  0.14247842454E+02  0.51100000000E-03 0.  1.
         12    1    3    3    0    0  0.12231320667E+02  0.16425391774E+02  0.22064131819E+01  0.20597741607E+02  0.00000000000E+00 0. -1.
</event>
<event>
 7    1  0.2700100E-010  0.4778729E+02  0.7816164E-02  0.1312668E+00
        -11   -1    0    0    0    0  0.00000000000E+00  0.00000000000E+00  0.45593999997E+02  0.45594000000E+02  0.51100000000E-03 0.  1.
         11   -1    0    0    0    0 -0.00000000000E+00 -0.00000000000E+00 -0.45593999997E+02  0.45594000000E+02  0.51100000000E-03 0. -1.
    9900012    2    1    2    0    0  0.16625538190E+02  0.39091361520E+01 -0.39899024743E+02  0.47787285248E+02  0.20000064759E+02 0.  0.
        -12    1    1    2    0    0 -0.16625538190E+02 -0.39091361520E+01  0.39899024743E+02  0.43400714752E+02  0.00000000000E+00 0.  1.
         11    1    3    3    0    0  0.13179640033E+01  0.17658826434E+01 -0.12814578060E+01  0.25490203989E+01  0.51100000000E-03 0. -1.
        -11    1    3    3    0    0  0.14640203071E+02  0.86517972594E+01 -0.28579111889E+02  0.33255898400E+02  0.51100000000E-03 0.  1.
        -12    1    3    3    0    0  0.66737111570E+00 -0.65085437508E+01 -0.10038455048E+02  0.11982366449E+02  0.00000000000E+00 0.  1.
</event>
<event>
 7    1  0.2700100E-010  0.4778726E+02  0.7816164E-02  0.1312668E+00
        -11   -1    0    0    0    0  0.00000000000E+00  0.00000000000E+00  0.45593999997E+02  0.45594000000E+02  0.51100000000E-03 0. -1.
         11   -1    0    0    0    0 -0.00000000000E+00 -0.00000000000E+00 -0.45593999997E+02  0.45594000000E+02  0.51100000000E-03 0.  1.
    9900012    2    1    2    0    0  0.39018861338E+02 -0.18773077538E+02  0.29537191757E+01  0.47787257641E+02  0.19999938889E+02 0.  0.
        -12    1    1    2    0    0 -0.39018861338E+02  0.18773077538E+02 -0.29537191757E+01  0.43400742359E+02  0.00000000000E+00 0.  1.
         11    1    3    3    0    0  0.29323943432E+02 -0.10349371979E+02  0.55840216881E+01  0.31594057309E+02  0.51100000000E-03 0. -1.
        -11    1    3    3    0    0  0.60323137217E+01 -0.76247021290E+01 -0.57679888291E+01  0.11304626787E+02  0.51100000000E-03 0.  1.
        -12    1    3    3    0    0  0.36626041838E+01 -0.79900342977E+00  0.31376863167E+01  0.48885735455E+01  0.00000000000E+00 0.  1.
</event>
<event>
 7    1  0.2700100E-010  0.4778727E+02  0.7816164E-02  0.1312668E+00
        -11   -1    0    0    0    0  0.00000000000E+00  0.00000000000E+00  0.45593999997E+02  0.45594000000E+02  0.51100000000E-03 0.  1.
         11   -1    0    0    0    0 -0.00000000000E+00 -0.00000000000E+00 -0.45593999997E+02  0.45594000000E+02  0.51100000000E-03 0. -1.
    9900012    2    1    2    0    0 -0.41282550512E+02 -0.12743739599E+02  0.41196215353E+01  0.47787272387E+02  0.20000006122E+02 0.  0.
        -12    1    1    2    0    0  0.41282550512E+02  0.12743739599E+02 -0.41196215353E+01  0.43400727613E+02  0.00000000000E+00 0.  1.
         11    1    3    3    0    0 -0.15699853958E+02 -0.97457842646E+00 -0.46340354595E+01  0.16398460364E+02  0.51100000000E-03 0.  1.
        -11    1    3    3    0    0 -0.87112809247E+01 -0.97312497308E+01  0.26146450761E+01  0.13319910128E+02  0.51100000000E-03 0. -1.
         12    1    3    3    0    0 -0.16871415629E+02 -0.20379114414E+01  0.61390119186E+01  0.18068901896E+02  0.00000000000E+00 0. -1.
</event>
<event>
 7    1  0.2700100E-010  0.4778727E+02  0.7816164E-02  0.1312668E+00
        -11   -1    0    0    0    0  0.00000000000E+00  0.00000000000E+00  0.45593999997E+02  0.45594000000E+02  0.51100000000E-03 0. -1.
         11   -1    0    0    0    0 -0.00000000000E+00 -0.00000000000E+00 -0.45593999997E+02  0.45594000000E+02  0.51100000000E-03 0.  1.
    9900012    2    1    2    0    0  0.53909971332E+01  0.22542956988E+02  0.36692996941E+02  0.47787265164E+02  0.19999973187E+02 0.  0.
        -12    1    1    2    0    0 -0.53909971332E+01 -0.22542956988E+02 -0.36692996941E+02  0.43400734836E+02  0.00000000000E+00 0.  1.
         11    1    3    3    0    0  0.81076608530E+01  0.43540573383E+01  0.15068645588E+02  0.17656615189E+02  0.51100000000E-03 0. -1.
        -11    1    3    3    0    0  0.28500563918E+00  0.17932927503E+02  0.17884730242E+02  0.25328535156E+02  0.51100000000E-03 0.  1.
         12    1    3    3    0    0 -0.30016693589E+01  0.25597214598E+00  0.37396211108E+01  0.48021148187E+01  0.00000000000E+00 0. -1.
</event>
<event>
 7    1  0.2700100E-010  0.4778727E+02  0.7816164E-02  0.1312668E+00
        -11   -1    0    0    0    0  0.00000000000E+00  0.00000000000E+00  0.45593999997E+02  0.45594000000E+02  0.51100000000E-03 0. -1.
         11   -1    0    0    0    0 -0.00000000000E+00 -0.00000000000E+00 -0.45593999997E+02  0.45594000000E+02  0.51100000000E-03 0.  1.
    9900012    2    1    2    0    0  0.17960672798E+02 -0.37093182270E+02  0.13606373240E+02  0.47787270386E+02  0.19999996998E+02 0.  0.
        -12    1    1    2    0    0 -0.17960672798E+02  0.37093182270E+02 -0.13606373240E+02  0.43400729614E+02  0.00000000000E+00 0.  1.
         11    1    3    3    0    0  0.24677277362E+01 -0.76615136338E+01  0.11968454783E+02  0.14423327685E+02  0.51100000000E-03 0. -1.
        -11    1    3    3    0    0  0.11540951427E+02 -0.20088749915E+02  0.73659259969E+00  0.23179603144E+02  0.51100000000E-03 0.  1.
         12    1    3    3    0    0  0.39519936340E+01 -0.93429187212E+01  0.90132585748E+00  0.10184339557E+02  0.00000000000E+00 0. -1.
</event>
<event>
 7    1  0.2700100E-010  0.4778727E+02  0.7816164E-02  0.1312668E+00
        -11   -1    0    0    0    0  0.00000000000E+00  0.00000000000E+00  0.45593999997E+02  0.45594000000E+02  0.51100000000E-03 0. -1.
         11   -1    0    0    0    0 -0.00000000000E+00 -0.00000000000E+00 -0.45593999997E+02  0.45594000000E+02  0.51100000000E-03 0.  1.
    9900012    2    1    2    0    0  0.11487764937E+02  0.53193347363E+01  0.41513362170E+02  0.47787270698E+02  0.19999998420E+02 0.  0.
        -12    1    1    2    0    0 -0.11487764937E+02 -0.53193347363E+01 -0.41513362170E+02  0.43400729302E+02  0.00000000000E+00 0.  1.
         11    1    3    3    0    0  0.79228911005E+01  0.76508077294E+01  0.32346645432E+02  0.34170345817E+02  0.51100000000E-03 0. -1.
        -11    1    3    3    0    0  0.18776610688E+01  0.19955546086E+01 -0.59750636549E+00  0.28044363789E+01  0.51100000000E-03 0.  1.
         12    1    3    3    0    0  0.16872127679E+01 -0.43270276017E+01  0.97642231035E+01  0.10812488502E+02  0.00000000000E+00 0. -1.
</event>
<event>
 7    1  0.2700100E-010  0.4778727E+02  0.7816164E-02  0.1312668E+00
        -11   -1    0    0    0    0  0.00000000000E+00  0.00000000000E+00  0.45593999997E+02  0.45594000000E+02  0.51100000000E-03 0. -1.
         11   -1    0    0    0    0 -0.00000000000E+00 -0.00000000000E+00 -0.45593999997E+02  0.45594000000E+02  0.51100000000E-03 0.  1.
    9900012    2    1    2    0    0  0.30055574938E+00  0.43137560689E+02  0.47627766223E+01  0.47787268242E+02  0.19999987222E+02 0.  0.
        -12    1    1    2    0    0 -0.30055574938E+00 -0.43137560689E+02 -0.47627766223E+01  0.43400731758E+02  0.00000000000E+00 0.  1.
         11    1    3    3    0    0  0.42659160140E+01  0.88872004233E+01  0.37929160227E+01  0.10562508368E+02  0.51100000000E-03 0. -1.
        -11    1    3    3    0    0 -0.81862952799E+01  0.19030964116E+02  0.41126349721E+01  0.21121240311E+02  0.51100000000E-03 0.  1.
        -12    1    3    3    0    0  0.42209350153E+01  0.15219396150E+02 -0.31427743725E+01  0.16103519563E+02  0.00000000000E+00 0.  1.
</event>
<event>
 7    1  0.2700100E-010  0.4778727E+02  0.7816164E-02  0.1312668E+00
        -11   -1    0    0    0    0  0.00000000000E+00  0.00000000000E+00  0.45593999997E+02  0.45594000000E+02  0.51100000000E-03 0.  1.
         11   -1    0    0    0    0 -0.00000000000E+00 -0.00000000000E+00 -0.45593999997E+02  0.45594000000E+02  0.51100000000E-03 0. -1.
    9900012    2    1    2    0    0 -0.36277986863E+02  0.21697549477E+02 -0.98360185179E+01  0.47787271384E+02  0.20000001549E+02 0.  0.
        -12    1    1    2    0    0  0.36277986863E+02 -0.21697549477E+02  0.98360185179E+01  0.43400728616E+02  0.00000000000E+00 0.  1.
         11    1    3    3    0    0 -0.44482790493E+01  0.69296615164E+01 -0.45185104703E+01  0.93927808643E+01  0.51100000000E-03 0. -1.
        -11    1    3    3    0    0 -0.32416868897E+02  0.12646896400E+02 -0.25941830439E+01  0.34893081887E+02  0.51100000000E-03 0.  1.
        -12    1    3    3    0    0  0.58716108394E+00  0.21209915605E+01 -0.27233250037E+01  0.35014086328E+01  0.00000000000E+00 0.  1.
</event>
<event>
 7    1  0.2700100E-010  0.4778727E+02  0.7816164E-02  0.1312668E+00
        -11   -1    0    0    0    0  0.00000000000E+00  0.00000000000E+00  0.45593999997E+02  0.45594000000E+02  0.51100000000E-03 0.  1.
         11   -1    0    0    0    0 -0.00000000000E+00 -0.00000000000E+00 -0.45593999997E+02  0.45594000000E+02  0.51100000000E-03 0. -1.
    9900012    2    1    2    0    0  0.82992368727E+01 -0.35824236028E+02 -0.23051463274E+02  0.47787272141E+02  0.20000004999E+02 0.  0.
        -12    1    1    2    0    0 -0.82992368727E+01  0.35824236028E+02  0.23051463274E+02  0.43400727859E+02  0.00000000000E+00 0.  1.
         11    1    3    3    0    0  0.11307602066E+02 -0.16304436535E+02 -0.87302728596E+01  0.21677504000E+02  0.51100000000E-03 0. -1.
        -11    1    3    3    0    0 -0.62592859188E+01 -0.10268946336E+02 -0.79152420315E+01  0.14397255840E+02  0.51100000000E-03 0.  1.
        -12    1    3    3    0    0  0.32509207254E+01 -0.92508531571E+01 -0.64059483828E+01  0.11712512300E+02  0.00000000000E+00 0.  1.
</event>
<event>
 7    1  0.2700100E-010  0.4778727E+02  0.7816164E-02  0.1312668E+00
        -11   -1    0    0    0    0  0.00000000000E+00  0.00000000000E+00  0.45593999997E+02  0.45594000000E+02  0.51100000000E-03 0. -1.
         11   -1    0    0    0    0 -0.00000000000E+00 -0.00000000000E+00 -0.45593999997E+02  0.45594000000E+02  0.51100000000E-03 0.  1.
    9900012    2    1    2    0    0  0.38905704328E+02  0.18396024411E+02 -0.56174428006E+01  0.47787271815E+02  0.20000003514E+02 0.  0.
        -12    1    1    2    0    0 -0.38905704328E+02 -0.18396024411E+02  0.56174428006E+01  0.43400728185E+02  0.00000000000E+00 0.  1.
         11    1    3    3    0    0 -0.10449674145E+01 -0.14130828723E+01 -0.62603460258E+00  0.18656579767E+01  0.51100000000E-03 0. -1.
        -11    1    3    3    0    0  0.34300820628E+01 -0.10374701195E+01 -0.82387945466E-01  0.35844937218E+01  0.51100000000E-03 0.  1.
         12    1    3    3    0    0  0.36520589679E+02  0.20846577402E+02 -0.49090202526E+01  0.42337120117E+02  0.00000000000E+00 0. -1.
</event>
<event>
 7    1  0.2700100E-010  0.4778727E+02  0.7816164E-02  0.1312668E+00
        -11   -1    0    0    0    0  0.00000000000E+00  0.00000000000E+00  0.45593999997E+02  0.45594000000E+02  0.51100000000E-03 0. -1.
         11   -1    0    0    0    0 -0.00000000000E+00 -0.00000000000E+00 -0.45593999997E+02  0.45594000000E+02  0.51100000000E-03 0.  1.
    9900012    2    1    2    0    0 -0.12618402986E+02  0.34076209039E+02  0.23732067984E+02  0.47787272274E+02  0.20000005605E+02 0.  0.
        -12    1    1    2    0    0  0.12618402986E+02 -0.34076209039E+02 -0.23732067984E+02  0.43400727726E+02  0.00000000000E+00 0.  1.
         11    1    3    3    0    0 -0.12937672797E+02  0.13498559682E+02  0.96852025615E+01  0.21057009280E+02  0.51100000000E-03 0. -1.
        -11    1    3    3    0    0  0.38010522799E+01  0.54484000627E+01  0.70963418379E+01  0.97206547835E+01  0.51100000000E-03 0.  1.
         12    1    3    3    0    0 -0.34817824684E+01  0.15129249294E+02  0.69505235845E+01  0.17009608210E+02  0.00000000000E+00 0. -1.
</event>
<event>
 7    1  0.2700100E-010  0.4778727E+02  0.7816164E-02  0.1312668E+00
        -11   -1    0    0    0    0  0.00000000000E+00  0.00000000000E+00  0.45593999997E+02  0.45594000000E+02  0.51100000000E-03 0.  1.
         11   -1    0    0    0    0 -0.00000000000E+00 -0.00000000000E+00 -0.45593999997E+02  0.45594000000E+02  0.51100000000E-03 0. -1.
    9900012    2    1    2    0    0  0.96005538783E+00 -0.42217131456E+02 -0.10020760995E+02  0.47787267914E+02  0.19999985727E+02 0.  0.
        -12    1    1    2    0    0 -0.96005538783E+00  0.42217131456E+02  0.10020760995E+02  0.43400732086E+02  0.00000000000E+00 0.  1.
         11    1    3    3    0    0 -0.18963924985E+01 -0.13515406037E+02 -0.22979567030E+01  0.13839910047E+02  0.51100000000E-03 0. -1.
        -11    1    3    3    0    0 -0.18964335269E+01 -0.15139217728E+02 -0.11478924730E+02  0.19093404274E+02  0.51100000000E-03 0.  1.
        -12    1    3    3    0    0  0.47528814132E+01 -0.13562507691E+02  0.37561204381E+01  0.14853953593E+02  0.00000000000E+00 0.  1.
</event>
<event>
 7    1  0.2700100E-010  0.4778729E+02  0.7816164E-02  0.1312668E+00
        -11   -1    0    0    0    0  0.00000000000E+00  0.00000000000E+00  0.45593999997E+02  0.45594000000E+02  0.51100000000E-03 0. -1.
         11   -1    0    0    0    0 -0.00000000000E+00 -0.00000000000E+00 -0.45593999997E+02  0.45594000000E+02  0.51100000000E-03 0.  1.
    9900012    2    1    2    0    0  0.42820320215E+02  0.35644984485E+01  0.61103571887E+01  0.47787286440E+02  0.20000070196E+02 0.  0.
        -12    1    1    2    0    0 -0.42820320215E+02 -0.35644984485E+01 -0.61103571887E+01  0.43400713560E+02  0.00000000000E+00 0.  1.
         11    1    3    3    0    0  0.36276503411E+01  0.13651261547E+01  0.28580894873E+00  0.38865284550E+01  0.51100000000E-03 0. -1.
        -11    1    3    3    0    0  0.25527394562E+02  0.49152366138E+01 -0.47283298530E+01  0.26422803173E+02  0.51100000000E-03 0.  1.
        -12    1    3    3    0    0  0.13665275312E+02 -0.27158643199E+01  0.10552878093E+02  0.17477954812E+02  0.00000000000E+00 0.  1.
</event>
<event>
 7    1  0.2700100E-010  0.4778727E+02  0.7816164E-02  0.1312668E+00
        -11   -1    0    0    0    0  0.00000000000E+00  0.00000000000E+00  0.45593999997E+02  0.45594000000E+02  0.51100000000E-03 0.  1.
         11   -1    0    0    0    0 -0.00000000000E+00 -0.00000000000E+00 -0.45593999997E+02  0.45594000000E+02  0.51100000000E-03 0. -1.
    9900012    2    1    2    0    0 -0.76368336591E+01 -0.13576156207E+02 -0.40509134518E+02  0.47787271607E+02  0.20000002565E+02 0.  0.
        -12    1    1    2    0    0  0.76368336591E+01  0.13576156207E+02  0.40509134518E+02  0.43400728393E+02  0.00000000000E+00 0.  1.
         11    1    3    3    0    0 -0.48046999300E+01 -0.17138107407E+02 -0.36232169438E+02  0.40367932438E+02  0.51100000000E-03 0. -1.
        -11    1    3    3    0    0  0.97589480635E-01  0.28371121563E+01 -0.11197405234E+01  0.30516468005E+01  0.51100000000E-03 0.  1.
         12    1    3    3    0    0 -0.29297232097E+01  0.72483904386E+00 -0.31572245560E+01  0.43676923680E+01  0.00000000000E+00 0. -1.
</event>
<event>
 7    1  0.2700100E-010  0.4778727E+02  0.7816164E-02  0.1312668E+00
        -11   -1    0    0    0    0  0.00000000000E+00  0.00000000000E+00  0.45593999997E+02  0.45594000000E+02  0.51100000000E-03 0.  1.
         11   -1    0    0    0    0 -0.00000000000E+00 -0.00000000000E+00 -0.45593999997E+02  0.45594000000E+02  0.51100000000E-03 0. -1.
    9900012    2    1    2    0    0 -0.35880612739E+02 -0.16161198310E+00 -0.24416772659E+02  0.47787271020E+02  0.19999999888E+02 0.  0.
        -12    1    1    2    0    0  0.35880612739E+02  0.16161198310E+00  0.24416772659E+02  0.43400728980E+02  0.00000000000E+00 0.  1.
         11    1    3    3    0    0 -0.23125599162E+02  0.85986828260E+01 -0.11348218269E+02  0.27157185810E+02  0.51100000000E-03 0. -1.
        -11    1    3    3    0    0 -0.94577298789E+01 -0.70471709256E+01 -0.76441197249E+01  0.14055028963E+02  0.51100000000E-03 0.  1.
         12    1    3    3    0    0 -0.32972836976E+01 -0.17131238835E+01 -0.54244346649E+01  0.65750562474E+01  0.00000000000E+00 0. -1.
</event>
<event>
 7    1  0.2700100E-010  0.4778727E+02  0.7816164E-02  0.1312668E+00
        -11   -1    0    0    0    0  0.00000000000E+00  0.00000000000E+00  0.45593999997E+02  0.45594000000E+02  0.51100000000E-03 0. -1.
         11   -1    0    0    0    0 -0.00000000000E+00 -0.00000000000E+00 -0.45593999997E+02  0.45594000000E+02  0.51100000000E-03 0.  1.
    9900012    2    1    2    0    0 -0.38015523230E+02 -0.20926495899E+02 -0.72439420489E+00  0.47787274383E+02  0.20000015223E+02 0.  0.
        -12    1    1    2    0    0  0.38015523230E+02  0.20926495899E+02  0.72439420489E+00  0.43400725617E+02  0.00000000000E+00 0.  1.
         11    1    3    3    0    0 -0.32019685327E+02 -0.15458314499E+02  0.28635564085E+01  0.35670992292E+02  0.51100000000E-03 0. -1.
        -11    1    3    3    0    0 -0.67245261155E+01 -0.28101701222E+01 -0.51725931221E+01  0.89371151644E+01  0.51100000000E-03 0.  1.
         12    1    3    3    0    0  0.72868821173E+00 -0.26580112784E+01  0.15846425088E+01  0.31791669265E+01  0.00000000000E+00 0. -1.
</event>
<event>
 7    1  0.2700100E-010  0.4778727E+02  0.7816164E-02  0.1312668E+00
        -11   -1    0    0    0    0  0.00000000000E+00  0.00000000000E+00  0.45593999997E+02  0.45594000000E+02  0.51100000000E-03 0.  1.
         11   -1    0    0    0    0 -0.00000000000E+00 -0.00000000000E+00 -0.45593999997E+02  0.45594000000E+02  0.51100000000E-03 0. -1.
    9900012    2    1    2    0    0 -0.10905473462E+02  0.23361024141E+02 -0.34913556506E+02  0.47787271571E+02  0.20000002399E+02 0.  0.
        -12    1    1    2    0    0  0.10905473462E+02 -0.23361024141E+02  0.34913556506E+02  0.43400728429E+02  0.00000000000E+00 0.  1.
         11    1    3    3    0    0 -0.36774160034E+00  0.10862111729E+02 -0.23401132775E+02  0.25801816225E+02  0.51100000000E-03 0. -1.
        -11    1    3    3    0    0 -0.73001645533E+01  0.13491922598E+02 -0.95948392930E+01  0.18093792284E+02  0.51100000000E-03 0.  1.
        -12    1    3    3    0    0 -0.32375673085E+01 -0.99301018654E+00 -0.19175844374E+01  0.38916630613E+01  0.00000000000E+00 0.  1.
</event>
<event>
 7    1  0.2700100E-010  0.4778727E+02  0.7816164E-02  0.1312668E+00
        -11   -1    0    0    0    0  0.00000000000E+00  0.00000000000E+00  0.45593999997E+02  0.45594000000E+02  0.51100000000E-03 0. -1.
         11   -1    0    0    0    0 -0.00000000000E+00 -0.00000000000E+00 -0.45593999997E+02  0.45594000000E+02  0.51100000000E-03 0.  1.
    9900012    2    1    2    0    0 -0.25151617954E+02  0.33431713335E+01  0.35211399867E+02  0.47787270043E+02  0.19999995433E+02 0.  0.
        -12    1    1    2    0    0  0.25151617954E+02 -0.33431713335E+01 -0.35211399867E+02  0.43400729957E+02  0.00000000000E+00 0.  1.
         11    1    3    3    0    0 -0.15636556172E+02  0.51625453834E+01  0.11969856771E+02  0.20357584216E+02  0.51100000000E-03 0. -1.
        -11    1    3    3    0    0 -0.41071799820E+01  0.87217947492E+00  0.91090074612E+00  0.42964362990E+01  0.51100000000E-03 0.  1.
         12    1    3    3    0    0 -0.54078818001E+01 -0.26915535249E+01  0.22330642350E+02  0.23133249527E+02  0.00000000000E+00 0. -1.
</event>
<event>
 7    1  0.2700100E-010  0.4778727E+02  0.7816164E-02  0.1312668E+00
        -11   -1    0    0    0    0  0.00000000000E+00  0.00000000000E+00  0.45593999997E+02  0.45594000000E+02  0.51100000000E-03 0. -1.
         11   -1    0    0    0    0 -0.00000000000E+00 -0.00000000000E+00 -0.45593999997E+02  0.45594000000E+02  0.51100000000E-03 0.  1.
    9900012    2    1    2    0    0  0.44491563657E+01  0.29804800629E+02  0.31233035096E+02  0.47787267124E+02  0.19999982124E+02 0.  0.
        -12    1    1    2    0    0 -0.44491563657E+01 -0.29804800629E+02 -0.31233035096E+02  0.43400732876E+02  0.00000000000E+00 0.  1.
         11    1    3    3    0    0  0.45096685467E+01  0.89724181157E+01  0.19088640193E+02  0.21568903122E+02  0.51100000000E-03 0. -1.
        -11    1    3    3    0    0 -0.41286768675E+00  0.11566887852E+01 -0.17433672302E+01  0.21325379793E+01  0.51100000000E-03 0.  1.
         12    1    3    3    0    0  0.35235550578E+00  0.19675693728E+02  0.13887762134E+02  0.24085826022E+02  0.00000000000E+00 0. -1.
</event>
<event>
 7    1  0.2700100E-010  0.4778727E+02  0.7816164E-02  0.1312668E+00
        -11   -1    0    0    0    0  0.00000000000E+00  0.00000000000E+00  0.45593999997E+02  0.45594000000E+02  0.51100000000E-03 0. -1.
         11   -1    0    0    0    0 -0.00000000000E+00 -0.00000000000E+00 -0.45593999997E+02  0.45594000000E+02  0.51100000000E-03 0.  1.
    9900012    2    1    2    0    0  0.35808192278E+02 -0.19002541331E+02  0.15501614920E+02  0.47787271016E+02  0.19999999870E+02 0.  0.
        -12    1    1    2    0    0 -0.35808192278E+02  0.19002541331E+02 -0.15501614920E+02  0.43400728984E+02  0.00000000000E+00 0.  1.
         11    1    3    3    0    0  0.35398733150E+02 -0.19879707212E+02  0.16168538174E+02  0.43700053712E+02  0.51100000000E-03 0. -1.
        -11    1    3    3    0    0  0.47483142115E+00  0.21486631191E+01 -0.14095893590E+01  0.26132662513E+01  0.51100000000E-03 0.  1.
        -12    1    3    3    0    0 -0.65372293500E-01 -0.12714972377E+01  0.74266610486E+00  0.14739510526E+01  0.00000000000E+00 0.  1.
</event>
<event>
 7    1  0.2700100E-010  0.4778727E+02  0.7816164E-02  0.1312668E+00
        -11   -1    0    0    0    0  0.00000000000E+00  0.00000000000E+00  0.45593999997E+02  0.45594000000E+02  0.51100000000E-03 0.  1.
         11   -1    0    0    0    0 -0.00000000000E+00 -0.00000000000E+00 -0.45593999997E+02  0.45594000000E+02  0.51100000000E-03 0. -1.
    9900012    2    1    2    0    0 -0.30019368743E+02  0.23176462183E+02 -0.21102420031E+02  0.47787273852E+02  0.20000012800E+02 0.  0.
        -12    1    1    2    0    0  0.30019368743E+02 -0.23176462183E+02  0.21102420031E+02  0.43400726148E+02  0.00000000000E+00 0.  1.
         11    1    3    3    0    0 -0.62889046027E+01  0.24030852407E+01 -0.13041168634E+02  0.14676417117E+02  0.51100000000E-03 0. -1.
        -11    1    3    3    0    0 -0.23095567832E+02  0.21012272194E+02 -0.84259970375E+01  0.32340659588E+02  0.51100000000E-03 0.  1.
        -12    1    3    3    0    0 -0.63489630768E+00 -0.23889525154E+00  0.36474564119E+00  0.77019714715E+00  0.00000000000E+00 0.  1.
</event>
<event>
 7    1  0.2700100E-010  0.4778727E+02  0.7816164E-02  0.1312668E+00
        -11   -1    0    0    0    0  0.00000000000E+00  0.00000000000E+00  0.45593999997E+02  0.45594000000E+02  0.51100000000E-03 0.  1.
         11   -1    0    0    0    0 -0.00000000000E+00 -0.00000000000E+00 -0.45593999997E+02  0.45594000000E+02  0.51100000000E-03 0. -1.
    9900012    2    1    2    0    0 -0.49281195454E+01 -0.32047298926E+02 -0.28849741516E+02  0.47787270557E+02  0.19999997776E+02 0.  0.
        -12    1    1    2    0    0  0.49281195454E+01  0.32047298926E+02  0.28849741516E+02  0.43400729443E+02  0.00000000000E+00 0.  1.
         11    1    3    3    0    0  0.45816886519E+01 -0.12262399137E+02 -0.60189201424E+01  0.14407834793E+02  0.51100000000E-03 0. -1.
        -11    1    3    3    0    0 -0.11272716865E+02 -0.16340135220E+02 -0.15869450983E+02  0.25414831089E+02  0.51100000000E-03 0.  1.
        -12    1    3    3    0    0  0.17629086677E+01 -0.34447645692E+01 -0.69613703902E+01  0.79646046743E+01  0.00000000000E+00 0.  1.
</event>
<event>
 7    1  0.2700100E-010  0.4778727E+02  0.7816164E-02  0.1312668E+00
        -11   -1    0    0    0    0  0.00000000000E+00  0.00000000000E+00  0.45593999997E+02  0.45594000000E+02  0.51100000000E-03 0.  1.
         11   -1    0    0    0    0 -0.00000000000E+00 -0.00000000000E+00 -0.45593999997E+02  0.45594000000E+02  0.51100000000E-03 0. -1.
    9900012    2    1    2    0    0  0.32077710528E+02  0.28464952459E+02 -0.66626165396E+01  0.47787268551E+02  0.19999988632E+02 0.  0.
        -12    1    1    2    0    0 -0.32077710528E+02 -0.28464952459E+02  0.66626165396E+01  0.43400731449E+02  0.00000000000E+00 0.  1.
         11    1    3    3    0    0  0.12908076745E+02  0.17536528716E+02  0.20761710148E+01  0.21873700441E+02  0.51100000000E-03 0. -1.
        -11    1    3    3    0    0  0.19854751750E+02  0.11943899918E+02 -0.83247696756E+01  0.24620513859E+02  0.51100000000E-03 0.  1.
        -12    1    3    3    0    0 -0.68511796695E+00 -0.10154761750E+01 -0.41401787877E+00  0.12930542504E+01  0.00000000000E+00 0.  1.
</event>
<event>
 7    1  0.2700100E-010  0.4778727E+02  0.7816164E-02  0.1312668E+00
        -11   -1    0    0    0    0  0.00000000000E+00  0.00000000000E+00  0.45593999997E+02  0.45594000000E+02  0.51100000000E-03 0.  1.
         11   -1    0    0    0    0 -0.00000000000E+00 -0.00000000000E+00 -0.45593999997E+02  0.45594000000E+02  0.51100000000E-03 0. -1.
    9900012    2    1    2    0    0 -0.19613060757E+02  0.67012282953E+01 -0.38131937932E+02  0.47787270705E+02  0.19999998453E+02 0.  0.
        -12    1    1    2    0    0  0.19613060757E+02 -0.67012282953E+01  0.38131937932E+02  0.43400729295E+02  0.00000000000E+00 0.  1.
         11    1    3    3    0    0 -0.11673450949E+02  0.72005102595E+01 -0.22052899851E+02  0.25970121238E+02  0.51100000000E-03 0. -1.
        -11    1    3    3    0    0 -0.47415552820E+00 -0.48182937550E+01 -0.18594745836E+01  0.51863690731E+01  0.51100000000E-03 0.  1.
        -12    1    3    3    0    0 -0.74654542797E+01  0.43190117907E+01 -0.14219563497E+02  0.16630780394E+02  0.00000000000E+00 0.  1.
</event>
<event>
 7    1  0.2700100E-010  0.4778728E+02  0.7816164E-02  0.1312668E+00
        -11   -1    0    0    0    0  0.00000000000E+00  0.00000000000E+00  0.45593999997E+02  0.45594000000E+02  0.51100000000E-03 0.  1.
         11   -1    0    0    0    0 -0.00000000000E+00 -0.00000000000E+00 -0.45593999997E+02  0.45594000000E+02  0.51100000000E-03 0. -1.
    9900012    2    1    2    0    0 -0.68829422406E+01 -0.11234982587E+02 -0.41352426284E+02  0.47787275499E+02  0.20000020310E+02 0.  0.
        -12    1    1    2    0    0  0.68829422406E+01  0.11234982587E+02  0.41352426284E+02  0.43400724501E+02  0.00000000000E+00 0.  1.
         11    1    3    3    0    0 -0.35092858681E+01 -0.12084933550E+02 -0.23695353917E+02  0.26829657168E+02  0.51100000000E-03 0.  1.
        -11    1    3    3    0    0 -0.93891138398E+00  0.13209124202E+01 -0.18319300126E+02  0.18390843417E+02  0.51100000000E-03 0. -1.
        -12    1    3    3    0    0 -0.24347449885E+01 -0.47096145725E+00  0.66222775956E+00  0.25667749139E+01  0.00000000000E+00 0.  1.
</event>
<event>
 7    1  0.2700100E-010  0.4778728E+02  0.7816164E-02  0.1312668E+00
        -11   -1    0    0    0    0  0.00000000000E+00  0.00000000000E+00  0.45593999997E+02  0.45594000000E+02  0.51100000000E-03 0. -1.
         11   -1    0    0    0    0 -0.00000000000E+00 -0.00000000000E+00 -0.45593999997E+02  0.45594000000E+02  0.51100000000E-03 0.  1.
    9900012    2    1    2    0    0 -0.21634571138E+02 -0.33349660382E+01  0.37475940177E+02  0.47787276976E+02  0.20000027045E+02 0.  0.
        -12    1    1    2    0    0  0.21634571138E+02  0.33349660382E+01 -0.37475940177E+02  0.43400723024E+02  0.00000000000E+00 0.  1.
         11    1    3    3    0    0 -0.28343529608E+01 -0.17358317769E+01  0.20504073684E+02  0.20771704469E+02  0.51100000000E-03 0. -1.
        -11    1    3    3    0    0 -0.14245473887E+02 -0.51733310533E+01  0.13264547294E+02  0.20140632950E+02  0.51100000000E-03 0.  1.
        -12    1    3    3    0    0 -0.45547442907E+01  0.35741967920E+01  0.37073191993E+01  0.68749395566E+01  0.00000000000E+00 0.  1.
</event>
<event>
 7    1  0.2700100E-010  0.4778726E+02  0.7816164E-02  0.1312668E+00
        -11   -1    0    0    0    0  0.00000000000E+00  0.00000000000E+00  0.45593999997E+02  0.45594000000E+02  0.51100000000E-03 0.  1.
         11   -1    0    0    0    0 -0.00000000000E+00 -0.00000000000E+00 -0.45593999997E+02  0.45594000000E+02  0.51100000000E-03 0. -1.
    9900012    2    1    2    0    0  0.17375269062E+02  0.29381243599E+02 -0.26804224500E+02  0.47787263814E+02  0.19999967035E+02 0.  0.
        -12    1    1    2    0    0 -0.17375269062E+02 -0.29381243599E+02  0.26804224500E+02  0.43400736186E+02  0.00000000000E+00 0.  1.
         11    1    3    3    0    0  0.43048039451E+01  0.20458844205E+02 -0.23519402782E+02  0.31468364284E+02  0.51100000000E-03 0. -1.
        -11    1    3    3    0    0  0.60417142991E+01  0.44602084017E+01 -0.26717588449E+01  0.79708259449E+01  0.51100000000E-03 0.  1.
         12    1    3    3    0    0  0.70287508174E+01  0.44621909926E+01 -0.61306287328E+00  0.83480735858E+01  0.00000000000E+00 0. -1.
</event>
<event>
 7    1  0.2700100E-010  0.4778728E+02  0.7816164E-02  0.1312668E+00
        -11   -1    0    0    0    0  0.00000000000E+00  0.00000000000E+00  0.45593999997E+02  0.45594000000E+02  0.51100000000E-03 0.  1.
         11   -1    0    0    0    0 -0.00000000000E+00 -0.00000000000E+00 -0.45593999997E+02  0.45594000000E+02  0.51100000000E-03 0. -1.
    9900012    2    1    2    0    0  0.50163668272E+01 -0.15512382890E+02 -0.40222188253E+02  0.47787281262E+02  0.20000046587E+02 0.  0.
        -12    1    1    2    0    0 -0.50163668272E+01  0.15512382890E+02  0.40222188253E+02  0.43400718738E+02  0.00000000000E+00 0.  1.
         11    1    3    3    0    0  0.83225090229E+01 -0.99513989944E+01 -0.15436761764E+02  0.20164030163E+02  0.51100000000E-03 0. -1.
        -11    1    3    3    0    0 -0.16222549304E+01  0.29700050679E+00 -0.19458717738E+02  0.19528482190E+02  0.51100000000E-03 0.  1.
        -12    1    3    3    0    0 -0.16838872653E+01 -0.58579844026E+01 -0.53267087502E+01  0.80947689092E+01  0.00000000000E+00 0.  1.
</event>
<event>
 7    1  0.2700100E-010  0.4778726E+02  0.7816164E-02  0.1312668E+00
        -11   -1    0    0    0    0  0.00000000000E+00  0.00000000000E+00  0.45593999997E+02  0.45594000000E+02  0.51100000000E-03 0.  1.
         11   -1    0    0    0    0 -0.00000000000E+00 -0.00000000000E+00 -0.45593999997E+02  0.45594000000E+02  0.51100000000E-03 0. -1.
    9900012    2    1    2    0    0 -0.34980313750E+02 -0.20917822082E+02 -0.14914632649E+02  0.47787263857E+02  0.19999967231E+02 0.  0.
        -12    1    1    2    0    0  0.34980313750E+02  0.20917822082E+02  0.14914632649E+02  0.43400736143E+02  0.00000000000E+00 0.  1.
         11    1    3    3    0    0 -0.18083964502E+02 -0.20239398309E+02 -0.45992712828E+01  0.27528463680E+02  0.51100000000E-03 0. -1.
        -11    1    3    3    0    0 -0.41303758712E+01  0.23380173796E+00 -0.47601695514E+01  0.63066538282E+01  0.51100000000E-03 0.  1.
         12    1    3    3    0    0 -0.12765973377E+02 -0.91222551135E+00 -0.55551918149E+01  0.13952146349E+02  0.00000000000E+00 0. -1.
</event>
<event>
 7    1  0.2700100E-010  0.4778725E+02  0.7816164E-02  0.1312668E+00
        -11   -1    0    0    0    0  0.00000000000E+00  0.00000000000E+00  0.45593999997E+02  0.45594000000E+02  0.51100000000E-03 0.  1.
         11   -1    0    0    0    0 -0.00000000000E+00 -0.00000000000E+00 -0.45593999997E+02  0.45594000000E+02  0.51100000000E-03 0. -1.
    9900012    2    1    2    0    0  0.12585603207E+02 -0.17510248599E+02 -0.37664552274E+02  0.47787254476E+02  0.19999924456E+02 0.  0.
        -12    1    1    2    0    0 -0.12585603207E+02  0.17510248599E+02  0.37664552274E+02  0.43400745524E+02  0.00000000000E+00 0.  1.
         11    1    3    3    0    0  0.14989291011E+02 -0.83569622461E+01 -0.24360186019E+02  0.29798260455E+02  0.51100000000E-03 0. -1.
        -11    1    3    3    0    0 -0.44569962880E+01 -0.66728785667E+01 -0.60420301501E+01  0.10044812237E+02  0.51100000000E-03 0.  1.
        -12    1    3    3    0    0  0.20533084846E+01 -0.24804077865E+01 -0.72623361048E+01  0.79441817841E+01  0.00000000000E+00 0.  1.
</event>
<event>
 7    1  0.2700100E-010  0.4778727E+02  0.7816164E-02  0.1312668E+00
        -11   -1    0    0    0    0  0.00000000000E+00  0.00000000000E+00  0.45593999997E+02  0.45594000000E+02  0.51100000000E-03 0.  1.
         11   -1    0    0    0    0 -0.00000000000E+00 -0.00000000000E+00 -0.45593999997E+02  0.45594000000E+02  0.51100000000E-03 0. -1.
    9900012    2    1    2    0    0 -0.20764359115E+02 -0.31432550631E+02 -0.21551318078E+02  0.47787272362E+02  0.20000006007E+02 0.  0.
        -12    1    1    2    0    0  0.20764359115E+02  0.31432550631E+02  0.21551318078E+02  0.43400727638E+02  0.00000000000E+00 0.  1.
         11    1    3    3    0    0  0.31358015830E+01 -0.42898085533E+01 -0.23077903722E+01  0.57932379249E+01  0.51100000000E-03 0. -1.
        -11    1    3    3    0    0  0.58315494342E+00 -0.21088511870E+01 -0.19916755071E+01  0.29587319249E+01  0.51100000000E-03 0.  1.
         12    1    3    3    0    0 -0.24483315641E+02 -0.25033890891E+02 -0.17251852199E+02  0.39035302512E+02  0.00000000000E+00 0. -1.
</event>
<event>
 7    1  0.2700100E-010  0.4778727E+02  0.7816164E-02  0.1312668E+00
        -11   -1    0    0    0    0  0.00000000000E+00  0.00000000000E+00  0.45593999997E+02  0.45594000000E+02  0.51100000000E-03 0.  1.
         11   -1    0    0    0    0 -0.00000000000E+00 -0.00000000000E+00 -0.45593999997E+02  0.45594000000E+02  0.51100000000E-03 0. -1.
    9900012    2    1    2    0    0 -0.37843837024E+01  0.14296459658E+02 -0.40803342975E+02  0.47787272855E+02  0.20000008255E+02 0.  0.
        -12    1    1    2    0    0  0.37843837024E+01 -0.14296459658E+02  0.40803342975E+02  0.43400727145E+02  0.00000000000E+00 0.  1.
         11    1    3    3    0    0 -0.43439448702E+01  0.69052996803E+01 -0.11622944197E+02  0.14200206082E+02  0.51100000000E-03 0.  1.
        -11    1    3    3    0    0  0.56992915551E+01  0.73837446514E+01 -0.97694236149E+01  0.13507155412E+02  0.51100000000E-03 0. -1.
        -12    1    3    3    0    0 -0.51397303873E+01  0.74153262915E-02 -0.19410975163E+02  0.20079911360E+02  0.00000000000E+00 0.  1.
</event>
<event>
 7    1  0.2700100E-010  0.4778727E+02  0.7816164E-02  0.1312668E+00
        -11   -1    0    0    0    0  0.00000000000E+00  0.00000000000E+00  0.45593999997E+02  0.45594000000E+02  0.51100000000E-03 0. -1.
         11   -1    0    0    0    0 -0.00000000000E+00 -0.00000000000E+00 -0.45593999997E+02  0.45594000000E+02  0.51100000000E-03 0.  1.
    9900012    2    1    2    0    0  0.12726587380E+02  0.13392664814E+02 -0.39272052929E+02  0.47787266845E+02  0.19999980854E+02 0.  0.
        -12    1    1    2    0    0 -0.12726587380E+02 -0.13392664814E+02  0.39272052929E+02  0.43400733155E+02  0.00000000000E+00 0.  1.
         11    1    3    3    0    0 -0.33427352210E+01 -0.12526846263E+01 -0.18865849267E+01  0.40376107387E+01  0.51100000000E-03 0. -1.
        -11    1    3    3    0    0  0.12817021454E+02  0.87506887267E+01 -0.29860549170E+02  0.33652681753E+02  0.51100000000E-03 0.  1.
         12    1    3    3    0    0  0.32523011466E+01  0.58946607131E+01 -0.75249188317E+01  0.10096974353E+02  0.00000000000E+00 0. -1.
</event>
<event>
 7    1  0.2700100E-010  0.4778727E+02  0.7816164E-02  0.1312668E+00
        -11   -1    0    0    0    0  0.00000000000E+00  0.00000000000E+00  0.45593999997E+02  0.45594000000E+02  0.51100000000E-03 0.  1.
         11   -1    0    0    0    0 -0.00000000000E+00 -0.00000000000E+00 -0.45593999997E+02  0.45594000000E+02  0.51100000000E-03 0. -1.
    9900012    2    1    2    0    0  0.36124148449E+02  0.34309873353E+01 -0.23809610730E+02  0.47787270301E+02  0.19999996610E+02 0.  0.
        -12    1    1    2    0    0 -0.36124148449E+02 -0.34309873353E+01  0.23809610730E+02  0.43400729699E+02  0.00000000000E+00 0.  1.
         11    1    3    3    0    0 -0.17708025772E+01  0.12643028350E+01 -0.51393479399E+00  0.22356951178E+01  0.51100000000E-03 0. -1.
        -11    1    3    3    0    0  0.15497110338E+02 -0.21634742011E+01 -0.53852176335E+01  0.16548160582E+02  0.51100000000E-03 0.  1.
         12    1    3    3    0    0  0.22397840689E+02  0.43301587014E+01 -0.17910458303E+02  0.29003414601E+02  0.00000000000E+00 0. -1.
</event>
<event>
 7    1  0.2700100E-010  0.4778727E+02  0.7816164E-02  0.1312668E+00
        -11   -1    0    0    0    0  0.00000000000E+00  0.00000000000E+00  0.45593999997E+02  0.45594000000E+02  0.51100000000E-03 0. -1.
         11   -1    0    0    0    0 -0.00000000000E+00 -0.00000000000E+00 -0.45593999997E+02  0.45594000000E+02  0.51100000000E-03 0.  1.
    9900012    2    1    2    0    0  0.27396886490E+02  0.30484126091E+02 -0.14274175221E+02  0.47787269463E+02  0.19999992790E+02 0.  0.
        -12    1    1    2    0    0 -0.27396886490E+02 -0.30484126091E+02  0.14274175221E+02  0.43400730537E+02  0.00000000000E+00 0.  1.
         11    1    3    3    0    0  0.11275867721E+02  0.10164074985E+02 -0.10206490306E+02  0.18292787043E+02  0.51100000000E-03 0. -1.
        -11    1    3    3    0    0  0.14881564783E+02  0.19467243695E+02  0.68093536824E+00  0.24513225425E+02  0.51100000000E-03 0.  1.
        -12    1    3    3    0    0  0.12394539858E+01  0.85280741135E+00 -0.47486202835E+01  0.49812569961E+01  0.00000000000E+00 0.  1.
</event>
<event>
 7    1  0.2700100E-010  0.4778727E+02  0.7816164E-02  0.1312668E+00
        -11   -1    0    0    0    0  0.00000000000E+00  0.00000000000E+00  0.45593999997E+02  0.45594000000E+02  0.51100000000E-03 0.  1.
         11   -1    0    0    0    0 -0.00000000000E+00 -0.00000000000E+00 -0.45593999997E+02  0.45594000000E+02  0.51100000000E-03 0. -1.
    9900012    2    1    2    0    0 -0.91271015054E+01 -0.20511328491E+02 -0.37143030107E+02  0.47787271159E+02  0.20000000524E+02 0.  0.
        -12    1    1    2    0    0  0.91271015054E+01  0.20511328491E+02  0.37143030107E+02  0.43400728841E+02  0.00000000000E+00 0.  1.
         11    1    3    3    0    0 -0.10337302917E+02 -0.16616008032E+02 -0.19478920395E+02  0.27611227689E+02  0.51100000000E-03 0. -1.
        -11    1    3    3    0    0  0.35248358353E+01 -0.57563685079E+01 -0.12969910335E+02  0.14621177121E+02  0.51100000000E-03 0.  1.
        -12    1    3    3    0    0 -0.23146344237E+01  0.18610480486E+01 -0.46941993777E+01  0.55548663487E+01  0.00000000000E+00 0.  1.
</event>
<event>
 7    1  0.2700100E-010  0.4778727E+02  0.7816164E-02  0.1312668E+00
        -11   -1    0    0    0    0  0.00000000000E+00  0.00000000000E+00  0.45593999997E+02  0.45594000000E+02  0.51100000000E-03 0. -1.
         11   -1    0    0    0    0 -0.00000000000E+00 -0.00000000000E+00 -0.45593999997E+02  0.45594000000E+02  0.51100000000E-03 0.  1.
    9900012    2    1    2    0    0 -0.33808037463E+02  0.26139015236E+02 -0.75757235939E+01  0.47787273018E+02  0.20000008997E+02 0.  0.
        -12    1    1    2    0    0  0.33808037463E+02 -0.26139015236E+02  0.75757235939E+01  0.43400726982E+02  0.00000000000E+00 0.  1.
         11    1    3    3    0    0 -0.13377423015E+02  0.18472329067E+01  0.10145743354E+00  0.13504740271E+02  0.51100000000E-03 0. -1.
        -11    1    3    3    0    0 -0.85202106636E-01  0.57381331030E+01 -0.25250401497E+01  0.62697096364E+01  0.51100000000E-03 0.  1.
         12    1    3    3    0    0 -0.20345412342E+02  0.18553649227E+02 -0.51521408778E+01  0.28012823110E+02  0.00000000000E+00 0. -1.
</event>
<event>
 7    1  0.2700100E-010  0.4778727E+02  0.7816164E-02  0.1312668E+00
        -11   -1    0    0    0    0  0.00000000000E+00  0.00000000000E+00  0.45593999997E+02  0.45594000000E+02  0.51100000000E-03 0.  1.
         11   -1    0    0    0    0 -0.00000000000E+00 -0.00000000000E+00 -0.45593999997E+02  0.45594000000E+02  0.51100000000E-03 0. -1.
    9900012    2    1    2    0    0  0.91858803644E+01 -0.22871447530E+02 -0.35723097008E+02  0.47787272240E+02  0.20000005453E+02 0.  0.
        -12    1    1    2    0    0 -0.91858803644E+01  0.22871447530E+02  0.35723097008E+02  0.43400727760E+02  0.00000000000E+00 0.  1.
         11    1    3    3    0    0  0.14182167888E+01 -0.17797001256E+02 -0.26470147489E+02  0.31928252394E+02  0.51100000000E-03 0. -1.
        -11    1    3    3    0    0 -0.20012990189E+01 -0.97551835278E+00 -0.10561891992E+01  0.24642178689E+01  0.51100000000E-03 0.  1.
         12    1    3    3    0    0  0.97689625945E+01 -0.40989279213E+01 -0.81967603205E+01  0.13394801978E+02  0.00000000000E+00 0. -1.
</event>
<event>
 7    1  0.2700100E-010  0.4778727E+02  0.7816164E-02  0.1312668E+00
        -11   -1    0    0    0    0  0.00000000000E+00  0.00000000000E+00  0.45593999997E+02  0.45594000000E+02  0.51100000000E-03 0.  1.
         11   -1    0    0    0    0 -0.00000000000E+00 -0.00000000000E+00 -0.45593999997E+02  0.45594000000E+02  0.51100000000E-03 0. -1.
    9900012    2    1    2    0    0  0.43289367072E+02 -0.30178953564E+01  0.73894877571E+00  0.47787273748E+02  0.20000012327E+02 0.  0.
        -12    1    1    2    0    0 -0.43289367072E+02  0.30178953564E+01 -0.73894877571E+00  0.43400726252E+02  0.00000000000E+00 0.  1.
         11    1    3    3    0    0  0.39175232033E+02 -0.38024246747E+01  0.14694194839E+01  0.39386754526E+02  0.51100000000E-03 0. -1.
        -11    1    3    3    0    0 -0.14032592646E+00  0.31785569645E+01 -0.13943963584E+01  0.34737957925E+01  0.51100000000E-03 0.  1.
        -12    1    3    3    0    0  0.42544609658E+01 -0.23940276463E+01  0.66392565021E+00  0.49267234294E+01  0.00000000000E+00 0.  1.
</event>
<event>
 7    1  0.2700100E-010  0.4778727E+02  0.7816164E-02  0.1312668E+00
        -11   -1    0    0    0    0  0.00000000000E+00  0.00000000000E+00  0.45593999997E+02  0.45594000000E+02  0.51100000000E-03 0. -1.
         11   -1    0    0    0    0 -0.00000000000E+00 -0.00000000000E+00 -0.45593999997E+02  0.45594000000E+02  0.51100000000E-03 0.  1.
    9900012    2    1    2    0    0  0.91308221704E+01 -0.42423984921E+02 -0.67607288622E+00  0.47787268616E+02  0.19999988930E+02 0.  0.
        -12    1    1    2    0    0 -0.91308221704E+01  0.42423984921E+02  0.67607288622E+00  0.43400731384E+02  0.00000000000E+00 0.  1.
         11    1    3    3    0    0  0.10735188928E+02 -0.17387023764E+02  0.20206258360E+01  0.20533772321E+02  0.51100000000E-03 0. -1.
        -11    1    3    3    0    0  0.16167200967E+00 -0.82347772496E+01 -0.58032931615E+01  0.10075510209E+02  0.51100000000E-03 0.  1.
         12    1    3    3    0    0 -0.17660387677E+01 -0.16802183907E+02  0.31065944392E+01  0.17177986087E+02  0.00000000000E+00 0. -1.
</event>
<event>
 7    1  0.2700100E-010  0.4778727E+02  0.7816164E-02  0.1312668E+00
        -11   -1    0    0    0    0  0.00000000000E+00  0.00000000000E+00  0.45593999997E+02  0.45594000000E+02  0.51100000000E-03 0. -1.
         11   -1    0    0    0    0 -0.00000000000E+00 -0.00000000000E+00 -0.45593999997E+02  0.45594000000E+02  0.51100000000E-03 0.  1.
    9900012    2    1    2    0    0 -0.35210958409E+02  0.88448100302E+01  0.23781952973E+02  0.47787267935E+02  0.19999985823E+02 0.  0.
        -12    1    1    2    0    0  0.35210958409E+02 -0.88448100302E+01 -0.23781952973E+02  0.43400732065E+02  0.00000000000E+00 0.  1.
         11    1    3    3    0    0 -0.15166509296E+02  0.65555992690E+01  0.11448235925E+02  0.20101268419E+02  0.51100000000E-03 0. -1.
        -11    1    3    3    0    0 -0.80538414673E+01  0.67399364047E+01  0.10346615499E+02  0.14742576358E+02  0.51100000000E-03 0.  1.
        -12    1    3    3    0    0 -0.11990607646E+02 -0.44507256436E+01  0.19871015483E+01  0.12943423158E+02  0.00000000000E+00 0.  1.
</event>
<event>
 7    1  0.2700100E-010  0.4778726E+02  0.7816164E-02  0.1312668E+00
        -11   -1    0    0    0    0  0.00000000000E+00  0.00000000000E+00  0.45593999997E+02  0.45594000000E+02  0.51100000000E-03 0.  1.
         11   -1    0    0    0    0 -0.00000000000E+00 -0.00000000000E+00 -0.45593999997E+02  0.45594000000E+02  0.51100000000E-03 0. -1.
    9900012    2    1    2    0    0  0.10529717654E+02 -0.27190099562E+02 -0.32147286236E+02  0.47787257145E+02  0.19999936625E+02 0.  0.
        -12    1    1    2    0    0 -0.10529717654E+02  0.27190099562E+02  0.32147286236E+02  0.43400742855E+02  0.00000000000E+00 0.  1.
         11    1    3    3    0    0  0.26896966698E+01 -0.43785143079E+01 -0.10265306965E+02  0.11479650825E+02  0.51100000000E-03 0. -1.
        -11    1    3    3    0    0 -0.34215007786E+01 -0.12442158354E+02 -0.14174269351E+02  0.19168304150E+02  0.51100000000E-03 0.  1.
        -12    1    3    3    0    0  0.11261521763E+02 -0.10369426900E+02 -0.77077099191E+01  0.17139302169E+02  0.00000000000E+00 0.  1.
</event>
<event>
 7    1  0.2700100E-010  0.4778728E+02  0.7816164E-02  0.1312668E+00
        -11   -1    0    0    0    0  0.00000000000E+00  0.00000000000E+00  0.45593999997E+02  0.45594000000E+02  0.51100000000E-03 0.  1.
         11   -1    0    0    0    0 -0.00000000000E+00 -0.00000000000E+00 -0.45593999997E+02  0.45594000000E+02  0.51100000000E-03 0. -1.
    9900012    2    1    2    0    0  0.10050339631E+02 -0.40907738842E+02 -0.10448458831E+02  0.47787277474E+02  0.20000029313E+02 0.  0.
        -12    1    1    2    0    0 -0.10050339631E+02  0.40907738842E+02  0.10448458831E+02  0.43400722526E+02  0.00000000000E+00 0.  1.
         11    1    3    3    0    0 -0.25266938690E+01 -0.14418512445E+02 -0.73241650968E+01  0.16368294891E+02  0.51100000000E-03 0. -1.
        -11    1    3    3    0    0  0.43878044870E+01 -0.41011045210E+01  0.31309648192E+01  0.67730958556E+01  0.51100000000E-03 0.  1.
        -12    1    3    3    0    0  0.81892290127E+01 -0.22388121876E+02 -0.62552585538E+01  0.24645886727E+02  0.00000000000E+00 0.  1.
</event>
<event>
 7    1  0.2700100E-010  0.4778726E+02  0.7816164E-02  0.1312668E+00
        -11   -1    0    0    0    0  0.00000000000E+00  0.00000000000E+00  0.45593999997E+02  0.45594000000E+02  0.51100000000E-03 0.  1.
         11   -1    0    0    0    0 -0.00000000000E+00 -0.00000000000E+00 -0.45593999997E+02  0.45594000000E+02  0.51100000000E-03 0. -1.
    9900012    2    1    2    0    0  0.19076886223E+02  0.35952299949E+01 -0.38817143687E+02  0.47787263708E+02  0.19999966549E+02 0.  0.
        -12    1    1    2    0    0 -0.19076886223E+02 -0.35952299949E+01  0.38817143687E+02  0.43400736292E+02  0.00000000000E+00 0.  1.
         11    1    3    3    0    0  0.18541678272E+02  0.17124090014E+01 -0.39799407819E+02  0.43939948119E+02  0.51100000000E-03 0. -1.
        -11    1    3    3    0    0 -0.83854451817E+00  0.90105689332E+00  0.16267905684E+01  0.20399775118E+01  0.51100000000E-03 0.  1.
         12    1    3    3    0    0  0.13737524693E+01  0.98176410018E+00 -0.64452643662E+00  0.18073380765E+01  0.00000000000E+00 0. -1.
</event>
<event>
 7    1  0.2700100E-010  0.4778727E+02  0.7816164E-02  0.1312668E+00
        -11   -1    0    0    0    0  0.00000000000E+00  0.00000000000E+00  0.45593999997E+02  0.45594000000E+02  0.51100000000E-03 0.  1.
         11   -1    0    0    0    0 -0.00000000000E+00 -0.00000000000E+00 -0.45593999997E+02  0.45594000000E+02  0.51100000000E-03 0. -1.
    9900012    2    1    2    0    0  0.16602806811E+02 -0.40005515602E+02 -0.27438313145E+01  0.47787273245E+02  0.20000010032E+02 0.  0.
        -12    1    1    2    0    0 -0.16602806811E+02  0.40005515602E+02  0.27438313145E+01  0.43400726755E+02  0.00000000000E+00 0.  1.
         11    1    3    3    0    0  0.23186575843E+01 -0.14599589233E+01 -0.41214528039E+01  0.49491440196E+01  0.51100000000E-03 0. -1.
        -11    1    3    3    0    0  0.11225404099E+02 -0.35768027566E+02 -0.19415071765E+01  0.37538392927E+02  0.51100000000E-03 0.  1.
        -12    1    3    3    0    0  0.30587451277E+01 -0.27775291130E+01  0.33191286660E+01  0.52997362983E+01  0.00000000000E+00 0.  1.
</event>
<event>
 7    1  0.2700100E-010  0.4778727E+02  0.7816164E-02  0.1312668E+00
        -11   -1    0    0    0    0  0.00000000000E+00  0.00000000000E+00  0.45593999997E+02  0.45594000000E+02  0.51100000000E-03 0.  1.
         11   -1    0    0    0    0 -0.00000000000E+00 -0.00000000000E+00 -0.45593999997E+02  0.45594000000E+02  0.51100000000E-03 0. -1.
    9900012    2    1    2    0    0 -0.79278868851E+01  0.17583580787E+02 -0.38879162734E+02  0.47787274215E+02  0.20000014458E+02 0.  0.
        -12    1    1    2    0    0  0.79278868851E+01 -0.17583580787E+02  0.38879162734E+02  0.43400725785E+02  0.00000000000E+00 0.  1.
         11    1    3    3    0    0  0.16779510547E+01  0.24404392523E+01 -0.31632924909E+01  0.43333224124E+01  0.51100000000E-03 0. -1.
        -11    1    3    3    0    0  0.35743731377E+01  0.20796792603E+01 -0.12676462094E+01  0.43252903170E+01  0.51100000000E-03 0.  1.
        -12    1    3    3    0    0 -0.13180211077E+02  0.13063462275E+02 -0.34448224033E+02  0.39128661486E+02  0.00000000000E+00 0.  1.
</event>
<event>
 7    1  0.2700100E-010  0.4778727E+02  0.7816164E-02  0.1312668E+00
        -11   -1    0    0    0    0  0.00000000000E+00  0.00000000000E+00  0.45593999997E+02  0.45594000000E+02  0.51100000000E-03 0. -1.
         11   -1    0    0    0    0 -0.00000000000E+00 -0.00000000000E+00 -0.45593999997E+02  0.45594000000E+02  0.51100000000E-03 0.  1.
    9900012    2    1    2    0    0  0.11103473486E+02 -0.39469738302E+02  0.14229407315E+02  0.47787269619E+02  0.19999993501E+02 0.  0.
        -12    1    1    2    0    0 -0.11103473486E+02  0.39469738302E+02 -0.14229407315E+02  0.43400730381E+02  0.00000000000E+00 0.  1.
         11    1    3    3    0    0  0.77882719343E+00 -0.27817105295E+02  0.11123691395E+02  0.29968891025E+02  0.51100000000E-03 0. -1.
        -11    1    3    3    0    0  0.36515102238E+01 -0.55722089716E+01 -0.25856905226E+01  0.71462462509E+01  0.51100000000E-03 0.  1.
         12    1    3    3    0    0  0.66731360691E+01 -0.60804240355E+01  0.56914064427E+01  0.10672132343E+02  0.00000000000E+00 0. -1.
</event>
<event>
 7    1  0.2700100E-010  0.4778727E+02  0.7816164E-02  0.1312668E+00
        -11   -1    0    0    0    0  0.00000000000E+00  0.00000000000E+00  0.45593999997E+02  0.45594000000E+02  0.51100000000E-03 0.  1.
         11   -1    0    0    0    0 -0.00000000000E+00 -0.00000000000E+00 -0.45593999997E+02  0.45594000000E+02  0.51100000000E-03 0. -1.
    9900012    2    1    2    0    0  0.32796215023E+02 -0.16653743087E+02 -0.23036595687E+02  0.47787267063E+02  0.19999981845E+02 0.  0.
        -12    1    1    2    0    0 -0.32796215023E+02  0.16653743087E+02  0.23036595687E+02  0.43400732937E+02  0.00000000000E+00 0.  1.
         11    1    3    3    0    0  0.67090930447E+01 -0.33610117887E+01 -0.12874456918E+02  0.14901676782E+02  0.51100000000E-03 0. -1.
        -11    1    3    3    0    0  0.22253477663E+02 -0.65333393102E+01 -0.95785995514E+01  0.25092854765E+02  0.51100000000E-03 0.  1.
        -12    1    3    3    0    0  0.38336443154E+01 -0.67593919885E+01 -0.58353921775E+00  0.77927355151E+01  0.00000000000E+00 0.  1.
</event>
<event>
 7    1  0.2700100E-010  0.4778726E+02  0.7816164E-02  0.1312668E+00
        -11   -1    0    0    0    0  0.00000000000E+00  0.00000000000E+00  0.45593999997E+02  0.45594000000E+02  0.51100000000E-03 0.  1.
         11   -1    0    0    0    0 -0.00000000000E+00 -0.00000000000E+00 -0.45593999997E+02  0.45594000000E+02  0.51100000000E-03 0. -1.
    9900012    2    1    2    0    0 -0.35612528024E+02 -0.95326295184E+01 -0.22901979662E+02  0.47787264404E+02  0.19999969724E+02 0.  0.
        -12    1    1    2    0    0  0.35612528024E+02  0.95326295184E+01  0.22901979662E+02  0.43400735596E+02  0.00000000000E+00 0.  1.
         11    1    3    3    0    0 -0.18563538453E+02 -0.30806853833E+01 -0.58233094067E+00  0.18826435986E+02  0.51100000000E-03 0. -1.
        -11    1    3    3    0    0 -0.14971959362E+02 -0.45905116815E+01 -0.18690659121E+02  0.24383869736E+02  0.51100000000E-03 0.  1.
         12    1    3    3    0    0 -0.20770302092E+01 -0.18614324536E+01 -0.36289895999E+01  0.45769586829E+01  0.00000000000E+00 0. -1.
</event>
<event>
 7    1  0.2700100E-010  0.4778727E+02  0.7816164E-02  0.1312668E+00
        -11   -1    0    0    0    0  0.00000000000E+00  0.00000000000E+00  0.45593999997E+02  0.45594000000E+02  0.51100000000E-03 0.  1.
         11   -1    0    0    0    0 -0.00000000000E+00 -0.00000000000E+00 -0.45593999997E+02  0.45594000000E+02  0.51100000000E-03 0. -1.
    9900012    2    1    2    0    0  0.39285183637E+01 -0.61824439125E+01 -0.42778119908E+02  0.47787269451E+02  0.19999992737E+02 0.  0.
        -12    1    1    2    0    0 -0.39285183637E+01  0.61824439125E+01  0.42778119908E+02  0.43400730549E+02  0.00000000000E+00 0.  1.
         11    1    3    3    0    0  0.54874870424E+01 -0.79457120882E+01 -0.35913518626E+02  0.37189080051E+02  0.51100000000E-03 0. -1.
        -11    1    3    3    0    0 -0.32957388500E+01  0.34804120646E+01 -0.20775759438E+01  0.52241252636E+01  0.51100000000E-03 0.  1.
        -12    1    3    3    0    0  0.17367701712E+01 -0.17171438889E+01 -0.47870253380E+01  0.53740641371E+01  0.00000000000E+00 0.  1.
</event>
<event>
 7    1  0.2700100E-010  0.4778727E+02  0.7816164E-02  0.1312668E+00
        -11   -1    0    0    0    0  0.00000000000E+00  0.00000000000E+00  0.45593999997E+02  0.45594000000E+02  0.51100000000E-03 0.  1.
         11   -1    0    0    0    0 -0.00000000000E+00 -0.00000000000E+00 -0.45593999997E+02  0.45594000000E+02  0.51100000000E-03 0. -1.
    9900012    2    1    2    0    0  0.42608956086E+02  0.71366759032E+01 -0.41434276262E+01  0.47787271041E+02  0.19999999985E+02 0.  0.
        -12    1    1    2    0    0 -0.42608956086E+02 -0.71366759032E+01  0.41434276262E+01  0.43400728959E+02  0.00000000000E+00 0.  1.
         11    1    3    3    0    0  0.25338535800E+02  0.86234438589E+01  0.13983994377E+01  0.26802251803E+02  0.51100000000E-03 0. -1.
        -11    1    3    3    0    0  0.13525362770E+02 -0.42835525128E+01 -0.73439232754E+01  0.15975527206E+02  0.51100000000E-03 0.  1.
        -12    1    3    3    0    0  0.37450575159E+01  0.27967845570E+01  0.18020962116E+01  0.50094920313E+01  0.00000000000E+00 0.  1.
</event>
<event>
 7    1  0.2700100E-010  0.4778727E+02  0.7816164E-02  0.1312668E+00
        -11   -1    0    0    0    0  0.00000000000E+00  0.00000000000E+00  0.45593999997E+02  0.45594000000E+02  0.51100000000E-03 0.  1.
         11   -1    0    0    0    0 -0.00000000000E+00 -0.00000000000E+00 -0.45593999997E+02  0.45594000000E+02  0.51100000000E-03 0. -1.
    9900012    2    1    2    0    0 -0.27205693440E+01 -0.36366644037E+02 -0.23530596133E+02  0.47787271314E+02  0.20000001230E+02 0.  0.
        -12    1    1    2    0    0  0.27205693440E+01  0.36366644037E+02  0.23530596133E+02  0.43400728686E+02  0.00000000000E+00 0.  1.
         11    1    3    3    0    0  0.20065375436E+01 -0.22112816745E+02 -0.39153721075E+01  0.22546241290E+02  0.51100000000E-03 0. -1.
        -11    1    3    3    0    0 -0.30312531419E+01 -0.13144108921E+02 -0.18594101186E+02  0.22971649791E+02  0.51100000000E-03 0.  1.
         12    1    3    3    0    0 -0.16958537457E+01 -0.11097183710E+01 -0.10211228395E+01  0.22693802333E+01  0.00000000000E+00 0. -1.
</event>
<event>
 7    1  0.2700100E-010  0.4778727E+02  0.7816164E-02  0.1312668E+00
        -11   -1    0    0    0    0  0.00000000000E+00  0.00000000000E+00  0.45593999997E+02  0.45594000000E+02  0.51100000000E-03 0.  1.
         11   -1    0    0    0    0 -0.00000000000E+00 -0.00000000000E+00 -0.45593999997E+02  0.45594000000E+02  0.51100000000E-03 0. -1.
    9900012    2    1    2    0    0  0.39579666637E+02  0.11635119666E+02 -0.13479504211E+02  0.47787273572E+02  0.20000011524E+02 0.  0.
        -12    1    1    2    0    0 -0.39579666637E+02 -0.11635119666E+02  0.13479504211E+02  0.43400726428E+02  0.00000000000E+00 0.  1.
         11    1    3    3    0    0  0.77490206614E+01  0.30638352985E+01 -0.43409117009E+01  0.93956331667E+01  0.51100000000E-03 0. -1.
        -11    1    3    3    0    0  0.10645637967E+02 -0.15333905016E+01 -0.10299323197E+02  0.14891506060E+02  0.51100000000E-03 0.  1.
        -12    1    3    3    0    0  0.21185008009E+02  0.10104674869E+02  0.11607306872E+01  0.23500134346E+02  0.00000000000E+00 0.  1.
</event>
<event>
 7    1  0.2700100E-010  0.4778727E+02  0.7816164E-02  0.1312668E+00
        -11   -1    0    0    0    0  0.00000000000E+00  0.00000000000E+00  0.45593999997E+02  0.45594000000E+02  0.51100000000E-03 0.  1.
         11   -1    0    0    0    0 -0.00000000000E+00 -0.00000000000E+00 -0.45593999997E+02  0.45594000000E+02  0.51100000000E-03 0. -1.
    9900012    2    1    2    0    0  0.40800966044E+02  0.41632343123E+01  0.14197614227E+02  0.47787267289E+02  0.19999982878E+02 0.  0.
        -12    1    1    2    0    0 -0.40800966044E+02 -0.41632343123E+01 -0.14197614227E+02  0.43400732711E+02  0.00000000000E+00 0.  1.
         11    1    3    3    0    0  0.52304597420E+01  0.76429430145E+01  0.46736279071E+01  0.10373769089E+02  0.51100000000E-03 0. -1.
        -11    1    3    3    0    0  0.25837366475E+01 -0.62346813429E+00 -0.72201810198E+00  0.27542182156E+01  0.51100000000E-03 0.  1.
         12    1    3    3    0    0  0.32986769655E+02 -0.28562405679E+01  0.10246004422E+02  0.34659279985E+02  0.00000000000E+00 0. -1.
</event>
<event>
 7    1  0.2700100E-010  0.4778728E+02  0.7816164E-02  0.1312668E+00
        -11   -1    0    0    0    0  0.00000000000E+00  0.00000000000E+00  0.45593999997E+02  0.45594000000E+02  0.51100000000E-03 0.  1.
         11   -1    0    0    0    0 -0.00000000000E+00 -0.00000000000E+00 -0.45593999997E+02  0.45594000000E+02  0.51100000000E-03 0. -1.
    9900012    2    1    2    0    0 -0.20118914837E+02 -0.18609786496E+01 -0.38410790585E+02  0.47787276398E+02  0.20000024411E+02 0.  0.
        -12    1    1    2    0    0  0.20118914837E+02  0.18609786496E+01  0.38410790585E+02  0.43400723602E+02  0.00000000000E+00 0.  1.
         11    1    3    3    0    0  0.13048135649E+01 -0.18747389656E+01 -0.13174150397E+02  0.13370692711E+02  0.51100000000E-03 0. -1.
        -11    1    3    3    0    0 -0.15219211175E+02 -0.97521980716E+00 -0.10845177127E+02  0.18713452638E+02  0.51100000000E-03 0.  1.
        -12    1    3    3    0    0 -0.62045172264E+01  0.98898012313E+00 -0.14391463061E+02  0.15703131049E+02  0.00000000000E+00 0.  1.
</event>
<event>
 7    1  0.2700100E-010  0.4778724E+02  0.7816164E-02  0.1312668E+00
        -11   -1    0    0    0    0  0.00000000000E+00  0.00000000000E+00  0.45593999997E+02  0.45594000000E+02  0.51100000000E-03 0.  1.
         11   -1    0    0    0    0 -0.00000000000E+00 -0.00000000000E+00 -0.45593999997E+02  0.45594000000E+02  0.51100000000E-03 0. -1.
    9900012    2    1    2    0    0 -0.12272128076E+02  0.13243565156E+01 -0.41608500287E+02  0.47787235677E+02  0.19999838746E+02 0.  0.
        -12    1    1    2    0    0  0.12272128076E+02 -0.13243565156E+01  0.41608500287E+02  0.43400764323E+02  0.00000000000E+00 0.  1.
         11    1    3    3    0    0  0.31288065155E+01  0.16400487645E+01 -0.62113112806E+01  0.71455985226E+01  0.51100000000E-03 0. -1.
        -11    1    3    3    0    0  0.22114417015E+01  0.39470359687E+00 -0.28609597879E+01  0.36374931612E+01  0.51100000000E-03 0.  1.
         12    1    3    3    0    0 -0.17612376293E+02 -0.71039584572E+00 -0.32536229218E+02  0.37004143993E+02  0.00000000000E+00 0. -1.
</event>
<event>
 7    1  0.3287491E-010  0.4778727E+02  0.7816164E-02  0.1312668E+00
        -11   -1    0    0    0    0  0.00000000000E+00  0.00000000000E+00  0.45593999997E+02  0.45594000000E+02  0.51100000000E-03 0. -1.
         11   -1    0    0    0    0 -0.00000000000E+00 -0.00000000000E+00 -0.45593999997E+02  0.45594000000E+02  0.51100000000E-03 0.  1.
    9900012    2    1    2    0    0 -0.89959725956E+00 -0.26726645760E+02  0.34183336313E+02  0.47787270164E+02  0.19999995986E+02 0.  0.
        -12    1    1    2    0    0  0.89959725956E+00  0.26726645760E+02 -0.34183336313E+02  0.43400729836E+02  0.00000000000E+00 0.  1.
         11    1    3    3    0    0  0.12615513356E+01 -0.79048832345E+01  0.94249085633E+01  0.12365580957E+02  0.51100000000E-03 0. -1.
        -11    1    3    3    0    0 -0.32326079989E+01 -0.19137354256E+02  0.26802867658E+02  0.33092020146E+02  0.51100000000E-03 0.  1.
        -12    1    3    3    0    0  0.10714594038E+01  0.31559173024E+00 -0.20444399085E+01  0.23296690610E+01  0.00000000000E+00 0.  1.
</event>
<event>
 7    1  0.2700100E-010  0.4778728E+02  0.7816164E-02  0.1312668E+00
        -11   -1    0    0    0    0  0.00000000000E+00  0.00000000000E+00  0.45593999997E+02  0.45594000000E+02  0.51100000000E-03 0. -1.
         11   -1    0    0    0    0 -0.00000000000E+00 -0.00000000000E+00 -0.45593999997E+02  0.45594000000E+02  0.51100000000E-03 0.  1.
    9900012    2    1    2    0    0 -0.26741754287E+02 -0.33360889092E+02 -0.74533067737E+01  0.47787284278E+02  0.20000060336E+02 0.  0.
        -12    1    1    2    0    0  0.26741754287E+02  0.33360889092E+02  0.74533067737E+01  0.43400715722E+02  0.00000000000E+00 0.  1.
         11    1    3    3    0    0 -0.12219481993E+02 -0.24579603951E+02  0.10487922929E+01  0.27469485545E+02  0.51100000000E-03 0. -1.
        -11    1    3    3    0    0 -0.87258752775E+01 -0.15477363975E+01 -0.60475099503E+01  0.10728875252E+02  0.51100000000E-03 0.  1.
        -12    1    3    3    0    0 -0.57963970159E+01 -0.72335487433E+01 -0.24545891164E+01  0.95889234807E+01  0.00000000000E+00 0.  1.
</event>
<event>
 7    1  0.2700100E-010  0.4778727E+02  0.7816164E-02  0.1312668E+00
        -11   -1    0    0    0    0  0.00000000000E+00  0.00000000000E+00  0.45593999997E+02  0.45594000000E+02  0.51100000000E-03 0.  1.
         11   -1    0    0    0    0 -0.00000000000E+00 -0.00000000000E+00 -0.45593999997E+02  0.45594000000E+02  0.51100000000E-03 0. -1.
    9900012    2    1    2    0    0  0.40619887940E+01 -0.39730311407E+02 -0.16989000387E+02  0.47787268075E+02  0.19999986462E+02 0.  0.
        -12    1    1    2    0    0 -0.40619887940E+01  0.39730311407E+02  0.16989000387E+02  0.43400731925E+02  0.00000000000E+00 0.  1.
         11    1    3    3    0    0 -0.61615806608E+00 -0.67397666837E+01 -0.10188316216E+02  0.12231348793E+02  0.51100000000E-03 0. -1.
        -11    1    3    3    0    0  0.53305985004E+01 -0.14536394055E+02  0.98885466200E+00  0.15514505029E+02  0.51100000000E-03 0.  1.
        -12    1    3    3    0    0 -0.65245164033E+00 -0.18454150669E+02 -0.77895388325E+01  0.20041414253E+02  0.00000000000E+00 0.  1.
</event>
<event>
 7    1  0.2700100E-010  0.4778727E+02  0.7816164E-02  0.1312668E+00
        -11   -1    0    0    0    0  0.00000000000E+00  0.00000000000E+00  0.45593999997E+02  0.45594000000E+02  0.51100000000E-03 0.  1.
         11   -1    0    0    0    0 -0.00000000000E+00 -0.00000000000E+00 -0.45593999997E+02  0.45594000000E+02  0.51100000000E-03 0. -1.
    9900012    2    1    2    0    0 -0.91264310624E+01 -0.23738526517E+02 -0.35168360333E+02  0.47787274734E+02  0.20000016821E+02 0.  0.
        -12    1    1    2    0    0  0.91264310624E+01  0.23738526517E+02  0.35168360333E+02  0.43400725266E+02  0.00000000000E+00 0.  1.
         11    1    3    3    0    0 -0.23136376719E+01 -0.19483743593E+02 -0.16821246773E+02  0.25844216509E+02  0.51100000000E-03 0. -1.
        -11    1    3    3    0    0 -0.62370720364E+00  0.12300645380E+01 -0.10341782841E+02  0.10433338010E+02  0.51100000000E-03 0.  1.
        -12    1    3    3    0    0 -0.61890861869E+01 -0.54848474620E+01 -0.80053307184E+01  0.11509720215E+02  0.00000000000E+00 0.  1.
</event>
<event>
 7    1  0.2700100E-010  0.4778727E+02  0.7816164E-02  0.1312668E+00
        -11   -1    0    0    0    0  0.00000000000E+00  0.00000000000E+00  0.45593999997E+02  0.45594000000E+02  0.51100000000E-03 0. -1.
         11   -1    0    0    0    0 -0.00000000000E+00 -0.00000000000E+00 -0.45593999997E+02  0.45594000000E+02  0.51100000000E-03 0.  1.
    9900012    2    1    2    0    0  0.37490237003E+01  0.35167622873E+02 -0.25155643833E+02  0.47787270814E+02  0.19999998949E+02 0.  0.
        -12    1    1    2    0    0 -0.37490237003E+01 -0.35167622873E+02  0.25155643833E+02  0.43400729186E+02  0.00000000000E+00 0.  1.
         11    1    3    3    0    0  0.74372067744E+01  0.21459128030E+02 -0.21289792882E+02  0.31129752675E+02  0.51100000000E-03 0. -1.
        -11    1    3    3    0    0  0.10591272354E+01  0.77263135039E+01  0.58105821170E+00  0.78201854049E+01  0.51100000000E-03 0.  1.
         12    1    3    3    0    0 -0.47473103095E+01  0.59821813386E+01 -0.44469091633E+01  0.88373327339E+01  0.00000000000E+00 0. -1.
</event>
<event>
 7    1  0.2700100E-010  0.4778727E+02  0.7816164E-02  0.1312668E+00
        -11   -1    0    0    0    0  0.00000000000E+00  0.00000000000E+00  0.45593999997E+02  0.45594000000E+02  0.51100000000E-03 0. -1.
         11   -1    0    0    0    0 -0.00000000000E+00 -0.00000000000E+00 -0.45593999997E+02  0.45594000000E+02  0.51100000000E-03 0.  1.
    9900012    2    1    2    0    0 -0.34999675703E+02  0.25575717763E+02  0.21280544913E+01  0.47787271270E+02  0.20000001027E+02 0.  0.
        -12    1    1    2    0    0  0.34999675703E+02 -0.25575717763E+02 -0.21280544913E+01  0.43400728730E+02  0.00000000000E+00 0.  1.
         11    1    3    3    0    0 -0.73393357367E+01  0.40771848450E+01  0.17652583066E+00  0.83976453215E+01  0.51100000000E-03 0. -1.
        -11    1    3    3    0    0 -0.27381471897E+02  0.15569028006E+02 -0.30254314199E+01  0.31643212097E+02  0.51100000000E-03 0.  1.
        -12    1    3    3    0    0 -0.27886806894E+00  0.59295049124E+01  0.49769600805E+01  0.77464138509E+01  0.00000000000E+00 0.  1.
</event>
<event>
 7    1  0.2700100E-010  0.4778726E+02  0.7816164E-02  0.1312668E+00
        -11   -1    0    0    0    0  0.00000000000E+00  0.00000000000E+00  0.45593999997E+02  0.45594000000E+02  0.51100000000E-03 0. -1.
         11   -1    0    0    0    0 -0.00000000000E+00 -0.00000000000E+00 -0.45593999997E+02  0.45594000000E+02  0.51100000000E-03 0.  1.
    9900012    2    1    2    0    0 -0.38277301402E+02 -0.19227797320E+02 -0.69831270023E+01  0.47787262043E+02  0.19999958961E+02 0.  0.
        -12    1    1    2    0    0  0.38277301402E+02  0.19227797320E+02  0.69831270023E+01  0.43400737957E+02  0.00000000000E+00 0.  1.
         11    1    3    3    0    0 -0.33141719789E+02 -0.82617163849E+01 -0.76997138919E+01  0.35013071023E+02  0.51100000000E-03 0. -1.
        -11    1    3    3    0    0 -0.31222545138E+00  0.17301321229E+00  0.52411313519E+00  0.63412391826E+00  0.51100000000E-03 0.  1.
         12    1    3    3    0    0 -0.48233561623E+01 -0.11139094148E+02  0.19247375440E+00  0.12140067102E+02  0.00000000000E+00 0. -1.
</event>
<event>
 7    1  0.2700100E-010  0.4778727E+02  0.7816164E-02  0.1312668E+00
        -11   -1    0    0    0    0  0.00000000000E+00  0.00000000000E+00  0.45593999997E+02  0.45594000000E+02  0.51100000000E-03 0.  1.
         11   -1    0    0    0    0 -0.00000000000E+00 -0.00000000000E+00 -0.45593999997E+02  0.45594000000E+02  0.51100000000E-03 0. -1.
    9900012    2    1    2    0    0  0.33755884988E+02 -0.13009218543E+02 -0.23977569034E+02  0.47787270107E+02  0.19999995728E+02 0.  0.
        -12    1    1    2    0    0 -0.33755884988E+02  0.13009218543E+02  0.23977569034E+02  0.43400729893E+02  0.00000000000E+00 0.  1.
         11    1    3    3    0    0  0.65887397155E+01 -0.64842053282E+01 -0.91844523136E+01  0.13031138643E+02  0.51100000000E-03 0. -1.
        -11    1    3    3    0    0  0.16694255823E+02  0.28953124922E+01 -0.52372520478E+01  0.17734424749E+02  0.51100000000E-03 0.  1.
        -12    1    3    3    0    0  0.10472889449E+02 -0.94203257070E+01 -0.95558646728E+01  0.17021706715E+02  0.00000000000E+00 0.  1.
</event>
<event>
 7    1  0.2700100E-010  0.4778727E+02  0.7816164E-02  0.1312668E+00
        -11   -1    0    0    0    0  0.00000000000E+00  0.00000000000E+00  0.45593999997E+02  0.45594000000E+02  0.51100000000E-03 0. -1.
         11   -1    0    0    0    0 -0.00000000000E+00 -0.00000000000E+00 -0.45593999997E+02  0.45594000000E+02  0.51100000000E-03 0.  1.
    9900012    2    1    2    0    0  0.19866393242E+02  0.17169496548E+02  0.34556594346E+02  0.47787269534E+02  0.19999993115E+02 0.  0.
        -12    1    1    2    0    0 -0.19866393242E+02 -0.17169496548E+02 -0.34556594346E+02  0.43400730466E+02  0.00000000000E+00 0.  1.
         11    1    3    3    0    0  0.22562976941E+01  0.74097093736E+01  0.13158824369E+02  0.15269228249E+02  0.51100000000E-03 0. -1.
        -11    1    3    3    0    0  0.13858544425E+02  0.59304207758E+01  0.60184229560E+01  0.16231160134E+02  0.51100000000E-03 0.  1.
        -12    1    3    3    0    0  0.37515511229E+01  0.38293663989E+01  0.15379347021E+02  0.16286881152E+02  0.00000000000E+00 0.  1.
</event>
<event>
 7    1  0.2700100E-010  0.4778727E+02  0.7816164E-02  0.1312668E+00
        -11   -1    0    0    0    0  0.00000000000E+00  0.00000000000E+00  0.45593999997E+02  0.45594000000E+02  0.51100000000E-03 0. -1.
         11   -1    0    0    0    0 -0.00000000000E+00 -0.00000000000E+00 -0.45593999997E+02  0.45594000000E+02  0.51100000000E-03 0.  1.
    9900012    2    1    2    0    0  0.26543838930E+02 -0.34015024668E+02 -0.46931722157E+01  0.47787272428E+02  0.20000006309E+02 0.  0.
        -12    1    1    2    0    0 -0.26543838930E+02  0.34015024668E+02  0.46931722157E+01  0.43400727572E+02  0.00000000000E+00 0.  1.
         11    1    3    3    0    0  0.14965547404E+02 -0.23362698903E+02 -0.98253887972E+01  0.29433341203E+02  0.51100000000E-03 0. -1.
        -11    1    3    3    0    0  0.18474641726E+01  0.11132777549E+01  0.15914627667E+01  0.26805345041E+01  0.51100000000E-03 0.  1.
         12    1    3    3    0    0  0.97308273540E+01 -0.11765603520E+02  0.35407538148E+01  0.15673396721E+02  0.00000000000E+00 0. -1.
</event>
<event>
 7    1  0.2700100E-010  0.4778727E+02  0.7816164E-02  0.1312668E+00
        -11   -1    0    0    0    0  0.00000000000E+00  0.00000000000E+00  0.45593999997E+02  0.45594000000E+02  0.51100000000E-03 0.  1.
         11   -1    0    0    0    0 -0.00000000000E+00 -0.00000000000E+00 -0.45593999997E+02  0.45594000000E+02  0.51100000000E-03 0. -1.
    9900012    2    1    2    0    0 -0.13440280167E+02  0.24450675345E+02 -0.33243746404E+02  0.47787270389E+02  0.19999997013E+02 0.  0.
        -12    1    1    2    0    0  0.13440280167E+02 -0.24450675345E+02  0.33243746404E+02  0.43400729611E+02  0.00000000000E+00 0.  1.
         11    1    3    3    0    0  0.14736694173E+01  0.11462233192E+02 -0.16750913017E+02  0.20350616170E+02  0.51100000000E-03 0. -1.
        -11    1    3    3    0    0 -0.71395828877E+01  0.46756528886E+00 -0.46913403235E+01  0.85557545197E+01  0.51100000000E-03 0.  1.
         12    1    3    3    0    0 -0.77743666969E+01  0.12520876863E+02 -0.11801493063E+02  0.18880899700E+02  0.00000000000E+00 0. -1.
</event>
<event>
 7    1  0.2700100E-010  0.4778727E+02  0.7816164E-02  0.1312668E+00
        -11   -1    0    0    0    0  0.00000000000E+00  0.00000000000E+00  0.45593999997E+02  0.45594000000E+02  0.51100000000E-03 0.  1.
         11   -1    0    0    0    0 -0.00000000000E+00 -0.00000000000E+00 -0.45593999997E+02  0.45594000000E+02  0.51100000000E-03 0. -1.
    9900012    2    1    2    0    0  0.23882907324E+02 -0.36236223255E+02 -0.40772612289E+00  0.47787269838E+02  0.19999994497E+02 0.  0.
        -12    1    1    2    0    0 -0.23882907324E+02  0.36236223255E+02  0.40772612289E+00  0.43400730162E+02  0.00000000000E+00 0.  1.
         11    1    3    3    0    0  0.67072052463E+01 -0.19274025099E+02 -0.66101654479E+01  0.21451548505E+02  0.51100000000E-03 0. -1.
        -11    1    3    3    0    0  0.24737595217E+01 -0.13696790158E+01  0.38492843588E+01  0.47762429915E+01  0.51100000000E-03 0.  1.
         12    1    3    3    0    0  0.14701942556E+02 -0.15592519140E+02  0.23531549663E+01  0.21559478341E+02  0.00000000000E+00 0. -1.
</event>
<event>
 7    1  0.2700100E-010  0.4778727E+02  0.7816164E-02  0.1312668E+00
        -11   -1    0    0    0    0  0.00000000000E+00  0.00000000000E+00  0.45593999997E+02  0.45594000000E+02  0.51100000000E-03 0.  1.
         11   -1    0    0    0    0 -0.00000000000E+00 -0.00000000000E+00 -0.45593999997E+02  0.45594000000E+02  0.51100000000E-03 0. -1.
    9900012    2    1    2    0    0  0.15713301655E+02  0.37005588706E+02 -0.16349372244E+02  0.47787269394E+02  0.19999992475E+02 0.  0.
        -12    1    1    2    0    0 -0.15713301655E+02 -0.37005588706E+02  0.16349372244E+02  0.43400730606E+02  0.00000000000E+00 0.  1.
         11    1    3    3    0    0  0.23505179481E+01  0.78465412034E+01 -0.95725576978E+01  0.12598690592E+02  0.51100000000E-03 0. -1.
        -11    1    3    3    0    0  0.15003489105E+02  0.21595230448E+02 -0.26809806582E+01  0.26431918602E+02  0.51100000000E-03 0.  1.
        -12    1    3    3    0    0 -0.16407053982E+01  0.75638170545E+01 -0.40958338877E+01  0.87566602009E+01  0.00000000000E+00 0.  1.
</event>
<event>
 7    1  0.2700100E-010  0.4778727E+02  0.7816164E-02  0.1312668E+00
        -11   -1    0    0    0    0  0.00000000000E+00  0.00000000000E+00  0.45593999997E+02  0.45594000000E+02  0.51100000000E-03 0. -1.
         11   -1    0    0    0    0 -0.00000000000E+00 -0.00000000000E+00 -0.45593999997E+02  0.45594000000E+02  0.51100000000E-03 0.  1.
    9900012    2    1    2    0    0 -0.27882501855E+02 -0.13906711262E+02  0.30212457935E+02  0.47787272560E+02  0.20000006912E+02 0.  0.
        -12    1    1    2    0    0  0.27882501855E+02  0.13906711262E+02 -0.30212457935E+02  0.43400727440E+02  0.00000000000E+00 0.  1.
         11    1    3    3    0    0 -0.19528935476E+02 -0.16375292298E+02  0.24158940219E+02  0.35116718403E+02  0.51100000000E-03 0. -1.
        -11    1    3    3    0    0 -0.61086171272E+01  0.80259291760E-01  0.38336128130E+00  0.61211609106E+01  0.51100000000E-03 0.  1.
         12    1    3    3    0    0 -0.22449492517E+01  0.23883217446E+01  0.56701564353E+01  0.65493932466E+01  0.00000000000E+00 0. -1.
</event>
<event>
 7    1  0.2700100E-010  0.4778727E+02  0.7816164E-02  0.1312668E+00
        -11   -1    0    0    0    0  0.00000000000E+00  0.00000000000E+00  0.45593999997E+02  0.45594000000E+02  0.51100000000E-03 0. -1.
         11   -1    0    0    0    0 -0.00000000000E+00 -0.00000000000E+00 -0.45593999997E+02  0.45594000000E+02  0.51100000000E-03 0.  1.
    9900012    2    1    2    0    0  0.83510445937E+00  0.40358818596E+02  0.15940251088E+02  0.47787271404E+02  0.20000001641E+02 0.  0.
        -12    1    1    2    0    0 -0.83510445937E+00 -0.40358818596E+02 -0.15940251088E+02  0.43400728596E+02  0.00000000000E+00 0.  1.
         11    1    3    3    0    0  0.56542097129E+00  0.15639377334E+02  0.46231022223E+01  0.16318176942E+02  0.51100000000E-03 0. -1.
        -11    1    3    3    0    0 -0.14553327564E+01 -0.19246088986E+01  0.21720291053E+01  0.32465094394E+01  0.51100000000E-03 0.  1.
        -12    1    3    3    0    0  0.17250162444E+01  0.26644050160E+02  0.91451197602E+01  0.28222585023E+02  0.00000000000E+00 0.  1.
</event>
<event>
 7    1  0.2700100E-010  0.4778727E+02  0.7816164E-02  0.1312668E+00
        -11   -1    0    0    0    0  0.00000000000E+00  0.00000000000E+00  0.45593999997E+02  0.45594000000E+02  0.51100000000E-03 0. -1.
         11   -1    0    0    0    0 -0.00000000000E+00 -0.00000000000E+00 -0.45593999997E+02  0.45594000000E+02  0.51100000000E-03 0.  1.
    9900012    2    1    2    0    0 -0.38706691954E+02 -0.57497719210E+01  0.18771126819E+02  0.47787273264E+02  0.20000010120E+02 0.  0.
        -12    1    1    2    0    0  0.38706691954E+02  0.57497719210E+01 -0.18771126819E+02  0.43400726736E+02  0.00000000000E+00 0.  1.
         11    1    3    3    0    0 -0.23986732496E+02 -0.75092774257E+01  0.46688313927E+01  0.25564635146E+02  0.51100000000E-03 0.  1.
        -11    1    3    3    0    0 -0.11415053895E+02  0.18337059569E+01  0.51069461150E+01  0.12639099329E+02  0.51100000000E-03 0. -1.
         12    1    3    3    0    0 -0.33049055619E+01 -0.74200452178E-01  0.89953493116E+01  0.95835387889E+01  0.00000000000E+00 0. -1.
</event>
<event>
 7    1  0.2700100E-010  0.4778727E+02  0.7816164E-02  0.1312668E+00
        -11   -1    0    0    0    0  0.00000000000E+00  0.00000000000E+00  0.45593999997E+02  0.45594000000E+02  0.51100000000E-03 0.  1.
         11   -1    0    0    0    0 -0.00000000000E+00 -0.00000000000E+00 -0.45593999997E+02  0.45594000000E+02  0.51100000000E-03 0. -1.
    9900012    2    1    2    0    0  0.14249559810E+02  0.30874822299E+02 -0.26968848251E+02  0.47787269790E+02  0.19999994281E+02 0.  0.
        -12    1    1    2    0    0 -0.14249559810E+02 -0.30874822299E+02  0.26968848251E+02  0.43400730210E+02  0.00000000000E+00 0.  1.
         11    1    3    3    0    0  0.34609990180E+01 -0.16886671710E+01 -0.32353863396E+01  0.50296954226E+01  0.51100000000E-03 0.  1.
        -11    1    3    3    0    0  0.11538117777E+02  0.23718960466E+02 -0.15189764423E+02  0.30437578598E+02  0.51100000000E-03 0. -1.
        -12    1    3    3    0    0 -0.74955698550E+00  0.88445290038E+01 -0.85436974889E+01  0.12319995769E+02  0.00000000000E+00 0.  1.
</event>
<event>
 7    1  0.2700100E-010  0.4778727E+02  0.7816164E-02  0.1312668E+00
        -11   -1    0    0    0    0  0.00000000000E+00  0.00000000000E+00  0.45593999997E+02  0.45594000000E+02  0.51100000000E-03 0. -1.
         11   -1    0    0    0    0 -0.00000000000E+00 -0.00000000000E+00 -0.45593999997E+02  0.45594000000E+02  0.51100000000E-03 0.  1.
    9900012    2    1    2    0    0  0.25072951170E+02  0.34664845615E+02 -0.73019610721E+01  0.47787273770E+02  0.20000012425E+02 0.  0.
        -12    1    1    2    0    0 -0.25072951170E+02 -0.34664845615E+02  0.73019610721E+01  0.43400726230E+02  0.00000000000E+00 0.  1.
         11    1    3    3    0    0  0.16216011915E+02  0.10636183383E+02 -0.40490372788E+01  0.19811162069E+02  0.51100000000E-03 0. -1.
        -11    1    3    3    0    0  0.91323654186E+00  0.10763282619E+02  0.31332753193E+01  0.11247207129E+02  0.51100000000E-03 0.  1.
         12    1    3    3    0    0  0.79437027129E+01  0.13265379612E+02 -0.63861991126E+01  0.16728904571E+02  0.00000000000E+00 0. -1.
</event>
<event>
 7    1  0.2700100E-010  0.4778727E+02  0.7816164E-02  0.1312668E+00
        -11   -1    0    0    0    0  0.00000000000E+00  0.00000000000E+00  0.45593999997E+02  0.45594000000E+02  0.51100000000E-03 0.  1.
         11   -1    0    0    0    0 -0.00000000000E+00 -0.00000000000E+00 -0.45593999997E+02  0.45594000000E+02  0.51100000000E-03 0. -1.
    9900012    2    1    2    0    0 -0.23704180645E+02 -0.35942279626E+02 -0.54669354594E+01  0.47787273876E+02  0.20000012911E+02 0.  0.
        -12    1    1    2    0    0  0.23704180645E+02  0.35942279626E+02  0.54669354594E+01  0.43400726124E+02  0.00000000000E+00 0.  1.
         11    1    3    3    0    0 -0.52855411844E+01 -0.40315221585E+01  0.12909941683E+01  0.67717636351E+01  0.51100000000E-03 0. -1.
        -11    1    3    3    0    0 -0.78403745390E+01 -0.20007676921E+02  0.39185500124E+01  0.21843389003E+02  0.51100000000E-03 0.  1.
        -12    1    3    3    0    0 -0.10578264922E+02 -0.11903080546E+02 -0.10676479640E+02  0.19172121238E+02  0.00000000000E+00 0.  1.
</event>
<event>
 7    1  0.2700100E-010  0.4778728E+02  0.7816164E-02  0.1312668E+00
        -11   -1    0    0    0    0  0.00000000000E+00  0.00000000000E+00  0.45593999997E+02  0.45594000000E+02  0.51100000000E-03 0. -1.
         11   -1    0    0    0    0 -0.00000000000E+00 -0.00000000000E+00 -0.45593999997E+02  0.45594000000E+02  0.51100000000E-03 0.  1.
    9900012    2    1    2    0    0  0.16240562754E+02  0.37481473178E+02  0.14663083320E+02  0.47787277395E+02  0.20000028956E+02 0.  0.
        -12    1    1    2    0    0 -0.16240562754E+02 -0.37481473178E+02 -0.14663083320E+02  0.43400722605E+02  0.00000000000E+00 0.  1.
         11    1    3    3    0    0  0.13620076128E+01  0.20672460342E+01  0.72289392875E+01  0.76410820168E+01  0.51100000000E-03 0. -1.
        -11    1    3    3    0    0  0.51642234005E+01  0.15212618710E+02 -0.12341896865E+01  0.16112609838E+02  0.51100000000E-03 0.  1.
        -12    1    3    3    0    0  0.97143317409E+01  0.20201608434E+02  0.86683337192E+01  0.24033585541E+02  0.00000000000E+00 0.  1.
</event>
<event>
 7    1  0.2700100E-010  0.4778727E+02  0.7816164E-02  0.1312668E+00
        -11   -1    0    0    0    0  0.00000000000E+00  0.00000000000E+00  0.45593999997E+02  0.45594000000E+02  0.51100000000E-03 0. -1.
         11   -1    0    0    0    0 -0.00000000000E+00 -0.00000000000E+00 -0.45593999997E+02  0.45594000000E+02  0.51100000000E-03 0.  1.
    9900012    2    1    2    0    0  0.52158329715E+01  0.35917088120E+02 -0.23798757263E+02  0.47787274432E+02  0.20000015444E+02 0.  0.
        -12    1    1    2    0    0 -0.52158329715E+01 -0.35917088120E+02  0.23798757263E+02  0.43400725568E+02  0.00000000000E+00 0.  1.
         11    1    3    3    0    0  0.21549918106E+01  0.25036406671E+02 -0.19107223257E+02  0.31568205992E+02  0.51100000000E-03 0. -1.
        -11    1    3    3    0    0 -0.16140143103E+01  0.22668404607E+01  0.27508555853E+01  0.39129035997E+01  0.51100000000E-03 0.  1.
         12    1    3    3    0    0  0.46748554712E+01  0.86138409882E+01 -0.74423895908E+01  0.12306164840E+02  0.00000000000E+00 0. -1.
</event>
<event>
 7    1  0.2700100E-010  0.4778727E+02  0.7816164E-02  0.1312668E+00
        -11   -1    0    0    0    0  0.00000000000E+00  0.00000000000E+00  0.45593999997E+02  0.45594000000E+02  0.51100000000E-03 0.  1.
         11   -1    0    0    0    0 -0.00000000000E+00 -0.00000000000E+00 -0.45593999997E+02  0.45594000000E+02  0.51100000000E-03 0. -1.
    9900012    2    1    2    0    0  0.37028581522E+02  0.19261448677E+02 -0.11895554689E+02  0.47787268716E+02  0.19999989382E+02 0.  0.
        -12    1    1    2    0    0 -0.37028581522E+02 -0.19261448677E+02  0.11895554689E+02  0.43400731284E+02  0.00000000000E+00 0.  1.
         11    1    3    3    0    0  0.16614657691E+02  0.12499197121E+02 -0.43446073934E+01  0.21240348220E+02  0.51100000000E-03 0. -1.
        -11    1    3    3    0    0  0.85892069872E+01 -0.35863025061E+01 -0.51898387341E+01  0.10656944622E+02  0.51100000000E-03 0.  1.
        -12    1    3    3    0    0  0.11824716843E+02  0.10348554063E+02 -0.23611085619E+01  0.15889975873E+02  0.00000000000E+00 0.  1.
</event>
<event>
 7    1  0.2700100E-010  0.4778727E+02  0.7816164E-02  0.1312668E+00
        -11   -1    0    0    0    0  0.00000000000E+00  0.00000000000E+00  0.45593999997E+02  0.45594000000E+02  0.51100000000E-03 0. -1.
         11   -1    0    0    0    0 -0.00000000000E+00 -0.00000000000E+00 -0.45593999997E+02  0.45594000000E+02  0.51100000000E-03 0.  1.
    9900012    2    1    2    0    0  0.32530985767E+02 -0.39536905625E+01  0.28455691222E+02  0.47787273428E+02  0.20000010868E+02 0.  0.
        -12    1    1    2    0    0 -0.32530985767E+02  0.39536905625E+01 -0.28455691222E+02  0.43400726572E+02  0.00000000000E+00 0.  1.
         11    1    3    3    0    0  0.51892585711E+01 -0.18331288829E+01  0.11131704323E+02  0.12417874513E+02  0.51100000000E-03 0. -1.
        -11    1    3    3    0    0  0.20270948054E+02 -0.60654635213E+01  0.70802524122E+01  0.22312130271E+02  0.51100000000E-03 0.  1.
        -12    1    3    3    0    0  0.70707791423E+01  0.39449018417E+01  0.10243734487E+02  0.13057268644E+02  0.00000000000E+00 0.  1.
</event>
<event>
 7    1  0.2700100E-010  0.4778728E+02  0.7816164E-02  0.1312668E+00
        -11   -1    0    0    0    0  0.00000000000E+00  0.00000000000E+00  0.45593999997E+02  0.45594000000E+02  0.51100000000E-03 0.  1.
         11   -1    0    0    0    0 -0.00000000000E+00 -0.00000000000E+00 -0.45593999997E+02  0.45594000000E+02  0.51100000000E-03 0. -1.
    9900012    2    1    2    0    0  0.11551451972E+02  0.28077544235E+02 -0.31013519122E+02  0.47787275337E+02  0.20000019570E+02 0.  0.
        -12    1    1    2    0    0 -0.11551451972E+02 -0.28077544235E+02  0.31013519122E+02  0.43400724663E+02  0.00000000000E+00 0.  1.
         11    1    3    3    0    0  0.20335489123E+01 -0.20469171104E+01 -0.42442915039E+01  0.51321731719E+01  0.51100000000E-03 0.  1.
        -11    1    3    3    0    0  0.60222428654E+01  0.20004948848E+02 -0.11043961984E+02  0.23631218422E+02  0.51100000000E-03 0. -1.
        -12    1    3    3    0    0  0.34956601947E+01  0.10119512498E+02 -0.15725265634E+02  0.19023883743E+02  0.00000000000E+00 0.  1.
</event>
<event>
 7    1  0.2700100E-010  0.4778728E+02  0.7816164E-02  0.1312668E+00
        -11   -1    0    0    0    0  0.00000000000E+00  0.00000000000E+00  0.45593999997E+02  0.45594000000E+02  0.51100000000E-03 0.  1.
         11   -1    0    0    0    0 -0.00000000000E+00 -0.00000000000E+00 -0.45593999997E+02  0.45594000000E+02  0.51100000000E-03 0. -1.
    9900012    2    1    2    0    0 -0.72842570125E+01 -0.25479353814E+02 -0.34370990615E+02  0.47787275733E+02  0.20000021377E+02 0.  0.
        -12    1    1    2    0    0  0.72842570125E+01  0.25479353814E+02  0.34370990615E+02  0.43400724267E+02  0.00000000000E+00 0.  1.
         11    1    3    3    0    0 -0.51608337466E+01 -0.19853987834E+02 -0.21120514704E+02  0.29443015802E+02  0.51100000000E-03 0. -1.
        -11    1    3    3    0    0  0.42513888372E+01 -0.38915796478E+00 -0.59836328488E+01  0.73504838818E+01  0.51100000000E-03 0.  1.
        -12    1    3    3    0    0 -0.63748121030E+01 -0.52362080154E+01 -0.72668430622E+01  0.10993776049E+02  0.00000000000E+00 0.  1.
</event>
<event>
 7    1  0.2700100E-010  0.4778727E+02  0.7816164E-02  0.1312668E+00
        -11   -1    0    0    0    0  0.00000000000E+00  0.00000000000E+00  0.45593999997E+02  0.45594000000E+02  0.51100000000E-03 0.  1.
         11   -1    0    0    0    0 -0.00000000000E+00 -0.00000000000E+00 -0.45593999997E+02  0.45594000000E+02  0.51100000000E-03 0. -1.
    9900012    2    1    2    0    0  0.21990474912E+02  0.64985058829E+01 -0.36848500008E+02  0.47787268227E+02  0.19999987156E+02 0.  0.
        -12    1    1    2    0    0 -0.21990474912E+02 -0.64985058829E+01  0.36848500008E+02  0.43400731773E+02  0.00000000000E+00 0.  1.
         11    1    3    3    0    0  0.78677240541E+00  0.38584580261E+00  0.22392745424E+01  0.24046285656E+01  0.51100000000E-03 0.  1.
        -11    1    3    3    0    0  0.18362059989E+02  0.37887895233E+01 -0.27953566298E+02  0.33658907322E+02  0.51100000000E-03 0. -1.
        -12    1    3    3    0    0  0.28416425180E+01  0.23238705570E+01 -0.11134208252E+02  0.11723732340E+02  0.00000000000E+00 0.  1.
</event>
<event>
 7    1  0.2700100E-010  0.4778727E+02  0.7816164E-02  0.1312668E+00
        -11   -1    0    0    0    0  0.00000000000E+00  0.00000000000E+00  0.45593999997E+02  0.45594000000E+02  0.51100000000E-03 0.  1.
         11   -1    0    0    0    0 -0.00000000000E+00 -0.00000000000E+00 -0.45593999997E+02  0.45594000000E+02  0.51100000000E-03 0. -1.
    9900012    2    1    2    0    0  0.57843519951E+01 -0.40778937121E+02  0.13683672470E+02  0.47787270363E+02  0.19999996895E+02 0.  0.
        -12    1    1    2    0    0 -0.57843519951E+01  0.40778937121E+02 -0.13683672470E+02  0.43400729637E+02  0.00000000000E+00 0.  1.
         11    1    3    3    0    0  0.17560287613E+01 -0.15062719141E+02 -0.41725757571E+01  0.15728303585E+02  0.51100000000E-03 0. -1.
        -11    1    3    3    0    0  0.51704819525E+01 -0.22357316290E+02  0.16487323678E+02  0.28256243870E+02  0.51100000000E-03 0.  1.
        -12    1    3    3    0    0 -0.11421587187E+01 -0.33589016896E+01  0.13689245492E+01  0.38027229087E+01  0.00000000000E+00 0.  1.
</event>
<event>
 7    1  0.2700100E-010  0.4778727E+02  0.7816164E-02  0.1312668E+00
        -11   -1    0    0    0    0  0.00000000000E+00  0.00000000000E+00  0.45593999997E+02  0.45594000000E+02  0.51100000000E-03 0.  1.
         11   -1    0    0    0    0 -0.00000000000E+00 -0.00000000000E+00 -0.45593999997E+02  0.45594000000E+02  0.51100000000E-03 0. -1.
    9900012    2    1    2    0    0 -0.38047540114E+01  0.29832447664E+02 -0.31291724803E+02  0.47787272727E+02  0.20000007671E+02 0.  0.
        -12    1    1    2    0    0  0.38047540114E+01 -0.29832447664E+02  0.31291724803E+02  0.43400727273E+02  0.00000000000E+00 0.  1.
         11    1    3    3    0    0 -0.30900925777E+01  0.27975067254E+02 -0.31973081148E+02  0.42596138069E+02  0.51100000000E-03 0. -1.
        -11    1    3    3    0    0 -0.24398706288E+01 -0.11559602104E+00  0.79235943535E+00  0.25679106022E+01  0.51100000000E-03 0.  1.
        -12    1    3    3    0    0  0.17252091950E+01  0.19729764301E+01 -0.11100309043E+00  0.26232240557E+01  0.00000000000E+00 0.  1.
</event>
<event>
 7    1  0.2700100E-010  0.4778727E+02  0.7816164E-02  0.1312668E+00
        -11   -1    0    0    0    0  0.00000000000E+00  0.00000000000E+00  0.45593999997E+02  0.45594000000E+02  0.51100000000E-03 0.  1.
         11   -1    0    0    0    0 -0.00000000000E+00 -0.00000000000E+00 -0.45593999997E+02  0.45594000000E+02  0.51100000000E-03 0. -1.
    9900012    2    1    2    0    0 -0.12808846118E+02  0.88101852528E+01 -0.40520824340E+02  0.47787272953E+02  0.20000008701E+02 0.  0.
        -12    1    1    2    0    0  0.12808846118E+02 -0.88101852528E+01  0.40520824340E+02  0.43400727047E+02  0.00000000000E+00 0.  1.
         11    1    3    3    0    0 -0.86384934042E+01  0.71460296885E+01 -0.10180583746E+02  0.15143764204E+02  0.51100000000E-03 0. -1.
        -11    1    3    3    0    0 -0.15908026285E+01  0.34121795059E+01 -0.29013573625E+02  0.29256812484E+02  0.51100000000E-03 0.  1.
        -12    1    3    3    0    0 -0.25795500852E+01 -0.17480239416E+01 -0.13266669687E+01  0.33866962645E+01  0.00000000000E+00 0.  1.
</event>
<event>
 7    1  0.2700100E-010  0.4778727E+02  0.7816164E-02  0.1312668E+00
        -11   -1    0    0    0    0  0.00000000000E+00  0.00000000000E+00  0.45593999997E+02  0.45594000000E+02  0.51100000000E-03 0.  1.
         11   -1    0    0    0    0 -0.00000000000E+00 -0.00000000000E+00 -0.45593999997E+02  0.45594000000E+02  0.51100000000E-03 0. -1.
    9900012    2    1    2    0    0  0.38259489199E+02  0.17298569193E+02  0.10981544552E+02  0.47787270390E+02  0.19999997018E+02 0.  0.
        -12    1    1    2    0    0 -0.38259489199E+02 -0.17298569193E+02 -0.10981544552E+02  0.43400729610E+02  0.00000000000E+00 0.  1.
         11    1    3    3    0    0  0.28755456214E+02  0.10821175267E+02  0.14098175043E+01  0.30756490078E+02  0.51100000000E-03 0. -1.
        -11    1    3    3    0    0  0.10021996142E+02  0.76423327594E+01  0.94447562585E+01  0.15749573890E+02  0.51100000000E-03 0.  1.
         12    1    3    3    0    0 -0.51796315713E+00 -0.11649388328E+01  0.12697078929E+00  0.12812064227E+01  0.00000000000E+00 0. -1.
</event>
<event>
 7    1  0.2700100E-010  0.4778727E+02  0.7816164E-02  0.1312668E+00
        -11   -1    0    0    0    0  0.00000000000E+00  0.00000000000E+00  0.45593999997E+02  0.45594000000E+02  0.51100000000E-03 0. -1.
         11   -1    0    0    0    0 -0.00000000000E+00 -0.00000000000E+00 -0.45593999997E+02  0.45594000000E+02  0.51100000000E-03 0.  1.
    9900012    2    1    2    0    0  0.31926425496E+02  0.11056116298E+02  0.27241314108E+02  0.47787267899E+02  0.19999985659E+02 0.  0.
        -12    1    1    2    0    0 -0.31926425496E+02 -0.11056116298E+02 -0.27241314108E+02  0.43400732101E+02  0.00000000000E+00 0.  1.
         11    1    3    3    0    0  0.10635282003E+02  0.32896958775E+01  0.83151191875E+00  0.11163455315E+02  0.51100000000E-03 0. -1.
        -11    1    3    3    0    0  0.15367017472E+02 -0.18108359772E-01  0.18455758947E+02  0.24015840449E+02  0.51100000000E-03 0.  1.
        -12    1    3    3    0    0  0.59241260218E+01  0.77845287804E+01  0.79540432419E+01  0.12607972135E+02  0.00000000000E+00 0.  1.
</event>
<event>
 7    1  0.2700100E-010  0.4778729E+02  0.7816164E-02  0.1312668E+00
        -11   -1    0    0    0    0  0.00000000000E+00  0.00000000000E+00  0.45593999997E+02  0.45594000000E+02  0.51100000000E-03 0.  1.
         11   -1    0    0    0    0 -0.00000000000E+00 -0.00000000000E+00 -0.45593999997E+02  0.45594000000E+02  0.51100000000E-03 0. -1.
    9900012    2    1    2    0    0  0.15164066130E+01 -0.36760795214E+02 -0.23021001417E+02  0.47787285029E+02  0.20000063759E+02 0.  0.
        -12    1    1    2    0    0 -0.15164066130E+01  0.36760795214E+02  0.23021001417E+02  0.43400714971E+02  0.00000000000E+00 0.  1.
         11    1    3    3    0    0  0.47981492605E+01 -0.29627514483E+02 -0.14049764720E+02  0.33139217548E+02  0.51100000000E-03 0. -1.
        -11    1    3    3    0    0  0.15210389558E+01  0.51432689749E+00  0.37803754916E+00  0.16495466990E+01  0.51100000000E-03 0.  1.
         12    1    3    3    0    0 -0.48027816033E+01 -0.76476076289E+01 -0.93492742461E+01  0.12998520781E+02  0.00000000000E+00 0. -1.
</event>
<event>
 7    1  0.2700100E-010  0.4778728E+02  0.7816164E-02  0.1312668E+00
        -11   -1    0    0    0    0  0.00000000000E+00  0.00000000000E+00  0.45593999997E+02  0.45594000000E+02  0.51100000000E-03 0. -1.
         11   -1    0    0    0    0 -0.00000000000E+00 -0.00000000000E+00 -0.45593999997E+02  0.45594000000E+02  0.51100000000E-03 0.  1.
    9900012    2    1    2    0    0 -0.84119988804E+01  0.33021524565E+02  0.26878235691E+02  0.47787281531E+02  0.20000047812E+02 0.  0.
        -12    1    1    2    0    0  0.84119988804E+01 -0.33021524565E+02 -0.26878235691E+02  0.43400718469E+02  0.00000000000E+00 0.  1.
         11    1    3    3    0    0 -0.10498176999E+01 -0.19318889376E+01  0.42637817488E+01  0.47973062371E+01  0.51100000000E-03 0. -1.
        -11    1    3    3    0    0 -0.27834915898E+01  0.29278695562E+01  0.12812951366E+01  0.42381556197E+01  0.51100000000E-03 0.  1.
         12    1    3    3    0    0 -0.45786895906E+01  0.32025543947E+02  0.21333158805E+02  0.38751819674E+02  0.00000000000E+00 0. -1.
</event>
<event>
 7    1  0.2700100E-010  0.4778727E+02  0.7816164E-02  0.1312668E+00
        -11   -1    0    0    0    0  0.00000000000E+00  0.00000000000E+00  0.45593999997E+02  0.45594000000E+02  0.51100000000E-03 0.  1.
         11   -1    0    0    0    0 -0.00000000000E+00 -0.00000000000E+00 -0.45593999997E+02  0.45594000000E+02  0.51100000000E-03 0. -1.
    9900012    2    1    2    0    0 -0.11275500934E+02  0.85755777033E+01 -0.41023721206E+02  0.47787272404E+02  0.20000006199E+02 0.  0.
        -12    1    1    2    0    0  0.11275500934E+02 -0.85755777033E+01  0.41023721206E+02  0.43400727596E+02  0.00000000000E+00 0.  1.
         11    1    3    3    0    0 -0.53305091260E+00  0.51577971688E+00 -0.15611662580E+02  0.15629273200E+02  0.51100000000E-03 0. -1.
        -11    1    3    3    0    0 -0.83456893740E+01  0.11897696498E+02 -0.22472181860E+02  0.26762000502E+02  0.51100000000E-03 0.  1.
        -12    1    3    3    0    0 -0.23967606470E+01 -0.38378985119E+01 -0.29398767669E+01  0.53959987020E+01  0.00000000000E+00 0.  1.
</event>
<event>
 7    1  0.2700100E-010  0.4778727E+02  0.7816164E-02  0.1312668E+00
        -11   -1    0    0    0    0  0.00000000000E+00  0.00000000000E+00  0.45593999997E+02  0.45594000000E+02  0.51100000000E-03 0.  1.
         11   -1    0    0    0    0 -0.00000000000E+00 -0.00000000000E+00 -0.45593999997E+02  0.45594000000E+02  0.51100000000E-03 0. -1.
    9900012    2    1    2    0    0  0.40231535130E+02 -0.16173517302E+02 -0.18611717867E+01  0.47787273725E+02  0.20000012220E+02 0.  0.
        -12    1    1    2    0    0 -0.40231535130E+02  0.16173517302E+02  0.18611717867E+01  0.43400726275E+02  0.00000000000E+00 0.  1.
         11    1    3    3    0    0  0.18102554904E+02 -0.89387030314E+01 -0.50404403141E+01  0.20808866974E+02  0.51100000000E-03 0. -1.
        -11    1    3    3    0    0  0.45430636968E+01 -0.19991507450E+01  0.66562646531E+01  0.83031253662E+01  0.51100000000E-03 0.  1.
        -12    1    3    3    0    0  0.17585916529E+02 -0.52356635259E+01 -0.34769961256E+01  0.18675281384E+02  0.00000000000E+00 0.  1.
</event>
<event>
 7    1  0.2700100E-010  0.4778727E+02  0.7816164E-02  0.1312668E+00
        -11   -1    0    0    0    0  0.00000000000E+00  0.00000000000E+00  0.45593999997E+02  0.45594000000E+02  0.51100000000E-03 0.  1.
         11   -1    0    0    0    0 -0.00000000000E+00 -0.00000000000E+00 -0.45593999997E+02  0.45594000000E+02  0.51100000000E-03 0. -1.
    9900012    2    1    2    0    0 -0.30921358032E+02  0.24580629571E+02 -0.17980133936E+02  0.47787274787E+02  0.20000017065E+02 0.  0.
        -12    1    1    2    0    0  0.30921358032E+02 -0.24580629571E+02  0.17980133936E+02  0.43400725213E+02  0.00000000000E+00 0.  1.
         11    1    3    3    0    0 -0.64165469129E+01  0.15444489203E+02 -0.26769123484E+01  0.16937242427E+02  0.51100000000E-03 0. -1.
        -11    1    3    3    0    0 -0.67916195685E+01  0.10050196845E-01 -0.29431150207E+01  0.74019000031E+01  0.51100000000E-03 0.  1.
         12    1    3    3    0    0 -0.17713191550E+02  0.91260901712E+01 -0.12360106567E+02  0.23448132358E+02  0.00000000000E+00 0. -1.
</event>
<event>
 7    1  0.2700100E-010  0.4778727E+02  0.7816164E-02  0.1312668E+00
        -11   -1    0    0    0    0  0.00000000000E+00  0.00000000000E+00  0.45593999997E+02  0.45594000000E+02  0.51100000000E-03 0.  1.
         11   -1    0    0    0    0 -0.00000000000E+00 -0.00000000000E+00 -0.45593999997E+02  0.45594000000E+02  0.51100000000E-03 0. -1.
    9900012    2    1    2    0    0 -0.78330735267E+00 -0.43369836278E+02 -0.14378521562E+01  0.47787266273E+02  0.19999978247E+02 0.  0.
        -12    1    1    2    0    0  0.78330735267E+00  0.43369836278E+02  0.14378521562E+01  0.43400733727E+02  0.00000000000E+00 0.  1.
         11    1    3    3    0    0  0.36733498793E+01 -0.38142677818E+02 -0.32014455417E+01  0.38452654320E+02  0.51100000000E-03 0. -1.
        -11    1    3    3    0    0 -0.53624015597E+01 -0.29920692871E+01 -0.31794267715E+00  0.61488955848E+01  0.51100000000E-03 0.  1.
         12    1    3    3    0    0  0.90574432774E+00 -0.22350891729E+01  0.20815360626E+01  0.31857163681E+01  0.00000000000E+00 0. -1.
</event>
<event>
 7    1  0.2700100E-010  0.4778733E+02  0.7816164E-02  0.1312667E+00
        -11   -1    0    0    0    0  0.00000000000E+00  0.00000000000E+00  0.45593999997E+02  0.45594000000E+02  0.51100000000E-03 0. -1.
         11   -1    0    0    0    0 -0.00000000000E+00 -0.00000000000E+00 -0.45593999997E+02  0.45594000000E+02  0.51100000000E-03 0.  1.
    9900012    2    1    2    0    0  0.30200356240E+02 -0.20438540001E+02  0.23533435744E+02  0.47787331430E+02  0.20000275320E+02 0.  0.
        -12    1    1    2    0    0 -0.30200356240E+02  0.20438540001E+02 -0.23533435744E+02  0.43400668570E+02  0.00000000000E+00 0.  1.
         11    1    3    3    0    0  0.26318262696E+02 -0.81024914573E+01  0.13031000532E+02  0.30464869838E+02  0.51100000000E-03 0. -1.
        -11    1    3    3    0    0  0.13091741706E+01 -0.60368668965E+00  0.12119015445E+00  0.14467418370E+01  0.51100000000E-03 0.  1.
         12    1    3    3    0    0  0.25729193734E+01 -0.11732361854E+02  0.10381245058E+02  0.15875719755E+02  0.00000000000E+00 0. -1.
</event>
<event>
 7    1  0.2700100E-010  0.4778729E+02  0.7816164E-02  0.1312668E+00
        -11   -1    0    0    0    0  0.00000000000E+00  0.00000000000E+00  0.45593999997E+02  0.45594000000E+02  0.51100000000E-03 0.  1.
         11   -1    0    0    0    0 -0.00000000000E+00 -0.00000000000E+00 -0.45593999997E+02  0.45594000000E+02  0.51100000000E-03 0. -1.
    9900012    2    1    2    0    0 -0.32682999328E+02  0.28554768189E+02 -0.26233768587E+00  0.47787285115E+02  0.20000064155E+02 0.  0.
        -12    1    1    2    0    0  0.32682999328E+02 -0.28554768189E+02  0.26233768587E+00  0.43400714885E+02  0.00000000000E+00 0.  1.
         11    1    3    3    0    0 -0.77898491269E+01  0.15955885534E+02 -0.57940908232E+01  0.18677353167E+02  0.51100000000E-03 0. -1.
        -11    1    3    3    0    0 -0.75742110094E+01  0.80701970042E+00  0.18203944761E+01  0.78315892079E+01  0.51100000000E-03 0.  1.
         12    1    3    3    0    0 -0.17318939192E+02  0.11791862955E+02  0.37113586613E+01  0.21278342741E+02  0.00000000000E+00 0. -1.
</event>
<event>
 7    1  0.2700100E-010  0.4778727E+02  0.7816164E-02  0.1312668E+00
        -11   -1    0    0    0    0  0.00000000000E+00  0.00000000000E+00  0.45593999997E+02  0.45594000000E+02  0.51100000000E-03 0.  1.
         11   -1    0    0    0    0 -0.00000000000E+00 -0.00000000000E+00 -0.45593999997E+02  0.45594000000E+02  0.51100000000E-03 0. -1.
    9900012    2    1    2    0    0  0.10600981228E+01  0.26653360412E+02 -0.34235910302E+02  0.47787274390E+02  0.20000015253E+02 0.  0.
        -12    1    1    2    0    0 -0.10600981228E+01 -0.26653360412E+02  0.34235910302E+02  0.43400725610E+02  0.00000000000E+00 0.  1.
         11    1    3    3    0    0 -0.34703505695E+01  0.13754050628E+01 -0.14016707697E+02  0.14505280662E+02  0.51100000000E-03 0. -1.
        -11    1    3    3    0    0  0.40904704870E+01  0.18314409819E+02 -0.11110887906E+02  0.21808287098E+02  0.51100000000E-03 0.  1.
        -12    1    3    3    0    0  0.43997820524E+00  0.69635455304E+01 -0.91083146985E+01  0.11473706630E+02  0.00000000000E+00 0.  1.
</event>
<event>
 7    1  0.2700100E-010  0.4778727E+02  0.7816164E-02  0.1312668E+00
        -11   -1    0    0    0    0  0.00000000000E+00  0.00000000000E+00  0.45593999997E+02  0.45594000000E+02  0.51100000000E-03 0. -1.
         11   -1    0    0    0    0 -0.00000000000E+00 -0.00000000000E+00 -0.45593999997E+02  0.45594000000E+02  0.51100000000E-03 0.  1.
    9900012    2    1    2    0    0 -0.27700189107E+02  0.32332043813E+02  0.84238790783E+01  0.47787271062E+02  0.20000000078E+02 0.  0.
        -12    1    1    2    0    0  0.27700189107E+02 -0.32332043813E+02 -0.84238790783E+01  0.43400728938E+02  0.00000000000E+00 0.  1.
         11    1    3    3    0    0 -0.13237218297E+02  0.18890974664E+02  0.82624592840E+00  0.23081931345E+02  0.51100000000E-03 0. -1.
        -11    1    3    3    0    0 -0.14635086304E+02  0.60075344539E+01  0.68258325579E+01  0.17229863949E+02  0.51100000000E-03 0.  1.
        -12    1    3    3    0    0  0.17211549397E+00  0.74335346948E+01  0.77180059201E+00  0.74754757678E+01  0.00000000000E+00 0.  1.
</event>
<event>
 7    1  0.2700100E-010  0.4778726E+02  0.7816164E-02  0.1312668E+00
        -11   -1    0    0    0    0  0.00000000000E+00  0.00000000000E+00  0.45593999997E+02  0.45594000000E+02  0.51100000000E-03 0. -1.
         11   -1    0    0    0    0 -0.00000000000E+00 -0.00000000000E+00 -0.45593999997E+02  0.45594000000E+02  0.51100000000E-03 0.  1.
    9900012    2    1    2    0    0  0.15373054982E+02  0.34431840245E+02  0.21488171630E+02  0.47787263115E+02  0.19999963849E+02 0.  0.
        -12    1    1    2    0    0 -0.15373054982E+02 -0.34431840245E+02 -0.21488171630E+02  0.43400736885E+02  0.00000000000E+00 0.  1.
         11    1    3    3    0    0  0.29800362082E+01  0.25059981575E+01  0.72996703092E+01  0.82731994688E+01  0.51100000000E-03 0. -1.
        -11    1    3    3    0    0  0.95538328880E+01  0.28126724922E+02  0.16772389987E+02  0.34113068520E+02  0.51100000000E-03 0.  1.
        -12    1    3    3    0    0  0.28391858854E+01  0.37991171650E+01 -0.25838886655E+01  0.54009951269E+01  0.00000000000E+00 0.  1.
</event>
<event>
 7    1  0.2700100E-010  0.4778727E+02  0.7816164E-02  0.1312668E+00
        -11   -1    0    0    0    0  0.00000000000E+00  0.00000000000E+00  0.45593999997E+02  0.45594000000E+02  0.51100000000E-03 0.  1.
         11   -1    0    0    0    0 -0.00000000000E+00 -0.00000000000E+00 -0.45593999997E+02  0.45594000000E+02  0.51100000000E-03 0. -1.
    9900012    2    1    2    0    0 -0.16171985684E+02  0.34364585160E+02 -0.21003944112E+02  0.47787268411E+02  0.19999987993E+02 0.  0.
        -12    1    1    2    0    0  0.16171985684E+02 -0.34364585160E+02  0.21003944112E+02  0.43400731589E+02  0.00000000000E+00 0.  1.
         11    1    3    3    0    0 -0.55802221026E+01  0.19494840761E+02 -0.18915051695E+02  0.27730251998E+02  0.51100000000E-03 0. -1.
        -11    1    3    3    0    0 -0.61302291313E+01  0.12861809787E+02 -0.40088269268E+01  0.14801234874E+02  0.51100000000E-03 0.  1.
         12    1    3    3    0    0 -0.44615344501E+01  0.20079346128E+01  0.19199345105E+01  0.52557815388E+01  0.00000000000E+00 0. -1.
</event>
<event>
 7    1  0.2700100E-010  0.4778727E+02  0.7816164E-02  0.1312668E+00
        -11   -1    0    0    0    0  0.00000000000E+00  0.00000000000E+00  0.45593999997E+02  0.45594000000E+02  0.51100000000E-03 0.  1.
         11   -1    0    0    0    0 -0.00000000000E+00 -0.00000000000E+00 -0.45593999997E+02  0.45594000000E+02  0.51100000000E-03 0. -1.
    9900012    2    1    2    0    0  0.26698326010E+02 -0.34180481173E+02  0.15866363940E+01  0.47787270513E+02  0.19999997578E+02 0.  0.
        -12    1    1    2    0    0 -0.26698326010E+02  0.34180481173E+02 -0.15866363940E+01  0.43400729487E+02  0.00000000000E+00 0.  1.
         11    1    3    3    0    0  0.14505091953E+02 -0.79408271957E+01 -0.48098102581E+01  0.17221750901E+02  0.51100000000E-03 0. -1.
        -11    1    3    3    0    0  0.84457065302E+01 -0.19235177387E+02  0.79672556647E+01  0.22467736223E+02  0.51100000000E-03 0.  1.
         12    1    3    3    0    0  0.37475275269E+01 -0.70044765897E+01 -0.15708090126E+01  0.80977833890E+01  0.00000000000E+00 0. -1.
</event>
<event>
 7    1  0.2700100E-010  0.4778727E+02  0.7816164E-02  0.1312668E+00
        -11   -1    0    0    0    0  0.00000000000E+00  0.00000000000E+00  0.45593999997E+02  0.45594000000E+02  0.51100000000E-03 0.  1.
         11   -1    0    0    0    0 -0.00000000000E+00 -0.00000000000E+00 -0.45593999997E+02  0.45594000000E+02  0.51100000000E-03 0. -1.
    9900012    2    1    2    0    0  0.33517371351E+02 -0.16645930564E+02 -0.21980044419E+02  0.47787267987E+02  0.19999986058E+02 0.  0.
        -12    1    1    2    0    0 -0.33517371351E+02  0.16645930564E+02  0.21980044419E+02  0.43400732013E+02  0.00000000000E+00 0.  1.
         11    1    3    3    0    0  0.23519683668E+02 -0.10506322265E+02 -0.18317507485E+02  0.31608375600E+02  0.51100000000E-03 0. -1.
        -11    1    3    3    0    0  0.74982405481E+01 -0.87445968953E+01 -0.75573195273E+00  0.11543947212E+02  0.51100000000E-03 0.  1.
         12    1    3    3    0    0  0.24994471355E+01  0.26049885968E+01 -0.29068049811E+01  0.46349451745E+01  0.00000000000E+00 0. -1.
</event>
<event>
 7    1  0.2700100E-010  0.4778728E+02  0.7816164E-02  0.1312668E+00
        -11   -1    0    0    0    0  0.00000000000E+00  0.00000000000E+00  0.45593999997E+02  0.45594000000E+02  0.51100000000E-03 0.  1.
         11   -1    0    0    0    0 -0.00000000000E+00 -0.00000000000E+00 -0.45593999997E+02  0.45594000000E+02  0.51100000000E-03 0. -1.
    9900012    2    1    2    0    0  0.85562026543E+01  0.31937372788E+02 -0.28114380459E+02  0.47787276814E+02  0.20000026307E+02 0.  0.
        -12    1    1    2    0    0 -0.85562026543E+01 -0.31937372788E+02  0.28114380459E+02  0.43400723186E+02  0.00000000000E+00 0.  1.
         11    1    3    3    0    0  0.51726883467E+01  0.90118424218E+00 -0.74318932068E+01  0.90995535423E+01  0.51100000000E-03 0. -1.
        -11    1    3    3    0    0 -0.58054856444E+00  0.25614136275E+02 -0.13926232898E+02  0.29160949517E+02  0.51100000000E-03 0.  1.
         12    1    3    3    0    0  0.39640628720E+01  0.54220522704E+01 -0.67562543542E+01  0.95267737547E+01  0.00000000000E+00 0. -1.
</event>
<event>
 7    1  0.2700100E-010  0.4778727E+02  0.7816164E-02  0.1312668E+00
        -11   -1    0    0    0    0  0.00000000000E+00  0.00000000000E+00  0.45593999997E+02  0.45594000000E+02  0.51100000000E-03 0. -1.
         11   -1    0    0    0    0 -0.00000000000E+00 -0.00000000000E+00 -0.45593999997E+02  0.45594000000E+02  0.51100000000E-03 0.  1.
    9900012    2    1    2    0    0  0.22840512800E+02 -0.65006728820E+01  0.36327339380E+02  0.47787270060E+02  0.19999995512E+02 0.  0.
        -12    1    1    2    0    0 -0.22840512800E+02  0.65006728820E+01 -0.36327339380E+02  0.43400729940E+02  0.00000000000E+00 0.  1.
         11    1    3    3    0    0  0.16926873135E+02  0.22451970323E+01  0.20132102662E+02  0.26398134436E+02  0.51100000000E-03 0. -1.
        -11    1    3    3    0    0  0.62706890786E+01 -0.90543593633E+01  0.17116646581E+02  0.20353932186E+02  0.51100000000E-03 0.  1.
         12    1    3    3    0    0 -0.35704941358E+00  0.30848944891E+00 -0.92140986272E+00  0.10352034384E+01  0.00000000000E+00 0. -1.
</event>
<event>
 7    1  0.2700100E-010  0.4778728E+02  0.7816164E-02  0.1312668E+00
        -11   -1    0    0    0    0  0.00000000000E+00  0.00000000000E+00  0.45593999997E+02  0.45594000000E+02  0.51100000000E-03 0. -1.
         11   -1    0    0    0    0 -0.00000000000E+00 -0.00000000000E+00 -0.45593999997E+02  0.45594000000E+02  0.51100000000E-03 0.  1.
    9900012    2    1    2    0    0 -0.17900122983E+01  0.23414016529E+02  0.36499347214E+02  0.47787278104E+02  0.20000032187E+02 0.  0.
        -12    1    1    2    0    0  0.17900122983E+01 -0.23414016529E+02 -0.36499347214E+02  0.43400721896E+02  0.00000000000E+00 0.  1.
         11    1    3    3    0    0 -0.31091546087E+01  0.55851263669E+01  0.15570305569E+02  0.16831366394E+02  0.51100000000E-03 0. -1.
        -11    1    3    3    0    0  0.73893059979E+01  0.91624594903E+01  0.79202817047E+01  0.14187437034E+02  0.51100000000E-03 0.  1.
        -12    1    3    3    0    0 -0.60701636875E+01  0.86664306720E+01  0.13008759940E+02  0.16768474676E+02  0.00000000000E+00 0.  1.
</event>
<event>
 7    1  0.2700100E-010  0.4778727E+02  0.7816164E-02  0.1312668E+00
        -11   -1    0    0    0    0  0.00000000000E+00  0.00000000000E+00  0.45593999997E+02  0.45594000000E+02  0.51100000000E-03 0. -1.
         11   -1    0    0    0    0 -0.00000000000E+00 -0.00000000000E+00 -0.45593999997E+02  0.45594000000E+02  0.51100000000E-03 0.  1.
    9900012    2    1    2    0    0 -0.38543889255E+02 -0.14782133632E+02 -0.13397038110E+02  0.47787268396E+02  0.19999987925E+02 0.  0.
        -12    1    1    2    0    0  0.38543889255E+02  0.14782133632E+02  0.13397038110E+02  0.43400731604E+02  0.00000000000E+00 0.  1.
         11    1    3    3    0    0 -0.12141501658E+02 -0.31208169127E+01  0.11353862735E+01  0.12587480406E+02  0.51100000000E-03 0. -1.
        -11    1    3    3    0    0 -0.16143062435E+02 -0.74405209397E-01 -0.45084828413E+01  0.16760979049E+02  0.51100000000E-03 0.  1.
         12    1    3    3    0    0 -0.10259325163E+02 -0.11586911509E+02 -0.10023941542E+02  0.18438808941E+02  0.00000000000E+00 0. -1.
</event>
<event>
 7    1  0.2700100E-010  0.4778728E+02  0.7816164E-02  0.1312668E+00
        -11   -1    0    0    0    0  0.00000000000E+00  0.00000000000E+00  0.45593999997E+02  0.45594000000E+02  0.51100000000E-03 0. -1.
         11   -1    0    0    0    0 -0.00000000000E+00 -0.00000000000E+00 -0.45593999997E+02  0.45594000000E+02  0.51100000000E-03 0.  1.
    9900012    2    1    2    0    0 -0.39897352099E+02 -0.12238911738E+02  0.11917735426E+02  0.47787284767E+02  0.20000062567E+02 0.  0.
        -12    1    1    2    0    0  0.39897352099E+02  0.12238911738E+02 -0.11917735426E+02  0.43400715233E+02  0.00000000000E+00 0.  1.
         11    1    3    3    0    0 -0.36981602114E+01  0.44667644226E+01  0.31894027403E+01  0.66182069669E+01  0.51100000000E-03 0.  1.
        -11    1    3    3    0    0 -0.26019409595E+02 -0.14153619078E+02  0.50433815688E+01  0.30046136300E+02  0.51100000000E-03 0. -1.
        -12    1    3    3    0    0 -0.10179782292E+02 -0.25520570829E+01  0.36849511169E+01  0.11122941500E+02  0.00000000000E+00 0.  1.
</event>
<event>
 7    1  0.2700100E-010  0.4778730E+02  0.7816164E-02  0.1312668E+00
        -11   -1    0    0    0    0  0.00000000000E+00  0.00000000000E+00  0.45593999997E+02  0.45594000000E+02  0.51100000000E-03 0.  1.
         11   -1    0    0    0    0 -0.00000000000E+00 -0.00000000000E+00 -0.45593999997E+02  0.45594000000E+02  0.51100000000E-03 0. -1.
    9900012    2    1    2    0    0 -0.60199316939E+01  0.10787612451E+02 -0.41605389383E+02  0.47787302013E+02  0.20000141199E+02 0.  0.
        -12    1    1    2    0    0  0.60199316939E+01 -0.10787612451E+02  0.41605389383E+02  0.43400697987E+02  0.00000000000E+00 0.  1.
         11    1    3    3    0    0 -0.45382096682E+01  0.64082826605E+00 -0.86663813855E+01  0.98036816778E+01  0.51100000000E-03 0. -1.
        -11    1    3    3    0    0  0.66247051204E+01  0.77300917343E+01 -0.14729845083E+02  0.17905568201E+02  0.51100000000E-03 0.  1.
        -12    1    3    3    0    0 -0.81064271461E+01  0.24166924510E+01 -0.18209162915E+02  0.20078052135E+02  0.00000000000E+00 0.  1.
</event>
<event>
 7    1  0.2700100E-010  0.4778727E+02  0.7816164E-02  0.1312668E+00
        -11   -1    0    0    0    0  0.00000000000E+00  0.00000000000E+00  0.45593999997E+02  0.45594000000E+02  0.51100000000E-03 0.  1.
         11   -1    0    0    0    0 -0.00000000000E+00 -0.00000000000E+00 -0.45593999997E+02  0.45594000000E+02  0.51100000000E-03 0. -1.
    9900012    2    1    2    0    0  0.36949066411E+02  0.19023740458E+01 -0.22688564944E+02  0.47787268268E+02  0.19999987340E+02 0.  0.
        -12    1    1    2    0    0 -0.36949066411E+02 -0.19023740458E+01  0.22688564944E+02  0.43400731732E+02  0.00000000000E+00 0.  1.
         11    1    3    3    0    0  0.11397530011E+02  0.40872166532E+01 -0.16521120871E+02  0.20483077538E+02  0.51100000000E-03 0. -1.
        -11    1    3    3    0    0  0.19493014008E+02  0.13416486681E+01 -0.52662435407E+01  0.20236376592E+02  0.51100000000E-03 0.  1.
        -12    1    3    3    0    0  0.60585223919E+01 -0.35264912756E+01 -0.90120053236E+00  0.70678141380E+01  0.00000000000E+00 0.  1.
</event>
<event>
 7    1  0.2700100E-010  0.4778727E+02  0.7816164E-02  0.1312668E+00
        -11   -1    0    0    0    0  0.00000000000E+00  0.00000000000E+00  0.45593999997E+02  0.45594000000E+02  0.51100000000E-03 0. -1.
         11   -1    0    0    0    0 -0.00000000000E+00 -0.00000000000E+00 -0.45593999997E+02  0.45594000000E+02  0.51100000000E-03 0.  1.
    9900012    2    1    2    0    0  0.20588827679E+02  0.34281620068E+02  0.16866953663E+02  0.47787269297E+02  0.19999992031E+02 0.  0.
        -12    1    1    2    0    0 -0.20588827679E+02 -0.34281620068E+02 -0.16866953663E+02  0.43400730703E+02  0.00000000000E+00 0.  1.
         11    1    3    3    0    0  0.17690627476E+02  0.30868140044E+02  0.82613819252E+01  0.36524660188E+02  0.51100000000E-03 0. -1.
        -11    1    3    3    0    0  0.30850077818E+01 -0.33226830132E+00  0.58039658323E+01  0.65813140695E+01  0.51100000000E-03 0.  1.
        -12    1    3    3    0    0 -0.18680757917E+00  0.37457483251E+01  0.28016059061E+01  0.46812950387E+01  0.00000000000E+00 0.  1.
</event>
<event>
 7    1  0.2700100E-010  0.4778727E+02  0.7816164E-02  0.1312668E+00
        -11   -1    0    0    0    0  0.00000000000E+00  0.00000000000E+00  0.45593999997E+02  0.45594000000E+02  0.51100000000E-03 0.  1.
         11   -1    0    0    0    0 -0.00000000000E+00 -0.00000000000E+00 -0.45593999997E+02  0.45594000000E+02  0.51100000000E-03 0. -1.
    9900012    2    1    2    0    0 -0.28186160066E+02  0.14053793898E+02 -0.29860584717E+02  0.47787271183E+02  0.20000000631E+02 0.  0.
        -12    1    1    2    0    0  0.28186160066E+02 -0.14053793898E+02  0.29860584717E+02  0.43400728817E+02  0.00000000000E+00 0.  1.
         11    1    3    3    0    0 -0.87617095076E+01  0.79149073169E+01 -0.23189210327E+02  0.26022159541E+02  0.51100000000E-03 0. -1.
        -11    1    3    3    0    0 -0.80352899612E+01  0.93000952398E+00 -0.15577243427E+01  0.82375547260E+01  0.51100000000E-03 0.  1.
         12    1    3    3    0    0 -0.11389160597E+02  0.52088770574E+01 -0.51136500479E+01  0.13527556916E+02  0.00000000000E+00 0. -1.
</event>
<event>
 7    1  0.2700100E-010  0.4778727E+02  0.7816164E-02  0.1312668E+00
        -11   -1    0    0    0    0  0.00000000000E+00  0.00000000000E+00  0.45593999997E+02  0.45594000000E+02  0.51100000000E-03 0. -1.
         11   -1    0    0    0    0 -0.00000000000E+00 -0.00000000000E+00 -0.45593999997E+02  0.45594000000E+02  0.51100000000E-03 0.  1.
    9900012    2    1    2    0    0  0.20699005546E+02 -0.22289853723E+02  0.30957019240E+02  0.47787269017E+02  0.19999990758E+02 0.  0.
        -12    1    1    2    0    0 -0.20699005546E+02  0.22289853723E+02 -0.30957019240E+02  0.43400730983E+02  0.00000000000E+00 0.  1.
         11    1    3    3    0    0  0.16731505642E+02 -0.12624527291E+02  0.11654779376E+02  0.23982407154E+02  0.51100000000E-03 0. -1.
        -11    1    3    3    0    0  0.51375255840E+01 -0.57820585996E+01  0.17923478958E+02  0.19521205623E+02  0.51100000000E-03 0.  1.
        -12    1    3    3    0    0 -0.11700256792E+01 -0.38832678319E+01  0.13787609069E+01  0.42836562401E+01  0.00000000000E+00 0.  1.
</event>
<event>
 7    1  0.2700100E-010  0.4778727E+02  0.7816164E-02  0.1312668E+00
        -11   -1    0    0    0    0  0.00000000000E+00  0.00000000000E+00  0.45593999997E+02  0.45594000000E+02  0.51100000000E-03 0. -1.
         11   -1    0    0    0    0 -0.00000000000E+00 -0.00000000000E+00 -0.45593999997E+02  0.45594000000E+02  0.51100000000E-03 0.  1.
    9900012    2    1    2    0    0 -0.10112574568E+02 -0.28090525980E+02  0.31500497024E+02  0.47787272736E+02  0.20000007715E+02 0.  0.
        -12    1    1    2    0    0  0.10112574568E+02  0.28090525980E+02 -0.31500497024E+02  0.43400727264E+02  0.00000000000E+00 0.  1.
         11    1    3    3    0    0  0.27404932472E+01 -0.90364186332E+01  0.31933861118E+01  0.99681934207E+01  0.51100000000E-03 0. -1.
        -11    1    3    3    0    0  0.16000526818E+01 -0.10720415073E+01  0.14327635602E+01  0.24004693830E+01  0.51100000000E-03 0.  1.
         12    1    3    3    0    0 -0.14453120497E+02 -0.17982065840E+02  0.26874347352E+02  0.35418609933E+02  0.00000000000E+00 0. -1.
</event>
<event>
 7    1  0.2700100E-010  0.4778727E+02  0.7816164E-02  0.1312668E+00
        -11   -1    0    0    0    0  0.00000000000E+00  0.00000000000E+00  0.45593999997E+02  0.45594000000E+02  0.51100000000E-03 0.  1.
         11   -1    0    0    0    0 -0.00000000000E+00 -0.00000000000E+00 -0.45593999997E+02  0.45594000000E+02  0.51100000000E-03 0. -1.
    9900012    2    1    2    0    0  0.41025119420E+02  0.31955380726E+01 -0.13796805557E+02  0.47787265783E+02  0.19999976011E+02 0.  0.
        -12    1    1    2    0    0 -0.41025119420E+02 -0.31955380726E+01  0.13796805557E+02  0.43400734217E+02  0.00000000000E+00 0.  1.
         11    1    3    3    0    0  0.21149186372E+02 -0.14219023166E+01 -0.12566803610E+02  0.24642127417E+02  0.51100000000E-03 0. -1.
        -11    1    3    3    0    0  0.17500724729E+02 -0.38573952998E-02 -0.27862320897E+01  0.17721130620E+02  0.51100000000E-03 0.  1.
         12    1    3    3    0    0  0.23752083183E+01  0.46212977845E+01  0.15562301433E+01  0.54240077459E+01  0.00000000000E+00 0. -1.
</event>
<event>
 7    1  0.3529044E-010  0.4778727E+02  0.7816164E-02  0.1312668E+00
        -11   -1    0    0    0    0  0.00000000000E+00  0.00000000000E+00  0.45593999997E+02  0.45594000000E+02  0.51100000000E-03 0. -1.
         11   -1    0    0    0    0 -0.00000000000E+00 -0.00000000000E+00 -0.45593999997E+02  0.45594000000E+02  0.51100000000E-03 0.  1.
    9900012    2    1    2    0    0 -0.98776830305E+01  0.21351695728E+02  0.36471358056E+02  0.47787268544E+02  0.19999988598E+02 0.  0.
        -12    1    1    2    0    0  0.98776830305E+01 -0.21351695728E+02 -0.36471358056E+02  0.43400731456E+02  0.00000000000E+00 0.  1.
         11    1    3    3    0    0 -0.24577484991E+00  0.13748718761E+02  0.28002385491E+02  0.31196494455E+02  0.51100000000E-03 0. -1.
        -11    1    3    3    0    0 -0.80639129137E+01  0.30305849038E+01  0.79619794536E+01  0.11730483938E+02  0.51100000000E-03 0.  1.
        -12    1    3    3    0    0 -0.15679952669E+01  0.45723920626E+01  0.50699311143E+00  0.48602901504E+01  0.00000000000E+00 0.  1.
</event>
<event>
 7    1  0.2700100E-010  0.4778727E+02  0.7816164E-02  0.1312668E+00
        -11   -1    0    0    0    0  0.00000000000E+00  0.00000000000E+00  0.45593999997E+02  0.45594000000E+02  0.51100000000E-03 0. -1.
         11   -1    0    0    0    0 -0.00000000000E+00 -0.00000000000E+00 -0.45593999997E+02  0.45594000000E+02  0.51100000000E-03 0.  1.
    9900012    2    1    2    0    0 -0.14336242730E+01  0.38349869535E+02  0.20269578932E+02  0.47787267265E+02  0.19999982766E+02 0.  0.
        -12    1    1    2    0    0  0.14336242730E+01 -0.38349869535E+02 -0.20269578932E+02  0.43400732735E+02  0.00000000000E+00 0.  1.
         11    1    3    3    0    0 -0.17270547829E+01  0.30265411702E+02  0.19777979378E+02  0.36195943588E+02  0.51100000000E-03 0. -1.
        -11    1    3    3    0    0  0.35610758137E+00  0.90539807694E+01 -0.16771606427E+01  0.92148927538E+01  0.51100000000E-03 0.  1.
        -12    1    3    3    0    0 -0.62677071474E-01 -0.96952293644E+00  0.21687601964E+01  0.23764309224E+01  0.00000000000E+00 0.  1.
</event>
<event>
 7    1  0.2700100E-010  0.4778727E+02  0.7816164E-02  0.1312668E+00
        -11   -1    0    0    0    0  0.00000000000E+00  0.00000000000E+00  0.45593999997E+02  0.45594000000E+02  0.51100000000E-03 0. -1.
         11   -1    0    0    0    0 -0.00000000000E+00 -0.00000000000E+00 -0.45593999997E+02  0.45594000000E+02  0.51100000000E-03 0.  1.
    9900012    2    1    2    0    0  0.35944161231E+01  0.42333377982E+02 -0.88650202748E+01  0.47787270707E+02  0.19999998463E+02 0.  0.
        -12    1    1    2    0    0 -0.35944161231E+01 -0.42333377982E+02  0.88650202748E+01  0.43400729293E+02  0.00000000000E+00 0.  1.
         11    1    3    3    0    0  0.35226172662E+01  0.40486534016E+02 -0.12801831689E+02  0.42608158419E+02  0.51100000000E-03 0. -1.
        -11    1    3    3    0    0  0.20748520163E-01 -0.72708861805E+00  0.13265638387E+01  0.15128979605E+01  0.51100000000E-03 0.  1.
         12    1    3    3    0    0  0.51050336682E-01  0.25739325848E+01  0.26102475760E+01  0.36662143276E+01  0.00000000000E+00 0. -1.
</event>
<event>
 7    1  0.2700100E-010  0.4778727E+02  0.7816164E-02  0.1312668E+00
        -11   -1    0    0    0    0  0.00000000000E+00  0.00000000000E+00  0.45593999997E+02  0.45594000000E+02  0.51100000000E-03 0.  1.
         11   -1    0    0    0    0 -0.00000000000E+00 -0.00000000000E+00 -0.45593999997E+02  0.45594000000E+02  0.51100000000E-03 0. -1.
    9900012    2    1    2    0    0  0.37586712406E+01  0.19221620603E+02 -0.38730153216E+02  0.47787273321E+02  0.20000010382E+02 0.  0.
        -12    1    1    2    0    0 -0.37586712406E+01 -0.19221620603E+02  0.38730153216E+02  0.43400726679E+02  0.00000000000E+00 0.  1.
         11    1    3    3    0    0  0.74302938144E+01  0.18292012347E+02 -0.34860597769E+02  0.40063303145E+02  0.51100000000E-03 0. -1.
        -11    1    3    3    0    0 -0.23821487268E+01  0.16246942379E+01  0.66460382189E+00  0.29590475536E+01  0.51100000000E-03 0.  1.
         12    1    3    3    0    0 -0.12894738470E+01 -0.69508598135E+00 -0.45341592690E+01  0.47649226227E+01  0.00000000000E+00 0. -1.
</event>
<event>
 7    1  0.2700100E-010  0.4778727E+02  0.7816164E-02  0.1312668E+00
        -11   -1    0    0    0    0  0.00000000000E+00  0.00000000000E+00  0.45593999997E+02  0.45594000000E+02  0.51100000000E-03 0.  1.
         11   -1    0    0    0    0 -0.00000000000E+00 -0.00000000000E+00 -0.45593999997E+02  0.45594000000E+02  0.51100000000E-03 0. -1.
    9900012    2    1    2    0    0  0.11564885630E+02  0.34783735694E+02 -0.23237221703E+02  0.47787270503E+02  0.19999997529E+02 0.  0.
        -12    1    1    2    0    0 -0.11564885630E+02 -0.34783735694E+02  0.23237221703E+02  0.43400729497E+02  0.00000000000E+00 0.  1.
         11    1    3    3    0    0  0.41045625588E+01  0.24444838533E+01 -0.94292924900E+01  0.10570453738E+02  0.51100000000E-03 0. -1.
        -11    1    3    3    0    0  0.60451649720E+00  0.56707615269E+00 -0.27683618290E+01  0.28897825240E+01  0.51100000000E-03 0.  1.
         12    1    3    3    0    0  0.68558065742E+01  0.31772175688E+02 -0.11039567383E+02  0.34327034240E+02  0.00000000000E+00 0. -1.
</event>
<event>
 7    1  0.2700100E-010  0.4778727E+02  0.7816164E-02  0.1312668E+00
        -11   -1    0    0    0    0  0.00000000000E+00  0.00000000000E+00  0.45593999997E+02  0.45594000000E+02  0.51100000000E-03 0.  1.
         11   -1    0    0    0    0 -0.00000000000E+00 -0.00000000000E+00 -0.45593999997E+02  0.45594000000E+02  0.51100000000E-03 0. -1.
    9900012    2    1    2    0    0 -0.16025056572E+02  0.39729491165E+02 -0.69561618415E+01  0.47787273117E+02  0.20000009450E+02 0.  0.
        -12    1    1    2    0    0  0.16025056572E+02 -0.39729491165E+02  0.69561618415E+01  0.43400726883E+02  0.00000000000E+00 0.  1.
         11    1    3    3    0    0 -0.37348796469E+01 -0.21174741676E-02 -0.35920634982E+00  0.37521140605E+01  0.51100000000E-03 0. -1.
        -11    1    3    3    0    0 -0.14998760774E+02  0.32203901227E+02 -0.57940806263E+01  0.35994797535E+02  0.51100000000E-03 0.  1.
        -12    1    3    3    0    0  0.27085838486E+01  0.75277074122E+01 -0.80287486548E+00  0.80403615216E+01  0.00000000000E+00 0.  1.
</event>
<event>
 7    1  0.2700100E-010  0.4778723E+02  0.7816164E-02  0.1312668E+00
        -11   -1    0    0    0    0  0.00000000000E+00  0.00000000000E+00  0.45593999997E+02  0.45594000000E+02  0.51100000000E-03 0. -1.
         11   -1    0    0    0    0 -0.00000000000E+00 -0.00000000000E+00 -0.45593999997E+02  0.45594000000E+02  0.51100000000E-03 0.  1.
    9900012    2    1    2    0    0  0.24491662678E+02  0.68483871768E+01  0.35169368189E+02  0.47787234955E+02  0.19999835454E+02 0.  0.
        -12    1    1    2    0    0 -0.24491662678E+02 -0.68483871768E+01 -0.35169368189E+02  0.43400765045E+02  0.00000000000E+00 0.  1.
         11    1    3    3    0    0  0.53067040833E+01  0.78922806006E+01  0.31151256831E+01  0.10007657548E+02  0.51100000000E-03 0. -1.
        -11    1    3    3    0    0 -0.30201861701E+00  0.94453619204E-01  0.94768014699E-01  0.33033009087E+00  0.51100000000E-03 0.  1.
         12    1    3    3    0    0  0.19486977212E+02 -0.11383470430E+01  0.31959474491E+02  0.37449247317E+02  0.00000000000E+00 0. -1.
</event>
<event>
 7    1  0.2700100E-010  0.4778727E+02  0.7816164E-02  0.1312668E+00
        -11   -1    0    0    0    0  0.00000000000E+00  0.00000000000E+00  0.45593999997E+02  0.45594000000E+02  0.51100000000E-03 0. -1.
         11   -1    0    0    0    0 -0.00000000000E+00 -0.00000000000E+00 -0.45593999997E+02  0.45594000000E+02  0.51100000000E-03 0.  1.
    9900012    2    1    2    0    0  0.11215341093E+02  0.30648622688E+02  0.28609461386E+02  0.47787271558E+02  0.20000002341E+02 0.  0.
        -12    1    1    2    0    0 -0.11215341093E+02 -0.30648622688E+02 -0.28609461386E+02  0.43400728442E+02  0.00000000000E+00 0.  1.
         11    1    3    3    0    0  0.54848471180E+00  0.74486845307E+01  0.13900943419E+02  0.15780366438E+02  0.51100000000E-03 0. -1.
        -11    1    3    3    0    0  0.10995713374E+02  0.24391695398E+02  0.15084294391E+02  0.30714759555E+02  0.51100000000E-03 0.  1.
        -12    1    3    3    0    0 -0.32885699249E+00 -0.11917572402E+01 -0.37577642391E+00  0.12921455653E+01  0.00000000000E+00 0.  1.
</event>
<event>
 7    1  0.2700100E-010  0.4778726E+02  0.7816164E-02  0.1312668E+00
        -11   -1    0    0    0    0  0.00000000000E+00  0.00000000000E+00  0.45593999997E+02  0.45594000000E+02  0.51100000000E-03 0.  1.
         11   -1    0    0    0    0 -0.00000000000E+00 -0.00000000000E+00 -0.45593999997E+02  0.45594000000E+02  0.51100000000E-03 0. -1.
    9900012    2    1    2    0    0 -0.32272890170E+01  0.29762709566E+02 -0.31422759537E+02  0.47787261619E+02  0.19999957024E+02 0.  0.
        -12    1    1    2    0    0  0.32272890170E+01 -0.29762709566E+02  0.31422759537E+02  0.43400738381E+02  0.00000000000E+00 0.  1.
         11    1    3    3    0    0 -0.24668656390E+01  0.58227936481E+01 -0.16619508881E+02  0.17781969173E+02  0.51100000000E-03 0. -1.
        -11    1    3    3    0    0  0.20574805338E+01  0.71228676938E+01 -0.96951807611E+01  0.12205121899E+02  0.51100000000E-03 0.  1.
        -12    1    3    3    0    0 -0.28179039117E+01  0.16817048224E+02 -0.51080698949E+01  0.17800170546E+02  0.00000000000E+00 0.  1.
</event>
<event>
 7    1  0.2700100E-010  0.4778728E+02  0.7816164E-02  0.1312668E+00
        -11   -1    0    0    0    0  0.00000000000E+00  0.00000000000E+00  0.45593999997E+02  0.45594000000E+02  0.51100000000E-03 0.  1.
         11   -1    0    0    0    0 -0.00000000000E+00 -0.00000000000E+00 -0.45593999997E+02  0.45594000000E+02  0.51100000000E-03 0. -1.
    9900012    2    1    2    0    0 -0.32109177533E+02  0.29159669792E+02 -0.15288098443E+01  0.47787275539E+02  0.20000020491E+02 0.  0.
        -12    1    1    2    0    0  0.32109177533E+02 -0.29159669792E+02  0.15288098443E+01  0.43400724461E+02  0.00000000000E+00 0.  1.
         11    1    3    3    0    0 -0.75178687718E+01  0.83287091133E+01 -0.64297253490E+01  0.12931632329E+02  0.51100000000E-03 0. -1.
        -11    1    3    3    0    0 -0.56757312846E+01  0.72148502777E+01  0.68702904030E+01  0.11465987992E+02  0.51100000000E-03 0.  1.
        -12    1    3    3    0    0 -0.18915577477E+02  0.13616110401E+02 -0.19693748983E+01  0.23389655218E+02  0.00000000000E+00 0.  1.
</event>
<event>
 7    1  0.2700100E-010  0.4778727E+02  0.7816164E-02  0.1312668E+00
        -11   -1    0    0    0    0  0.00000000000E+00  0.00000000000E+00  0.45593999997E+02  0.45594000000E+02  0.51100000000E-03 0.  1.
         11   -1    0    0    0    0 -0.00000000000E+00 -0.00000000000E+00 -0.45593999997E+02  0.45594000000E+02  0.51100000000E-03 0. -1.
    9900012    2    1    2    0    0  0.10993755736E+02 -0.37272870099E+02 -0.19325981681E+02  0.47787273295E+02  0.20000010262E+02 0.  0.
        -12    1    1    2    0    0 -0.10993755736E+02  0.37272870099E+02  0.19325981681E+02  0.43400726705E+02  0.00000000000E+00 0.  1.
         11    1    3    3    0    0  0.14376045978E+01 -0.17363898116E+02 -0.56937488672E+01  0.18330042040E+02  0.51100000000E-03 0. -1.
        -11    1    3    3    0    0  0.10336850307E+02 -0.13007509281E+02 -0.14993399355E+02  0.22379629051E+02  0.51100000000E-03 0.  1.
        -12    1    3    3    0    0 -0.78069916865E+00 -0.69014627018E+01  0.13611665415E+01  0.70776022048E+01  0.00000000000E+00 0.  1.
</event>
<event>
 7    1  0.2700100E-010  0.4778727E+02  0.7816164E-02  0.1312668E+00
        -11   -1    0    0    0    0  0.00000000000E+00  0.00000000000E+00  0.45593999997E+02  0.45594000000E+02  0.51100000000E-03 0.  1.
         11   -1    0    0    0    0 -0.00000000000E+00 -0.00000000000E+00 -0.45593999997E+02  0.45594000000E+02  0.51100000000E-03 0. -1.
    9900012    2    1    2    0    0 -0.35750629468E+02 -0.15889070271E+02 -0.18789719086E+02  0.47787267232E+02  0.19999982619E+02 0.  0.
        -12    1    1    2    0    0  0.35750629468E+02  0.15889070271E+02  0.18789719086E+02  0.43400732768E+02  0.00000000000E+00 0.  1.
         11    1    3    3    0    0 -0.70704770837E+01 -0.69617295708E+01 -0.12297724905E+02  0.15801625325E+02  0.51100000000E-03 0. -1.
        -11    1    3    3    0    0 -0.18489234986E+02 -0.97529412542E+01 -0.26851231629E+01  0.21075615297E+02  0.51100000000E-03 0.  1.
        -12    1    3    3    0    0 -0.10190917398E+02  0.82560055445E+00 -0.38068710187E+01  0.10910026611E+02  0.00000000000E+00 0.  1.
</event>
<event>
 7    1  0.2700100E-010  0.4778727E+02  0.7816164E-02  0.1312668E+00
        -11   -1    0    0    0    0  0.00000000000E+00  0.00000000000E+00  0.45593999997E+02  0.45594000000E+02  0.51100000000E-03 0.  1.
         11   -1    0    0    0    0 -0.00000000000E+00 -0.00000000000E+00 -0.45593999997E+02  0.45594000000E+02  0.51100000000E-03 0. -1.
    9900012    2    1    2    0    0  0.19772140632E+02  0.36071203815E+02  0.13840297850E+02  0.47787272651E+02  0.20000007326E+02 0.  0.
        -12    1    1    2    0    0 -0.19772140632E+02 -0.36071203815E+02 -0.13840297850E+02  0.43400727349E+02  0.00000000000E+00 0.  1.
         11    1    3    3    0    0  0.50411458000E+00  0.14279472247E+02 -0.10844170567E+01  0.14329459857E+02  0.51100000000E-03 0. -1.
        -11    1    3    3    0    0  0.13869479582E+02  0.10550464924E+02  0.77622563417E+01  0.19076881238E+02  0.51100000000E-03 0.  1.
        -12    1    3    3    0    0  0.53985464699E+01  0.11241266643E+02  0.71624585653E+01  0.14380931556E+02  0.00000000000E+00 0.  1.
</event>
<event>
 7    1  0.2700100E-010  0.4778727E+02  0.7816164E-02  0.1312668E+00
        -11   -1    0    0    0    0  0.00000000000E+00  0.00000000000E+00  0.45593999997E+02  0.45594000000E+02  0.51100000000E-03 0. -1.
         11   -1    0    0    0    0 -0.00000000000E+00 -0.00000000000E+00 -0.45593999997E+02  0.45594000000E+02  0.51100000000E-03 0.  1.
    9900012    2    1    2    0    0  0.23704925378E+02 -0.20127111166E+02  0.30275391616E+02  0.47787269262E+02  0.19999991875E+02 0.  0.
        -12    1    1    2    0    0 -0.23704925378E+02  0.20127111166E+02 -0.30275391616E+02  0.43400730738E+02  0.00000000000E+00 0.  1.
         11    1    3    3    0    0  0.16680368632E+02 -0.21718054262E+02  0.18941756384E+02  0.33297127711E+02  0.51100000000E-03 0. -1.
        -11    1    3    3    0    0 -0.33924040255E+00  0.15103093684E+01  0.11767071277E+01  0.19444172300E+01  0.51100000000E-03 0.  1.
         12    1    3    3    0    0  0.73637971484E+01  0.80633727304E-01  0.10156928104E+02  0.12545724322E+02  0.00000000000E+00 0. -1.
</event>
<event>
 7    1  0.2700100E-010  0.4778728E+02  0.7816164E-02  0.1312668E+00
        -11   -1    0    0    0    0  0.00000000000E+00  0.00000000000E+00  0.45593999997E+02  0.45594000000E+02  0.51100000000E-03 0. -1.
         11   -1    0    0    0    0 -0.00000000000E+00 -0.00000000000E+00 -0.45593999997E+02  0.45594000000E+02  0.51100000000E-03 0.  1.
    9900012    2    1    2    0    0 -0.41232988495E+02 -0.72920794046E+01  0.11414423218E+02  0.47787276277E+02  0.20000023857E+02 0.  0.
        -12    1    1    2    0    0  0.41232988495E+02  0.72920794046E+01 -0.11414423218E+02  0.43400723723E+02  0.00000000000E+00 0.  1.
         11    1    3    3    0    0 -0.17155951480E+02 -0.28836497456E+01 -0.12875849123E+01  0.17444196233E+02  0.51100000000E-03 0. -1.
        -11    1    3    3    0    0 -0.31094040565E+01  0.31264687387E+01 -0.51173418589E+00  0.44390395919E+01  0.51100000000E-03 0.  1.
         12    1    3    3    0    0 -0.20967632958E+02 -0.75348983976E+01  0.13213742316E+02  0.25904040452E+02  0.00000000000E+00 0. -1.
</event>
<event>
 7    1  0.2700100E-010  0.4778727E+02  0.7816164E-02  0.1312668E+00
        -11   -1    0    0    0    0  0.00000000000E+00  0.00000000000E+00  0.45593999997E+02  0.45594000000E+02  0.51100000000E-03 0.  1.
         11   -1    0    0    0    0 -0.00000000000E+00 -0.00000000000E+00 -0.45593999997E+02  0.45594000000E+02  0.51100000000E-03 0. -1.
    9900012    2    1    2    0    0 -0.11188621530E+02  0.14926226943E+02 -0.39187318061E+02  0.47787269599E+02  0.19999993409E+02 0.  0.
        -12    1    1    2    0    0  0.11188621530E+02 -0.14926226943E+02  0.39187318061E+02  0.43400730401E+02  0.00000000000E+00 0.  1.
         11    1    3    3    0    0  0.15263918970E+01  0.10773737662E+02 -0.25587027228E+02  0.27804662524E+02  0.51100000000E-03 0. -1.
        -11    1    3    3    0    0 -0.10807146795E+02  0.56673891641E+01 -0.11246780046E+02  0.16595294015E+02  0.51100000000E-03 0.  1.
         12    1    3    3    0    0 -0.19078666321E+01 -0.15148998826E+01 -0.23535107876E+01  0.33873130602E+01  0.00000000000E+00 0. -1.
</event>
<event>
 7    1  0.2700100E-010  0.4778727E+02  0.7816164E-02  0.1312668E+00
        -11   -1    0    0    0    0  0.00000000000E+00  0.00000000000E+00  0.45593999997E+02  0.45594000000E+02  0.51100000000E-03 0.  1.
         11   -1    0    0    0    0 -0.00000000000E+00 -0.00000000000E+00 -0.45593999997E+02  0.45594000000E+02  0.51100000000E-03 0. -1.
    9900012    2    1    2    0    0 -0.48821977612E+01 -0.42894288554E+02 -0.44573006953E+01  0.47787269879E+02  0.19999994687E+02 0.  0.
        -12    1    1    2    0    0  0.48821977612E+01  0.42894288554E+02  0.44573006953E+01  0.43400730121E+02  0.00000000000E+00 0.  1.
         11    1    3    3    0    0 -0.78626761238E+01 -0.12338158608E+02 -0.37336384229E+01  0.15099400312E+02  0.51100000000E-03 0. -1.
        -11    1    3    3    0    0 -0.24807664305E+01 -0.41778717383E+01  0.26586344954E+01  0.55386958741E+01  0.51100000000E-03 0.  1.
         12    1    3    3    0    0  0.54612447931E+01 -0.26378258208E+02 -0.33822967678E+01  0.27149173693E+02  0.00000000000E+00 0. -1.
</event>
<event>
 7    1  0.2700100E-010  0.4778727E+02  0.7816164E-02  0.1312668E+00
        -11   -1    0    0    0    0  0.00000000000E+00  0.00000000000E+00  0.45593999997E+02  0.45594000000E+02  0.51100000000E-03 0.  1.
         11   -1    0    0    0    0 -0.00000000000E+00 -0.00000000000E+00 -0.45593999997E+02  0.45594000000E+02  0.51100000000E-03 0. -1.
    9900012    2    1    2    0    0 -0.40891413265E+02 -0.77468979471E+01 -0.12308598006E+02  0.47787266233E+02  0.19999978063E+02 0.  0.
        -12    1    1    2    0    0  0.40891413265E+02  0.77468979471E+01  0.12308598006E+02  0.43400733767E+02  0.00000000000E+00 0.  1.
         11    1    3    3    0    0 -0.11433782528E+02 -0.57943686118E+00 -0.11747859626E+02  0.16403637890E+02  0.51100000000E-03 0. -1.
        -11    1    3    3    0    0 -0.28628866418E+02 -0.55526195625E+01 -0.17480258186E+01  0.29214708127E+02  0.51100000000E-03 0.  1.
        -12    1    3    3    0    0 -0.82876431927E+00 -0.16148415235E+01  0.11872874389E+01  0.21689202165E+01  0.00000000000E+00 0.  1.
</event>
<event>
 7    1  0.2700100E-010  0.4778727E+02  0.7816164E-02  0.1312668E+00
        -11   -1    0    0    0    0  0.00000000000E+00  0.00000000000E+00  0.45593999997E+02  0.45594000000E+02  0.51100000000E-03 0. -1.
         11   -1    0    0    0    0 -0.00000000000E+00 -0.00000000000E+00 -0.45593999997E+02  0.45594000000E+02  0.51100000000E-03 0.  1.
    9900012    2    1    2    0    0  0.22947402100E+02  0.13904350642E+02  0.34113177612E+02  0.47787272855E+02  0.20000008255E+02 0.  0.
        -12    1    1    2    0    0 -0.22947402100E+02 -0.13904350642E+02 -0.34113177612E+02  0.43400727145E+02  0.00000000000E+00 0.  1.
         11    1    3    3    0    0  0.18313461604E+02  0.83663465318E+01  0.30108195701E+02  0.36219912739E+02  0.51100000000E-03 0. -1.
        -11    1    3    3    0    0  0.50066605271E+00  0.45495480206E+01 -0.13113432570E+01  0.47611632073E+01  0.51100000000E-03 0.  1.
        -12    1    3    3    0    0  0.41332744435E+01  0.98845609002E+00  0.53163251680E+01  0.68061969087E+01  0.00000000000E+00 0.  1.
</event>
<event>
 7    1  0.2700100E-010  0.4778727E+02  0.7816164E-02  0.1312668E+00
        -11   -1    0    0    0    0  0.00000000000E+00  0.00000000000E+00  0.45593999997E+02  0.45594000000E+02  0.51100000000E-03 0. -1.
         11   -1    0    0    0    0 -0.00000000000E+00 -0.00000000000E+00 -0.45593999997E+02  0.45594000000E+02  0.51100000000E-03 0.  1.
    9900012    2    1    2    0    0 -0.24426630506E+01 -0.36133419106E+02  0.23917200612E+02  0.47787273460E+02  0.20000011016E+02 0.  0.
        -12    1    1    2    0    0  0.24426630506E+01  0.36133419106E+02 -0.23917200612E+02  0.43400726540E+02  0.00000000000E+00 0.  1.
         11    1    3    3    0    0  0.46594202328E+01 -0.10723337861E+02  0.98703086577E+01  0.15301083786E+02  0.51100000000E-03 0. -1.
        -11    1    3    3    0    0 -0.46413932214E+01 -0.26015428168E+02  0.11276315869E+02  0.28731521603E+02  0.51100000000E-03 0.  1.
        -12    1    3    3    0    0 -0.24606900619E+01  0.60534692279E+00  0.27705760854E+01  0.37546680709E+01  0.00000000000E+00 0.  1.
</event>
<event>
 7    1  0.2700100E-010  0.4778727E+02  0.7816164E-02  0.1312668E+00
        -11   -1    0    0    0    0  0.00000000000E+00  0.00000000000E+00  0.45593999997E+02  0.45594000000E+02  0.51100000000E-03 0. -1.
         11   -1    0    0    0    0 -0.00000000000E+00 -0.00000000000E+00 -0.45593999997E+02  0.45594000000E+02  0.51100000000E-03 0.  1.
    9900012    2    1    2    0    0  0.36745133300E+02  0.41748625824E+01 -0.22715387760E+02  0.47787272588E+02  0.20000007038E+02 0.  0.
        -12    1    1    2    0    0 -0.36745133300E+02 -0.41748625824E+01  0.22715387760E+02  0.43400727412E+02  0.00000000000E+00 0.  1.
         11    1    3    3    0    0  0.51049758508E+01 -0.11133647546E+01 -0.15733231209E+01  0.54567119604E+01  0.51100000000E-03 0. -1.
        -11    1    3    3    0    0  0.18393123672E+02  0.55667619031E+01 -0.23834073487E+01  0.19364309111E+02  0.51100000000E-03 0.  1.
        -12    1    3    3    0    0  0.13247033777E+02 -0.27853456606E+00 -0.18758657290E+02  0.22966251516E+02  0.00000000000E+00 0.  1.
</event>
<event>
 7    1  0.2700100E-010  0.4778731E+02  0.7816164E-02  0.1312668E+00
        -11   -1    0    0    0    0  0.00000000000E+00  0.00000000000E+00  0.45593999997E+02  0.45594000000E+02  0.51100000000E-03 0. -1.
         11   -1    0    0    0    0 -0.00000000000E+00 -0.00000000000E+00 -0.45593999997E+02  0.45594000000E+02  0.51100000000E-03 0.  1.
    9900012    2    1    2    0    0 -0.35396921751E+02 -0.15493842880E+02  0.19764081730E+02  0.47787306880E+02  0.20000163390E+02 0.  0.
        -12    1    1    2    0    0  0.35396921751E+02  0.15493842880E+02 -0.19764081730E+02  0.43400693120E+02  0.00000000000E+00 0.  1.
         11    1    3    3    0    0  0.59772165061E+00 -0.37109098645E+01 -0.50258624263E+00  0.37921915018E+01  0.51100000000E-03 0. -1.
        -11    1    3    3    0    0 -0.57718461506E+01 -0.11383817455E+01 -0.34927463665E+00  0.58933957968E+01  0.51100000000E-03 0.  1.
         12    1    3    3    0    0 -0.30222797251E+02 -0.10644551270E+02  0.20615942609E+02  0.38101719582E+02  0.00000000000E+00 0. -1.
</event>
<event>
 7    1  0.2700100E-010  0.4778727E+02  0.7816164E-02  0.1312668E+00
        -11   -1    0    0    0    0  0.00000000000E+00  0.00000000000E+00  0.45593999997E+02  0.45594000000E+02  0.51100000000E-03 0.  1.
         11   -1    0    0    0    0 -0.00000000000E+00 -0.00000000000E+00 -0.45593999997E+02  0.45594000000E+02  0.51100000000E-03 0. -1.
    9900012    2    1    2    0    0 -0.26080093649E+02 -0.34689535627E+02 -0.29669674360E+00  0.47787271945E+02  0.20000004106E+02 0.  0.
        -12    1    1    2    0    0  0.26080093649E+02  0.34689535627E+02  0.29669674360E+00  0.43400728055E+02  0.00000000000E+00 0.  1.
         11    1    3    3    0    0 -0.21498800291E+02 -0.14156154533E+02  0.11510392768E+01  0.25766645432E+02  0.51100000000E-03 0. -1.
        -11    1    3    3    0    0 -0.15924406381E+01 -0.12287180048E+02  0.20861401512E+01  0.12564340082E+02  0.51100000000E-03 0.  1.
         12    1    3    3    0    0 -0.29888527194E+01 -0.82462010460E+01 -0.35338761716E+01  0.94562864310E+01  0.00000000000E+00 0. -1.
</event>
<event>
 7    1  0.2700100E-010  0.4778727E+02  0.7816164E-02  0.1312668E+00
        -11   -1    0    0    0    0  0.00000000000E+00  0.00000000000E+00  0.45593999997E+02  0.45594000000E+02  0.51100000000E-03 0.  1.
         11   -1    0    0    0    0 -0.00000000000E+00 -0.00000000000E+00 -0.45593999997E+02  0.45594000000E+02  0.51100000000E-03 0. -1.
    9900012    2    1    2    0    0  0.14527607036E+02  0.13421999496E+02 -0.38631872490E+02  0.47787274099E+02  0.20000013925E+02 0.  0.
        -12    1    1    2    0    0 -0.14527607036E+02 -0.13421999496E+02  0.38631872490E+02  0.43400725901E+02  0.00000000000E+00 0.  1.
         11    1    3    3    0    0  0.80994310230E+01  0.28980477793E+01 -0.23904968307E+01  0.89282663035E+01  0.51100000000E-03 0.  1.
        -11    1    3    3    0    0  0.13136237464E+01  0.35891388452E+01 -0.21048189695E+02  0.21392377490E+02  0.51100000000E-03 0. -1.
         12    1    3    3    0    0  0.51145522667E+01  0.69348128713E+01 -0.15193185965E+02  0.17466630305E+02  0.00000000000E+00 0. -1.
</event>
<event>
 7    1  0.2700100E-010  0.4778727E+02  0.7816164E-02  0.1312668E+00
        -11   -1    0    0    0    0  0.00000000000E+00  0.00000000000E+00  0.45593999997E+02  0.45594000000E+02  0.51100000000E-03 0. -1.
         11   -1    0    0    0    0 -0.00000000000E+00 -0.00000000000E+00 -0.45593999997E+02  0.45594000000E+02  0.51100000000E-03 0.  1.
    9900012    2    1    2    0    0  0.17023915162E+02  0.39908504346E+02 -0.10587246797E+01  0.47787270691E+02  0.19999998389E+02 0.  0.
        -12    1    1    2    0    0 -0.17023915162E+02 -0.39908504346E+02  0.10587246797E+01  0.43400729309E+02  0.00000000000E+00 0.  1.
         11    1    3    3    0    0  0.40148835494E+00  0.12553073875E+01  0.10714223027E+01  0.16985098022E+01  0.51100000000E-03 0. -1.
        -11    1    3    3    0    0  0.18160821430E+02  0.26398430827E+02 -0.70252139946E+01  0.32803143402E+02  0.51100000000E-03 0.  1.
        -12    1    3    3    0    0 -0.15383946226E+01  0.12254766132E+02  0.48950670122E+01  0.13285617487E+02  0.00000000000E+00 0.  1.
</event>
<event>
 7    1  0.2700100E-010  0.4778727E+02  0.7816164E-02  0.1312668E+00
        -11   -1    0    0    0    0  0.00000000000E+00  0.00000000000E+00  0.45593999997E+02  0.45594000000E+02  0.51100000000E-03 0. -1.
         11   -1    0    0    0    0 -0.00000000000E+00 -0.00000000000E+00 -0.45593999997E+02  0.45594000000E+02  0.51100000000E-03 0.  1.
    9900012    2    1    2    0    0 -0.40837413948E+02  0.14215561922E+02  0.37211551054E+01  0.47787267587E+02  0.19999984234E+02 0.  0.
        -12    1    1    2    0    0  0.40837413948E+02 -0.14215561922E+02 -0.37211551054E+01  0.43400732413E+02  0.00000000000E+00 0.  1.
         11    1    3    3    0    0 -0.55546545469E+01 -0.28769424060E+01 -0.40242794138E+01  0.74381321449E+01  0.51100000000E-03 0.  1.
        -11    1    3    3    0    0 -0.26538756246E+02  0.12183982997E+02  0.81354507121E+01  0.30314032779E+02  0.51100000000E-03 0. -1.
        -12    1    3    3    0    0 -0.87440031548E+01  0.49085213309E+01 -0.39001619286E+00  0.10035102663E+02  0.00000000000E+00 0.  1.
</event>
<event>
 7    1  0.2700100E-010  0.4778727E+02  0.7816164E-02  0.1312668E+00
        -11   -1    0    0    0    0  0.00000000000E+00  0.00000000000E+00  0.45593999997E+02  0.45594000000E+02  0.51100000000E-03 0.  1.
         11   -1    0    0    0    0 -0.00000000000E+00 -0.00000000000E+00 -0.45593999997E+02  0.45594000000E+02  0.51100000000E-03 0. -1.
    9900012    2    1    2    0    0  0.38389791373E+02 -0.17207165168E+02 -0.10665858464E+02  0.47787272453E+02  0.20000006422E+02 0.  0.
        -12    1    1    2    0    0 -0.38389791373E+02  0.17207165168E+02  0.10665858464E+02  0.43400727547E+02  0.00000000000E+00 0.  1.
         11    1    3    3    0    0  0.72345814378E+01  0.36171456578E+01 -0.13030074860E+01  0.81927248251E+01  0.51100000000E-03 0. -1.
        -11    1    3    3    0    0  0.43208971084E+01 -0.76301743015E+00  0.10458912170E+01  0.45106802280E+01  0.51100000000E-03 0.  1.
         12    1    3    3    0    0  0.26834312827E+02 -0.20061293396E+02 -0.10408742195E+02  0.35083867400E+02  0.00000000000E+00 0. -1.
</event>
<event>
 7    1  0.2700100E-010  0.4778727E+02  0.7816164E-02  0.1312668E+00
        -11   -1    0    0    0    0  0.00000000000E+00  0.00000000000E+00  0.45593999997E+02  0.45594000000E+02  0.51100000000E-03 0.  1.
         11   -1    0    0    0    0 -0.00000000000E+00 -0.00000000000E+00 -0.45593999997E+02  0.45594000000E+02  0.51100000000E-03 0. -1.
    9900012    2    1    2    0    0  0.31755285472E+02 -0.69066652070E+01 -0.28766699229E+02  0.47787272308E+02  0.20000005761E+02 0.  0.
        -12    1    1    2    0    0 -0.31755285472E+02  0.69066652070E+01  0.28766699229E+02  0.43400727692E+02  0.00000000000E+00 0.  1.
         11    1    3    3    0    0  0.38669033181E+00  0.91886591804E+00 -0.53356086266E+01  0.54279428576E+01  0.51100000000E-03 0.  1.
        -11    1    3    3    0    0  0.24735485610E+02 -0.10995699126E+02 -0.14229523913E+02  0.30581514002E+02  0.51100000000E-03 0. -1.
         12    1    3    3    0    0  0.66331095299E+01  0.31701680005E+01 -0.92015666892E+01  0.11777815448E+02  0.00000000000E+00 0. -1.
</event>
<event>
 7    1  0.2700100E-010  0.4778727E+02  0.7816164E-02  0.1312668E+00
        -11   -1    0    0    0    0  0.00000000000E+00  0.00000000000E+00  0.45593999997E+02  0.45594000000E+02  0.51100000000E-03 0.  1.
         11   -1    0    0    0    0 -0.00000000000E+00 -0.00000000000E+00 -0.45593999997E+02  0.45594000000E+02  0.51100000000E-03 0. -1.
    9900012    2    1    2    0    0  0.17949779233E+01  0.38014424740E+02 -0.20863958820E+02  0.47787271761E+02  0.20000003268E+02 0.  0.
        -12    1    1    2    0    0 -0.17949779233E+01 -0.38014424740E+02  0.20863958820E+02  0.43400728239E+02  0.00000000000E+00 0.  1.
         11    1    3    3    0    0  0.13815470344E+01  0.10508834975E+02 -0.50401848335E+01  0.11736598662E+02  0.51100000000E-03 0. -1.
        -11    1    3    3    0    0  0.59284592307E-01  0.19084789978E+02 -0.19106787916E+02  0.27005593270E+02  0.51100000000E-03 0.  1.
        -12    1    3    3    0    0  0.35414629655E+00  0.84207997866E+01  0.32830139294E+01  0.90450798286E+01  0.00000000000E+00 0.  1.
</event>
<event>
 7    1  0.2700100E-010  0.4778727E+02  0.7816164E-02  0.1312668E+00
        -11   -1    0    0    0    0  0.00000000000E+00  0.00000000000E+00  0.45593999997E+02  0.45594000000E+02  0.51100000000E-03 0.  1.
         11   -1    0    0    0    0 -0.00000000000E+00 -0.00000000000E+00 -0.45593999997E+02  0.45594000000E+02  0.51100000000E-03 0. -1.
    9900012    2    1    2    0    0 -0.23639397545E+00 -0.34769090764E+02 -0.25974559330E+02  0.47787270893E+02  0.19999999309E+02 0.  0.
        -12    1    1    2    0    0  0.23639397545E+00  0.34769090764E+02  0.25974559330E+02  0.43400729107E+02  0.00000000000E+00 0.  1.
         11    1    3    3    0    0 -0.80427091096E+01 -0.82890004624E+01 -0.10307722564E+02  0.15480369608E+02  0.51100000000E-03 0. -1.
        -11    1    3    3    0    0  0.39668736318E+01 -0.10346980342E+02 -0.31215624165E+01  0.11512612248E+02  0.51100000000E-03 0.  1.
        -12    1    3    3    0    0  0.38394415023E+01 -0.16133109960E+02 -0.12545274349E+02  0.20794289036E+02  0.00000000000E+00 0.  1.
</event>
<event>
 7    1  0.2700100E-010  0.4778727E+02  0.7816164E-02  0.1312668E+00
        -11   -1    0    0    0    0  0.00000000000E+00  0.00000000000E+00  0.45593999997E+02  0.45594000000E+02  0.51100000000E-03 0. -1.
         11   -1    0    0    0    0 -0.00000000000E+00 -0.00000000000E+00 -0.45593999997E+02  0.45594000000E+02  0.51100000000E-03 0.  1.
    9900012    2    1    2    0    0 -0.16496487593E+02  0.37231445569E+02  0.15010285117E+02  0.47787270728E+02  0.19999998558E+02 0.  0.
        -12    1    1    2    0    0  0.16496487593E+02 -0.37231445569E+02 -0.15010285117E+02  0.43400729272E+02  0.00000000000E+00 0.  1.
         11    1    3    3    0    0 -0.14379954260E+02  0.19750902495E+02  0.84323945443E+01  0.25845435031E+02  0.51100000000E-03 0. -1.
        -11    1    3    3    0    0  0.25966098353E+01  0.42226707004E+01  0.61037376897E+01  0.78631383383E+01  0.51100000000E-03 0.  1.
        -12    1    3    3    0    0 -0.47131431679E+01  0.13257872373E+02  0.47415288315E+00  0.14078697359E+02  0.00000000000E+00 0.  1.
</event>
<event>
 7    1  0.2700100E-010  0.4778727E+02  0.7816164E-02  0.1312668E+00
        -11   -1    0    0    0    0  0.00000000000E+00  0.00000000000E+00  0.45593999997E+02  0.45594000000E+02  0.51100000000E-03 0. -1.
         11   -1    0    0    0    0 -0.00000000000E+00 -0.00000000000E+00 -0.45593999997E+02  0.45594000000E+02  0.51100000000E-03 0.  1.
    9900012    2    1    2    0    0  0.25963923292E+02  0.34311007732E+02  0.56791692628E+01  0.47787268119E+02  0.19999986662E+02 0.  0.
        -12    1    1    2    0    0 -0.25963923292E+02 -0.34311007732E+02 -0.56791692628E+01  0.43400731881E+02  0.00000000000E+00 0.  1.
         11    1    3    3    0    0  0.26865988298E+02  0.31609498241E+02  0.62084891981E+01  0.41946239934E+02  0.51100000000E-03 0. -1.
        -11    1    3    3    0    0 -0.24330464099E+01 -0.34335807488E-01 -0.10726272855E+01  0.26592147968E+01  0.51100000000E-03 0.  1.
        -12    1    3    3    0    0  0.15309814044E+01  0.27358452987E+01  0.54330735024E+00  0.31818133880E+01  0.00000000000E+00 0.  1.
</event>
<event>
 7    1  0.2700100E-010  0.4778727E+02  0.7816164E-02  0.1312668E+00
        -11   -1    0    0    0    0  0.00000000000E+00  0.00000000000E+00  0.45593999997E+02  0.45594000000E+02  0.51100000000E-03 0.  1.
         11   -1    0    0    0    0 -0.00000000000E+00 -0.00000000000E+00 -0.45593999997E+02  0.45594000000E+02  0.51100000000E-03 0. -1.
    9900012    2    1    2    0    0 -0.27451821631E+02  0.29114690677E+02 -0.16803436120E+02  0.47787272016E+02  0.20000004432E+02 0.  0.
        -12    1    1    2    0    0  0.27451821631E+02 -0.29114690677E+02  0.16803436120E+02  0.43400727984E+02  0.00000000000E+00 0.  1.
         11    1    3    3    0    0 -0.89224415274E+00  0.43113274226E+01 -0.49213801446E+01  0.66033042155E+01  0.51100000000E-03 0. -1.
        -11    1    3    3    0    0 -0.13017984230E+02  0.19477146991E+02 -0.18305073090E+01  0.23498466452E+02  0.51100000000E-03 0.  1.
        -12    1    3    3    0    0 -0.13541593248E+02  0.53262162635E+01 -0.10051548667E+02  0.17685501349E+02  0.00000000000E+00 0.  1.
</event>
<event>
 7    1  0.2700100E-010  0.4778727E+02  0.7816164E-02  0.1312668E+00
        -11   -1    0    0    0    0  0.00000000000E+00  0.00000000000E+00  0.45593999997E+02  0.45594000000E+02  0.51100000000E-03 0. -1.
         11   -1    0    0    0    0 -0.00000000000E+00 -0.00000000000E+00 -0.45593999997E+02  0.45594000000E+02  0.51100000000E-03 0.  1.
    9900012    2    1    2    0    0 -0.37089099509E+02  0.21462382463E+02  0.68839102407E+01  0.47787269781E+02  0.19999994239E+02 0.  0.
        -12    1    1    2    0    0  0.37089099509E+02 -0.21462382463E+02 -0.68839102407E+01  0.43400730219E+02  0.00000000000E+00 0.  1.
         11    1    3    3    0    0 -0.65955743116E+01  0.51189373828E+01  0.15100263056E+01  0.84844151320E+01  0.51100000000E-03 0. -1.
        -11    1    3    3    0    0 -0.13260562056E+02  0.75092119705E+01 -0.65213858325E+01  0.16575863293E+02  0.51100000000E-03 0.  1.
        -12    1    3    3    0    0 -0.17232963141E+02  0.88342331099E+01  0.11895269768E+02  0.22726991356E+02  0.00000000000E+00 0.  1.
</event>
<event>
 7    1  0.2700100E-010  0.4778727E+02  0.7816164E-02  0.1312668E+00
        -11   -1    0    0    0    0  0.00000000000E+00  0.00000000000E+00  0.45593999997E+02  0.45594000000E+02  0.51100000000E-03 0. -1.
         11   -1    0    0    0    0 -0.00000000000E+00 -0.00000000000E+00 -0.45593999997E+02  0.45594000000E+02  0.51100000000E-03 0.  1.
    9900012    2    1    2    0    0 -0.26098244780E+02  0.27683025739E+02  0.20884321936E+02  0.47787271925E+02  0.20000004016E+02 0.  0.
        -12    1    1    2    0    0  0.26098244780E+02 -0.27683025739E+02 -0.20884321936E+02  0.43400728075E+02  0.00000000000E+00 0.  1.
         11    1    3    3    0    0 -0.14120479918E+02  0.21173728063E+02  0.18302088596E+02  0.31347745699E+02  0.51100000000E-03 0. -1.
        -11    1    3    3    0    0 -0.35547689930E+01  0.49919268740E+01 -0.23477364496E+01  0.65625896723E+01  0.51100000000E-03 0.  1.
         12    1    3    3    0    0 -0.84229958687E+01  0.15173708024E+01  0.49299697904E+01  0.98769365539E+01  0.00000000000E+00 0. -1.
</event>
<event>
 7    1  0.2700100E-010  0.4778727E+02  0.7816164E-02  0.1312668E+00
        -11   -1    0    0    0    0  0.00000000000E+00  0.00000000000E+00  0.45593999997E+02  0.45594000000E+02  0.51100000000E-03 0.  1.
         11   -1    0    0    0    0 -0.00000000000E+00 -0.00000000000E+00 -0.45593999997E+02  0.45594000000E+02  0.51100000000E-03 0. -1.
    9900012    2    1    2    0    0  0.37581327949E+02 -0.21708690921E+02 -0.72261720301E-02  0.47787268161E+02  0.19999986854E+02 0.  0.
        -12    1    1    2    0    0 -0.37581327949E+02  0.21708690921E+02  0.72261720301E-02  0.43400731839E+02  0.00000000000E+00 0.  1.
         11    1    3    3    0    0  0.40853084739E+01 -0.38322048527E+01 -0.64263314159E+01  0.85248621742E+01  0.51100000000E-03 0.  1.
        -11    1    3    3    0    0  0.10761886939E+02 -0.93767528580E+01  0.42575272375E+01  0.14895242297E+02  0.51100000000E-03 0. -1.
         12    1    3    3    0    0  0.22734132536E+02 -0.84997332104E+01  0.21615780064E+01  0.24367163690E+02  0.00000000000E+00 0. -1.
</event>
<event>
 7    1  0.2700100E-010  0.4778727E+02  0.7816164E-02  0.1312668E+00
        -11   -1    0    0    0    0  0.00000000000E+00  0.00000000000E+00  0.45593999997E+02  0.45594000000E+02  0.51100000000E-03 0.  1.
         11   -1    0    0    0    0 -0.00000000000E+00 -0.00000000000E+00 -0.45593999997E+02  0.45594000000E+02  0.51100000000E-03 0. -1.
    9900012    2    1    2    0    0 -0.56051194283E+01 -0.41993306290E+02 -0.94216930676E+01  0.47787269163E+02  0.19999991421E+02 0.  0.
        -12    1    1    2    0    0  0.56051194283E+01  0.41993306290E+02  0.94216930676E+01  0.43400730837E+02  0.00000000000E+00 0.  1.
         11    1    3    3    0    0 -0.99994737487E+01 -0.18426298675E+02 -0.33595628138E+01  0.21232160057E+02  0.51100000000E-03 0. -1.
        -11    1    3    3    0    0  0.29058647527E+01 -0.66306489485E+01 -0.62324055222E+01  0.95526140032E+01  0.51100000000E-03 0.  1.
         12    1    3    3    0    0  0.14884895677E+01 -0.16936358666E+02  0.17027526846E+00  0.17002495103E+02  0.00000000000E+00 0. -1.
</event>
<event>
 7    1  0.2700100E-010  0.4778727E+02  0.7816164E-02  0.1312668E+00
        -11   -1    0    0    0    0  0.00000000000E+00  0.00000000000E+00  0.45593999997E+02  0.45594000000E+02  0.51100000000E-03 0. -1.
         11   -1    0    0    0    0 -0.00000000000E+00 -0.00000000000E+00 -0.45593999997E+02  0.45594000000E+02  0.51100000000E-03 0.  1.
    9900012    2    1    2    0    0  0.12441648912E+02 -0.41557238560E+02  0.13508293671E+01  0.47787269080E+02  0.19999991045E+02 0.  0.
        -12    1    1    2    0    0 -0.12441648912E+02  0.41557238560E+02 -0.13508293671E+01  0.43400730920E+02  0.00000000000E+00 0.  1.
         11    1    3    3    0    0  0.14092481631E+02 -0.38510304987E+02 -0.31141035695E+01  0.41125895370E+02  0.51100000000E-03 0. -1.
        -11    1    3    3    0    0 -0.25223804451E+01 -0.26603123244E+01  0.23856185098E+01  0.43738816524E+01  0.51100000000E-03 0.  1.
         12    1    3    3    0    0  0.87154772579E+00 -0.38662124875E+00  0.20793144267E+01  0.22874920576E+01  0.00000000000E+00 0. -1.
</event>
<event>
 7    1  0.2700100E-010  0.4778727E+02  0.7816164E-02  0.1312668E+00
        -11   -1    0    0    0    0  0.00000000000E+00  0.00000000000E+00  0.45593999997E+02  0.45594000000E+02  0.51100000000E-03 0.  1.
         11   -1    0    0    0    0 -0.00000000000E+00 -0.00000000000E+00 -0.45593999997E+02  0.45594000000E+02  0.51100000000E-03 0. -1.
    9900012    2    1    2    0    0 -0.27632812956E+02 -0.67101808194E+01 -0.32787565453E+02  0.47787270434E+02  0.19999997218E+02 0.  0.
        -12    1    1    2    0    0  0.27632812956E+02  0.67101808194E+01  0.32787565453E+02  0.43400729566E+02  0.00000000000E+00 0.  1.
         11    1    3    3    0    0 -0.85064434377E+01  0.89922508173E+00 -0.15893622441E+02  0.18049249853E+02  0.51100000000E-03 0. -1.
        -11    1    3    3    0    0 -0.16667130363E+02 -0.77063894336E+00 -0.88117310887E+01  0.18868855926E+02  0.51100000000E-03 0.  1.
        -12    1    3    3    0    0 -0.24592391554E+01 -0.68387669578E+01 -0.80822119241E+01  0.10869164656E+02  0.00000000000E+00 0.  1.
</event>
<event>
 7    1  0.2700100E-010  0.4778728E+02  0.7816164E-02  0.1312668E+00
        -11   -1    0    0    0    0  0.00000000000E+00  0.00000000000E+00  0.45593999997E+02  0.45594000000E+02  0.51100000000E-03 0.  1.
         11   -1    0    0    0    0 -0.00000000000E+00 -0.00000000000E+00 -0.45593999997E+02  0.45594000000E+02  0.51100000000E-03 0. -1.
    9900012    2    1    2    0    0 -0.16654932839E+02 -0.33249932722E+02 -0.22375832074E+02  0.47787277945E+02  0.20000031460E+02 0.  0.
        -12    1    1    2    0    0  0.16654932839E+02  0.33249932722E+02  0.22375832074E+02  0.43400722055E+02  0.00000000000E+00 0.  1.
         11    1    3    3    0    0 -0.67858175700E+01 -0.25557297062E+01 -0.87010315980E+01  0.11326386253E+02  0.51100000000E-03 0. -1.
        -11    1    3    3    0    0 -0.10831041075E+02 -0.28944868588E+02 -0.14692967180E+02  0.34219879502E+02  0.51100000000E-03 0.  1.
        -12    1    3    3    0    0  0.96192580583E+00 -0.17493344281E+01  0.10181667031E+01  0.22410121893E+01  0.00000000000E+00 0.  1.
</event>
<event>
 7    1  0.2700100E-010  0.4778727E+02  0.7816164E-02  0.1312668E+00
        -11   -1    0    0    0    0  0.00000000000E+00  0.00000000000E+00  0.45593999997E+02  0.45594000000E+02  0.51100000000E-03 0. -1.
         11   -1    0    0    0    0 -0.00000000000E+00 -0.00000000000E+00 -0.45593999997E+02  0.45594000000E+02  0.51100000000E-03 0.  1.
    9900012    2    1    2    0    0 -0.25911395161E+02 -0.32338914394E+02 -0.12900290477E+02  0.47787270999E+02  0.19999999793E+02 0.  0.
        -12    1    1    2    0    0  0.25911395161E+02  0.32338914394E+02  0.12900290477E+02  0.43400729001E+02  0.00000000000E+00 0.  1.
         11    1    3    3    0    0 -0.14130277540E+02 -0.63161381123E+01 -0.90439812694E+01  0.17926291905E+02  0.51100000000E-03 0.  1.
        -11    1    3    3    0    0 -0.47014853254E+01 -0.31742301030E+01 -0.33091500150E+00  0.56823591941E+01  0.51100000000E-03 0. -1.
         12    1    3    3    0    0 -0.70796322960E+01 -0.22848546179E+02 -0.35253942061E+01  0.24178619900E+02  0.00000000000E+00 0. -1.
</event>
<event>
 7    1  0.2700100E-010  0.4778728E+02  0.7816164E-02  0.1312668E+00
        -11   -1    0    0    0    0  0.00000000000E+00  0.00000000000E+00  0.45593999997E+02  0.45594000000E+02  0.51100000000E-03 0.  1.
         11   -1    0    0    0    0 -0.00000000000E+00 -0.00000000000E+00 -0.45593999997E+02  0.45594000000E+02  0.51100000000E-03 0. -1.
    9900012    2    1    2    0    0 -0.30095031303E+02 -0.30193627875E+02 -0.81398288306E+01  0.47787275504E+02  0.20000020334E+02 0.  0.
        -12    1    1    2    0    0  0.30095031303E+02  0.30193627875E+02  0.81398288306E+01  0.43400724496E+02  0.00000000000E+00 0.  1.
         11    1    3    3    0    0 -0.14879833336E+02 -0.84518432675E+01 -0.66155356002E+00  0.17125441545E+02  0.51100000000E-03 0. -1.
        -11    1    3    3    0    0 -0.28073409683E+01 -0.15484860148E+02 -0.27009163172E+01  0.15967373181E+02  0.51100000000E-03 0.  1.
        -12    1    3    3    0    0 -0.12407856998E+02 -0.62569244596E+01 -0.47773589534E+01  0.14694460778E+02  0.00000000000E+00 0.  1.
</event>
<event>
 7    1  0.3173757E-010  0.4778727E+02  0.7816164E-02  0.1312668E+00
        -11   -1    0    0    0    0  0.00000000000E+00  0.00000000000E+00  0.45593999997E+02  0.45594000000E+02  0.51100000000E-03 0. -1.
         11   -1    0    0    0    0 -0.00000000000E+00 -0.00000000000E+00 -0.45593999997E+02  0.45594000000E+02  0.51100000000E-03 0.  1.
    9900012    2    1    2    0    0  0.42348720319E+02  0.67845178751E+01 -0.66467740036E+01  0.47787269590E+02  0.19999993368E+02 0.  0.
        -12    1    1    2    0    0 -0.42348720319E+02 -0.67845178751E+01  0.66467740036E+01  0.43400730410E+02  0.00000000000E+00 0.  1.
         11    1    3    3    0    0  0.16785331015E+02  0.37533854328E+01 -0.26510543738E+01  0.17402968972E+02  0.51100000000E-03 0. -1.
        -11    1    3    3    0    0  0.12618651879E+02  0.84912166453E+01 -0.56778291051E+01  0.16234804556E+02  0.51100000000E-03 0.  1.
        -12    1    3    3    0    0  0.12944737426E+02 -0.54600842030E+01  0.16821094753E+01  0.14149496062E+02  0.00000000000E+00 0.  1.
</event>
<event>
 7    1  0.2700100E-010  0.4778727E+02  0.7816164E-02  0.1312668E+00
        -11   -1    0    0    0    0  0.00000000000E+00  0.00000000000E+00  0.45593999997E+02  0.45594000000E+02  0.51100000000E-03 0.  1.
         11   -1    0    0    0    0 -0.00000000000E+00 -0.00000000000E+00 -0.45593999997E+02  0.45594000000E+02  0.51100000000E-03 0. -1.
    9900012    2    1    2    0    0  0.70249132975E+01 -0.57241203639E+01 -0.42444179658E+02  0.47787270195E+02  0.19999996127E+02 0.  0.
        -12    1    1    2    0    0 -0.70249132975E+01  0.57241203639E+01  0.42444179658E+02  0.43400729805E+02  0.00000000000E+00 0.  1.
         11    1    3    3    0    0  0.11837597781E+02 -0.36087972589E+01 -0.35573135916E+02  0.37664308543E+02  0.51100000000E-03 0. -1.
        -11    1    3    3    0    0 -0.10506030564E+01  0.11001151047E+01  0.15483780968E+00  0.15290503700E+01  0.51100000000E-03 0.  1.
         12    1    3    3    0    0 -0.37620814266E+01 -0.32154382098E+01 -0.70258815518E+01  0.85939112819E+01  0.00000000000E+00 0. -1.
</event>
<event>
 7    1  0.2700100E-010  0.4778729E+02  0.7816164E-02  0.1312668E+00
        -11   -1    0    0    0    0  0.00000000000E+00  0.00000000000E+00  0.45593999997E+02  0.45594000000E+02  0.51100000000E-03 0. -1.
         11   -1    0    0    0    0 -0.00000000000E+00 -0.00000000000E+00 -0.45593999997E+02  0.45594000000E+02  0.51100000000E-03 0.  1.
    9900012    2    1    2    0    0  0.41308853286E+01  0.28527397946E+02  0.32446036333E+02  0.47787286632E+02  0.20000071068E+02 0.  0.
        -12    1    1    2    0    0 -0.41308853286E+01 -0.28527397946E+02 -0.32446036333E+02  0.43400713368E+02  0.00000000000E+00 0.  1.
         11    1    3    3    0    0 -0.58219944398E+01  0.94907521747E+01  0.14108641156E+02  0.17972861531E+02  0.51100000000E-03 0. -1.
        -11    1    3    3    0    0  0.64460675420E+01  0.41560738150E+01  0.93006137411E+01  0.12055129719E+02  0.51100000000E-03 0.  1.
         12    1    3    3    0    0  0.35068122264E+01  0.14880571956E+02  0.90367814364E+01  0.17759295382E+02  0.00000000000E+00 0. -1.
</event>
<event>
 7    1  0.2700100E-010  0.4778727E+02  0.7816164E-02  0.1312668E+00
        -11   -1    0    0    0    0  0.00000000000E+00  0.00000000000E+00  0.45593999997E+02  0.45594000000E+02  0.51100000000E-03 0. -1.
         11   -1    0    0    0    0 -0.00000000000E+00 -0.00000000000E+00 -0.45593999997E+02  0.45594000000E+02  0.51100000000E-03 0.  1.
    9900012    2    1    2    0    0  0.95719654827E+01 -0.14721589625E+02  0.39689744965E+02  0.47787267522E+02  0.19999983938E+02 0.  0.
        -12    1    1    2    0    0 -0.95719654827E+01  0.14721589625E+02 -0.39689744965E+02  0.43400732478E+02  0.00000000000E+00 0.  1.
         11    1    3    3    0    0  0.51118593672E+01 -0.10379704311E+01  0.85382884026E+01  0.10005541360E+02  0.51100000000E-03 0. -1.
        -11    1    3    3    0    0 -0.21746900263E+01  0.19837138717E+01  0.11103878337E+02  0.11487406663E+02  0.51100000000E-03 0.  1.
        -12    1    3    3    0    0  0.66347961419E+01 -0.15667333065E+02  0.20047578225E+02  0.26294319499E+02  0.00000000000E+00 0.  1.
</event>
<event>
 7    1  0.2700100E-010  0.4778727E+02  0.7816164E-02  0.1312668E+00
        -11   -1    0    0    0    0  0.00000000000E+00  0.00000000000E+00  0.45593999997E+02  0.45594000000E+02  0.51100000000E-03 0.  1.
         11   -1    0    0    0    0 -0.00000000000E+00 -0.00000000000E+00 -0.45593999997E+02  0.45594000000E+02  0.51100000000E-03 0. -1.
    9900012    2    1    2    0    0  0.56717205651E+01  0.28199957588E+02 -0.32499498184E+02  0.47787269541E+02  0.19999993145E+02 0.  0.
        -12    1    1    2    0    0 -0.56717205651E+01 -0.28199957588E+02  0.32499498184E+02  0.43400730459E+02  0.00000000000E+00 0.  1.
         11    1    3    3    0    0  0.56164612140E+01  0.16692268520E+02 -0.23320155934E+02  0.29223383411E+02  0.51100000000E-03 0. -1.
        -11    1    3    3    0    0  0.40276365528E+01  0.97413353071E+00 -0.17383231712E+00  0.41474100681E+01  0.51100000000E-03 0.  1.
         12    1    3    3    0    0 -0.39723772017E+01  0.10533555538E+02 -0.90055099326E+01  0.14416476062E+02  0.00000000000E+00 0. -1.
</event>
<event>
 7    1  0.2700100E-010  0.4778727E+02  0.7816164E-02  0.1312668E+00
        -11   -1    0    0    0    0  0.00000000000E+00  0.00000000000E+00  0.45593999997E+02  0.45594000000E+02  0.51100000000E-03 0. -1.
         11   -1    0    0    0    0 -0.00000000000E+00 -0.00000000000E+00 -0.45593999997E+02  0.45594000000E+02  0.51100000000E-03 0.  1.
    9900012    2    1    2    0    0 -0.20326310519E+02  0.35645900431E+02  0.14136287023E+02  0.47787265817E+02  0.19999976164E+02 0.  0.
        -12    1    1    2    0    0  0.20326310519E+02 -0.35645900431E+02 -0.14136287023E+02  0.43400734183E+02  0.00000000000E+00 0.  1.
         11    1    3    3    0    0 -0.11233697684E+02  0.47164120337E+01  0.60246173494E+01  0.13591781362E+02  0.51100000000E-03 0. -1.
        -11    1    3    3    0    0 -0.35074335929E+01  0.18230770689E+02  0.82654727704E+01  0.20321937179E+02  0.51100000000E-03 0.  1.
         12    1    3    3    0    0 -0.55851792421E+01  0.12698717708E+02 -0.15380309726E+00  0.13873547275E+02  0.00000000000E+00 0. -1.
</event>
<event>
 7    1  0.2700100E-010  0.4778727E+02  0.7816164E-02  0.1312668E+00
        -11   -1    0    0    0    0  0.00000000000E+00  0.00000000000E+00  0.45593999997E+02  0.45594000000E+02  0.51100000000E-03 0.  1.
         11   -1    0    0    0    0 -0.00000000000E+00 -0.00000000000E+00 -0.45593999997E+02  0.45594000000E+02  0.51100000000E-03 0. -1.
    9900012    2    1    2    0    0 -0.31881691742E+02 -0.26561293166E+02 -0.12715292191E+02  0.47787271683E+02  0.20000002911E+02 0.  0.
        -12    1    1    2    0    0  0.31881691742E+02  0.26561293166E+02  0.12715292191E+02  0.43400728317E+02  0.00000000000E+00 0.  1.
         11    1    3    3    0    0 -0.86322403880E+01 -0.12894157012E+02 -0.35638699959E+01  0.15920930525E+02  0.51100000000E-03 0. -1.
        -11    1    3    3    0    0 -0.23876821123E+02 -0.15419617659E+02 -0.75444390107E+01  0.29407239856E+02  0.51100000000E-03 0.  1.
        -12    1    3    3    0    0  0.62736976929E+00  0.17524815060E+01 -0.16069831848E+01  0.24591013018E+01  0.00000000000E+00 0.  1.
</event>
<event>
 7    1  0.2701105E-010  0.4778727E+02  0.7816164E-02  0.1312668E+00
        -11   -1    0    0    0    0  0.00000000000E+00  0.00000000000E+00  0.45593999997E+02  0.45594000000E+02  0.51100000000E-03 0. -1.
         11   -1    0    0    0    0 -0.00000000000E+00 -0.00000000000E+00 -0.45593999997E+02  0.45594000000E+02  0.51100000000E-03 0.  1.
    9900012    2    1    2    0    0  0.25133252377E+02 -0.12298731016E+02  0.33176555970E+02  0.47787273904E+02  0.20000013038E+02 0.  0.
        -12    1    1    2    0    0 -0.25133252377E+02  0.12298731016E+02 -0.33176555970E+02  0.43400726096E+02  0.00000000000E+00 0.  1.
         11    1    3    3    0    0  0.93214086208E+01 -0.56747989970E+01  0.11359414568E+02  0.15752088811E+02  0.51100000000E-03 0. -1.
        -11    1    3    3    0    0  0.31535832143E+01 -0.96606979093E+01  0.12036648175E+02  0.15752938479E+02  0.51100000000E-03 0.  1.
        -12    1    3    3    0    0  0.12658260542E+02  0.30367658906E+01  0.97804932272E+01  0.16282246613E+02  0.00000000000E+00 0.  1.
</event>
<event>
 7    1  0.2700100E-010  0.4778727E+02  0.7816164E-02  0.1312668E+00
        -11   -1    0    0    0    0  0.00000000000E+00  0.00000000000E+00  0.45593999997E+02  0.45594000000E+02  0.51100000000E-03 0.  1.
         11   -1    0    0    0    0 -0.00000000000E+00 -0.00000000000E+00 -0.45593999997E+02  0.45594000000E+02  0.51100000000E-03 0. -1.
    9900012    2    1    2    0    0  0.31922692712E+02  0.24602791012E+02 -0.16101790569E+02  0.47787270800E+02  0.19999998885E+02 0.  0.
        -12    1    1    2    0    0 -0.31922692712E+02 -0.24602791012E+02  0.16101790569E+02  0.43400729200E+02  0.00000000000E+00 0.  1.
         11    1    3    3    0    0  0.30223576996E+02  0.15567656481E+02 -0.11332658919E+02  0.35836373885E+02  0.51100000000E-03 0. -1.
        -11    1    3    3    0    0 -0.29166638562E+00  0.13277628882E+01 -0.36717014098E+01  0.39152796926E+01  0.51100000000E-03 0.  1.
        -12    1    3    3    0    0  0.19907821015E+01  0.77073716429E+01 -0.10974302400E+01  0.80356172226E+01  0.00000000000E+00 0.  1.
</event>
<event>
 7    1  0.2700100E-010  0.4778729E+02  0.7816164E-02  0.1312668E+00
        -11   -1    0    0    0    0  0.00000000000E+00  0.00000000000E+00  0.45593999997E+02  0.45594000000E+02  0.51100000000E-03 0.  1.
         11   -1    0    0    0    0 -0.00000000000E+00 -0.00000000000E+00 -0.45593999997E+02  0.45594000000E+02  0.51100000000E-03 0. -1.
    9900012    2    1    2    0    0 -0.22696639250E+02 -0.36172456111E+02 -0.77484194154E+01  0.47787285515E+02  0.20000065977E+02 0.  0.
        -12    1    1    2    0    0  0.22696639250E+02  0.36172456111E+02  0.77484194154E+01  0.43400714485E+02  0.00000000000E+00 0.  1.
         11    1    3    3    0    0 -0.20143466045E+01  0.73205080670E+00  0.30567044261E+01  0.37332201698E+01  0.51100000000E-03 0. -1.
        -11    1    3    3    0    0 -0.21043031586E+00 -0.81956999782E+00 -0.12013314629E+01  0.14694126187E+01  0.51100000000E-03 0.  1.
         12    1    3    3    0    0 -0.20471862330E+02 -0.36084936920E+02 -0.96037923786E+01  0.42584652726E+02  0.00000000000E+00 0. -1.
</event>
<event>
 7    1  0.2700100E-010  0.4778729E+02  0.7816164E-02  0.1312668E+00
        -11   -1    0    0    0    0  0.00000000000E+00  0.00000000000E+00  0.45593999997E+02  0.45594000000E+02  0.51100000000E-03 0. -1.
         11   -1    0    0    0    0 -0.00000000000E+00 -0.00000000000E+00 -0.45593999997E+02  0.45594000000E+02  0.51100000000E-03 0.  1.
    9900012    2    1    2    0    0 -0.43163062717E+02 -0.56209840964E+00 -0.45006618104E+01  0.47787286936E+02  0.20000072456E+02 0.  0.
        -12    1    1    2    0    0  0.43163062717E+02  0.56209840964E+00  0.45006618104E+01  0.43400713064E+02  0.00000000000E+00 0.  1.
         11    1    3    3    0    0 -0.10377533943E+02  0.48014650689E+00 -0.39422410370E+00  0.10396112943E+02  0.51100000000E-03 0. -1.
        -11    1    3    3    0    0 -0.24043855821E+02 -0.35020272194E+01  0.46924258013E+01  0.24746516069E+02  0.51100000000E-03 0.  1.
        -12    1    3    3    0    0 -0.87416729526E+01  0.24597823029E+01 -0.87988635080E+01  0.12644657924E+02  0.00000000000E+00 0.  1.
</event>
<event>
 7    1  0.2700100E-010  0.4778728E+02  0.7816164E-02  0.1312668E+00
        -11   -1    0    0    0    0  0.00000000000E+00  0.00000000000E+00  0.45593999997E+02  0.45594000000E+02  0.51100000000E-03 0.  1.
         11   -1    0    0    0    0 -0.00000000000E+00 -0.00000000000E+00 -0.45593999997E+02  0.45594000000E+02  0.51100000000E-03 0. -1.
    9900012    2    1    2    0    0 -0.28530769023E+02  0.79164024525E+01 -0.31732454034E+02  0.47787275952E+02  0.20000022377E+02 0.  0.
        -12    1    1    2    0    0  0.28530769023E+02 -0.79164024525E+01  0.31732454034E+02  0.43400724048E+02  0.00000000000E+00 0.  1.
         11    1    3    3    0    0  0.30348451983E+00  0.99711970843E+00 -0.87695330319E+01  0.88312547480E+01  0.51100000000E-03 0. -1.
        -11    1    3    3    0    0 -0.23250397860E+02  0.92714551337E+00 -0.17395053377E+02  0.29052168279E+02  0.51100000000E-03 0.  1.
        -12    1    3    3    0    0 -0.55838556823E+01  0.59921372307E+01 -0.55678676254E+01  0.99038529253E+01  0.00000000000E+00 0.  1.
</event>
<event>
 7    1  0.2700100E-010  0.4778727E+02  0.7816164E-02  0.1312668E+00
        -11   -1    0    0    0    0  0.00000000000E+00  0.00000000000E+00  0.45593999997E+02  0.45594000000E+02  0.51100000000E-03 0.  1.
         11   -1    0    0    0    0 -0.00000000000E+00 -0.00000000000E+00 -0.45593999997E+02  0.45594000000E+02  0.51100000000E-03 0. -1.
    9900012    2    1    2    0    0 -0.16561427820E+02  0.16698183555E+02 -0.36476200742E+02  0.47787269060E+02  0.19999990954E+02 0.  0.
        -12    1    1    2    0    0  0.16561427820E+02 -0.16698183555E+02  0.36476200742E+02  0.43400730940E+02  0.00000000000E+00 0.  1.
         11    1    3    3    0    0  0.11520462540E+01  0.40096208851E+01  0.55623497343E+00  0.42087608414E+01  0.51100000000E-03 0.  1.
        -11    1    3    3    0    0 -0.14039541968E+02  0.12261857167E+02 -0.34085204648E+02  0.38849234948E+02  0.51100000000E-03 0. -1.
        -12    1    3    3    0    0 -0.36739321062E+01  0.42670550268E+00 -0.29472310676E+01  0.47292732712E+01  0.00000000000E+00 0.  1.
</event>
<event>
 7    1  0.2700100E-010  0.4778727E+02  0.7816164E-02  0.1312668E+00
        -11   -1    0    0    0    0  0.00000000000E+00  0.00000000000E+00  0.45593999997E+02  0.45594000000E+02  0.51100000000E-03 0. -1.
         11   -1    0    0    0    0 -0.00000000000E+00 -0.00000000000E+00 -0.45593999997E+02  0.45594000000E+02  0.51100000000E-03 0.  1.
    9900012    2    1    2    0    0  0.29080589996E+02 -0.29914099857E+02 -0.11961996565E+02  0.47787269055E+02  0.19999990927E+02 0.  0.
        -12    1    1    2    0    0 -0.29080589996E+02  0.29914099857E+02  0.11961996565E+02  0.43400730945E+02  0.00000000000E+00 0.  1.
         11    1    3    3    0    0 -0.25192430230E+01 -0.12425638105E+01 -0.22035437553E+01  0.35701758465E+01  0.51100000000E-03 0. -1.
        -11    1    3    3    0    0  0.15476905765E+02 -0.10716291385E+02 -0.62291525556E+01  0.19828662459E+02  0.51100000000E-03 0.  1.
         12    1    3    3    0    0  0.16122927253E+02 -0.17955244662E+02 -0.35293002545E+01  0.24388430749E+02  0.00000000000E+00 0. -1.
</event>
<event>
 7    1  0.2700100E-010  0.4778728E+02  0.7816164E-02  0.1312668E+00
        -11   -1    0    0    0    0  0.00000000000E+00  0.00000000000E+00  0.45593999997E+02  0.45594000000E+02  0.51100000000E-03 0.  1.
         11   -1    0    0    0    0 -0.00000000000E+00 -0.00000000000E+00 -0.45593999997E+02  0.45594000000E+02  0.51100000000E-03 0. -1.
    9900012    2    1    2    0    0  0.21023180429E+01 -0.56375636175E+01 -0.42981635881E+02  0.47787275493E+02  0.20000020282E+02 0.  0.
        -12    1    1    2    0    0 -0.21023180429E+01  0.56375636175E+01  0.42981635881E+02  0.43400724507E+02  0.00000000000E+00 0.  1.
         11    1    3    3    0    0 -0.29170532858E+01  0.33674281525E+01 -0.68553216886E+01  0.81758307192E+01  0.51100000000E-03 0. -1.
        -11    1    3    3    0    0  0.87780001954E+00  0.21935114453E+01 -0.16278700811E+02  0.16449259123E+02  0.51100000000E-03 0.  1.
         12    1    3    3    0    0  0.41415713092E+01 -0.11198503215E+02 -0.19847613382E+02  0.23162185651E+02  0.00000000000E+00 0. -1.
</event>
<event>
 7    1  0.2700100E-010  0.4778727E+02  0.7816164E-02  0.1312668E+00
        -11   -1    0    0    0    0  0.00000000000E+00  0.00000000000E+00  0.45593999997E+02  0.45594000000E+02  0.51100000000E-03 0.  1.
         11   -1    0    0    0    0 -0.00000000000E+00 -0.00000000000E+00 -0.45593999997E+02  0.45594000000E+02  0.51100000000E-03 0. -1.
    9900012    2    1    2    0    0  0.26962295175E+02  0.33203614789E+02 -0.73605557817E+01  0.47787272153E+02  0.20000005056E+02 0.  0.
        -12    1    1    2    0    0 -0.26962295175E+02 -0.33203614789E+02  0.73605557817E+01  0.43400727847E+02  0.00000000000E+00 0.  1.
         11    1    3    3    0    0  0.12542281540E+02  0.65515065259E+01 -0.42270370764E+01  0.14768172084E+02  0.51100000000E-03 0. -1.
        -11    1    3    3    0    0  0.15247645401E+02  0.26326877018E+02 -0.70376271433E+00  0.30431733864E+02  0.51100000000E-03 0.  1.
         12    1    3    3    0    0 -0.82763176570E+00  0.32523124572E+00 -0.24297559910E+01  0.25873662050E+01  0.00000000000E+00 0. -1.
</event>
<event>
 7    1  0.2700100E-010  0.4778727E+02  0.7816164E-02  0.1312668E+00
        -11   -1    0    0    0    0  0.00000000000E+00  0.00000000000E+00  0.45593999997E+02  0.45594000000E+02  0.51100000000E-03 0. -1.
         11   -1    0    0    0    0 -0.00000000000E+00 -0.00000000000E+00 -0.45593999997E+02  0.45594000000E+02  0.51100000000E-03 0.  1.
    9900012    2    1    2    0    0 -0.11329418407E+02  0.21849132718E+02  0.35747490591E+02  0.47787269528E+02  0.19999993086E+02 0.  0.
        -12    1    1    2    0    0  0.11329418407E+02 -0.21849132718E+02 -0.35747490591E+02  0.43400730472E+02  0.00000000000E+00 0.  1.
         11    1    3    3    0    0 -0.10553457719E+02  0.22014427247E+02  0.19054629433E+02  0.30969168215E+02  0.51100000000E-03 0. -1.
        -11    1    3    3    0    0  0.59944463953E+00 -0.65412382507E-01  0.72559298349E+01  0.72809429805E+01  0.51100000000E-03 0.  1.
         12    1    3    3    0    0 -0.13754053278E+01 -0.99882147094E-01  0.94369313230E+01  0.95371583322E+01  0.00000000000E+00 0. -1.
</event>
<event>
 7    1  0.2700100E-010  0.4778728E+02  0.7816164E-02  0.1312668E+00
        -11   -1    0    0    0    0  0.00000000000E+00  0.00000000000E+00  0.45593999997E+02  0.45594000000E+02  0.51100000000E-03 0. -1.
         11   -1    0    0    0    0 -0.00000000000E+00 -0.00000000000E+00 -0.45593999997E+02  0.45594000000E+02  0.51100000000E-03 0.  1.
    9900012    2    1    2    0    0 -0.33579922390E+02  0.42250608676E+01  0.27169109945E+02  0.47787275786E+02  0.20000021620E+02 0.  0.
        -12    1    1    2    0    0  0.33579922390E+02 -0.42250608676E+01 -0.27169109945E+02  0.43400724214E+02  0.00000000000E+00 0.  1.
         11    1    3    3    0    0 -0.19762229207E+02  0.45289121979E+01  0.69635671977E+01  0.21437071099E+02  0.51100000000E-03 0. -1.
        -11    1    3    3    0    0  0.29741516293E+00  0.21876515075E+01  0.49365811833E+01  0.54077822568E+01  0.51100000000E-03 0.  1.
         12    1    3    3    0    0 -0.14115108346E+02 -0.24915028378E+01  0.15268961564E+02  0.20942422431E+02  0.00000000000E+00 0. -1.
</event>
<event>
 7    1  0.2700100E-010  0.4778727E+02  0.7816164E-02  0.1312668E+00
        -11   -1    0    0    0    0  0.00000000000E+00  0.00000000000E+00  0.45593999997E+02  0.45594000000E+02  0.51100000000E-03 0.  1.
         11   -1    0    0    0    0 -0.00000000000E+00 -0.00000000000E+00 -0.45593999997E+02  0.45594000000E+02  0.51100000000E-03 0. -1.
    9900012    2    1    2    0    0  0.39425764932E+02  0.99894112935E+01  0.15147411447E+02  0.47787270144E+02  0.19999995895E+02 0.  0.
        -12    1    1    2    0    0 -0.39425764932E+02 -0.99894112935E+01 -0.15147411447E+02  0.43400729856E+02  0.00000000000E+00 0.  1.
         11    1    3    3    0    0  0.19840334703E+02 -0.10237295850E+01  0.69388381029E+01  0.21043630340E+02  0.51100000000E-03 0. -1.
        -11    1    3    3    0    0  0.15674336270E+02  0.13609113409E+02  0.67628646166E+01  0.21831837380E+02  0.51100000000E-03 0.  1.
         12    1    3    3    0    0  0.39110939585E+01 -0.25959725306E+01  0.14457087276E+01  0.49118024245E+01  0.00000000000E+00 0. -1.
</event>
<event>
 7    1  0.2700100E-010  0.4778727E+02  0.7816164E-02  0.1312668E+00
        -11   -1    0    0    0    0  0.00000000000E+00  0.00000000000E+00  0.45593999997E+02  0.45594000000E+02  0.51100000000E-03 0.  1.
         11   -1    0    0    0    0 -0.00000000000E+00 -0.00000000000E+00 -0.45593999997E+02  0.45594000000E+02  0.51100000000E-03 0. -1.
    9900012    2    1    2    0    0 -0.23732180983E+02  0.15787317930E+02 -0.32728693319E+02  0.47787272034E+02  0.20000004511E+02 0.  0.
        -12    1    1    2    0    0  0.23732180983E+02 -0.15787317930E+02  0.32728693319E+02  0.43400727966E+02  0.00000000000E+00 0.  1.
         11    1    3    3    0    0 -0.91133852579E+01  0.15451583553E+02 -0.20116977948E+02  0.26953627347E+02  0.51100000000E-03 0. -1.
        -11    1    3    3    0    0 -0.32387192904E+01 -0.33098487733E+01 -0.36727975697E+01  0.59104859185E+01  0.51100000000E-03 0.  1.
         12    1    3    3    0    0 -0.11380076434E+02  0.36455831507E+01 -0.89389178013E+01  0.14923158768E+02  0.00000000000E+00 0. -1.
</event>
<event>
 7    1  0.2700100E-010  0.4778727E+02  0.7816164E-02  0.1312668E+00
        -11   -1    0    0    0    0  0.00000000000E+00  0.00000000000E+00  0.45593999997E+02  0.45594000000E+02  0.51100000000E-03 0. -1.
         11   -1    0    0    0    0 -0.00000000000E+00 -0.00000000000E+00 -0.45593999997E+02  0.45594000000E+02  0.51100000000E-03 0.  1.
    9900012    2    1    2    0    0  0.16385877628E+02 -0.33014827187E+02  0.22916090336E+02  0.47787274244E+02  0.20000014590E+02 0.  0.
        -12    1    1    2    0    0 -0.16385877628E+02  0.33014827187E+02 -0.22916090336E+02  0.43400725756E+02  0.00000000000E+00 0.  1.
         11    1    3    3    0    0  0.18183970083E+02 -0.20841841097E+02  0.14722653635E+02  0.31333618346E+02  0.51100000000E-03 0. -1.
        -11    1    3    3    0    0 -0.53978161250E+00 -0.71644971233E+01  0.51902347699E+00  0.72035247518E+01  0.51100000000E-03 0.  1.
         12    1    3    3    0    0 -0.12583108429E+01 -0.50084889664E+01  0.76744132238E+01  0.92501311469E+01  0.00000000000E+00 0. -1.
</event>
<event>
 7    1  0.2700100E-010  0.4778727E+02  0.7816164E-02  0.1312668E+00
        -11   -1    0    0    0    0  0.00000000000E+00  0.00000000000E+00  0.45593999997E+02  0.45594000000E+02  0.51100000000E-03 0.  1.
         11   -1    0    0    0    0 -0.00000000000E+00 -0.00000000000E+00 -0.45593999997E+02  0.45594000000E+02  0.51100000000E-03 0. -1.
    9900012    2    1    2    0    0 -0.24877029736E+02 -0.25417609712E+02 -0.24873721426E+02  0.47787268329E+02  0.19999987620E+02 0.  0.
        -12    1    1    2    0    0  0.24877029736E+02  0.25417609712E+02  0.24873721426E+02  0.43400731671E+02  0.00000000000E+00 0.  1.
         11    1    3    3    0    0 -0.13102367742E+02 -0.16091754537E+02 -0.21805734384E+02  0.30101605552E+02  0.51100000000E-03 0. -1.
        -11    1    3    3    0    0 -0.13178917027E+02 -0.83625116130E+01 -0.33389033318E+01  0.15961319814E+02  0.51100000000E-03 0.  1.
        -12    1    3    3    0    0  0.14042550332E+01 -0.96334356177E+00  0.27091628995E+00  0.17243429625E+01  0.00000000000E+00 0.  1.
</event>
<event>
 7    1  0.2700100E-010  0.4778726E+02  0.7816164E-02  0.1312668E+00
        -11   -1    0    0    0    0  0.00000000000E+00  0.00000000000E+00  0.45593999997E+02  0.45594000000E+02  0.51100000000E-03 0. -1.
         11   -1    0    0    0    0 -0.00000000000E+00 -0.00000000000E+00 -0.45593999997E+02  0.45594000000E+02  0.51100000000E-03 0.  1.
    9900012    2    1    2    0    0  0.29681306934E+02  0.21381595581E+02  0.23355331364E+02  0.47787261366E+02  0.19999955870E+02 0.  0.
        -12    1    1    2    0    0 -0.29681306934E+02 -0.21381595581E+02 -0.23355331364E+02  0.43400738634E+02  0.00000000000E+00 0.  1.
         11    1    3    3    0    0  0.13544969738E+02  0.17060878569E+02  0.16689854488E+02  0.27442504001E+02  0.51100000000E-03 0. -1.
        -11    1    3    3    0    0  0.86797136074E+01 -0.21743939395E+01  0.51966728889E+01  0.10347503403E+02  0.51100000000E-03 0.  1.
         12    1    3    3    0    0  0.74566235889E+01  0.64951109511E+01  0.14688039870E+01  0.99972539612E+01  0.00000000000E+00 0. -1.
</event>
<event>
 7    1  0.2700100E-010  0.4778733E+02  0.7816164E-02  0.1312668E+00
        -11   -1    0    0    0    0  0.00000000000E+00  0.00000000000E+00  0.45593999997E+02  0.45594000000E+02  0.51100000000E-03 0.  1.
         11   -1    0    0    0    0 -0.00000000000E+00 -0.00000000000E+00 -0.45593999997E+02  0.45594000000E+02  0.51100000000E-03 0. -1.
    9900012    2    1    2    0    0 -0.27563173836E+01  0.90219599178E+01 -0.42363020183E+02  0.47787325751E+02  0.20000249427E+02 0.  0.
        -12    1    1    2    0    0  0.27563173836E+01 -0.90219599178E+01  0.42363020183E+02  0.43400674249E+02  0.00000000000E+00 0.  1.
         11    1    3    3    0    0  0.50585730778E+01  0.37406136800E+01 -0.14444909256E+02  0.15755530964E+02  0.51100000000E-03 0. -1.
        -11    1    3    3    0    0 -0.99628174599E+01  0.25768603593E+01 -0.12303333365E+02  0.16039636941E+02  0.51100000000E-03 0.  1.
        -12    1    3    3    0    0  0.21479269985E+01  0.27044858785E+01 -0.15614777562E+02  0.15992157846E+02  0.00000000000E+00 0.  1.
</event>
<event>
 7    1  0.2700100E-010  0.4778727E+02  0.7816164E-02  0.1312668E+00
        -11   -1    0    0    0    0  0.00000000000E+00  0.00000000000E+00  0.45593999997E+02  0.45594000000E+02  0.51100000000E-03 0.  1.
         11   -1    0    0    0    0 -0.00000000000E+00 -0.00000000000E+00 -0.45593999997E+02  0.45594000000E+02  0.51100000000E-03 0. -1.
    9900012    2    1    2    0    0 -0.13659431860E+02 -0.40428939795E+02 -0.79084748538E+01  0.47787271594E+02  0.20000002505E+02 0.  0.
        -12    1    1    2    0    0  0.13659431860E+02  0.40428939795E+02  0.79084748538E+01  0.43400728406E+02  0.00000000000E+00 0.  1.
         11    1    3    3    0    0 -0.54450843703E+01 -0.33193954512E+02 -0.10516779665E+02  0.35243300281E+02  0.51100000000E-03 0. -1.
        -11    1    3    3    0    0 -0.61067945177E+01 -0.19818729554E+01  0.24791864201E+01  0.68823778783E+01  0.51100000000E-03 0.  1.
        -12    1    3    3    0    0 -0.21075529725E+01 -0.52531123273E+01  0.12911839100E+00  0.56615934342E+01  0.00000000000E+00 0.  1.
</event>
<event>
 7    1  0.2700100E-010  0.4778727E+02  0.7816164E-02  0.1312668E+00
        -11   -1    0    0    0    0  0.00000000000E+00  0.00000000000E+00  0.45593999997E+02  0.45594000000E+02  0.51100000000E-03 0.  1.
         11   -1    0    0    0    0 -0.00000000000E+00 -0.00000000000E+00 -0.45593999997E+02  0.45594000000E+02  0.51100000000E-03 0. -1.
    9900012    2    1    2    0    0  0.11541980957E+02 -0.11114368976E+02 -0.40334557291E+02  0.47787273808E+02  0.20000012601E+02 0.  0.
        -12    1    1    2    0    0 -0.11541980957E+02  0.11114368976E+02  0.40334557291E+02  0.43400726192E+02  0.00000000000E+00 0.  1.
         11    1    3    3    0    0  0.14321192456E+01 -0.73833701103E+01 -0.32986365634E+02  0.33832904660E+02  0.51100000000E-03 0. -1.
        -11    1    3    3    0    0  0.67624240804E+01 -0.56019217914E+00 -0.24165713350E+01  0.72030557404E+01  0.51100000000E-03 0.  1.
         12    1    3    3    0    0  0.33474376307E+01 -0.31708066866E+01 -0.49316203212E+01  0.67513134076E+01  0.00000000000E+00 0. -1.
</event>
<event>
 7    1  0.2700100E-010  0.4778726E+02  0.7816164E-02  0.1312668E+00
        -11   -1    0    0    0    0  0.00000000000E+00  0.00000000000E+00  0.45593999997E+02  0.45594000000E+02  0.51100000000E-03 0.  1.
         11   -1    0    0    0    0 -0.00000000000E+00 -0.00000000000E+00 -0.45593999997E+02  0.45594000000E+02  0.51100000000E-03 0. -1.
    9900012    2    1    2    0    0  0.16719967970E+02 -0.13285790476E+02 -0.37782991578E+02  0.47787262563E+02  0.19999961331E+02 0.  0.
        -12    1    1    2    0    0 -0.16719967970E+02  0.13285790476E+02  0.37782991578E+02  0.43400737437E+02  0.00000000000E+00 0.  1.
         11    1    3    3    0    0  0.12673989982E+02 -0.14953959777E+02 -0.35472604893E+02  0.40528466949E+02  0.51100000000E-03 0. -1.
        -11    1    3    3    0    0 -0.47575291752E+00  0.20429245937E+01 -0.16604403053E+01  0.26752465312E+01  0.51100000000E-03 0.  1.
         12    1    3    3    0    0  0.45217309047E+01 -0.37475529286E+00 -0.64994638019E+00  0.45835490835E+01  0.00000000000E+00 0. -1.
</event>
<event>
 7    1  0.2700100E-010  0.4778727E+02  0.7816164E-02  0.1312668E+00
        -11   -1    0    0    0    0  0.00000000000E+00  0.00000000000E+00  0.45593999997E+02  0.45594000000E+02  0.51100000000E-03 0.  1.
         11   -1    0    0    0    0 -0.00000000000E+00 -0.00000000000E+00 -0.45593999997E+02  0.45594000000E+02  0.51100000000E-03 0. -1.
    9900012    2    1    2    0    0 -0.97666420100E+01 -0.35318561094E+01 -0.42139791175E+02  0.47787270697E+02  0.19999998416E+02 0.  0.
        -12    1    1    2    0    0  0.97666420100E+01  0.35318561094E+01  0.42139791175E+02  0.43400729303E+02  0.00000000000E+00 0.  1.
         11    1    3    3    0    0 -0.12164004433E+02  0.54693667550E+00 -0.19819587127E+02  0.23261087200E+02  0.51100000000E-03 0. -1.
        -11    1    3    3    0    0  0.33873920922E+01  0.20145044424E+01 -0.75207271226E+01  0.84908179847E+01  0.51100000000E-03 0.  1.
         12    1    3    3    0    0 -0.99002966917E+00 -0.60932972272E+01 -0.14799476926E+02  0.16035365513E+02  0.00000000000E+00 0. -1.
</event>
<event>
 7    1  0.2700100E-010  0.4778727E+02  0.7816164E-02  0.1312668E+00
        -11   -1    0    0    0    0  0.00000000000E+00  0.00000000000E+00  0.45593999997E+02  0.45594000000E+02  0.51100000000E-03 0.  1.
         11   -1    0    0    0    0 -0.00000000000E+00 -0.00000000000E+00 -0.45593999997E+02  0.45594000000E+02  0.51100000000E-03 0. -1.
    9900012    2    1    2    0    0 -0.42751671357E+02  0.38971325116E+01  0.63820312535E+01  0.47787269954E+02  0.19999995029E+02 0.  0.
        -12    1    1    2    0    0  0.42751671357E+02 -0.38971325116E+01 -0.63820312535E+01  0.43400730046E+02  0.00000000000E+00 0.  1.
         11    1    3    3    0    0 -0.30328620549E+02  0.90306695573E+01  0.42443160413E+01  0.31927925645E+02  0.51100000000E-03 0. -1.
        -11    1    3    3    0    0 -0.12178177972E+02 -0.55310379848E+01 -0.29860084981E+00  0.13378698092E+02  0.51100000000E-03 0.  1.
         12    1    3    3    0    0 -0.24487283557E+00  0.39750093914E+00  0.24363160619E+01  0.24806462174E+01  0.00000000000E+00 0. -1.
</event>
<event>
 7    1  0.2700100E-010  0.4778727E+02  0.7816164E-02  0.1312668E+00
        -11   -1    0    0    0    0  0.00000000000E+00  0.00000000000E+00  0.45593999997E+02  0.45594000000E+02  0.51100000000E-03 0.  1.
         11   -1    0    0    0    0 -0.00000000000E+00 -0.00000000000E+00 -0.45593999997E+02  0.45594000000E+02  0.51100000000E-03 0. -1.
    9900012    2    1    2    0    0 -0.25537151420E+02 -0.80552857266E+01 -0.34155372650E+02  0.47787271761E+02  0.20000003268E+02 0.  0.
        -12    1    1    2    0    0  0.25537151420E+02  0.80552857266E+01  0.34155372650E+02  0.43400728239E+02  0.00000000000E+00 0.  1.
         11    1    3    3    0    0 -0.11037404976E+02 -0.10739432121E+02 -0.17167395536E+02  0.23062505949E+02  0.51100000000E-03 0. -1.
        -11    1    3    3    0    0 -0.59003901157E+01  0.58907908641E+01 -0.10850574765E+02  0.13683968486E+02  0.51100000000E-03 0.  1.
         12    1    3    3    0    0 -0.85993563288E+01 -0.32066444698E+01 -0.61374023484E+01  0.11040797327E+02  0.00000000000E+00 0. -1.
</event>
<event>
 7    1  0.2700100E-010  0.4778727E+02  0.7816164E-02  0.1312668E+00
        -11   -1    0    0    0    0  0.00000000000E+00  0.00000000000E+00  0.45593999997E+02  0.45594000000E+02  0.51100000000E-03 0. -1.
         11   -1    0    0    0    0 -0.00000000000E+00 -0.00000000000E+00 -0.45593999997E+02  0.45594000000E+02  0.51100000000E-03 0.  1.
    9900012    2    1    2    0    0 -0.17781108978E+02 -0.36248240675E+02  0.15922324038E+02  0.47787271996E+02  0.20000004337E+02 0.  0.
        -12    1    1    2    0    0  0.17781108978E+02  0.36248240675E+02 -0.15922324038E+02  0.43400728004E+02  0.00000000000E+00 0.  1.
         11    1    3    3    0    0 -0.41048078233E+01 -0.88603330539E+01  0.80944592727E+01  0.12683659577E+02  0.51100000000E-03 0. -1.
        -11    1    3    3    0    0 -0.10675796262E+02 -0.18445066857E+02 -0.20927918632E+01  0.21414315194E+02  0.51100000000E-03 0.  1.
        -12    1    3    3    0    0 -0.30005048924E+01 -0.89428407639E+01  0.99206566288E+01  0.13689297224E+02  0.00000000000E+00 0.  1.
</event>
<event>
 7    1  0.2700100E-010  0.4778727E+02  0.7816164E-02  0.1312668E+00
        -11   -1    0    0    0    0  0.00000000000E+00  0.00000000000E+00  0.45593999997E+02  0.45594000000E+02  0.51100000000E-03 0.  1.
         11   -1    0    0    0    0 -0.00000000000E+00 -0.00000000000E+00 -0.45593999997E+02  0.45594000000E+02  0.51100000000E-03 0. -1.
    9900012    2    1    2    0    0  0.17178251895E+02 -0.11970321055E+02 -0.38016342270E+02  0.47787271851E+02  0.20000003676E+02 0.  0.
        -12    1    1    2    0    0 -0.17178251895E+02  0.11970321055E+02  0.38016342270E+02  0.43400728149E+02  0.00000000000E+00 0.  1.
         11    1    3    3    0    0  0.84610703856E+01 -0.12202148346E+02 -0.31583630067E+02  0.34899968836E+02  0.51100000000E-03 0. -1.
        -11    1    3    3    0    0  0.82563866225E+01  0.25227918524E+01 -0.59930044937E+01  0.10509448221E+02  0.51100000000E-03 0.  1.
        -12    1    3    3    0    0  0.46079488687E+00 -0.22909645609E+01 -0.43970770954E+00  0.23778547930E+01  0.00000000000E+00 0.  1.
</event>
<event>
 7    1  0.2700100E-010  0.4778727E+02  0.7816164E-02  0.1312668E+00
        -11   -1    0    0    0    0  0.00000000000E+00  0.00000000000E+00  0.45593999997E+02  0.45594000000E+02  0.51100000000E-03 0.  1.
         11   -1    0    0    0    0 -0.00000000000E+00 -0.00000000000E+00 -0.45593999997E+02  0.45594000000E+02  0.51100000000E-03 0. -1.
    9900012    2    1    2    0    0 -0.24116611600E+01  0.17592928272E+02 -0.39601720463E+02  0.47787268458E+02  0.19999988209E+02 0.  0.
        -12    1    1    2    0    0  0.24116611600E+01 -0.17592928272E+02  0.39601720463E+02  0.43400731542E+02  0.00000000000E+00 0.  1.
         11    1    3    3    0    0 -0.14829443730E+01  0.27357126559E+01 -0.90714745855E+01  0.95903544859E+01  0.51100000000E-03 0. -1.
        -11    1    3    3    0    0 -0.50031288634E+01  0.30966562388E+01 -0.76402781433E+00  0.59333225976E+01  0.51100000000E-03 0.  1.
        -12    1    3    3    0    0  0.40744120764E+01  0.11760559377E+02 -0.29766218063E+02  0.32263591375E+02  0.00000000000E+00 0.  1.
</event>
<event>
 7    1  0.2700100E-010  0.4778727E+02  0.7816164E-02  0.1312668E+00
        -11   -1    0    0    0    0  0.00000000000E+00  0.00000000000E+00  0.45593999997E+02  0.45594000000E+02  0.51100000000E-03 0.  1.
         11   -1    0    0    0    0 -0.00000000000E+00 -0.00000000000E+00 -0.45593999997E+02  0.45594000000E+02  0.51100000000E-03 0. -1.
    9900012    2    1    2    0    0 -0.16430334967E+02 -0.20539389402E+01 -0.40117938601E+02  0.47787267635E+02  0.19999984453E+02 0.  0.
        -12    1    1    2    0    0  0.16430334967E+02  0.20539389402E+01  0.40117938601E+02  0.43400732365E+02  0.00000000000E+00 0.  1.
         11    1    3    3    0    0 -0.71936137966E+01  0.29784347672E+00 -0.20108573429E+02  0.21358640308E+02  0.51100000000E-03 0. -1.
        -11    1    3    3    0    0 -0.85273130269E+01 -0.22526312664E+00 -0.26605307703E+01  0.89355601490E+01  0.51100000000E-03 0.  1.
        -12    1    3    3    0    0 -0.70940814338E+00 -0.21265192903E+01 -0.17348834401E+02  0.17493067178E+02  0.00000000000E+00 0.  1.
</event>
<event>
 7    1  0.2700100E-010  0.4778727E+02  0.7816164E-02  0.1312668E+00
        -11   -1    0    0    0    0  0.00000000000E+00  0.00000000000E+00  0.45593999997E+02  0.45594000000E+02  0.51100000000E-03 0.  1.
         11   -1    0    0    0    0 -0.00000000000E+00 -0.00000000000E+00 -0.45593999997E+02  0.45594000000E+02  0.51100000000E-03 0. -1.
    9900012    2    1    2    0    0  0.26304427276E+02  0.46139793198E+00 -0.34517927878E+02  0.47787272732E+02  0.20000007695E+02 0.  0.
        -12    1    1    2    0    0 -0.26304427276E+02 -0.46139793198E+00  0.34517927878E+02  0.43400727268E+02  0.00000000000E+00 0.  1.
         11    1    3    3    0    0  0.69208386346E+01  0.20793600653E+01 -0.46665677338E-01  0.72266121824E+01  0.51100000000E-03 0. -1.
        -11    1    3    3    0    0  0.14349064172E+01  0.14280492672E+01 -0.91673488457E+01  0.93882142208E+01  0.51100000000E-03 0.  1.
         12    1    3    3    0    0  0.17948682224E+02 -0.30460114006E+01 -0.25303913355E+02  0.31172446329E+02  0.00000000000E+00 0. -1.
</event>
<event>
 7    1  0.2700100E-010  0.4778727E+02  0.7816164E-02  0.1312668E+00
        -11   -1    0    0    0    0  0.00000000000E+00  0.00000000000E+00  0.45593999997E+02  0.45594000000E+02  0.51100000000E-03 0.  1.
         11   -1    0    0    0    0 -0.00000000000E+00 -0.00000000000E+00 -0.45593999997E+02  0.45594000000E+02  0.51100000000E-03 0. -1.
    9900012    2    1    2    0    0  0.38169127245E+02  0.99220168915E+01 -0.18118895358E+02  0.47787273476E+02  0.20000011084E+02 0.  0.
        -12    1    1    2    0    0 -0.38169127245E+02 -0.99220168915E+01  0.18118895358E+02  0.43400726524E+02  0.00000000000E+00 0.  1.
         11    1    3    3    0    0  0.34382107790E+02  0.11396746620E+02 -0.12844003884E+02  0.38431544409E+02  0.51100000000E-03 0. -1.
        -11    1    3    3    0    0  0.13220482889E+01 -0.31559539424E+01 -0.14929095214E+00  0.34249299284E+01  0.51100000000E-03 0.  1.
        -12    1    3    3    0    0  0.24649711659E+01  0.16812242135E+01 -0.51256005219E+01  0.59307991379E+01  0.00000000000E+00 0.  1.
</event>
<event>
 7    1  0.2700100E-010  0.4778726E+02  0.7816164E-02  0.1312668E+00
        -11   -1    0    0    0    0  0.00000000000E+00  0.00000000000E+00  0.45593999997E+02  0.45594000000E+02  0.51100000000E-03 0.  1.
         11   -1    0    0    0    0 -0.00000000000E+00 -0.00000000000E+00 -0.45593999997E+02  0.45594000000E+02  0.51100000000E-03 0. -1.
    9900012    2    1    2    0    0  0.26688781114E+02 -0.88192836359E+01 -0.33068913188E+02  0.47787264746E+02  0.19999971282E+02 0.  0.
        -12    1    1    2    0    0 -0.26688781114E+02  0.88192836359E+01  0.33068913188E+02  0.43400735254E+02  0.00000000000E+00 0.  1.
         11    1    3    3    0    0  0.18965156476E+02 -0.11725234121E+02 -0.15786556930E+02  0.27319839958E+02  0.51100000000E-03 0. -1.
        -11    1    3    3    0    0  0.36870242131E+01  0.38930566587E+01 -0.14517750516E+02  0.15476275973E+02  0.51100000000E-03 0.  1.
        -12    1    3    3    0    0  0.40366004243E+01 -0.98710617411E+00 -0.27646057419E+01  0.49911488149E+01  0.00000000000E+00 0.  1.
</event>
<event>
 7    1  0.2700100E-010  0.4778727E+02  0.7816164E-02  0.1312668E+00
        -11   -1    0    0    0    0  0.00000000000E+00  0.00000000000E+00  0.45593999997E+02  0.45594000000E+02  0.51100000000E-03 0.  1.
         11   -1    0    0    0    0 -0.00000000000E+00 -0.00000000000E+00 -0.45593999997E+02  0.45594000000E+02  0.51100000000E-03 0. -1.
    9900012    2    1    2    0    0 -0.99641431629E+01  0.16365169011E+02 -0.38942525868E+02  0.47787271588E+02  0.20000002477E+02 0.  0.
        -12    1    1    2    0    0  0.99641431629E+01 -0.16365169011E+02  0.38942525868E+02  0.43400728412E+02  0.00000000000E+00 0.  1.
         11    1    3    3    0    0  0.10147093010E+00  0.42787649878E+01 -0.32666607770E+01  0.53841618720E+01  0.51100000000E-03 0. -1.
        -11    1    3    3    0    0  0.14582889322E+01  0.55467202904E+01 -0.24212131297E+02  0.24882122393E+02  0.51100000000E-03 0.  1.
        -12    1    3    3    0    0 -0.11523903025E+02  0.65396837325E+01 -0.11463733794E+02  0.17520987323E+02  0.00000000000E+00 0.  1.
</event>
<event>
 7    1  0.2700100E-010  0.4778727E+02  0.7816164E-02  0.1312668E+00
        -11   -1    0    0    0    0  0.00000000000E+00  0.00000000000E+00  0.45593999997E+02  0.45594000000E+02  0.51100000000E-03 0.  1.
         11   -1    0    0    0    0 -0.00000000000E+00 -0.00000000000E+00 -0.45593999997E+02  0.45594000000E+02  0.51100000000E-03 0. -1.
    9900012    2    1    2    0    0  0.11704223824E+02 -0.10531119845E+02 -0.40444157644E+02  0.47787271573E+02  0.20000002408E+02 0.  0.
        -12    1    1    2    0    0 -0.11704223824E+02  0.10531119845E+02  0.40444157644E+02  0.43400728427E+02  0.00000000000E+00 0.  1.
         11    1    3    3    0    0  0.37706675894E+01 -0.14589835542E+02 -0.25344344990E+02  0.29485878967E+02  0.51100000000E-03 0. -1.
        -11    1    3    3    0    0  0.62852017429E+01  0.85081302549E+00 -0.11877962849E+02  0.13465275543E+02  0.51100000000E-03 0.  1.
         12    1    3    3    0    0  0.16483544919E+01  0.32079026713E+01 -0.32218498046E+01  0.48361170626E+01  0.00000000000E+00 0. -1.
</event>
<event>
 7    1  0.2700100E-010  0.4778727E+02  0.7816164E-02  0.1312668E+00
        -11   -1    0    0    0    0  0.00000000000E+00  0.00000000000E+00  0.45593999997E+02  0.45594000000E+02  0.51100000000E-03 0.  1.
         11   -1    0    0    0    0 -0.00000000000E+00 -0.00000000000E+00 -0.45593999997E+02  0.45594000000E+02  0.51100000000E-03 0. -1.
    9900012    2    1    2    0    0 -0.17424031370E+02  0.45937204198E+01 -0.39483213024E+02  0.47787271351E+02  0.20000001400E+02 0.  0.
        -12    1    1    2    0    0  0.17424031370E+02 -0.45937204198E+01  0.39483213024E+02  0.43400728649E+02  0.00000000000E+00 0.  1.
         11    1    3    3    0    0 -0.16657624358E+02  0.69860866945E+01 -0.33135927531E+02  0.37739522389E+02  0.51100000000E-03 0. -1.
        -11    1    3    3    0    0  0.10203704464E+01  0.24293727764E+01 -0.24168423740E+01  0.35754909113E+01  0.51100000000E-03 0.  1.
         12    1    3    3    0    0 -0.17867774592E+01 -0.48217390511E+01 -0.39304431191E+01  0.64722580509E+01  0.00000000000E+00 0. -1.
</event>
<event>
 7    1  0.2700100E-010  0.4778727E+02  0.7816164E-02  0.1312668E+00
        -11   -1    0    0    0    0  0.00000000000E+00  0.00000000000E+00  0.45593999997E+02  0.45594000000E+02  0.51100000000E-03 0.  1.
         11   -1    0    0    0    0 -0.00000000000E+00 -0.00000000000E+00 -0.45593999997E+02  0.45594000000E+02  0.51100000000E-03 0. -1.
    9900012    2    1    2    0    0 -0.14574382335E+02  0.11893495405E+02 -0.39112089949E+02  0.47787269204E+02  0.19999991609E+02 0.  0.
        -12    1    1    2    0    0  0.14574382335E+02 -0.11893495405E+02  0.39112089949E+02  0.43400730796E+02  0.00000000000E+00 0.  1.
         11    1    3    3    0    0 -0.49584834710E+01  0.92919026428E+00 -0.27255005124E+02  0.27717959114E+02  0.51100000000E-03 0. -1.
        -11    1    3    3    0    0 -0.10548697022E+02  0.10359784599E+02 -0.11865707450E+02  0.18957720310E+02  0.51100000000E-03 0.  1.
        -12    1    3    3    0    0  0.93279815766E+00  0.60452054198E+00  0.86226249935E-02  0.11115897797E+01  0.00000000000E+00 0.  1.
</event>
<event>
 7    1  0.2700100E-010  0.4778727E+02  0.7816164E-02  0.1312668E+00
        -11   -1    0    0    0    0  0.00000000000E+00  0.00000000000E+00  0.45593999997E+02  0.45594000000E+02  0.51100000000E-03 0.  1.
         11   -1    0    0    0    0 -0.00000000000E+00 -0.00000000000E+00 -0.45593999997E+02  0.45594000000E+02  0.51100000000E-03 0. -1.
    9900012    2    1    2    0    0 -0.15808145764E+02  0.15598970402E+02 -0.37288042680E+02  0.47787268704E+02  0.19999989331E+02 0.  0.
        -12    1    1    2    0    0  0.15808145764E+02 -0.15598970402E+02  0.37288042680E+02  0.43400731296E+02  0.00000000000E+00 0.  1.
         11    1    3    3    0    0  0.10513784427E+00 -0.18678043295E+00 -0.11836295212E+02  0.11838235743E+02  0.51100000000E-03 0. -1.
        -11    1    3    3    0    0 -0.80147667415E+01  0.15464632058E+02 -0.18670775464E+02  0.25534078940E+02  0.51100000000E-03 0.  1.
        -12    1    3    3    0    0 -0.78985168665E+01  0.32111877669E+00 -0.67809720037E+01  0.10414954022E+02  0.00000000000E+00 0.  1.
</event>
<event>
 7    1  0.2700100E-010  0.4778727E+02  0.7816164E-02  0.1312668E+00
        -11   -1    0    0    0    0  0.00000000000E+00  0.00000000000E+00  0.45593999997E+02  0.45594000000E+02  0.51100000000E-03 0.  1.
         11   -1    0    0    0    0 -0.00000000000E+00 -0.00000000000E+00 -0.45593999997E+02  0.45594000000E+02  0.51100000000E-03 0. -1.
    9900012    2    1    2    0    0  0.31867953967E+02 -0.27970808169E+02 -0.92569184850E+01  0.47787272592E+02  0.20000007057E+02 0.  0.
        -12    1    1    2    0    0 -0.31867953967E+02  0.27970808169E+02  0.92569184850E+01  0.43400727408E+02  0.00000000000E+00 0.  1.
         11    1    3    3    0    0  0.12091924820E+02 -0.74806605218E+01 -0.11465861621E+02  0.18265839994E+02  0.51100000000E-03 0. -1.
        -11    1    3    3    0    0  0.18368557859E+02 -0.16272319594E+02  0.37311260599E+01  0.24821635819E+02  0.51100000000E-03 0.  1.
         12    1    3    3    0    0  0.14074712876E+01 -0.42178280538E+01 -0.15221829235E+01  0.46997967796E+01  0.00000000000E+00 0. -1.
</event>
<event>
 7    1  0.2700100E-010  0.4778727E+02  0.7816164E-02  0.1312668E+00
        -11   -1    0    0    0    0  0.00000000000E+00  0.00000000000E+00  0.45593999997E+02  0.45594000000E+02  0.51100000000E-03 0. -1.
         11   -1    0    0    0    0 -0.00000000000E+00 -0.00000000000E+00 -0.45593999997E+02  0.45594000000E+02  0.51100000000E-03 0.  1.
    9900012    2    1    2    0    0  0.38219134142E+02 -0.14833199172E+02  0.14244202812E+02  0.47787270444E+02  0.19999997261E+02 0.  0.
        -12    1    1    2    0    0 -0.38219134142E+02  0.14833199172E+02 -0.14244202812E+02  0.43400729556E+02  0.00000000000E+00 0.  1.
         11    1    3    3    0    0  0.15336919349E+01 -0.20324867667E+01 -0.11039667688E+01  0.27752398627E+01  0.51100000000E-03 0. -1.
        -11    1    3    3    0    0  0.13169644452E+01  0.19275230818E+01 -0.18865688736E+01  0.30014801276E+01  0.51100000000E-03 0.  1.
        -12    1    3    3    0    0  0.35368477762E+02 -0.14728235487E+02  0.17234738454E+02  0.42010550453E+02  0.00000000000E+00 0.  1.
</event>
<event>
 7    1  0.2700100E-010  0.4778727E+02  0.7816164E-02  0.1312668E+00
        -11   -1    0    0    0    0  0.00000000000E+00  0.00000000000E+00  0.45593999997E+02  0.45594000000E+02  0.51100000000E-03 0.  1.
         11   -1    0    0    0    0 -0.00000000000E+00 -0.00000000000E+00 -0.45593999997E+02  0.45594000000E+02  0.51100000000E-03 0. -1.
    9900012    2    1    2    0    0 -0.84843690351E+01 -0.63611658245E+01 -0.42085324175E+02  0.47787268907E+02  0.19999990253E+02 0.  0.
        -12    1    1    2    0    0  0.84843690351E+01  0.63611658245E+01  0.42085324175E+02  0.43400731093E+02  0.00000000000E+00 0.  1.
         11    1    3    3    0    0 -0.74122883945E+01 -0.15258749381E+00 -0.55550223967E+01  0.92641014823E+01  0.51100000000E-03 0. -1.
        -11    1    3    3    0    0 -0.55161001072E+01 -0.20122147948E+01 -0.14069263552E+02  0.15245345058E+02  0.51100000000E-03 0.  1.
         12    1    3    3    0    0  0.44440194666E+01 -0.41963635359E+01 -0.22461038225E+02  0.23277822366E+02  0.00000000000E+00 0. -1.
</event>
<event>
 7    1  0.2700100E-010  0.4778726E+02  0.7816164E-02  0.1312668E+00
        -11   -1    0    0    0    0  0.00000000000E+00  0.00000000000E+00  0.45593999997E+02  0.45594000000E+02  0.51100000000E-03 0.  1.
         11   -1    0    0    0    0 -0.00000000000E+00 -0.00000000000E+00 -0.45593999997E+02  0.45594000000E+02  0.51100000000E-03 0. -1.
    9900012    2    1    2    0    0  0.28429682633E+02  0.19140952384E+02 -0.26627077802E+02  0.47787260547E+02  0.19999952138E+02 0.  0.
        -12    1    1    2    0    0 -0.28429682633E+02 -0.19140952384E+02  0.26627077802E+02  0.43400739453E+02  0.00000000000E+00 0.  1.
         11    1    3    3    0    0  0.17789681255E+02  0.35870197816E+01 -0.88696825101E+01  0.20199275684E+02  0.51100000000E-03 0. -1.
        -11    1    3    3    0    0  0.35928165740E+01 -0.19376684674E+00 -0.15536704085E+01  0.39191540573E+01  0.51100000000E-03 0.  1.
         12    1    3    3    0    0  0.70471848040E+01  0.15747699449E+02 -0.16203724883E+02  0.23668830805E+02  0.00000000000E+00 0. -1.
</event>
<event>
 7    1  0.2700100E-010  0.4778727E+02  0.7816164E-02  0.1312668E+00
        -11   -1    0    0    0    0  0.00000000000E+00  0.00000000000E+00  0.45593999997E+02  0.45594000000E+02  0.51100000000E-03 0. -1.
         11   -1    0    0    0    0 -0.00000000000E+00 -0.00000000000E+00 -0.45593999997E+02  0.45594000000E+02  0.51100000000E-03 0.  1.
    9900012    2    1    2    0    0 -0.23493234140E+02  0.33678771838E+02  0.14051040314E+02  0.47787268937E+02  0.19999990391E+02 0.  0.
        -12    1    1    2    0    0  0.23493234140E+02 -0.33678771838E+02 -0.14051040314E+02  0.43400731063E+02  0.00000000000E+00 0.  1.
         11    1    3    3    0    0 -0.14212889872E+01  0.46392539814E+01  0.98839631044E+01  0.11010697834E+02  0.51100000000E-03 0. -1.
        -11    1    3    3    0    0 -0.14496087433E+02  0.18432712764E+02  0.17075746194E+01  0.23512066307E+02  0.51100000000E-03 0.  1.
         12    1    3    3    0    0 -0.75758577192E+01  0.10606805093E+02  0.24595025904E+01  0.13264504795E+02  0.00000000000E+00 0. -1.
</event>
<event>
 7    1  0.2700100E-010  0.4778727E+02  0.7816164E-02  0.1312668E+00
        -11   -1    0    0    0    0  0.00000000000E+00  0.00000000000E+00  0.45593999997E+02  0.45594000000E+02  0.51100000000E-03 0.  1.
         11   -1    0    0    0    0 -0.00000000000E+00 -0.00000000000E+00 -0.45593999997E+02  0.45594000000E+02  0.51100000000E-03 0. -1.
    9900012    2    1    2    0    0  0.25350662850E+02 -0.71330874662E+01 -0.34497626524E+02  0.47787270979E+02  0.19999999702E+02 0.  0.
        -12    1    1    2    0    0 -0.25350662850E+02  0.71330874662E+01  0.34497626524E+02  0.43400729021E+02  0.00000000000E+00 0.  1.
         11    1    3    3    0    0  0.59735966265E+01 -0.16935530311E+01 -0.10287185939E+01  0.62936667160E+01  0.51100000000E-03 0. -1.
        -11    1    3    3    0    0  0.10728555386E+02 -0.52206029120E+00 -0.28325956713E+02  0.30294129325E+02  0.51100000000E-03 0.  1.
        -12    1    3    3    0    0  0.86485108370E+01 -0.49174741439E+01 -0.51429512176E+01  0.11199474938E+02  0.00000000000E+00 0.  1.
</event>
<event>
 7    1  0.2700100E-010  0.4778726E+02  0.7816164E-02  0.1312668E+00
        -11   -1    0    0    0    0  0.00000000000E+00  0.00000000000E+00  0.45593999997E+02  0.45594000000E+02  0.51100000000E-03 0.  1.
         11   -1    0    0    0    0 -0.00000000000E+00 -0.00000000000E+00 -0.45593999997E+02  0.45594000000E+02  0.51100000000E-03 0. -1.
    9900012    2    1    2    0    0 -0.73641883767E+01  0.66049910698E+01 -0.42258333703E+02  0.47787263315E+02  0.19999964758E+02 0.  0.
        -12    1    1    2    0    0  0.73641883767E+01 -0.66049910698E+01  0.42258333703E+02  0.43400736685E+02  0.00000000000E+00 0.  1.
         11    1    3    3    0    0 -0.45394192950E+01 -0.33521573624E+01 -0.36105496490E+01  0.66992055907E+01  0.51100000000E-03 0. -1.
        -11    1    3    3    0    0 -0.42418117064E-01 -0.11553952459E+01 -0.50408594782E+00  0.12612852075E+01  0.51100000000E-03 0.  1.
         12    1    3    3    0    0 -0.27823509646E+01  0.11112543678E+02 -0.38143698106E+02  0.39826772517E+02  0.00000000000E+00 0. -1.
</event>
<event>
 7    1  0.2700100E-010  0.4778727E+02  0.7816164E-02  0.1312668E+00
        -11   -1    0    0    0    0  0.00000000000E+00  0.00000000000E+00  0.45593999997E+02  0.45594000000E+02  0.51100000000E-03 0.  1.
         11   -1    0    0    0    0 -0.00000000000E+00 -0.00000000000E+00 -0.45593999997E+02  0.45594000000E+02  0.51100000000E-03 0. -1.
    9900012    2    1    2    0    0  0.18458111166E+02 -0.39029048359E+02  0.44334059462E+01  0.47787267611E+02  0.19999984347E+02 0.  0.
        -12    1    1    2    0    0 -0.18458111166E+02  0.39029048359E+02 -0.44334059462E+01  0.43400732389E+02  0.00000000000E+00 0.  1.
         11    1    3    3    0    0  0.21956877965E+02 -0.37883641759E+02  0.44840691194E+01  0.44015698098E+02  0.51100000000E-03 0. -1.
        -11    1    3    3    0    0 -0.27417460131E+01 -0.12192505569E+01 -0.15069812951E+00  0.30044056498E+01  0.51100000000E-03 0.  1.
         12    1    3    3    0    0 -0.75702078645E+00  0.73843957490E-01  0.10003495622E+00  0.76716386362E+00  0.00000000000E+00 0. -1.
</event>
<event>
 7    1  0.2700100E-010  0.4778729E+02  0.7816164E-02  0.1312668E+00
        -11   -1    0    0    0    0  0.00000000000E+00  0.00000000000E+00  0.45593999997E+02  0.45594000000E+02  0.51100000000E-03 0.  1.
         11   -1    0    0    0    0 -0.00000000000E+00 -0.00000000000E+00 -0.45593999997E+02  0.45594000000E+02  0.51100000000E-03 0. -1.
    9900012    2    1    2    0    0  0.30559677648E+02 -0.20561113309E+02 -0.22955791991E+02  0.47787289586E+02  0.20000084540E+02 0.  0.
        -12    1    1    2    0    0 -0.30559677648E+02  0.20561113309E+02  0.22955791991E+02  0.43400710414E+02  0.00000000000E+00 0.  1.
         11    1    3    3    0    0  0.28960241394E+01  0.29037559230E+01 -0.11626981929E+01  0.42627012123E+01  0.51100000000E-03 0. -1.
        -11    1    3    3    0    0  0.22301167179E+02 -0.12760290593E+02 -0.15312765760E+02  0.29910664804E+02  0.51100000000E-03 0.  1.
         12    1    3    3    0    0  0.53624863299E+01 -0.10704578639E+02 -0.64803280382E+01  0.13613923570E+02  0.00000000000E+00 0. -1.
</event>
<event>
 7    1  0.2700100E-010  0.4778727E+02  0.7816164E-02  0.1312668E+00
        -11   -1    0    0    0    0  0.00000000000E+00  0.00000000000E+00  0.45593999997E+02  0.45594000000E+02  0.51100000000E-03 0.  1.
         11   -1    0    0    0    0 -0.00000000000E+00 -0.00000000000E+00 -0.45593999997E+02  0.45594000000E+02  0.51100000000E-03 0. -1.
    9900012    2    1    2    0    0  0.13165569386E+02  0.50416885085E+01 -0.41047201417E+02  0.47787267466E+02  0.19999983685E+02 0.  0.
        -12    1    1    2    0    0 -0.13165569386E+02 -0.50416885085E+01  0.41047201417E+02  0.43400732534E+02  0.00000000000E+00 0.  1.
         11    1    3    3    0    0  0.10512353843E+02  0.68813420760E+01 -0.21654093819E+02  0.25035219821E+02  0.51100000000E-03 0. -1.
        -11    1    3    3    0    0  0.14954290166E+01 -0.67068839718E+01 -0.10511963262E+02  0.12558661252E+02  0.51100000000E-03 0.  1.
        -12    1    3    3    0    0  0.11577865267E+01  0.48672304043E+01 -0.88811443354E+01  0.10193386393E+02  0.00000000000E+00 0.  1.
</event>
<event>
 7    1  0.2700100E-010  0.4778727E+02  0.7816164E-02  0.1312668E+00
        -11   -1    0    0    0    0  0.00000000000E+00  0.00000000000E+00  0.45593999997E+02  0.45594000000E+02  0.51100000000E-03 0.  1.
         11   -1    0    0    0    0 -0.00000000000E+00 -0.00000000000E+00 -0.45593999997E+02  0.45594000000E+02  0.51100000000E-03 0. -1.
    9900012    2    1    2    0    0  0.30639560874E+02  0.16899549977E+02 -0.25675786014E+02  0.47787268815E+02  0.19999989835E+02 0.  0.
        -12    1    1    2    0    0 -0.30639560874E+02 -0.16899549977E+02  0.25675786014E+02  0.43400731185E+02  0.00000000000E+00 0.  1.
         11    1    3    3    0    0  0.11421749765E+02  0.39564173274E+01 -0.99352483697E+01  0.15646685470E+02  0.51100000000E-03 0. -1.
        -11    1    3    3    0    0  0.39806473058E+01 -0.36555462288E+01 -0.40700763837E+01  0.67656554180E+01  0.51100000000E-03 0.  1.
        -12    1    3    3    0    0  0.15237163803E+02  0.16598678878E+02 -0.11670461260E+02  0.25374927927E+02  0.00000000000E+00 0.  1.
</event>
<event>
 7    1  0.2700100E-010  0.4778726E+02  0.7816164E-02  0.1312668E+00
        -11   -1    0    0    0    0  0.00000000000E+00  0.00000000000E+00  0.45593999997E+02  0.45594000000E+02  0.51100000000E-03 0. -1.
         11   -1    0    0    0    0 -0.00000000000E+00 -0.00000000000E+00 -0.45593999997E+02  0.45594000000E+02  0.51100000000E-03 0.  1.
    9900012    2    1    2    0    0  0.26733827575E+02  0.25799266009E+02  0.22434887240E+02  0.47787264650E+02  0.19999970847E+02 0.  0.
        -12    1    1    2    0    0 -0.26733827575E+02 -0.25799266009E+02 -0.22434887240E+02  0.43400735350E+02  0.00000000000E+00 0.  1.
         11    1    3    3    0    0  0.36840286301E+01  0.10496793312E+02  0.65844063587E+01  0.12927070207E+02  0.51100000000E-03 0. -1.
        -11    1    3    3    0    0  0.24652796807E+02  0.12244120325E+02  0.13321107298E+02  0.30579907993E+02  0.51100000000E-03 0.  1.
        -12    1    3    3    0    0 -0.16029978619E+01  0.30583523719E+01  0.25293735830E+01  0.42802864505E+01  0.00000000000E+00 0.  1.
</event>
<event>
 7    1  0.2700100E-010  0.4778727E+02  0.7816164E-02  0.1312668E+00
        -11   -1    0    0    0    0  0.00000000000E+00  0.00000000000E+00  0.45593999997E+02  0.45594000000E+02  0.51100000000E-03 0.  1.
         11   -1    0    0    0    0 -0.00000000000E+00 -0.00000000000E+00 -0.45593999997E+02  0.45594000000E+02  0.51100000000E-03 0. -1.
    9900012    2    1    2    0    0  0.63043571777E+01  0.66872942870E+01 -0.42416488102E+02  0.47787270891E+02  0.19999999299E+02 0.  0.
        -12    1    1    2    0    0 -0.63043571777E+01 -0.66872942870E+01  0.42416488102E+02  0.43400729109E+02  0.00000000000E+00 0.  1.
         11    1    3    3    0    0  0.81729568089E+01  0.10398932917E+02 -0.21093348930E+02  0.24897076097E+02  0.51100000000E-03 0. -1.
        -11    1    3    3    0    0  0.12826100004E+01 -0.42363071804E+00 -0.30560889103E+00  0.13849001602E+01  0.51100000000E-03 0.  1.
         12    1    3    3    0    0 -0.31512096317E+01 -0.32880079122E+01 -0.21017530281E+02  0.21505294634E+02  0.00000000000E+00 0. -1.
</event>
<event>
 7    1  0.2700100E-010  0.4778727E+02  0.7816164E-02  0.1312668E+00
        -11   -1    0    0    0    0  0.00000000000E+00  0.00000000000E+00  0.45593999997E+02  0.45594000000E+02  0.51100000000E-03 0.  1.
         11   -1    0    0    0    0 -0.00000000000E+00 -0.00000000000E+00 -0.45593999997E+02  0.45594000000E+02  0.51100000000E-03 0. -1.
    9900012    2    1    2    0    0 -0.35108229405E+02 -0.16484311898E+02  0.19475704109E+02  0.47787270038E+02  0.19999995410E+02 0.  0.
        -12    1    1    2    0    0  0.35108229405E+02  0.16484311898E+02 -0.19475704109E+02  0.43400729962E+02  0.00000000000E+00 0.  1.
         11    1    3    3    0    0 -0.25044513067E+01 -0.33509454611E-01  0.59278494551E+01  0.64352776672E+01  0.51100000000E-03 0. -1.
        -11    1    3    3    0    0 -0.28195611900E+01  0.24230380049E+01  0.48422170373E+00  0.37490678037E+01  0.51100000000E-03 0.  1.
         12    1    3    3    0    0 -0.29784216908E+02 -0.18873840449E+02  0.13063632950E+02  0.37602924567E+02  0.00000000000E+00 0. -1.
</event>
<event>
 7    1  0.2700100E-010  0.4778727E+02  0.7816164E-02  0.1312668E+00
        -11   -1    0    0    0    0  0.00000000000E+00  0.00000000000E+00  0.45593999997E+02  0.45594000000E+02  0.51100000000E-03 0. -1.
         11   -1    0    0    0    0 -0.00000000000E+00 -0.00000000000E+00 -0.45593999997E+02  0.45594000000E+02  0.51100000000E-03 0.  1.
    9900012    2    1    2    0    0  0.23748616105E+02 -0.34967164807E+02 -0.98450027578E+01  0.47787268891E+02  0.19999990182E+02 0.  0.
        -12    1    1    2    0    0 -0.23748616105E+02  0.34967164807E+02  0.98450027578E+01  0.43400731109E+02  0.00000000000E+00 0.  1.
         11    1    3    3    0    0  0.12993258363E+02 -0.25547695256E+02 -0.31972339442E+01  0.28839760764E+02  0.51100000000E-03 0. -1.
        -11    1    3    3    0    0  0.38267191355E+01  0.14211041984E+01  0.68469205264E+00  0.41390965141E+01  0.51100000000E-03 0.  1.
         12    1    3    3    0    0  0.69286386061E+01 -0.10840573749E+02 -0.73324608663E+01  0.14808411613E+02  0.00000000000E+00 0. -1.
</event>
<event>
 7    1  0.2700100E-010  0.4778727E+02  0.7816164E-02  0.1312668E+00
        -11   -1    0    0    0    0  0.00000000000E+00  0.00000000000E+00  0.45593999997E+02  0.45594000000E+02  0.51100000000E-03 0.  1.
         11   -1    0    0    0    0 -0.00000000000E+00 -0.00000000000E+00 -0.45593999997E+02  0.45594000000E+02  0.51100000000E-03 0. -1.
    9900012    2    1    2    0    0 -0.32287088986E+02  0.25612096403E+02 -0.13608371137E+02  0.47787270025E+02  0.19999995351E+02 0.  0.
        -12    1    1    2    0    0  0.32287088986E+02 -0.25612096403E+02  0.13608371137E+02  0.43400729975E+02  0.00000000000E+00 0.  1.
         11    1    3    3    0    0 -0.23754572640E+02  0.24248392997E+02 -0.10485640389E+02  0.35527636269E+02  0.51100000000E-03 0. -1.
        -11    1    3    3    0    0  0.65957141702E+00 -0.15136023730E+01 -0.19523530375E+01  0.25568944526E+01  0.51100000000E-03 0.  1.
        -12    1    3    3    0    0 -0.91920877629E+01  0.28773057794E+01 -0.11703777104E+01  0.97027393026E+01  0.00000000000E+00 0.  1.
</event>
<event>
 7    1  0.2700100E-010  0.4778727E+02  0.7816164E-02  0.1312668E+00
        -11   -1    0    0    0    0  0.00000000000E+00  0.00000000000E+00  0.45593999997E+02  0.45594000000E+02  0.51100000000E-03 0. -1.
         11   -1    0    0    0    0 -0.00000000000E+00 -0.00000000000E+00 -0.45593999997E+02  0.45594000000E+02  0.51100000000E-03 0.  1.
    9900012    2    1    2    0    0 -0.18966019928E+01 -0.24406899391E+02  0.35837537937E+02  0.47787274633E+02  0.20000016361E+02 0.  0.
        -12    1    1    2    0    0  0.18966019928E+01  0.24406899391E+02 -0.35837537937E+02  0.43400725367E+02  0.00000000000E+00 0.  1.
         11    1    3    3    0    0 -0.98685621029E+01 -0.10465100635E+02  0.13569998517E+02  0.19775027416E+02  0.51100000000E-03 0. -1.
        -11    1    3    3    0    0  0.44951357867E+01 -0.44105983034E+01  0.12144288311E+02  0.13680035160E+02  0.51100000000E-03 0.  1.
         12    1    3    3    0    0  0.34768243233E+01 -0.95312004520E+01  0.10123251109E+02  0.14332212057E+02  0.00000000000E+00 0. -1.
</event>
<event>
 7    1  0.2700100E-010  0.4778727E+02  0.7816164E-02  0.1312668E+00
        -11   -1    0    0    0    0  0.00000000000E+00  0.00000000000E+00  0.45593999997E+02  0.45594000000E+02  0.51100000000E-03 0.  1.
         11   -1    0    0    0    0 -0.00000000000E+00 -0.00000000000E+00 -0.45593999997E+02  0.45594000000E+02  0.51100000000E-03 0. -1.
    9900012    2    1    2    0    0  0.25602647103E+02 -0.33647633713E+02  0.97961466559E+01  0.47787270945E+02  0.19999999548E+02 0.  0.
        -12    1    1    2    0    0 -0.25602647103E+02  0.33647633713E+02 -0.97961466559E+01  0.43400729055E+02  0.00000000000E+00 0.  1.
         11    1    3    3    0    0  0.30395238500E+01 -0.14507680283E+02  0.29570174775E+01  0.15114742639E+02  0.51100000000E-03 0. -1.
        -11    1    3    3    0    0  0.12487613548E+02 -0.32330551778E+01  0.46697821092E+01  0.13718600625E+02  0.51100000000E-03 0.  1.
         12    1    3    3    0    0  0.10075509705E+02 -0.15906898252E+02  0.21693470692E+01  0.18953927681E+02  0.00000000000E+00 0. -1.
</event>
<event>
 7    1  0.2700100E-010  0.4778727E+02  0.7816164E-02  0.1312668E+00
        -11   -1    0    0    0    0  0.00000000000E+00  0.00000000000E+00  0.45593999997E+02  0.45594000000E+02  0.51100000000E-03 0. -1.
         11   -1    0    0    0    0 -0.00000000000E+00 -0.00000000000E+00 -0.45593999997E+02  0.45594000000E+02  0.51100000000E-03 0.  1.
    9900012    2    1    2    0    0  0.17605056104E+02  0.35541971495E+02  0.17619688640E+02  0.47787272288E+02  0.20000005669E+02 0.  0.
        -12    1    1    2    0    0 -0.17605056104E+02 -0.35541971495E+02 -0.17619688640E+02  0.43400727712E+02  0.00000000000E+00 0.  1.
         11    1    3    3    0    0  0.94890537475E+01  0.28998137405E+02  0.57705596273E+01  0.31052108989E+02  0.51100000000E-03 0. -1.
        -11    1    3    3    0    0  0.66301909670E+01  0.19714401321E+01  0.59421710348E+01  0.91189585656E+01  0.51100000000E-03 0.  1.
         12    1    3    3    0    0  0.14858113898E+01  0.45723939581E+01  0.59069579774E+01  0.76162047334E+01  0.00000000000E+00 0. -1.
</event>
<event>
 7    1  0.2700100E-010  0.4778727E+02  0.7816164E-02  0.1312668E+00
        -11   -1    0    0    0    0  0.00000000000E+00  0.00000000000E+00  0.45593999997E+02  0.45594000000E+02  0.51100000000E-03 0.  1.
         11   -1    0    0    0    0 -0.00000000000E+00 -0.00000000000E+00 -0.45593999997E+02  0.45594000000E+02  0.51100000000E-03 0. -1.
    9900012    2    1    2    0    0  0.55186980058E+01 -0.61474460056E+01 -0.42607228450E+02  0.47787273782E+02  0.20000012482E+02 0.  0.
        -12    1    1    2    0    0 -0.55186980058E+01  0.61474460056E+01  0.42607228450E+02  0.43400726218E+02  0.00000000000E+00 0.  1.
         11    1    3    3    0    0 -0.31619700197E+01 -0.77772977759E+01 -0.22666810110E+02  0.24171650667E+02  0.51100000000E-03 0. -1.
        -11    1    3    3    0    0  0.10567573964E+02  0.86823749950E+00 -0.16303618105E+02  0.19448275486E+02  0.51100000000E-03 0.  1.
        -12    1    3    3    0    0 -0.18869059381E+01  0.76161427081E+00 -0.36368002346E+01  0.41673476293E+01  0.00000000000E+00 0.  1.
</event>
<event>
 7    1  0.2700100E-010  0.4778727E+02  0.7816164E-02  0.1312668E+00
        -11   -1    0    0    0    0  0.00000000000E+00  0.00000000000E+00  0.45593999997E+02  0.45594000000E+02  0.51100000000E-03 0. -1.
         11   -1    0    0    0    0 -0.00000000000E+00 -0.00000000000E+00 -0.45593999997E+02  0.45594000000E+02  0.51100000000E-03 0.  1.
    9900012    2    1    2    0    0  0.12785934084E+02  0.32620967796E+02 -0.25612807556E+02  0.47787267734E+02  0.19999984905E+02 0.  0.
        -12    1    1    2    0    0 -0.12785934084E+02 -0.32620967796E+02  0.25612807556E+02  0.43400732266E+02  0.00000000000E+00 0.  1.
         11    1    3    3    0    0  0.59374051040E+01  0.96485308762E+01 -0.16271660344E+01  0.11445287109E+02  0.51100000000E-03 0. -1.
        -11    1    3    3    0    0  0.87714353399E+00  0.53688202087E+01 -0.14470748365E+02  0.15459500953E+02  0.51100000000E-03 0.  1.
        -12    1    3    3    0    0  0.59713854464E+01  0.17603616711E+02 -0.95148931565E+01  0.20882479672E+02  0.00000000000E+00 0.  1.
</event>
<event>
 7    1  0.2700100E-010  0.4778727E+02  0.7816164E-02  0.1312668E+00
        -11   -1    0    0    0    0  0.00000000000E+00  0.00000000000E+00  0.45593999997E+02  0.45594000000E+02  0.51100000000E-03 0.  1.
         11   -1    0    0    0    0 -0.00000000000E+00 -0.00000000000E+00 -0.45593999997E+02  0.45594000000E+02  0.51100000000E-03 0. -1.
    9900012    2    1    2    0    0 -0.43271946344E+02  0.33227548822E+01  0.34785448595E+00  0.47787273703E+02  0.20000012120E+02 0.  0.
        -12    1    1    2    0    0  0.43271946344E+02 -0.33227548822E+01 -0.34785448595E+00  0.43400726297E+02  0.00000000000E+00 0.  1.
         11    1    3    3    0    0 -0.27989665905E+02 -0.47043633570E+01 -0.45580552486E+01  0.28745926667E+02  0.51100000000E-03 0. -1.
        -11    1    3    3    0    0 -0.15410417279E+02  0.81948488927E+01  0.55886342766E+01  0.18326738456E+02  0.51100000000E-03 0.  1.
        -12    1    3    3    0    0  0.12813683969E+00 -0.16773065356E+00 -0.68272454203E+00  0.71460857966E+00  0.00000000000E+00 0.  1.
</event>
<event>
 7    1  0.2700100E-010  0.4778726E+02  0.7816164E-02  0.1312668E+00
        -11   -1    0    0    0    0  0.00000000000E+00  0.00000000000E+00  0.45593999997E+02  0.45594000000E+02  0.51100000000E-03 0.  1.
         11   -1    0    0    0    0 -0.00000000000E+00 -0.00000000000E+00 -0.45593999997E+02  0.45594000000E+02  0.51100000000E-03 0. -1.
    9900012    2    1    2    0    0  0.41201107153E+02 -0.13041149075E+02 -0.40026247073E+01  0.47787264933E+02  0.19999972134E+02 0.  0.
        -12    1    1    2    0    0 -0.41201107153E+02  0.13041149075E+02  0.40026247073E+01  0.43400735067E+02  0.00000000000E+00 0.  1.
         11    1    3    3    0    0  0.17969172188E+02 -0.10122056969E+02 -0.64525147412E+01  0.21609769392E+02  0.51100000000E-03 0. -1.
        -11    1    3    3    0    0  0.75013071480E+01 -0.50210341442E+00  0.62936540573E+01  0.98046824743E+01  0.51100000000E-03 0.  1.
        -12    1    3    3    0    0  0.15730627817E+02 -0.24169886914E+01 -0.38437640234E+01  0.16372813067E+02  0.00000000000E+00 0.  1.
</event>
<event>
 7    1  0.2700100E-010  0.4778727E+02  0.7816164E-02  0.1312668E+00
        -11   -1    0    0    0    0  0.00000000000E+00  0.00000000000E+00  0.45593999997E+02  0.45594000000E+02  0.51100000000E-03 0.  1.
         11   -1    0    0    0    0 -0.00000000000E+00 -0.00000000000E+00 -0.45593999997E+02  0.45594000000E+02  0.51100000000E-03 0. -1.
    9900012    2    1    2    0    0 -0.14091777153E+00  0.36766893977E+02 -0.23060766891E+02  0.47787270512E+02  0.19999997570E+02 0.  0.
        -12    1    1    2    0    0  0.14091777153E+00 -0.36766893977E+02  0.23060766891E+02  0.43400729488E+02  0.00000000000E+00 0.  1.
         11    1    3    3    0    0 -0.31034622221E+01  0.75587926483E+01 -0.14144335273E+02  0.16334902651E+02  0.51100000000E-03 0. -1.
        -11    1    3    3    0    0  0.16437818808E+01  0.17396100300E+02 -0.17198928665E+01  0.17558028257E+02  0.51100000000E-03 0.  1.
         12    1    3    3    0    0  0.13187625698E+01  0.11812001029E+02 -0.71965387515E+01  0.13894339603E+02  0.00000000000E+00 0. -1.
</event>
<event>
 7    1  0.2700100E-010  0.4778726E+02  0.7816164E-02  0.1312668E+00
        -11   -1    0    0    0    0  0.00000000000E+00  0.00000000000E+00  0.45593999997E+02  0.45594000000E+02  0.51100000000E-03 0.  1.
         11   -1    0    0    0    0 -0.00000000000E+00 -0.00000000000E+00 -0.45593999997E+02  0.45594000000E+02  0.51100000000E-03 0. -1.
    9900012    2    1    2    0    0  0.10929135528E+02  0.12331389609E+02 -0.40151149883E+02  0.47787262563E+02  0.19999961332E+02 0.  0.
        -12    1    1    2    0    0 -0.10929135528E+02 -0.12331389609E+02  0.40151149883E+02  0.43400737437E+02  0.00000000000E+00 0.  1.
         11    1    3    3    0    0  0.35421278920E+01 -0.21423367769E+01 -0.16719797365E+02  0.17224630650E+02  0.51100000000E-03 0. -1.
        -11    1    3    3    0    0  0.96599836617E+00  0.12828160904E+02 -0.13751794157E+02  0.18831003898E+02  0.51100000000E-03 0.  1.
         12    1    3    3    0    0  0.64210092696E+01  0.16455654822E+01 -0.96795583618E+01  0.11731628015E+02  0.00000000000E+00 0. -1.
</event>
<event>
 7    1  0.2700100E-010  0.4778727E+02  0.7816164E-02  0.1312668E+00
        -11   -1    0    0    0    0  0.00000000000E+00  0.00000000000E+00  0.45593999997E+02  0.45594000000E+02  0.51100000000E-03 0.  1.
         11   -1    0    0    0    0 -0.00000000000E+00 -0.00000000000E+00 -0.45593999997E+02  0.45594000000E+02  0.51100000000E-03 0. -1.
    9900012    2    1    2    0    0 -0.13192938376E+02 -0.29546235664E+02 -0.28923854727E+02  0.47787273771E+02  0.20000012434E+02 0.  0.
        -12    1    1    2    0    0  0.13192938376E+02  0.29546235664E+02  0.28923854727E+02  0.43400726229E+02  0.00000000000E+00 0.  1.
         11    1    3    3    0    0 -0.31782562238E+01 -0.15366033254E+02 -0.89798194204E+01  0.18079088685E+02  0.51100000000E-03 0. -1.
        -11    1    3    3    0    0 -0.95652281446E+01 -0.11187023446E+02 -0.67883126029E+01  0.16208771430E+02  0.51100000000E-03 0.  1.
        -12    1    3    3    0    0 -0.44945400771E+00 -0.29931789648E+01 -0.13155722703E+02  0.13499413657E+02  0.00000000000E+00 0.  1.
</event>
<event>
 7    1  0.2700100E-010  0.4778727E+02  0.7816164E-02  0.1312668E+00
        -11   -1    0    0    0    0  0.00000000000E+00  0.00000000000E+00  0.45593999997E+02  0.45594000000E+02  0.51100000000E-03 0.  1.
         11   -1    0    0    0    0 -0.00000000000E+00 -0.00000000000E+00 -0.45593999997E+02  0.45594000000E+02  0.51100000000E-03 0. -1.
    9900012    2    1    2    0    0  0.19400967341E+02 -0.51245111080E+01 -0.38483309752E+02  0.47787271005E+02  0.19999999819E+02 0.  0.
        -12    1    1    2    0    0 -0.19400967341E+02  0.51245111080E+01  0.38483309752E+02  0.43400728995E+02  0.00000000000E+00 0.  1.
         11    1    3    3    0    0  0.11637620598E+02 -0.87259046154E+01 -0.27999794845E+02  0.31552561483E+02  0.51100000000E-03 0. -1.
        -11    1    3    3    0    0  0.93829791837E+01  0.39088519576E+01 -0.68860568673E+01  0.12277507949E+02  0.51100000000E-03 0.  1.
        -12    1    3    3    0    0 -0.16196324403E+01 -0.30745845021E+00 -0.35974580398E+01  0.39572015729E+01  0.00000000000E+00 0.  1.
</event>
<event>
 7    1  0.2700100E-010  0.4778727E+02  0.7816164E-02  0.1312668E+00
        -11   -1    0    0    0    0  0.00000000000E+00  0.00000000000E+00  0.45593999997E+02  0.45594000000E+02  0.51100000000E-03 0. -1.
         11   -1    0    0    0    0 -0.00000000000E+00 -0.00000000000E+00 -0.45593999997E+02  0.45594000000E+02  0.51100000000E-03 0.  1.
    9900012    2    1    2    0    0  0.21728424858E+02  0.29737012345E+02  0.22961031339E+02  0.47787270626E+02  0.19999998093E+02 0.  0.
        -12    1    1    2    0    0 -0.21728424858E+02 -0.29737012345E+02 -0.22961031339E+02  0.43400729374E+02  0.00000000000E+00 0.  1.
         11    1    3    3    0    0  0.14865010382E+02  0.92772914667E+01  0.17026022862E+02  0.24431989795E+02  0.51100000000E-03 0. -1.
        -11    1    3    3    0    0  0.49604411779E+01  0.19552844983E+02  0.41537721749E+01  0.20595473948E+02  0.51100000000E-03 0.  1.
        -12    1    3    3    0    0  0.19029732990E+01  0.90687589527E+00  0.17812363024E+01  0.27598068829E+01  0.00000000000E+00 0.  1.
</event>
<event>
 7    1  0.2700100E-010  0.4778727E+02  0.7816164E-02  0.1312668E+00
        -11   -1    0    0    0    0  0.00000000000E+00  0.00000000000E+00  0.45593999997E+02  0.45594000000E+02  0.51100000000E-03 0.  1.
         11   -1    0    0    0    0 -0.00000000000E+00 -0.00000000000E+00 -0.45593999997E+02  0.45594000000E+02  0.51100000000E-03 0. -1.
    9900012    2    1    2    0    0  0.46387984007E+01 -0.12925161649E+02 -0.41170925117E+02  0.47787270406E+02  0.19999997091E+02 0.  0.
        -12    1    1    2    0    0 -0.46387984007E+01  0.12925161649E+02  0.41170925117E+02  0.43400729594E+02  0.00000000000E+00 0.  1.
         11    1    3    3    0    0  0.30953197154E+01  0.10105656589E+01 -0.27685348432E+02  0.27876168408E+02  0.51100000000E-03 0. -1.
        -11    1    3    3    0    0 -0.27685347360E+00 -0.65601149295E+01 -0.37470586784E+01  0.75599077200E+01  0.51100000000E-03 0.  1.
        -12    1    3    3    0    0  0.18203321590E+01 -0.73756123782E+01 -0.97385180072E+01  0.12351194278E+02  0.00000000000E+00 0.  1.
</event>
<event>
 7    1  0.2700100E-010  0.4778729E+02  0.7816164E-02  0.1312668E+00
        -11   -1    0    0    0    0  0.00000000000E+00  0.00000000000E+00  0.45593999997E+02  0.45594000000E+02  0.51100000000E-03 0.  1.
         11   -1    0    0    0    0 -0.00000000000E+00 -0.00000000000E+00 -0.45593999997E+02  0.45594000000E+02  0.51100000000E-03 0. -1.
    9900012    2    1    2    0    0 -0.34739617146E+02  0.14565188186E+02 -0.21555422891E+02  0.47787286153E+02  0.20000068888E+02 0.  0.
        -12    1    1    2    0    0  0.34739617146E+02 -0.14565188186E+02  0.21555422891E+02  0.43400713847E+02  0.00000000000E+00 0.  1.
         11    1    3    3    0    0 -0.12961453564E+02 -0.29736542548E+01 -0.46512227559E+01  0.14088142940E+02  0.51100000000E-03 0. -1.
        -11    1    3    3    0    0 -0.22426583435E+01  0.16093081157E+01  0.82592159844E+00  0.28812385887E+01  0.51100000000E-03 0.  1.
         12    1    3    3    0    0 -0.19535505239E+02  0.15929534325E+02 -0.17730121734E+02  0.30817904625E+02  0.00000000000E+00 0. -1.
</event>
<event>
 7    1  0.2700100E-010  0.4778728E+02  0.7816164E-02  0.1312668E+00
        -11   -1    0    0    0    0  0.00000000000E+00  0.00000000000E+00  0.45593999997E+02  0.45594000000E+02  0.51100000000E-03 0. -1.
         11   -1    0    0    0    0 -0.00000000000E+00 -0.00000000000E+00 -0.45593999997E+02  0.45594000000E+02  0.51100000000E-03 0.  1.
    9900012    2    1    2    0    0 -0.39247024842E+02 -0.18156670779E+02  0.36917432785E+01  0.47787278564E+02  0.20000034287E+02 0.  0.
        -12    1    1    2    0    0  0.39247024842E+02  0.18156670779E+02 -0.36917432785E+01  0.43400721436E+02  0.00000000000E+00 0.  1.
         11    1    3    3    0    0 -0.17731311029E+02 -0.94857899505E+01 -0.14416129687E+01  0.20160799836E+02  0.51100000000E-03 0. -1.
        -11    1    3    3    0    0 -0.12683637698E+02  0.20724093445E+01  0.14930634778E+00  0.12852697709E+02  0.51100000000E-03 0.  1.
        -12    1    3    3    0    0 -0.88320761142E+01 -0.10743290173E+02  0.49840498994E+01  0.14773781020E+02  0.00000000000E+00 0.  1.
</event>
<event>
 7    1  0.2700100E-010  0.4778727E+02  0.7816164E-02  0.1312668E+00
        -11   -1    0    0    0    0  0.00000000000E+00  0.00000000000E+00  0.45593999997E+02  0.45594000000E+02  0.51100000000E-03 0.  1.
         11   -1    0    0    0    0 -0.00000000000E+00 -0.00000000000E+00 -0.45593999997E+02  0.45594000000E+02  0.51100000000E-03 0. -1.
    9900012    2    1    2    0    0  0.18148513052E+02 -0.20818090854E+02 -0.33479273144E+02  0.47787272321E+02  0.20000005822E+02 0.  0.
        -12    1    1    2    0    0 -0.18148513052E+02  0.20818090854E+02  0.33479273144E+02  0.43400727679E+02  0.00000000000E+00 0.  1.
         11    1    3    3    0    0 -0.13659811881E+01 -0.86462304713E+01 -0.15436956668E+02  0.17746065406E+02  0.51100000000E-03 0. -1.
        -11    1    3    3    0    0  0.20004344323E+02 -0.12336207247E+02 -0.17689754906E+02  0.29415696999E+02  0.51100000000E-03 0.  1.
         12    1    3    3    0    0 -0.48985008281E+00  0.16434686430E+00 -0.35256156981E+00  0.62550991674E+00  0.00000000000E+00 0. -1.
</event>
<event>
 7    1  0.2700100E-010  0.4778727E+02  0.7816164E-02  0.1312668E+00
        -11   -1    0    0    0    0  0.00000000000E+00  0.00000000000E+00  0.45593999997E+02  0.45594000000E+02  0.51100000000E-03 0.  1.
         11   -1    0    0    0    0 -0.00000000000E+00 -0.00000000000E+00 -0.45593999997E+02  0.45594000000E+02  0.51100000000E-03 0. -1.
    9900012    2    1    2    0    0 -0.91850092045E+01  0.36875725285E+02  0.20962819802E+02  0.47787270474E+02  0.19999997397E+02 0.  0.
        -12    1    1    2    0    0  0.91850092045E+01 -0.36875725285E+02 -0.20962819802E+02  0.43400729526E+02  0.00000000000E+00 0.  1.
         11    1    3    3    0    0  0.16311664512E+01  0.19683469723E+02  0.14861073718E+02  0.24717426982E+02  0.51100000000E-03 0. -1.
        -11    1    3    3    0    0 -0.86639628820E+01  0.15495362649E+02  0.16335168310E+01  0.17828036738E+02  0.51100000000E-03 0.  1.
         12    1    3    3    0    0 -0.21522127737E+01  0.16968929140E+01  0.44682292528E+01  0.52418067534E+01  0.00000000000E+00 0. -1.
</event>
<event>
 7    1  0.2700100E-010  0.4778726E+02  0.7816164E-02  0.1312668E+00
        -11   -1    0    0    0    0  0.00000000000E+00  0.00000000000E+00  0.45593999997E+02  0.45594000000E+02  0.51100000000E-03 0. -1.
         11   -1    0    0    0    0 -0.00000000000E+00 -0.00000000000E+00 -0.45593999997E+02  0.45594000000E+02  0.51100000000E-03 0.  1.
    9900012    2    1    2    0    0 -0.25540502629E+00 -0.16692665980E+02  0.40061374895E+02  0.47787261668E+02  0.19999957250E+02 0.  0.
        -12    1    1    2    0    0  0.25540502629E+00  0.16692665980E+02 -0.40061374895E+02  0.43400738332E+02  0.00000000000E+00 0.  1.
         11    1    3    3    0    0  0.10297845891E+01  0.32816874335E+01  0.88652787017E+01  0.95091059217E+01  0.51100000000E-03 0. -1.
        -11    1    3    3    0    0  0.33877538181E+01 -0.30420540270E+01  0.53053537635E+01  0.69912622216E+01  0.51100000000E-03 0.  1.
         12    1    3    3    0    0 -0.46729434335E+01 -0.16932299386E+02  0.25890742430E+02  0.31286893525E+02  0.00000000000E+00 0. -1.
</event>
<event>
 7    1  0.2700100E-010  0.4778726E+02  0.7816164E-02  0.1312668E+00
        -11   -1    0    0    0    0  0.00000000000E+00  0.00000000000E+00  0.45593999997E+02  0.45594000000E+02  0.51100000000E-03 0.  1.
         11   -1    0    0    0    0 -0.00000000000E+00 -0.00000000000E+00 -0.45593999997E+02  0.45594000000E+02  0.51100000000E-03 0. -1.
    9900012    2    1    2    0    0 -0.19989132009E+02 -0.36194581076E+02 -0.13191328373E+02  0.47787259891E+02  0.19999949148E+02 0.  0.
        -12    1    1    2    0    0  0.19989132009E+02  0.36194581076E+02  0.13191328373E+02  0.43400740109E+02  0.00000000000E+00 0.  1.
         11    1    3    3    0    0 -0.29942524005E+01 -0.13965285421E+02 -0.58755539943E+01  0.15443991690E+02  0.51100000000E-03 0. -1.
        -11    1    3    3    0    0 -0.88001328898E+01 -0.41652324978E+01  0.27258032982E+01  0.10110465099E+02  0.51100000000E-03 0.  1.
        -12    1    3    3    0    0 -0.81947467187E+01 -0.18064063157E+02 -0.10041577677E+02  0.22232803102E+02  0.00000000000E+00 0.  1.
</event>
<event>
 7    1  0.2700100E-010  0.4778727E+02  0.7816164E-02  0.1312668E+00
        -11   -1    0    0    0    0  0.00000000000E+00  0.00000000000E+00  0.45593999997E+02  0.45594000000E+02  0.51100000000E-03 0.  1.
         11   -1    0    0    0    0 -0.00000000000E+00 -0.00000000000E+00 -0.45593999997E+02  0.45594000000E+02  0.51100000000E-03 0. -1.
    9900012    2    1    2    0    0  0.33787645114E+02  0.23758007265E+02 -0.13325741451E+02  0.47787271242E+02  0.20000000900E+02 0.  0.
        -12    1    1    2    0    0 -0.33787645114E+02 -0.23758007265E+02  0.13325741451E+02  0.43400728758E+02  0.00000000000E+00 0.  1.
         11    1    3    3    0    0  0.57536192973E+01  0.19121182591E+01  0.11333085113E+01  0.61680401829E+01  0.51100000000E-03 0. -1.
        -11    1    3    3    0    0  0.69308943860E+01 -0.12365640072E+01 -0.59218361937E+01  0.91997028050E+01  0.51100000000E-03 0.  1.
        -12    1    3    3    0    0  0.21103131430E+02  0.23082453013E+02 -0.85372137681E+01  0.32419528254E+02  0.00000000000E+00 0.  1.
</event>
<event>
 7    1  0.2792719E-010  0.4778727E+02  0.7816164E-02  0.1312668E+00
        -11   -1    0    0    0    0  0.00000000000E+00  0.00000000000E+00  0.45593999997E+02  0.45594000000E+02  0.51100000000E-03 0. -1.
         11   -1    0    0    0    0 -0.00000000000E+00 -0.00000000000E+00 -0.45593999997E+02  0.45594000000E+02  0.51100000000E-03 0.  1.
    9900012    2    1    2    0    0 -0.34434337016E+02  0.95038224161E+01  0.24649076946E+02  0.47787271889E+02  0.20000003853E+02 0.  0.
        -12    1    1    2    0    0  0.34434337016E+02 -0.95038224161E+01 -0.24649076946E+02  0.43400728111E+02  0.00000000000E+00 0.  1.
         11    1    3    3    0    0 -0.23080003839E+02  0.47813379382E+01  0.85164933465E+01  0.25061492950E+02  0.51100000000E-03 0. -1.
        -11    1    3    3    0    0 -0.77608096589E+01 -0.10096822118E+01  0.13213866192E+02  0.15357600227E+02  0.51100000000E-03 0.  1.
        -12    1    3    3    0    0 -0.35935235176E+01  0.57321666897E+01  0.29187174072E+01  0.73681787121E+01  0.00000000000E+00 0.  1.
</event>
<event>
 7    1  0.2700100E-010  0.4778727E+02  0.7816164E-02  0.1312668E+00
        -11   -1    0    0    0    0  0.00000000000E+00  0.00000000000E+00  0.45593999997E+02  0.45594000000E+02  0.51100000000E-03 0. -1.
         11   -1    0    0    0    0 -0.00000000000E+00 -0.00000000000E+00 -0.45593999997E+02  0.45594000000E+02  0.51100000000E-03 0.  1.
    9900012    2    1    2    0    0 -0.55975948324E+01  0.16862969703E+02  0.39597101577E+02  0.47787271107E+02  0.20000000287E+02 0.  0.
        -12    1    1    2    0    0  0.55975948324E+01 -0.16862969703E+02 -0.39597101577E+02  0.43400728893E+02  0.00000000000E+00 0.  1.
         11    1    3    3    0    0 -0.45056615078E+01 -0.12190642861E+01  0.16848638983E+02  0.17483241667E+02  0.51100000000E-03 0. -1.
        -11    1    3    3    0    0 -0.56721569495E-01 -0.90636854098E+00  0.17691152648E+01  0.19885900406E+01  0.51100000000E-03 0.  1.
         12    1    3    3    0    0 -0.10352117551E+01  0.18988402530E+02  0.20979347330E+02  0.28315439400E+02  0.00000000000E+00 0. -1.
</event>
<event>
 7    1  0.2700100E-010  0.4778727E+02  0.7816164E-02  0.1312668E+00
        -11   -1    0    0    0    0  0.00000000000E+00  0.00000000000E+00  0.45593999997E+02  0.45594000000E+02  0.51100000000E-03 0. -1.
         11   -1    0    0    0    0 -0.00000000000E+00 -0.00000000000E+00 -0.45593999997E+02  0.45594000000E+02  0.51100000000E-03 0.  1.
    9900012    2    1    2    0    0 -0.24849460015E+02 -0.26970231057E+02  0.23210646598E+02  0.47787272566E+02  0.20000006938E+02 0.  0.
        -12    1    1    2    0    0  0.24849460015E+02  0.26970231057E+02 -0.23210646598E+02  0.43400727434E+02  0.00000000000E+00 0.  1.
         11    1    3    3    0    0 -0.13757496739E+02 -0.19578958404E+02  0.10878640209E+02  0.26285911469E+02  0.51100000000E-03 0. -1.
        -11    1    3    3    0    0 -0.10165872148E+02 -0.34230128067E+01  0.13518521379E+02  0.17257241777E+02  0.51100000000E-03 0.  1.
         12    1    3    3    0    0 -0.92609112853E+00 -0.39682598459E+01 -0.11865149899E+01  0.42441193202E+01  0.00000000000E+00 0. -1.
</event>
<event>
 7    1  0.2700100E-010  0.4778727E+02  0.7816164E-02  0.1312668E+00
        -11   -1    0    0    0    0  0.00000000000E+00  0.00000000000E+00  0.45593999997E+02  0.45594000000E+02  0.51100000000E-03 0.  1.
         11   -1    0    0    0    0 -0.00000000000E+00 -0.00000000000E+00 -0.45593999997E+02  0.45594000000E+02  0.51100000000E-03 0. -1.
    9900012    2    1    2    0    0  0.34578618789E+02  0.68540070758E+01 -0.25317292351E+02  0.47787267491E+02  0.19999983799E+02 0.  0.
        -12    1    1    2    0    0 -0.34578618789E+02 -0.68540070758E+01  0.25317292351E+02  0.43400732509E+02  0.00000000000E+00 0.  1.
         11    1    3    3    0    0  0.19430891260E+02  0.51119568141E+01 -0.22645096126E+02  0.30273619151E+02  0.51100000000E-03 0. -1.
        -11    1    3    3    0    0  0.42462093915E+01  0.90395451558E+00  0.29208320995E+01  0.52324648472E+01  0.51100000000E-03 0.  1.
         12    1    3    3    0    0  0.10901518137E+02  0.83809574616E+00 -0.55930283239E+01  0.12281183493E+02  0.00000000000E+00 0. -1.
</event>
<event>
 7    1  0.2700100E-010  0.4778727E+02  0.7816164E-02  0.1312668E+00
        -11   -1    0    0    0    0  0.00000000000E+00  0.00000000000E+00  0.45593999997E+02  0.45594000000E+02  0.51100000000E-03 0.  1.
         11   -1    0    0    0    0 -0.00000000000E+00 -0.00000000000E+00 -0.45593999997E+02  0.45594000000E+02  0.51100000000E-03 0. -1.
    9900012    2    1    2    0    0 -0.31295726943E+02 -0.29302376282E+02 -0.67506814487E+01  0.47787268662E+02  0.19999989138E+02 0.  0.
        -12    1    1    2    0    0  0.31295726943E+02  0.29302376282E+02  0.67506814487E+01  0.43400731338E+02  0.00000000000E+00 0.  1.
         11    1    3    3    0    0 -0.25216019560E+02 -0.22992532946E+02 -0.88708222164E+01  0.35258980427E+02  0.51100000000E-03 0. -1.
        -11    1    3    3    0    0  0.22207706208E+01 -0.82585995061E+00  0.75411009694E+00  0.24864732269E+01  0.51100000000E-03 0.  1.
        -12    1    3    3    0    0 -0.83004780041E+01 -0.54839833853E+01  0.13660306707E+01  0.10041815008E+02  0.00000000000E+00 0.  1.
</event>
<event>
 7    1  0.2700100E-010  0.4778727E+02  0.7816164E-02  0.1312668E+00
        -11   -1    0    0    0    0  0.00000000000E+00  0.00000000000E+00  0.45593999997E+02  0.45594000000E+02  0.51100000000E-03 0.  1.
         11   -1    0    0    0    0 -0.00000000000E+00 -0.00000000000E+00 -0.45593999997E+02  0.45594000000E+02  0.51100000000E-03 0. -1.
    9900012    2    1    2    0    0 -0.25823149000E+02  0.34212603399E+02 -0.68033802188E+01  0.47787271458E+02  0.20000001884E+02 0.  0.
        -12    1    1    2    0    0  0.25823149000E+02 -0.34212603399E+02  0.68033802188E+01  0.43400728542E+02  0.00000000000E+00 0.  1.
         11    1    3    3    0    0 -0.11179445495E+02  0.16135953618E+02 -0.40064389031E+01  0.20034983247E+02  0.51100000000E-03 0. -1.
        -11    1    3    3    0    0 -0.48893523774E+00 -0.22521131207E+01  0.12977785865E+01  0.26448630769E+01  0.51100000000E-03 0.  1.
        -12    1    3    3    0    0 -0.14154768267E+02  0.20328762901E+02 -0.40947199023E+01  0.25107425134E+02  0.00000000000E+00 0.  1.
</event>
<event>
 7    1  0.2700100E-010  0.4778727E+02  0.7816164E-02  0.1312668E+00
        -11   -1    0    0    0    0  0.00000000000E+00  0.00000000000E+00  0.45593999997E+02  0.45594000000E+02  0.51100000000E-03 0.  1.
         11   -1    0    0    0    0 -0.00000000000E+00 -0.00000000000E+00 -0.45593999997E+02  0.45594000000E+02  0.51100000000E-03 0. -1.
    9900012    2    1    2    0    0 -0.18600217231E+02 -0.76810579134E+01 -0.38453307178E+02  0.47787267695E+02  0.19999984728E+02 0.  0.
        -12    1    1    2    0    0  0.18600217231E+02  0.76810579134E+01  0.38453307178E+02  0.43400732305E+02  0.00000000000E+00 0.  1.
         11    1    3    3    0    0  0.61468593569E+00 -0.70222528133E+01 -0.68385772574E+01  0.98212021942E+01  0.51100000000E-03 0. -1.
        -11    1    3    3    0    0 -0.14597997021E+02 -0.19348091030E+01 -0.16524148730E+02  0.22133515193E+02  0.51100000000E-03 0.  1.
         12    1    3    3    0    0 -0.46169061456E+01  0.12760040029E+01 -0.15090581191E+02  0.15832550308E+02  0.00000000000E+00 0. -1.
</event>
<event>
 7    1  0.2700100E-010  0.4778727E+02  0.7816164E-02  0.1312668E+00
        -11   -1    0    0    0    0  0.00000000000E+00  0.00000000000E+00  0.45593999997E+02  0.45594000000E+02  0.51100000000E-03 0.  1.
         11   -1    0    0    0    0 -0.00000000000E+00 -0.00000000000E+00 -0.45593999997E+02  0.45594000000E+02  0.51100000000E-03 0. -1.
    9900012    2    1    2    0    0 -0.37187986273E+02 -0.15207638762E+02  0.16413553769E+02  0.47787270202E+02  0.19999996157E+02 0.  0.
        -12    1    1    2    0    0  0.37187986273E+02  0.15207638762E+02 -0.16413553769E+02  0.43400729798E+02  0.00000000000E+00 0.  1.
         11    1    3    3    0    0 -0.24473370791E+02 -0.13480564499E+02  0.47642583458E+01  0.28343776300E+02  0.51100000000E-03 0. -1.
        -11    1    3    3    0    0 -0.20008016309E+01  0.31995553738E+01  0.27099086025E+01  0.46458547815E+01  0.51100000000E-03 0.  1.
        -12    1    3    3    0    0 -0.10713813851E+02 -0.49266296361E+01  0.89393868203E+01  0.14797639120E+02  0.00000000000E+00 0.  1.
</event>
<event>
 7    1  0.2700100E-010  0.4778727E+02  0.7816164E-02  0.1312668E+00
        -11   -1    0    0    0    0  0.00000000000E+00  0.00000000000E+00  0.45593999997E+02  0.45594000000E+02  0.51100000000E-03 0. -1.
         11   -1    0    0    0    0 -0.00000000000E+00 -0.00000000000E+00 -0.45593999997E+02  0.45594000000E+02  0.51100000000E-03 0.  1.
    9900012    2    1    2    0    0  0.86401536067E+01 -0.18811497657E+02  0.38145759024E+02  0.47787266942E+02  0.19999981298E+02 0.  0.
        -12    1    1    2    0    0 -0.86401536067E+01  0.18811497657E+02 -0.38145759024E+02  0.43400733058E+02  0.00000000000E+00 0.  1.
         11    1    3    3    0    0  0.19449631613E+01 -0.15421012329E+02  0.23466300050E+02  0.28147073405E+02  0.51100000000E-03 0. -1.
        -11    1    3    3    0    0  0.82087586771E+01 -0.78610864613E+00  0.14426896463E+02  0.16617371261E+02  0.51100000000E-03 0.  1.
        -12    1    3    3    0    0 -0.15135682316E+01 -0.26043766817E+01  0.25256251026E+00  0.30228222762E+01  0.00000000000E+00 0.  1.
</event>
<event>
 7    1  0.2717961E-010  0.4778730E+02  0.7816164E-02  0.1312668E+00
        -11   -1    0    0    0    0  0.00000000000E+00  0.00000000000E+00  0.45593999997E+02  0.45594000000E+02  0.51100000000E-03 0.  1.
         11   -1    0    0    0    0 -0.00000000000E+00 -0.00000000000E+00 -0.45593999997E+02  0.45594000000E+02  0.51100000000E-03 0. -1.
    9900012    2    1    2    0    0  0.81665885788E+01 -0.42492529425E+02 -0.33634007538E+01  0.47787300806E+02  0.20000135692E+02 0.  0.
        -12    1    1    2    0    0 -0.81665885788E+01  0.42492529425E+02  0.33634007538E+01  0.43400699194E+02  0.00000000000E+00 0.  1.
         11    1    3    3    0    0 -0.19143088265E+01 -0.26650324110E+02 -0.23220224293E+00  0.26719997597E+02  0.51100000000E-03 0. -1.
        -11    1    3    3    0    0  0.90147148382E+01 -0.14178399817E+02  0.63566265817E+00  0.16813571074E+02  0.51100000000E-03 0.  1.
        -12    1    3    3    0    0  0.10661825671E+01 -0.16638054973E+01 -0.37668611691E+01  0.42537321338E+01  0.00000000000E+00 0.  1.
</event>
<event>
 7    1  0.2700100E-010  0.4778727E+02  0.7816164E-02  0.1312668E+00
        -11   -1    0    0    0    0  0.00000000000E+00  0.00000000000E+00  0.45593999997E+02  0.45594000000E+02  0.51100000000E-03 0.  1.
         11   -1    0    0    0    0 -0.00000000000E+00 -0.00000000000E+00 -0.45593999997E+02  0.45594000000E+02  0.51100000000E-03 0. -1.
    9900012    2    1    2    0    0  0.14556720064E+02  0.27488032300E+02  0.30267694316E+02  0.47787270306E+02  0.19999996635E+02 0.  0.
        -12    1    1    2    0    0 -0.14556720064E+02 -0.27488032300E+02 -0.30267694316E+02  0.43400729694E+02  0.00000000000E+00 0.  1.
         11    1    3    3    0    0  0.26403936133E+01 -0.21354509209E+01  0.42148326969E+01  0.54126374341E+01  0.51100000000E-03 0. -1.
        -11    1    3    3    0    0  0.37478462195E+01  0.13433946375E+01  0.32524412763E+01  0.51409566186E+01  0.51100000000E-03 0.  1.
         12    1    3    3    0    0  0.81684802307E+01  0.28280088583E+02  0.22800420343E+02  0.37233676254E+02  0.00000000000E+00 0. -1.
</event>
<event>
 7    1  0.2700100E-010  0.4778727E+02  0.7816164E-02  0.1312668E+00
        -11   -1    0    0    0    0  0.00000000000E+00  0.00000000000E+00  0.45593999997E+02  0.45594000000E+02  0.51100000000E-03 0.  1.
         11   -1    0    0    0    0 -0.00000000000E+00 -0.00000000000E+00 -0.45593999997E+02  0.45594000000E+02  0.51100000000E-03 0. -1.
    9900012    2    1    2    0    0 -0.12053136847E+02 -0.35875744103E+02 -0.21243257937E+02  0.47787272696E+02  0.20000007528E+02 0.  0.
        -12    1    1    2    0    0  0.12053136847E+02  0.35875744103E+02  0.21243257937E+02  0.43400727304E+02  0.00000000000E+00 0.  1.
         11    1    3    3    0    0  0.17486909709E+00 -0.31996340216E+01  0.15232589537E+00  0.32080275112E+01  0.51100000000E-03 0. -1.
        -11    1    3    3    0    0 -0.10687301305E+01  0.13845914158E+00 -0.69437359588E+01  0.70268644752E+01  0.51100000000E-03 0.  1.
        -12    1    3    3    0    0 -0.11159275814E+02 -0.32814569223E+02 -0.14451847873E+02  0.37552380709E+02  0.00000000000E+00 0.  1.
</event>
<event>
 7    1  0.2700100E-010  0.4778727E+02  0.7816164E-02  0.1312668E+00
        -11   -1    0    0    0    0  0.00000000000E+00  0.00000000000E+00  0.45593999997E+02  0.45594000000E+02  0.51100000000E-03 0.  1.
         11   -1    0    0    0    0 -0.00000000000E+00 -0.00000000000E+00 -0.45593999997E+02  0.45594000000E+02  0.51100000000E-03 0. -1.
    9900012    2    1    2    0    0  0.26513237914E+02  0.25592733035E+02 -0.22927788189E+02  0.47787271433E+02  0.20000001771E+02 0.  0.
        -12    1    1    2    0    0 -0.26513237914E+02 -0.25592733035E+02  0.22927788189E+02  0.43400728567E+02  0.00000000000E+00 0.  1.
         11    1    3    3    0    0  0.14140802490E+02  0.42844339347E+01 -0.10371292362E+02  0.18052212461E+02  0.51100000000E-03 0.  1.
        -11    1    3    3    0    0  0.14545117519E+01  0.13160571893E+02 -0.49750162270E+01  0.14144505779E+02  0.51100000000E-03 0. -1.
         12    1    3    3    0    0  0.10917923672E+02  0.81477272071E+01 -0.75814795997E+01  0.15590553193E+02  0.00000000000E+00 0. -1.
</event>
<event>
 7    1  0.2700100E-010  0.4778727E+02  0.7816164E-02  0.1312668E+00
        -11   -1    0    0    0    0  0.00000000000E+00  0.00000000000E+00  0.45593999997E+02  0.45594000000E+02  0.51100000000E-03 0.  1.
         11   -1    0    0    0    0 -0.00000000000E+00 -0.00000000000E+00 -0.45593999997E+02  0.45594000000E+02  0.51100000000E-03 0. -1.
    9900012    2    1    2    0    0  0.35295702621E+02 -0.17053549637E+02 -0.18628285857E+02  0.47787271749E+02  0.20000003214E+02 0.  0.
        -12    1    1    2    0    0 -0.35295702621E+02  0.17053549637E+02  0.18628285857E+02  0.43400728251E+02  0.00000000000E+00 0.  1.
         11    1    3    3    0    0  0.26239645020E+02 -0.19078812397E+02 -0.18008748956E+02  0.37105728567E+02  0.51100000000E-03 0. -1.
        -11    1    3    3    0    0  0.21638702899E+01 -0.14179434813E+01  0.10606619799E+01  0.27960512235E+01  0.51100000000E-03 0.  1.
         12    1    3    3    0    0  0.68921873111E+01  0.34432062416E+01 -0.16801988805E+01  0.78854919588E+01  0.00000000000E+00 0. -1.
</event>
<event>
 7    1  0.2700100E-010  0.4778727E+02  0.7816164E-02  0.1312668E+00
        -11   -1    0    0    0    0  0.00000000000E+00  0.00000000000E+00  0.45593999997E+02  0.45594000000E+02  0.51100000000E-03 0.  1.
         11   -1    0    0    0    0 -0.00000000000E+00 -0.00000000000E+00 -0.45593999997E+02  0.45594000000E+02  0.51100000000E-03 0. -1.
    9900012    2    1    2    0    0  0.18295007368E+02 -0.39331424137E+02  0.13982033432E+01  0.47787271989E+02  0.20000004308E+02 0.  0.
        -12    1    1    2    0    0 -0.18295007368E+02  0.39331424137E+02 -0.13982033432E+01  0.43400728011E+02  0.00000000000E+00 0.  1.
         11    1    3    3    0    0 -0.15797655808E+01 -0.86937572281E+01  0.43026289775E+01  0.98280054137E+01  0.51100000000E-03 0. -1.
        -11    1    3    3    0    0  0.19678540622E+02 -0.31401706545E+02 -0.28817496578E+01  0.37170103797E+02  0.51100000000E-03 0.  1.
        -12    1    3    3    0    0  0.19623232696E+00  0.76403963565E+00 -0.22675976505E-01  0.78916277846E+00  0.00000000000E+00 0.  1.
</event>
<event>
 7    1  0.2700100E-010  0.4778727E+02  0.7816164E-02  0.1312668E+00
        -11   -1    0    0    0    0  0.00000000000E+00  0.00000000000E+00  0.45593999997E+02  0.45594000000E+02  0.51100000000E-03 0. -1.
         11   -1    0    0    0    0 -0.00000000000E+00 -0.00000000000E+00 -0.45593999997E+02  0.45594000000E+02  0.51100000000E-03 0.  1.
    9900012    2    1    2    0    0  0.29247344272E+02  0.13764728016E+02  0.28961154314E+02  0.47787270243E+02  0.19999996345E+02 0.  0.
        -12    1    1    2    0    0 -0.29247344272E+02 -0.13764728016E+02 -0.28961154314E+02  0.43400729757E+02  0.00000000000E+00 0.  1.
         11    1    3    3    0    0  0.36286375953E+00  0.24969000466E+01  0.27188339943E+01  0.37092099564E+01  0.51100000000E-03 0. -1.
        -11    1    3    3    0    0  0.10686673375E+02  0.11450117935E+02  0.18662596585E+02  0.24363963145E+02  0.51100000000E-03 0.  1.
        -12    1    3    3    0    0  0.18197807137E+02 -0.18228996630E+00  0.75797237338E+01  0.19714097141E+02  0.00000000000E+00 0.  1.
</event>
<event>
 7    1  0.2700100E-010  0.4778726E+02  0.7816164E-02  0.1312668E+00
        -11   -1    0    0    0    0  0.00000000000E+00  0.00000000000E+00  0.45593999997E+02  0.45594000000E+02  0.51100000000E-03 0.  1.
         11   -1    0    0    0    0 -0.00000000000E+00 -0.00000000000E+00 -0.45593999997E+02  0.45594000000E+02  0.51100000000E-03 0. -1.
    9900012    2    1    2    0    0 -0.42086606533E+02 -0.95881218304E+01  0.45177074042E+01  0.47787260261E+02  0.19999950835E+02 0.  0.
        -12    1    1    2    0    0  0.42086606533E+02  0.95881218304E+01 -0.45177074042E+01  0.43400739739E+02  0.00000000000E+00 0.  1.
         11    1    3    3    0    0 -0.73058363504E+01  0.21685994250E+01  0.60606126540E+01  0.97369961615E+01  0.51100000000E-03 0. -1.
        -11    1    3    3    0    0 -0.17740220963E+00 -0.93607529771E+00  0.13799435249E+01  0.16768878615E+01  0.51100000000E-03 0.  1.
         12    1    3    3    0    0 -0.34603367973E+02 -0.10820645958E+02 -0.29228487748E+01  0.36373376238E+02  0.00000000000E+00 0. -1.
</event>
<event>
 7    1  0.2700100E-010  0.4778727E+02  0.7816164E-02  0.1312668E+00
        -11   -1    0    0    0    0  0.00000000000E+00  0.00000000000E+00  0.45593999997E+02  0.45594000000E+02  0.51100000000E-03 0.  1.
         11   -1    0    0    0    0 -0.00000000000E+00 -0.00000000000E+00 -0.45593999997E+02  0.45594000000E+02  0.51100000000E-03 0. -1.
    9900012    2    1    2    0    0  0.21381409874E+02 -0.29823457896E+02 -0.23173690364E+02  0.47787271272E+02  0.20000001036E+02 0.  0.
        -12    1    1    2    0    0 -0.21381409874E+02  0.29823457896E+02  0.23173690364E+02  0.43400728728E+02  0.00000000000E+00 0.  1.
         11    1    3    3    0    0  0.46892522835E+01 -0.11865265977E+02 -0.11488971084E+02  0.17168869518E+02  0.51100000000E-03 0. -1.
        -11    1    3    3    0    0  0.19255095218E+02 -0.15770230369E+02 -0.97342074323E+01  0.26724776002E+02  0.51100000000E-03 0.  1.
        -12    1    3    3    0    0 -0.25629376281E+01 -0.21879615501E+01 -0.19505118469E+01  0.38936257518E+01  0.00000000000E+00 0.  1.
</event>
<event>
 7    1  0.2700100E-010  0.4778727E+02  0.7816164E-02  0.1312668E+00
        -11   -1    0    0    0    0  0.00000000000E+00  0.00000000000E+00  0.45593999997E+02  0.45594000000E+02  0.51100000000E-03 0.  1.
         11   -1    0    0    0    0 -0.00000000000E+00 -0.00000000000E+00 -0.45593999997E+02  0.45594000000E+02  0.51100000000E-03 0. -1.
    9900012    2    1    2    0    0  0.39608581523E+02  0.98909207773E+01 -0.14729342608E+02  0.47787267543E+02  0.19999984037E+02 0.  0.
        -12    1    1    2    0    0 -0.39608581523E+02 -0.98909207773E+01  0.14729342608E+02  0.43400732457E+02  0.00000000000E+00 0.  1.
         11    1    3    3    0    0  0.20977607650E+02  0.47018158401E+01 -0.19260306255E+01  0.21584176823E+02  0.51100000000E-03 0. -1.
        -11    1    3    3    0    0  0.15720057799E+02  0.74094042187E+01 -0.14037213544E+02  0.22339714689E+02  0.51100000000E-03 0.  1.
        -12    1    3    3    0    0  0.29109160744E+01 -0.22202992815E+01  0.12339015606E+01  0.38633760304E+01  0.00000000000E+00 0.  1.
</event>
<event>
 7    1  0.2700100E-010  0.4778727E+02  0.7816164E-02  0.1312668E+00
        -11   -1    0    0    0    0  0.00000000000E+00  0.00000000000E+00  0.45593999997E+02  0.45594000000E+02  0.51100000000E-03 0. -1.
         11   -1    0    0    0    0 -0.00000000000E+00 -0.00000000000E+00 -0.45593999997E+02  0.45594000000E+02  0.51100000000E-03 0.  1.
    9900012    2    1    2    0    0  0.12252396747E+02  0.15841826647E+02  0.38503752886E+02  0.47787266321E+02  0.19999978464E+02 0.  0.
        -12    1    1    2    0    0 -0.12252396747E+02 -0.15841826647E+02 -0.38503752886E+02  0.43400733679E+02  0.00000000000E+00 0.  1.
         11    1    3    3    0    0  0.53757055102E+01  0.54000859418E+01  0.25176599272E+01  0.80248208504E+01  0.51100000000E-03 0. -1.
        -11    1    3    3    0    0  0.93928339019E+00  0.51990769667E+01  0.35304797552E+01  0.63542853379E+01  0.51100000000E-03 0.  1.
         12    1    3    3    0    0  0.59374078463E+01  0.52426637385E+01  0.32455613204E+02  0.33408160133E+02  0.00000000000E+00 0. -1.
</event>
<event>
 7    1  0.2700100E-010  0.4778727E+02  0.7816164E-02  0.1312668E+00
        -11   -1    0    0    0    0  0.00000000000E+00  0.00000000000E+00  0.45593999997E+02  0.45594000000E+02  0.51100000000E-03 0.  1.
         11   -1    0    0    0    0 -0.00000000000E+00 -0.00000000000E+00 -0.45593999997E+02  0.45594000000E+02  0.51100000000E-03 0. -1.
    9900012    2    1    2    0    0 -0.39830972975E+02  0.50656122845E+01 -0.16475935420E+02  0.47787270929E+02  0.19999999474E+02 0.  0.
        -12    1    1    2    0    0  0.39830972975E+02 -0.50656122845E+01  0.16475935420E+02  0.43400729071E+02  0.00000000000E+00 0.  1.
         11    1    3    3    0    0 -0.14533310151E+02 -0.14116083620E+01 -0.80026035602E+00  0.14623616482E+02  0.51100000000E-03 0. -1.
        -11    1    3    3    0    0 -0.22053483982E+02  0.10180820676E+02 -0.13377047962E+02  0.27729959931E+02  0.51100000000E-03 0.  1.
        -12    1    3    3    0    0 -0.32441788424E+01 -0.37036000295E+01 -0.22986271019E+01  0.54336945160E+01  0.00000000000E+00 0.  1.
</event>
<event>
 7    1  0.2700100E-010  0.4778727E+02  0.7816164E-02  0.1312668E+00
        -11   -1    0    0    0    0  0.00000000000E+00  0.00000000000E+00  0.45593999997E+02  0.45594000000E+02  0.51100000000E-03 0.  1.
         11   -1    0    0    0    0 -0.00000000000E+00 -0.00000000000E+00 -0.45593999997E+02  0.45594000000E+02  0.51100000000E-03 0. -1.
    9900012    2    1    2    0    0 -0.30573534719E+02 -0.25561717135E+02 -0.17189561917E+02  0.47787269050E+02  0.19999990907E+02 0.  0.
        -12    1    1    2    0    0  0.30573534719E+02  0.25561717135E+02  0.17189561917E+02  0.43400730950E+02  0.00000000000E+00 0.  1.
         11    1    3    3    0    0 -0.25535964105E+01 -0.47567910323E+01 -0.62742867446E+01  0.82773540438E+01  0.51100000000E-03 0. -1.
        -11    1    3    3    0    0 -0.28280053613E+02 -0.17397483830E+02 -0.63457596117E+01  0.33803883524E+02  0.51100000000E-03 0.  1.
        -12    1    3    3    0    0  0.26011530512E+00 -0.34074422727E+01 -0.45695155611E+01  0.57060314822E+01  0.00000000000E+00 0.  1.
</event>
<event>
 7    1  0.2700100E-010  0.4778727E+02  0.7816164E-02  0.1312668E+00
        -11   -1    0    0    0    0  0.00000000000E+00  0.00000000000E+00  0.45593999997E+02  0.45594000000E+02  0.51100000000E-03 0.  1.
         11   -1    0    0    0    0 -0.00000000000E+00 -0.00000000000E+00 -0.45593999997E+02  0.45594000000E+02  0.51100000000E-03 0. -1.
    9900012    2    1    2    0    0 -0.18050958816E+02  0.96175701569E+01 -0.38279088718E+02  0.47787269557E+02  0.19999993218E+02 0.  0.
        -12    1    1    2    0    0  0.18050958816E+02 -0.96175701569E+01  0.38279088718E+02  0.43400730443E+02  0.00000000000E+00 0.  1.
         11    1    3    3    0    0  0.25083026809E+01  0.24146031119E+01 -0.93163593409E+01  0.99456745451E+01  0.51100000000E-03 0. -1.
        -11    1    3    3    0    0 -0.15615277831E+02  0.99775719918E+01 -0.23887291692E+02  0.30232293152E+02  0.51100000000E-03 0.  1.
        -12    1    3    3    0    0 -0.49439836658E+01 -0.27746049468E+01 -0.50754376856E+01  0.76093018602E+01  0.00000000000E+00 0.  1.
</event>
<event>
 7    1  0.2700100E-010  0.4778727E+02  0.7816164E-02  0.1312668E+00
        -11   -1    0    0    0    0  0.00000000000E+00  0.00000000000E+00  0.45593999997E+02  0.45594000000E+02  0.51100000000E-03 0. -1.
         11   -1    0    0    0    0 -0.00000000000E+00 -0.00000000000E+00 -0.45593999997E+02  0.45594000000E+02  0.51100000000E-03 0.  1.
    9900012    2    1    2    0    0 -0.39986427107E+02 -0.11106874782E+02  0.12702222136E+02  0.47787268815E+02  0.19999989836E+02 0.  0.
        -12    1    1    2    0    0  0.39986427107E+02  0.11106874782E+02 -0.12702222136E+02  0.43400731185E+02  0.00000000000E+00 0.  1.
         11    1    3    3    0    0 -0.30413979695E+02 -0.10125063768E+02  0.16068547586E+02  0.35857011853E+02  0.51100000000E-03 0. -1.
        -11    1    3    3    0    0 -0.46503378683E+01 -0.25245535992E+01 -0.41345172092E+01  0.67151504807E+01  0.51100000000E-03 0.  1.
         12    1    3    3    0    0 -0.49221095431E+01  0.15427425848E+01  0.76819175905E+00  0.52151064818E+01  0.00000000000E+00 0. -1.
</event>
<event>
 7    1  0.2700100E-010  0.4778727E+02  0.7816164E-02  0.1312668E+00
        -11   -1    0    0    0    0  0.00000000000E+00  0.00000000000E+00  0.45593999997E+02  0.45594000000E+02  0.51100000000E-03 0.  1.
         11   -1    0    0    0    0 -0.00000000000E+00 -0.00000000000E+00 -0.45593999997E+02  0.45594000000E+02  0.51100000000E-03 0. -1.
    9900012    2    1    2    0    0 -0.38699970874E+02 -0.14519217101E+02 -0.13233592556E+02  0.47787269789E+02  0.19999994277E+02 0.  0.
        -12    1    1    2    0    0  0.38699970874E+02  0.14519217101E+02  0.13233592556E+02  0.43400730211E+02  0.00000000000E+00 0.  1.
         11    1    3    3    0    0 -0.10400903601E+02  0.22237745635E+00  0.25850426715E+01  0.10719640541E+02  0.51100000000E-03 0. -1.
        -11    1    3    3    0    0 -0.75931217089E+01  0.78635854383E+00 -0.39352574694E+01  0.85883705472E+01  0.51100000000E-03 0.  1.
         12    1    3    3    0    0 -0.20705945564E+02 -0.15527953101E+02 -0.11883377758E+02  0.28479258701E+02  0.00000000000E+00 0. -1.
</event>
<event>
 7    1  0.2700100E-010  0.4778727E+02  0.7816164E-02  0.1312668E+00
        -11   -1    0    0    0    0  0.00000000000E+00  0.00000000000E+00  0.45593999997E+02  0.45594000000E+02  0.51100000000E-03 0. -1.
         11   -1    0    0    0    0 -0.00000000000E+00 -0.00000000000E+00 -0.45593999997E+02  0.45594000000E+02  0.51100000000E-03 0.  1.
    9900012    2    1    2    0    0 -0.29634764233E+02 -0.41493735821E+01 -0.31435442249E+02  0.47787267499E+02  0.19999983833E+02 0.  0.
        -12    1    1    2    0    0  0.29634764233E+02  0.41493735821E+01  0.31435442249E+02  0.43400732501E+02  0.00000000000E+00 0.  1.
         11    1    3    3    0    0 -0.11454658427E+02 -0.41155701447E+01 -0.19270199891E+01  0.12323170192E+02  0.51100000000E-03 0. -1.
        -11    1    3    3    0    0 -0.17586326488E+02 -0.56750184479E+00 -0.23263399200E+02  0.29168247809E+02  0.51100000000E-03 0.  1.
        -12    1    3    3    0    0 -0.59377931873E+00  0.53369840747E+00 -0.62450230600E+01  0.62958494970E+01  0.00000000000E+00 0.  1.
</event>
<event>
 7    1  0.2700100E-010  0.4778728E+02  0.7816164E-02  0.1312668E+00
        -11   -1    0    0    0    0  0.00000000000E+00  0.00000000000E+00  0.45593999997E+02  0.45594000000E+02  0.51100000000E-03 0. -1.
         11   -1    0    0    0    0 -0.00000000000E+00 -0.00000000000E+00 -0.45593999997E+02  0.45594000000E+02  0.51100000000E-03 0.  1.
    9900012    2    1    2    0    0  0.27016752650E+02 -0.33413909096E+02 -0.61015091091E+01  0.47787278137E+02  0.20000032338E+02 0.  0.
        -12    1    1    2    0    0 -0.27016752650E+02  0.33413909096E+02  0.61015091091E+01  0.43400721863E+02  0.00000000000E+00 0.  1.
         11    1    3    3    0    0  0.18872210608E+02 -0.25817243280E+02 -0.82302568634E+01  0.33021621888E+02  0.51100000000E-03 0. -1.
        -11    1    3    3    0    0 -0.16593059718E+01  0.18816324385E+00 -0.88400595230E+00  0.18894889519E+01  0.51100000000E-03 0.  1.
        -12    1    3    3    0    0  0.98038480134E+01 -0.77848290598E+01  0.30127537066E+01  0.12876167297E+02  0.00000000000E+00 0.  1.
</event>
<event>
 7    1  0.2700100E-010  0.4778727E+02  0.7816164E-02  0.1312668E+00
        -11   -1    0    0    0    0  0.00000000000E+00  0.00000000000E+00  0.45593999997E+02  0.45594000000E+02  0.51100000000E-03 0. -1.
         11   -1    0    0    0    0 -0.00000000000E+00 -0.00000000000E+00 -0.45593999997E+02  0.45594000000E+02  0.51100000000E-03 0.  1.
    9900012    2    1    2    0    0 -0.35923723657E+02  0.22619670066E+02  0.90255345176E+01  0.47787266497E+02  0.19999979265E+02 0.  0.
        -12    1    1    2    0    0  0.35923723657E+02 -0.22619670066E+02 -0.90255345176E+01  0.43400733503E+02  0.00000000000E+00 0.  1.
         11    1    3    3    0    0 -0.10038683542E+02  0.47976347161E+01  0.10908219743E+02  0.15581454500E+02  0.51100000000E-03 0. -1.
        -11    1    3    3    0    0 -0.11464081166E+02  0.39777324870E+01 -0.90208295997E-01  0.12134893923E+02  0.51100000000E-03 0.  1.
         12    1    3    3    0    0 -0.14420958949E+02  0.13844302863E+02 -0.17924769292E+01  0.20070918074E+02  0.00000000000E+00 0. -1.
</event>
<event>
 7    1  0.2700100E-010  0.4778728E+02  0.7816164E-02  0.1312668E+00
        -11   -1    0    0    0    0  0.00000000000E+00  0.00000000000E+00  0.45593999997E+02  0.45594000000E+02  0.51100000000E-03 0.  1.
         11   -1    0    0    0    0 -0.00000000000E+00 -0.00000000000E+00 -0.45593999997E+02  0.45594000000E+02  0.51100000000E-03 0. -1.
    9900012    2    1    2    0    0 -0.51682889888E+01  0.89359998393E+01 -0.42155183956E+02  0.47787276060E+02  0.20000022867E+02 0.  0.
        -12    1    1    2    0    0  0.51682889888E+01 -0.89359998393E+01  0.42155183956E+02  0.43400723940E+02  0.00000000000E+00 0.  1.
         11    1    3    3    0    0 -0.97263197191E+00  0.94379008725E+01 -0.11942961928E+02  0.15253010382E+02  0.51100000000E-03 0. -1.
        -11    1    3    3    0    0 -0.22088375309E+01 -0.51161355570E+01 -0.79266600215E+01  0.96894657043E+01  0.51100000000E-03 0.  1.
        -12    1    3    3    0    0 -0.19868194859E+01  0.46142345239E+01 -0.22285562006E+02  0.22844799974E+02  0.00000000000E+00 0.  1.
</event>
<event>
 7    1  0.2700100E-010  0.4778727E+02  0.7816164E-02  0.1312668E+00
        -11   -1    0    0    0    0  0.00000000000E+00  0.00000000000E+00  0.45593999997E+02  0.45594000000E+02  0.51100000000E-03 0.  1.
         11   -1    0    0    0    0 -0.00000000000E+00 -0.00000000000E+00 -0.45593999997E+02  0.45594000000E+02  0.51100000000E-03 0. -1.
    9900012    2    1    2    0    0  0.91842491114E+01  0.36829702669E+02 -0.21043901838E+02  0.47787271493E+02  0.20000002043E+02 0.  0.
        -12    1    1    2    0    0 -0.91842491114E+01 -0.36829702669E+02  0.21043901838E+02  0.43400728507E+02  0.00000000000E+00 0.  1.
         11    1    3    3    0    0 -0.31965003911E+00  0.63213115404E+01 -0.10505377866E+02  0.12264751123E+02  0.51100000000E-03 0. -1.
        -11    1    3    3    0    0  0.44633309342E+01  0.17479515455E+02 -0.28241379887E-01  0.18040387507E+02  0.51100000000E-03 0.  1.
        -12    1    3    3    0    0  0.50405682164E+01  0.13028875673E+02 -0.10510282592E+02  0.17482132862E+02  0.00000000000E+00 0.  1.
</event>
<event>
 7    1  0.2700100E-010  0.4778727E+02  0.7816164E-02  0.1312668E+00
        -11   -1    0    0    0    0  0.00000000000E+00  0.00000000000E+00  0.45593999997E+02  0.45594000000E+02  0.51100000000E-03 0.  1.
         11   -1    0    0    0    0 -0.00000000000E+00 -0.00000000000E+00 -0.45593999997E+02  0.45594000000E+02  0.51100000000E-03 0. -1.
    9900012    2    1    2    0    0 -0.14604094114E+02 -0.10505523184E+02 -0.39496552235E+02  0.47787271658E+02  0.20000002795E+02 0.  0.
        -12    1    1    2    0    0  0.14604094114E+02  0.10505523184E+02  0.39496552235E+02  0.43400728342E+02  0.00000000000E+00 0.  1.
         11    1    3    3    0    0 -0.58699816732E+00 -0.58091327012E+01 -0.11038565206E+01  0.59421451571E+01  0.51100000000E-03 0. -1.
        -11    1    3    3    0    0 -0.12483206065E+02 -0.14671985551E+01 -0.24977208447E+02  0.27961474342E+02  0.51100000000E-03 0.  1.
         12    1    3    3    0    0 -0.15338898811E+01 -0.32291919273E+01 -0.13415487267E+02  0.13883652159E+02  0.00000000000E+00 0. -1.
</event>
<event>
 7    1  0.2700100E-010  0.4778727E+02  0.7816164E-02  0.1312668E+00
        -11   -1    0    0    0    0  0.00000000000E+00  0.00000000000E+00  0.45593999997E+02  0.45594000000E+02  0.51100000000E-03 0.  1.
         11   -1    0    0    0    0 -0.00000000000E+00 -0.00000000000E+00 -0.45593999997E+02  0.45594000000E+02  0.51100000000E-03 0. -1.
    9900012    2    1    2    0    0 -0.58090050778E+01 -0.56568761182E+01 -0.42636588409E+02  0.47787268917E+02  0.19999990298E+02 0.  0.
        -12    1    1    2    0    0  0.58090050778E+01  0.56568761182E+01  0.42636588409E+02  0.43400731083E+02  0.00000000000E+00 0.  1.
         11    1    3    3    0    0 -0.14703630366E+01 -0.75131100320E+00 -0.59476579269E+01  0.61726064802E+01  0.51100000000E-03 0. -1.
        -11    1    3    3    0    0  0.60648559421E+01  0.12268163055E+01 -0.59319065089E+01  0.85717600840E+01  0.51100000000E-03 0.  1.
        -12    1    3    3    0    0 -0.10403497983E+02 -0.61323814205E+01 -0.30757023973E+02  0.33042902352E+02  0.00000000000E+00 0.  1.
</event>
<event>
 7    1  0.2700100E-010  0.4778727E+02  0.7816164E-02  0.1312668E+00
        -11   -1    0    0    0    0  0.00000000000E+00  0.00000000000E+00  0.45593999997E+02  0.45594000000E+02  0.51100000000E-03 0.  1.
         11   -1    0    0    0    0 -0.00000000000E+00 -0.00000000000E+00 -0.45593999997E+02  0.45594000000E+02  0.51100000000E-03 0. -1.
    9900012    2    1    2    0    0 -0.20679784618E+01  0.35156778528E+02 -0.25364306055E+02  0.47787266906E+02  0.19999981133E+02 0.  0.
        -12    1    1    2    0    0  0.20679784618E+01 -0.35156778528E+02  0.25364306055E+02  0.43400733094E+02  0.00000000000E+00 0.  1.
         11    1    3    3    0    0 -0.26734116206E+01  0.13792075954E+02 -0.50909296042E+01  0.14942759227E+02  0.51100000000E-03 0. -1.
        -11    1    3    3    0    0  0.61639621111E+01  0.14040789839E+02 -0.17441712041E+02  0.23223942977E+02  0.51100000000E-03 0.  1.
        -12    1    3    3    0    0 -0.55585289523E+01  0.73239127354E+01 -0.28316644097E+01  0.96205647027E+01  0.00000000000E+00 0.  1.
</event>
<event>
 7    1  0.2700100E-010  0.4778727E+02  0.7816164E-02  0.1312668E+00
        -11   -1    0    0    0    0  0.00000000000E+00  0.00000000000E+00  0.45593999997E+02  0.45594000000E+02  0.51100000000E-03 0.  1.
         11   -1    0    0    0    0 -0.00000000000E+00 -0.00000000000E+00 -0.45593999997E+02  0.45594000000E+02  0.51100000000E-03 0. -1.
    9900012    2    1    2    0    0  0.27089418912E+02  0.12318293293E+02 -0.31591869325E+02  0.47787272194E+02  0.20000005243E+02 0.  0.
        -12    1    1    2    0    0 -0.27089418912E+02 -0.12318293293E+02  0.31591869325E+02  0.43400727806E+02  0.00000000000E+00 0.  1.
         11    1    3    3    0    0  0.97902951843E+01  0.34679910669E+01 -0.12975725051E+02  0.16620658311E+02  0.51100000000E-03 0. -1.
        -11    1    3    3    0    0  0.13132136980E+02  0.17527272188E+01 -0.18722018367E+02  0.22935541118E+02  0.51100000000E-03 0.  1.
        -12    1    3    3    0    0  0.41669867470E+01  0.70975750076E+01  0.10587409391E+00  0.82310727650E+01  0.00000000000E+00 0.  1.
</event>
<event>
 7    1  0.2700100E-010  0.4778727E+02  0.7816164E-02  0.1312668E+00
        -11   -1    0    0    0    0  0.00000000000E+00  0.00000000000E+00  0.45593999997E+02  0.45594000000E+02  0.51100000000E-03 0. -1.
         11   -1    0    0    0    0 -0.00000000000E+00 -0.00000000000E+00 -0.45593999997E+02  0.45594000000E+02  0.51100000000E-03 0.  1.
    9900012    2    1    2    0    0 -0.61677908732E+01  0.11911738435E+02  0.41275801660E+02  0.47787274667E+02  0.20000016515E+02 0.  0.
        -12    1    1    2    0    0  0.61677908732E+01 -0.11911738435E+02 -0.41275801660E+02  0.43400725333E+02  0.00000000000E+00 0.  1.
         11    1    3    3    0    0 -0.66010223465E+01 -0.16561318555E+01  0.25121317511E+02  0.26026848877E+02  0.51100000000E-03 0. -1.
        -11    1    3    3    0    0  0.28319289445E+01  0.85321892405E+01  0.95485400552E+01  0.13114598439E+02  0.51100000000E-03 0.  1.
         12    1    3    3    0    0 -0.23986974712E+01  0.50356810501E+01  0.66059440939E+01  0.86458273501E+01  0.00000000000E+00 0. -1.
</event>
<event>
 7    1  0.2700100E-010  0.4778728E+02  0.7816164E-02  0.1312668E+00
        -11   -1    0    0    0    0  0.00000000000E+00  0.00000000000E+00  0.45593999997E+02  0.45594000000E+02  0.51100000000E-03 0.  1.
         11   -1    0    0    0    0 -0.00000000000E+00 -0.00000000000E+00 -0.45593999997E+02  0.45594000000E+02  0.51100000000E-03 0. -1.
    9900012    2    1    2    0    0  0.90104446940E+01  0.17789035711E+02 -0.38548476208E+02  0.47787275086E+02  0.20000018426E+02 0.  0.
        -12    1    1    2    0    0 -0.90104446940E+01 -0.17789035711E+02  0.38548476208E+02  0.43400724914E+02  0.00000000000E+00 0.  1.
         11    1    3    3    0    0  0.11987856025E+02  0.11291683344E+02 -0.27992061823E+02  0.32477166289E+02  0.51100000000E-03 0. -1.
        -11    1    3    3    0    0 -0.58702217872E+01  0.31815977058E+01 -0.60192229254E+01  0.89896113753E+01  0.51100000000E-03 0.  1.
        -12    1    3    3    0    0  0.28928104565E+01  0.33157546605E+01 -0.45371914604E+01  0.63204974215E+01  0.00000000000E+00 0.  1.
</event>
<event>
 7    1  0.2700100E-010  0.4778727E+02  0.7816164E-02  0.1312668E+00
        -11   -1    0    0    0    0  0.00000000000E+00  0.00000000000E+00  0.45593999997E+02  0.45594000000E+02  0.51100000000E-03 0.  1.
         11   -1    0    0    0    0 -0.00000000000E+00 -0.00000000000E+00 -0.45593999997E+02  0.45594000000E+02  0.51100000000E-03 0. -1.
    9900012    2    1    2    0    0 -0.53620932624E+01 -0.19989414524E+01 -0.43021801043E+02  0.47787272171E+02  0.20000005138E+02 0.  0.
        -12    1    1    2    0    0  0.53620932624E+01  0.19989414524E+01  0.43021801043E+02  0.43400727829E+02  0.00000000000E+00 0.  1.
         11    1    3    3    0    0 -0.67345994812E+01  0.76615599896E-03 -0.65748413924E+01  0.94118739024E+01  0.51100000000E-03 0. -1.
        -11    1    3    3    0    0  0.44911746742E+01 -0.44495063970E+01 -0.11572594285E+02  0.13186875895E+02  0.51100000000E-03 0.  1.
         12    1    3    3    0    0 -0.31186684554E+01  0.24497987886E+01 -0.24874365366E+02  0.25188522374E+02  0.00000000000E+00 0. -1.
</event>
<event>
 7    1  0.2700100E-010  0.4778727E+02  0.7816164E-02  0.1312668E+00
        -11   -1    0    0    0    0  0.00000000000E+00  0.00000000000E+00  0.45593999997E+02  0.45594000000E+02  0.51100000000E-03 0. -1.
         11   -1    0    0    0    0 -0.00000000000E+00 -0.00000000000E+00 -0.45593999997E+02  0.45594000000E+02  0.51100000000E-03 0.  1.
    9900012    2    1    2    0    0 -0.36881289884E+02 -0.20794238723E+02  0.95390613950E+01  0.47787267288E+02  0.19999982874E+02 0.  0.
        -12    1    1    2    0    0  0.36881289884E+02  0.20794238723E+02 -0.95390613950E+01  0.43400732712E+02  0.00000000000E+00 0.  1.
         11    1    3    3    0    0 -0.23460423728E+02 -0.23045714618E+02  0.61445772057E+01  0.33455227888E+02  0.51100000000E-03 0. -1.
        -11    1    3    3    0    0 -0.12609197692E+02  0.15023084444E+01  0.25753743241E+01  0.12956903575E+02  0.51100000000E-03 0.  1.
         12    1    3    3    0    0 -0.81166846447E+00  0.74916745015E+00  0.81910986522E+00  0.13751358245E+01  0.00000000000E+00 0. -1.
</event>
<event>
 7    1  0.2700100E-010  0.4778727E+02  0.7816164E-02  0.1312668E+00
        -11   -1    0    0    0    0  0.00000000000E+00  0.00000000000E+00  0.45593999997E+02  0.45594000000E+02  0.51100000000E-03 0. -1.
         11   -1    0    0    0    0 -0.00000000000E+00 -0.00000000000E+00 -0.45593999997E+02  0.45594000000E+02  0.51100000000E-03 0.  1.
    9900012    2    1    2    0    0 -0.24503537173E+02 -0.32400834865E+02  0.15276968039E+02  0.47787272052E+02  0.20000004595E+02 0.  0.
        -12    1    1    2    0    0  0.24503537173E+02  0.32400834865E+02 -0.15276968039E+02  0.43400727948E+02  0.00000000000E+00 0.  1.
         11    1    3    3    0    0 -0.11435005348E+02 -0.12486966932E+02  0.10319566184E+02  0.19828694787E+02  0.51100000000E-03 0. -1.
        -11    1    3    3    0    0 -0.42319982689E+01 -0.82596807104E+00 -0.32297391535E+01  0.53873228846E+01  0.51100000000E-03 0.  1.
         12    1    3    3    0    0 -0.88365335555E+01 -0.19087899862E+02  0.81871410085E+01  0.22571254380E+02  0.00000000000E+00 0. -1.
</event>
<event>
 7    1  0.2700100E-010  0.4778728E+02  0.7816164E-02  0.1312668E+00
        -11   -1    0    0    0    0  0.00000000000E+00  0.00000000000E+00  0.45593999997E+02  0.45594000000E+02  0.51100000000E-03 0.  1.
         11   -1    0    0    0    0 -0.00000000000E+00 -0.00000000000E+00 -0.45593999997E+02  0.45594000000E+02  0.51100000000E-03 0. -1.
    9900012    2    1    2    0    0  0.24165627355E+02 -0.48802716575E+01 -0.35718739155E+02  0.47787275079E+02  0.20000018394E+02 0.  0.
        -12    1    1    2    0    0 -0.24165627355E+02  0.48802716575E+01  0.35718739155E+02  0.43400724921E+02  0.00000000000E+00 0.  1.
         11    1    3    3    0    0  0.21824646776E+02 -0.97489194580E+01 -0.22366047285E+02  0.32735251777E+02  0.51100000000E-03 0. -1.
        -11    1    3    3    0    0  0.14176081542E+01  0.37876509469E+01 -0.43570340118E+01  0.59447168323E+01  0.51100000000E-03 0.  1.
         12    1    3    3    0    0  0.92337242474E+00  0.10809968536E+01 -0.89956578582E+01  0.91073064697E+01  0.00000000000E+00 0. -1.
</event>
<event>
 7    1  0.2700100E-010  0.4778727E+02  0.7816164E-02  0.1312668E+00
        -11   -1    0    0    0    0  0.00000000000E+00  0.00000000000E+00  0.45593999997E+02  0.45594000000E+02  0.51100000000E-03 0.  1.
         11   -1    0    0    0    0 -0.00000000000E+00 -0.00000000000E+00 -0.45593999997E+02  0.45594000000E+02  0.51100000000E-03 0. -1.
    9900012    2    1    2    0    0  0.32737398569E+02  0.18298481515E+02 -0.21841510947E+02  0.47787270844E+02  0.19999999087E+02 0.  0.
        -12    1    1    2    0    0 -0.32737398569E+02 -0.18298481515E+02  0.21841510947E+02  0.43400729156E+02  0.00000000000E+00 0.  1.
         11    1    3    3    0    0  0.19723923553E+02  0.70812886196E+01 -0.44663016639E+01  0.21427217730E+02  0.51100000000E-03 0. -1.
        -11    1    3    3    0    0  0.99689408172E+01  0.53564892692E+01 -0.16026558699E+02  0.19619437869E+02  0.51100000000E-03 0.  1.
         12    1    3    3    0    0  0.30445341987E+01  0.58607036259E+01 -0.13486505833E+01  0.67406152444E+01  0.00000000000E+00 0. -1.
</event>
<event>
 7    1  0.2700100E-010  0.4778727E+02  0.7816164E-02  0.1312668E+00
        -11   -1    0    0    0    0  0.00000000000E+00  0.00000000000E+00  0.45593999997E+02  0.45594000000E+02  0.51100000000E-03 0. -1.
         11   -1    0    0    0    0 -0.00000000000E+00 -0.00000000000E+00 -0.45593999997E+02  0.45594000000E+02  0.51100000000E-03 0.  1.
    9900012    2    1    2    0    0 -0.27764466611E+02 -0.86415816316E+01  0.32219262788E+02  0.47787269201E+02  0.19999991594E+02 0.  0.
        -12    1    1    2    0    0  0.27764466611E+02  0.86415816316E+01 -0.32219262788E+02  0.43400730799E+02  0.00000000000E+00 0.  1.
         11    1    3    3    0    0 -0.46328607774E+01  0.28814151748E+01  0.10285595632E+02  0.11642999191E+02  0.51100000000E-03 0. -1.
        -11    1    3    3    0    0 -0.22666322840E+02 -0.10805350063E+02  0.23479640428E+02  0.34377482397E+02  0.51100000000E-03 0.  1.
         12    1    3    3    0    0 -0.46528299417E+00 -0.71764674314E+00 -0.15459732716E+01  0.17667876129E+01  0.00000000000E+00 0. -1.
</event>
<event>
 7    1  0.2700100E-010  0.4778727E+02  0.7816164E-02  0.1312668E+00
        -11   -1    0    0    0    0  0.00000000000E+00  0.00000000000E+00  0.45593999997E+02  0.45594000000E+02  0.51100000000E-03 0. -1.
         11   -1    0    0    0    0 -0.00000000000E+00 -0.00000000000E+00 -0.45593999997E+02  0.45594000000E+02  0.51100000000E-03 0.  1.
    9900012    2    1    2    0    0 -0.10185365589E+02 -0.12601216821E+02  0.40262773340E+02  0.47787271267E+02  0.20000001015E+02 0.  0.
        -12    1    1    2    0    0  0.10185365589E+02  0.12601216821E+02 -0.40262773340E+02  0.43400728733E+02  0.00000000000E+00 0.  1.
         11    1    3    3    0    0  0.74590406571E+00 -0.10915306366E+02  0.89751456994E+01  0.14151096301E+02  0.51100000000E-03 0. -1.
        -11    1    3    3    0    0 -0.33933676201E+01 -0.50302575262E+00  0.17909563276E+02  0.18235142876E+02  0.51100000000E-03 0.  1.
        -12    1    3    3    0    0 -0.75379020345E+01 -0.11828847030E+01  0.13378064364E+02  0.15401032090E+02  0.00000000000E+00 0.  1.
</event>
<event>
 7    1  0.2700100E-010  0.4778727E+02  0.7816164E-02  0.1312668E+00
        -11   -1    0    0    0    0  0.00000000000E+00  0.00000000000E+00  0.45593999997E+02  0.45594000000E+02  0.51100000000E-03 0. -1.
         11   -1    0    0    0    0 -0.00000000000E+00 -0.00000000000E+00 -0.45593999997E+02  0.45594000000E+02  0.51100000000E-03 0.  1.
    9900012    2    1    2    0    0  0.16874022288E+02  0.31544960424E+02  0.24572467636E+02  0.47787270490E+02  0.19999997472E+02 0.  0.
        -12    1    1    2    0    0 -0.16874022288E+02 -0.31544960424E+02 -0.24572467636E+02  0.43400729510E+02  0.00000000000E+00 0.  1.
         11    1    3    3    0    0  0.14107555349E+02  0.24378460869E+02  0.96885617876E+01  0.29785914491E+02  0.51100000000E-03 0. -1.
        -11    1    3    3    0    0 -0.12768844765E+01  0.20627314298E+01  0.86619337493E+01  0.89952427125E+01  0.51100000000E-03 0.  1.
         12    1    3    3    0    0  0.40433514151E+01  0.51037681245E+01  0.62219720988E+01  0.90061132867E+01  0.00000000000E+00 0. -1.
</event>
<event>
 7    1  0.2700100E-010  0.4778727E+02  0.7816164E-02  0.1312668E+00
        -11   -1    0    0    0    0  0.00000000000E+00  0.00000000000E+00  0.45593999997E+02  0.45594000000E+02  0.51100000000E-03 0. -1.
         11   -1    0    0    0    0 -0.00000000000E+00 -0.00000000000E+00 -0.45593999997E+02  0.45594000000E+02  0.51100000000E-03 0.  1.
    9900012    2    1    2    0    0  0.59075611176E+01  0.39096584814E+02  0.17893597730E+02  0.47787273483E+02  0.20000011119E+02 0.  0.
        -12    1    1    2    0    0 -0.59075611176E+01 -0.39096584814E+02 -0.17893597730E+02  0.43400726517E+02  0.00000000000E+00 0.  1.
         11    1    3    3    0    0  0.18978702523E+01  0.12078771176E+02  0.13428005755E+02  0.18160670787E+02  0.51100000000E-03 0. -1.
        -11    1    3    3    0    0 -0.13540429553E+01  0.18209764941E+02 -0.30812284632E+00  0.18262637036E+02  0.51100000000E-03 0.  1.
        -12    1    3    3    0    0  0.53637338206E+01  0.88080486968E+01  0.47737148212E+01  0.11363965661E+02  0.00000000000E+00 0.  1.
</event>
<event>
 7    1  0.2700100E-010  0.4778728E+02  0.7816164E-02  0.1312668E+00
        -11   -1    0    0    0    0  0.00000000000E+00  0.00000000000E+00  0.45593999997E+02  0.45594000000E+02  0.51100000000E-03 0.  1.
         11   -1    0    0    0    0 -0.00000000000E+00 -0.00000000000E+00 -0.45593999997E+02  0.45594000000E+02  0.51100000000E-03 0. -1.
    9900012    2    1    2    0    0  0.34775487534E+02  0.41888410496E+01 -0.25626970655E+02  0.47787279413E+02  0.20000038155E+02 0.  0.
        -12    1    1    2    0    0 -0.34775487534E+02 -0.41888410496E+01  0.25626970655E+02  0.43400720587E+02  0.00000000000E+00 0.  1.
         11    1    3    3    0    0  0.22055447823E+02 -0.16215648397E+01 -0.55290960815E+01  0.22795682814E+02  0.51100000000E-03 0. -1.
        -11    1    3    3    0    0  0.17564111774E+01  0.19658389953E+01 -0.70185110430E+01  0.74972662152E+01  0.51100000000E-03 0.  1.
         12    1    3    3    0    0  0.10963628533E+02  0.38445668940E+01 -0.13079363530E+02  0.17494330384E+02  0.00000000000E+00 0. -1.
</event>
<event>
 7    1  0.2700100E-010  0.4778726E+02  0.7816164E-02  0.1312668E+00
        -11   -1    0    0    0    0  0.00000000000E+00  0.00000000000E+00  0.45593999997E+02  0.45594000000E+02  0.51100000000E-03 0. -1.
         11   -1    0    0    0    0 -0.00000000000E+00 -0.00000000000E+00 -0.45593999997E+02  0.45594000000E+02  0.51100000000E-03 0.  1.
    9900012    2    1    2    0    0  0.17114612388E+02 -0.29420250991E+02  0.26928852539E+02  0.47787260091E+02  0.19999950059E+02 0.  0.
        -12    1    1    2    0    0 -0.17114612388E+02  0.29420250991E+02 -0.26928852539E+02  0.43400739909E+02  0.00000000000E+00 0.  1.
         11    1    3    3    0    0  0.67951464860E+01 -0.21594001025E+02  0.10072748081E+02  0.24777714790E+02  0.51100000000E-03 0. -1.
        -11    1    3    3    0    0 -0.92864061413E+00 -0.75532969268E-01 -0.38915752735E+00  0.10097140496E+01  0.51100000000E-03 0.  1.
         12    1    3    3    0    0  0.11248106516E+02 -0.77507169966E+01  0.17245261986E+02  0.21999831252E+02  0.00000000000E+00 0. -1.
</event>
<event>
 7    1  0.2700100E-010  0.4778727E+02  0.7816164E-02  0.1312668E+00
        -11   -1    0    0    0    0  0.00000000000E+00  0.00000000000E+00  0.45593999997E+02  0.45594000000E+02  0.51100000000E-03 0.  1.
         11   -1    0    0    0    0 -0.00000000000E+00 -0.00000000000E+00 -0.45593999997E+02  0.45594000000E+02  0.51100000000E-03 0. -1.
    9900012    2    1    2    0    0  0.71170775336E+01  0.39882590744E+02 -0.15567588417E+02  0.47787266755E+02  0.19999980443E+02 0.  0.
        -12    1    1    2    0    0 -0.71170775336E+01 -0.39882590744E+02  0.15567588417E+02  0.43400733245E+02  0.00000000000E+00 0.  1.
         11    1    3    3    0    0  0.37939540794E+01  0.21880308581E+02 -0.15162896166E+02  0.26889689689E+02  0.51100000000E-03 0. -1.
        -11    1    3    3    0    0  0.22905438077E-01  0.35588556621E+01  0.40837718497E+01  0.54169337327E+01  0.51100000000E-03 0.  1.
        -12    1    3    3    0    0  0.33002180162E+01  0.14443426500E+02 -0.44884641014E+01  0.15480643333E+02  0.00000000000E+00 0.  1.
</event>
<event>
 7    1  0.2700100E-010  0.4778726E+02  0.7816164E-02  0.1312668E+00
        -11   -1    0    0    0    0  0.00000000000E+00  0.00000000000E+00  0.45593999997E+02  0.45594000000E+02  0.51100000000E-03 0.  1.
         11   -1    0    0    0    0 -0.00000000000E+00 -0.00000000000E+00 -0.45593999997E+02  0.45594000000E+02  0.51100000000E-03 0. -1.
    9900012    2    1    2    0    0  0.51061892052E+01  0.34234490389E+02 -0.26183022265E+02  0.47787260890E+02  0.19999953700E+02 0.  0.
        -12    1    1    2    0    0 -0.51061892052E+01 -0.34234490389E+02  0.26183022265E+02  0.43400739110E+02  0.00000000000E+00 0.  1.
         11    1    3    3    0    0 -0.63319981674E+01  0.76680521280E+01 -0.69905067621E+01  0.12155673954E+02  0.51100000000E-03 0. -1.
        -11    1    3    3    0    0 -0.89304047140E+00  0.18430893752E+01 -0.10393456094E+00  0.20506833941E+01  0.51100000000E-03 0.  1.
         12    1    3    3    0    0  0.12331227844E+02  0.24723348886E+02 -0.19088580942E+02  0.33580903541E+02  0.00000000000E+00 0. -1.
</event>
<event>
 7    1  0.2700100E-010  0.4778727E+02  0.7816164E-02  0.1312668E+00
        -11   -1    0    0    0    0  0.00000000000E+00  0.00000000000E+00  0.45593999997E+02  0.45594000000E+02  0.51100000000E-03 0.  1.
         11   -1    0    0    0    0 -0.00000000000E+00 -0.00000000000E+00 -0.45593999997E+02  0.45594000000E+02  0.51100000000E-03 0. -1.
    9900012    2    1    2    0    0 -0.25390572278E+02 -0.29639358455E+02 -0.18985535334E+02  0.47787270949E+02  0.19999999564E+02 0.  0.
        -12    1    1    2    0    0  0.25390572278E+02  0.29639358455E+02  0.18985535334E+02  0.43400729051E+02  0.00000000000E+00 0.  1.
         11    1    3    3    0    0 -0.30988084929E+01 -0.77355316677E+01  0.35704917326E+00  0.83407762607E+01  0.51100000000E-03 0. -1.
        -11    1    3    3    0    0 -0.21271029745E+02 -0.13823901461E+02 -0.10587495047E+02  0.27489125298E+02  0.51100000000E-03 0.  1.
        -12    1    3    3    0    0 -0.10207340397E+01 -0.80799253269E+01 -0.87550894602E+01  0.11957369390E+02  0.00000000000E+00 0.  1.
</event>
<event>
 7    1  0.2700100E-010  0.4778727E+02  0.7816164E-02  0.1312668E+00
        -11   -1    0    0    0    0  0.00000000000E+00  0.00000000000E+00  0.45593999997E+02  0.45594000000E+02  0.51100000000E-03 0.  1.
         11   -1    0    0    0    0 -0.00000000000E+00 -0.00000000000E+00 -0.45593999997E+02  0.45594000000E+02  0.51100000000E-03 0. -1.
    9900012    2    1    2    0    0 -0.35637103901E+02 -0.15612509780E+02 -0.19231993738E+02  0.47787271674E+02  0.20000002869E+02 0.  0.
        -12    1    1    2    0    0  0.35637103901E+02  0.15612509780E+02  0.19231993738E+02  0.43400728326E+02  0.00000000000E+00 0.  1.
         11    1    3    3    0    0 -0.14465372527E+02 -0.90223597970E+01 -0.91984803387E+01  0.19371680863E+02  0.51100000000E-03 0. -1.
        -11    1    3    3    0    0 -0.28684721993E+01  0.42977035431E+01 -0.30647943814E+01  0.60076079569E+01  0.51100000000E-03 0.  1.
        -12    1    3    3    0    0 -0.18303259175E+02 -0.10887853526E+02 -0.69687190182E+01  0.22407982854E+02  0.00000000000E+00 0.  1.
</event>
<event>
 7    1  0.2700100E-010  0.4778727E+02  0.7816164E-02  0.1312668E+00
        -11   -1    0    0    0    0  0.00000000000E+00  0.00000000000E+00  0.45593999997E+02  0.45594000000E+02  0.51100000000E-03 0.  1.
         11   -1    0    0    0    0 -0.00000000000E+00 -0.00000000000E+00 -0.45593999997E+02  0.45594000000E+02  0.51100000000E-03 0. -1.
    9900012    2    1    2    0    0  0.26470813275E+02 -0.21082863877E+02 -0.27174112043E+02  0.47787268784E+02  0.19999989696E+02 0.  0.
        -12    1    1    2    0    0 -0.26470813275E+02  0.21082863877E+02  0.27174112043E+02  0.43400731216E+02  0.00000000000E+00 0.  1.
         11    1    3    3    0    0  0.90858772579E+01 -0.15288307555E+02 -0.18773159845E+02  0.25859563884E+02  0.51100000000E-03 0. -1.
        -11    1    3    3    0    0  0.66091048851E+01 -0.61581354146E+01 -0.15834150114E+01  0.91711560081E+01  0.51100000000E-03 0.  1.
         12    1    3    3    0    0  0.10775831132E+02  0.36357909239E+00 -0.68175371865E+01  0.12756548892E+02  0.00000000000E+00 0. -1.
</event>
<event>
 7    1  0.2700100E-010  0.4778727E+02  0.7816164E-02  0.1312668E+00
        -11   -1    0    0    0    0  0.00000000000E+00  0.00000000000E+00  0.45593999997E+02  0.45594000000E+02  0.51100000000E-03 0. -1.
         11   -1    0    0    0    0 -0.00000000000E+00 -0.00000000000E+00 -0.45593999997E+02  0.45594000000E+02  0.51100000000E-03 0.  1.
    9900012    2    1    2    0    0  0.12402307367E+02  0.41578127086E+02  0.10321890118E+01  0.47787270811E+02  0.19999998936E+02 0.  0.
        -12    1    1    2    0    0 -0.12402307367E+02 -0.41578127086E+02 -0.10321890118E+01  0.43400729189E+02  0.00000000000E+00 0.  1.
         11    1    3    3    0    0 -0.10652897680E+01  0.17829819339E+02 -0.42222896934E+00  0.17866605092E+02  0.51100000000E-03 0. -1.
        -11    1    3    3    0    0  0.13300599494E+02  0.18402080515E+02  0.53208988992E+01  0.23320687801E+02  0.51100000000E-03 0.  1.
        -12    1    3    3    0    0  0.16699764108E+00  0.53462272320E+01 -0.38664809180E+01  0.65999779179E+01  0.00000000000E+00 0.  1.
</event>
<event>
 7    1  0.2700100E-010  0.4778727E+02  0.7816164E-02  0.1312668E+00
        -11   -1    0    0    0    0  0.00000000000E+00  0.00000000000E+00  0.45593999997E+02  0.45594000000E+02  0.51100000000E-03 0.  1.
         11   -1    0    0    0    0 -0.00000000000E+00 -0.00000000000E+00 -0.45593999997E+02  0.45594000000E+02  0.51100000000E-03 0. -1.
    9900012    2    1    2    0    0 -0.28735851670E+02 -0.30110389201E+02 -0.12297908149E+02  0.47787271275E+02  0.20000001050E+02 0.  0.
        -12    1    1    2    0    0  0.28735851670E+02  0.30110389201E+02  0.12297908149E+02  0.43400728725E+02  0.00000000000E+00 0.  1.
         11    1    3    3    0    0 -0.22228463086E+02 -0.27626438787E+02 -0.92382143651E+01  0.36642452103E+02  0.51100000000E-03 0. -1.
        -11    1    3    3    0    0  0.15258176938E+01 -0.20965521480E+01 -0.16879683882E+00  0.25984886334E+01  0.51100000000E-03 0.  1.
         12    1    3    3    0    0 -0.80332062782E+01 -0.38739826640E+00 -0.28908969451E+01  0.85463305384E+01  0.00000000000E+00 0. -1.
</event>
<event>
 7    1  0.2700100E-010  0.4778727E+02  0.7816164E-02  0.1312668E+00
        -11   -1    0    0    0    0  0.00000000000E+00  0.00000000000E+00  0.45593999997E+02  0.45594000000E+02  0.51100000000E-03 0. -1.
         11   -1    0    0    0    0 -0.00000000000E+00 -0.00000000000E+00 -0.45593999997E+02  0.45594000000E+02  0.51100000000E-03 0.  1.
    9900012    2    1    2    0    0  0.41928852698E+02 -0.10353490719E+02  0.42895103163E+01  0.47787270083E+02  0.19999995614E+02 0.  0.
        -12    1    1    2    0    0 -0.41928852698E+02  0.10353490719E+02 -0.42895103163E+01  0.43400729917E+02  0.00000000000E+00 0.  1.
         11    1    3    3    0    0  0.16305570622E+02  0.16689880236E+01  0.91058650448E+00  0.16416038571E+02  0.51100000000E-03 0. -1.
        -11    1    3    3    0    0  0.41064079503E+01 -0.51919425932E+01 -0.38614533967E+01  0.76635290005E+01  0.51100000000E-03 0.  1.
         12    1    3    3    0    0  0.21516874125E+02 -0.68305361499E+01  0.72403772085E+01  0.23707702511E+02  0.00000000000E+00 0. -1.
</event>
<event>
 7    1  0.2700100E-010  0.4778727E+02  0.7816164E-02  0.1312668E+00
        -11   -1    0    0    0    0  0.00000000000E+00  0.00000000000E+00  0.45593999997E+02  0.45594000000E+02  0.51100000000E-03 0.  1.
         11   -1    0    0    0    0 -0.00000000000E+00 -0.00000000000E+00 -0.45593999997E+02  0.45594000000E+02  0.51100000000E-03 0. -1.
    9900012    2    1    2    0    0  0.12160492001E+02 -0.18747400151E+02 -0.37205924923E+02  0.47787269274E+02  0.19999991928E+02 0.  0.
        -12    1    1    2    0    0 -0.12160492001E+02  0.18747400151E+02  0.37205924923E+02  0.43400730726E+02  0.00000000000E+00 0.  1.
         11    1    3    3    0    0  0.93335863778E+01 -0.13755053353E+02 -0.29211165931E+02  0.33609664425E+02  0.51100000000E-03 0. -1.
        -11    1    3    3    0    0 -0.38278134769E+01 -0.21287355331E+01 -0.38475066669E+01  0.58298352290E+01  0.51100000000E-03 0.  1.
        -12    1    3    3    0    0  0.66547191006E+01 -0.28636112647E+01 -0.41472523252E+01  0.83477696202E+01  0.00000000000E+00 0.  1.
</event>
<event>
 7    1  0.2700100E-010  0.4778726E+02  0.7816164E-02  0.1312668E+00
        -11   -1    0    0    0    0  0.00000000000E+00  0.00000000000E+00  0.45593999997E+02  0.45594000000E+02  0.51100000000E-03 0.  1.
         11   -1    0    0    0    0 -0.00000000000E+00 -0.00000000000E+00 -0.45593999997E+02  0.45594000000E+02  0.51100000000E-03 0. -1.
    9900012    2    1    2    0    0  0.22362987348E+02  0.77767328005E+00 -0.37187578079E+02  0.47787263345E+02  0.19999964893E+02 0.  0.
        -12    1    1    2    0    0 -0.22362987348E+02 -0.77767328005E+00  0.37187578079E+02  0.43400736655E+02  0.00000000000E+00 0.  1.
         11    1    3    3    0    0  0.14227615205E+02 -0.26031587275E+01 -0.30715344570E+02  0.33950461884E+02  0.51100000000E-03 0. -1.
        -11    1    3    3    0    0  0.67342144482E+01  0.36400617190E+01 -0.47187910726E+00  0.76695738933E+01  0.51100000000E-03 0.  1.
        -12    1    3    3    0    0  0.14011576949E+01 -0.25922971149E+00 -0.60003544015E+01  0.61672275678E+01  0.00000000000E+00 0.  1.
</event>
<event>
 7    1  0.2700100E-010  0.4778727E+02  0.7816164E-02  0.1312668E+00
        -11   -1    0    0    0    0  0.00000000000E+00  0.00000000000E+00  0.45593999997E+02  0.45594000000E+02  0.51100000000E-03 0.  1.
         11   -1    0    0    0    0 -0.00000000000E+00 -0.00000000000E+00 -0.45593999997E+02  0.45594000000E+02  0.51100000000E-03 0. -1.
    9900012    2    1    2    0    0  0.39036522012E+02 -0.16942095754E+01 -0.18891872082E+02  0.47787271577E+02  0.20000002427E+02 0.  0.
        -12    1    1    2    0    0 -0.39036522012E+02  0.16942095754E+01  0.18891872082E+02  0.43400728423E+02  0.00000000000E+00 0.  1.
         11    1    3    3    0    0  0.21943361142E+02  0.42108277279E+01 -0.18220120332E+02  0.28830798698E+02  0.51100000000E-03 0. -1.
        -11    1    3    3    0    0  0.74708928484E+01 -0.20204911519E+01  0.24541546421E+01  0.81190824430E+01  0.51100000000E-03 0.  1.
        -12    1    3    3    0    0  0.96222680223E+01 -0.38845461514E+01 -0.31259063916E+01  0.10837390436E+02  0.00000000000E+00 0.  1.
</event>
<event>
 7    1  0.2700100E-010  0.4778726E+02  0.7816164E-02  0.1312668E+00
        -11   -1    0    0    0    0  0.00000000000E+00  0.00000000000E+00  0.45593999997E+02  0.45594000000E+02  0.51100000000E-03 0.  1.
         11   -1    0    0    0    0 -0.00000000000E+00 -0.00000000000E+00 -0.45593999997E+02  0.45594000000E+02  0.51100000000E-03 0. -1.
    9900012    2    1    2    0    0  0.58542314554E+01 -0.42506806438E+02  0.65209935533E+01  0.47787262951E+02  0.19999963097E+02 0.  0.
        -12    1    1    2    0    0 -0.58542314554E+01  0.42506806438E+02 -0.65209935533E+01  0.43400737049E+02  0.00000000000E+00 0.  1.
         11    1    3    3    0    0  0.11470153788E+02 -0.30888006544E+02  0.35239409690E+00  0.32950835468E+02  0.51100000000E-03 0. -1.
        -11    1    3    3    0    0 -0.31645311069E+01 -0.75723149749E+01  0.58810691835E+01  0.10096592802E+02  0.51100000000E-03 0.  1.
         12    1    3    3    0    0 -0.24513912257E+01 -0.40464849193E+01  0.28753027291E+00  0.47398346808E+01  0.00000000000E+00 0. -1.
</event>
<event>
 7    1  0.2700100E-010  0.4778727E+02  0.7816164E-02  0.1312668E+00
        -11   -1    0    0    0    0  0.00000000000E+00  0.00000000000E+00  0.45593999997E+02  0.45594000000E+02  0.51100000000E-03 0.  1.
         11   -1    0    0    0    0 -0.00000000000E+00 -0.00000000000E+00 -0.45593999997E+02  0.45594000000E+02  0.51100000000E-03 0. -1.
    9900012    2    1    2    0    0  0.40088556727E+02 -0.11020618709E+02 -0.12452981533E+02  0.47787272285E+02  0.20000005655E+02 0.  0.
        -12    1    1    2    0    0 -0.40088556727E+02  0.11020618709E+02  0.12452981533E+02  0.43400727715E+02  0.00000000000E+00 0.  1.
         11    1    3    3    0    0  0.12477324949E+02  0.52565330140E+01 -0.39991914970E+01  0.14117659512E+02  0.51100000000E-03 0. -1.
        -11    1    3    3    0    0 -0.28823194271E+00 -0.50938765054E-01  0.40851650261E-01  0.29553600294E+00  0.51100000000E-03 0.  1.
         12    1    3    3    0    0  0.27899463720E+02 -0.16226212958E+02 -0.84946416862E+01  0.33374076769E+02  0.00000000000E+00 0. -1.
</event>
<event>
 7    1  0.2700100E-010  0.4778727E+02  0.7816164E-02  0.1312668E+00
        -11   -1    0    0    0    0  0.00000000000E+00  0.00000000000E+00  0.45593999997E+02  0.45594000000E+02  0.51100000000E-03 0.  1.
         11   -1    0    0    0    0 -0.00000000000E+00 -0.00000000000E+00 -0.45593999997E+02  0.45594000000E+02  0.51100000000E-03 0. -1.
    9900012    2    1    2    0    0  0.49947778056E+01 -0.43026594630E+02 -0.27180396409E+01  0.47787269703E+02  0.19999993886E+02 0.  0.
        -12    1    1    2    0    0 -0.49947778056E+01  0.43026594630E+02  0.27180396409E+01  0.43400730297E+02  0.00000000000E+00 0.  1.
         11    1    3    3    0    0 -0.68279842114E+00 -0.22143910715E+01  0.13757790934E+01  0.26949044281E+01  0.51100000000E-03 0.  1.
        -11    1    3    3    0    0 -0.47335171801E+01 -0.24130807245E+02 -0.60725527008E+01  0.25329388854E+02  0.51100000000E-03 0. -1.
        -12    1    3    3    0    0  0.10411093407E+02 -0.16681396314E+02  0.19787339665E+01  0.19762976421E+02  0.00000000000E+00 0.  1.
</event>
<event>
 7    1  0.2700100E-010  0.4778727E+02  0.7816164E-02  0.1312668E+00
        -11   -1    0    0    0    0  0.00000000000E+00  0.00000000000E+00  0.45593999997E+02  0.45594000000E+02  0.51100000000E-03 0. -1.
         11   -1    0    0    0    0 -0.00000000000E+00 -0.00000000000E+00 -0.45593999997E+02  0.45594000000E+02  0.51100000000E-03 0.  1.
    9900012    2    1    2    0    0  0.27079130300E+02 -0.50288879112E+01  0.33541823991E+02  0.47787274568E+02  0.20000016064E+02 0.  0.
        -12    1    1    2    0    0 -0.27079130300E+02  0.50288879112E+01 -0.33541823991E+02  0.43400725432E+02  0.00000000000E+00 0.  1.
         11    1    3    3    0    0  0.16824849694E+02 -0.73471760427E+01  0.22152149187E+02  0.28771066662E+02  0.51100000000E-03 0. -1.
        -11    1    3    3    0    0 -0.52761946731E+00 -0.30937242309E+01  0.19158176791E+01  0.36769375246E+01  0.51100000000E-03 0.  1.
         12    1    3    3    0    0  0.10781900073E+02  0.54120123623E+01  0.94738571253E+01  0.15339270381E+02  0.00000000000E+00 0. -1.
</event>
<event>
 7    1  0.2700100E-010  0.4778727E+02  0.7816164E-02  0.1312668E+00
        -11   -1    0    0    0    0  0.00000000000E+00  0.00000000000E+00  0.45593999997E+02  0.45594000000E+02  0.51100000000E-03 0.  1.
         11   -1    0    0    0    0 -0.00000000000E+00 -0.00000000000E+00 -0.45593999997E+02  0.45594000000E+02  0.51100000000E-03 0. -1.
    9900012    2    1    2    0    0 -0.21698445205E+02 -0.33865990135E+02 -0.16306292297E+02  0.47787274422E+02  0.20000015402E+02 0.  0.
        -12    1    1    2    0    0  0.21698445205E+02  0.33865990135E+02  0.16306292297E+02  0.43400725578E+02  0.00000000000E+00 0.  1.
         11    1    3    3    0    0 -0.38723980542E+01 -0.11868243992E+02 -0.74629754149E+01  0.14544644528E+02  0.51100000000E-03 0. -1.
        -11    1    3    3    0    0 -0.53084616795E+01 -0.70394476363E+01  0.42126569033E+01  0.97713902221E+01  0.51100000000E-03 0.  1.
        -12    1    3    3    0    0 -0.12517585472E+02 -0.14958298507E+02 -0.13055973786E+02  0.23471239673E+02  0.00000000000E+00 0.  1.
</event>
<event>
 7    1  0.2700100E-010  0.4778726E+02  0.7816164E-02  0.1312668E+00
        -11   -1    0    0    0    0  0.00000000000E+00  0.00000000000E+00  0.45593999997E+02  0.45594000000E+02  0.51100000000E-03 0.  1.
         11   -1    0    0    0    0 -0.00000000000E+00 -0.00000000000E+00 -0.45593999997E+02  0.45594000000E+02  0.51100000000E-03 0. -1.
    9900012    2    1    2    0    0 -0.33315229102E+02 -0.22592035885E+02 -0.16227132817E+02  0.47787257898E+02  0.19999940061E+02 0.  0.
        -12    1    1    2    0    0  0.33315229102E+02  0.22592035885E+02  0.16227132817E+02  0.43400742102E+02  0.00000000000E+00 0.  1.
         11    1    3    3    0    0 -0.50881785377E+01 -0.72008087703E+01 -0.71188966047E+01  0.11332250302E+02  0.51100000000E-03 0. -1.
        -11    1    3    3    0    0 -0.10166099984E+02 -0.12578517848E+02 -0.32682632513E+00  0.16176387602E+02  0.51100000000E-03 0.  1.
        -12    1    3    3    0    0 -0.18060950580E+02 -0.28127092669E+01 -0.87814098869E+01  0.20278619994E+02  0.00000000000E+00 0.  1.
</event>
<event>
 7    1  0.2700100E-010  0.4778727E+02  0.7816164E-02  0.1312668E+00
        -11   -1    0    0    0    0  0.00000000000E+00  0.00000000000E+00  0.45593999997E+02  0.45594000000E+02  0.51100000000E-03 0.  1.
         11   -1    0    0    0    0 -0.00000000000E+00 -0.00000000000E+00 -0.45593999997E+02  0.45594000000E+02  0.51100000000E-03 0. -1.
    9900012    2    1    2    0    0 -0.18737402732E+02 -0.34552207356E+02 -0.18403214359E+02  0.47787267368E+02  0.19999983236E+02 0.  0.
        -12    1    1    2    0    0  0.18737402732E+02  0.34552207356E+02  0.18403214359E+02  0.43400732632E+02  0.00000000000E+00 0.  1.
         11    1    3    3    0    0 -0.96872179848E+01 -0.19135425067E+02 -0.14095436954E+02  0.25664918235E+02  0.51100000000E-03 0. -1.
        -11    1    3    3    0    0 -0.29023840308E+01 -0.75320551653E+01  0.41048835742E+01  0.90557030370E+01  0.51100000000E-03 0.  1.
        -12    1    3    3    0    0 -0.61478007163E+01 -0.78847271229E+01 -0.84126609788E+01  0.13066646096E+02  0.00000000000E+00 0.  1.
</event>
<event>
 7    1  0.2700100E-010  0.4778727E+02  0.7816164E-02  0.1312668E+00
        -11   -1    0    0    0    0  0.00000000000E+00  0.00000000000E+00  0.45593999997E+02  0.45594000000E+02  0.51100000000E-03 0.  1.
         11   -1    0    0    0    0 -0.00000000000E+00 -0.00000000000E+00 -0.45593999997E+02  0.45594000000E+02  0.51100000000E-03 0. -1.
    9900012    2    1    2    0    0  0.16675576297E+02  0.17972068260E+02 -0.35812751909E+02  0.47787270955E+02  0.19999999590E+02 0.  0.
        -12    1    1    2    0    0 -0.16675576297E+02 -0.17972068260E+02  0.35812751909E+02  0.43400729045E+02  0.00000000000E+00 0.  1.
         11    1    3    3    0    0  0.66445923802E+01  0.21526669315E+01 -0.62809999101E+01  0.93933776113E+01  0.51100000000E-03 0. -1.
        -11    1    3    3    0    0 -0.24665332271E+01  0.12509162576E+01 -0.12274608745E+02  0.12582312894E+02  0.51100000000E-03 0.  1.
        -12    1    3    3    0    0  0.12497517144E+02  0.14568485071E+02 -0.17257143253E+02  0.25811580449E+02  0.00000000000E+00 0.  1.
</event>
<event>
 7    1  0.2700100E-010  0.4778727E+02  0.7816164E-02  0.1312668E+00
        -11   -1    0    0    0    0  0.00000000000E+00  0.00000000000E+00  0.45593999997E+02  0.45594000000E+02  0.51100000000E-03 0.  1.
         11   -1    0    0    0    0 -0.00000000000E+00 -0.00000000000E+00 -0.45593999997E+02  0.45594000000E+02  0.51100000000E-03 0. -1.
    9900012    2    1    2    0    0  0.30705209466E+02 -0.23305321226E+02 -0.19941793060E+02  0.47787274243E+02  0.20000014583E+02 0.  0.
        -12    1    1    2    0    0 -0.30705209466E+02  0.23305321226E+02  0.19941793060E+02  0.43400725757E+02  0.00000000000E+00 0.  1.
         11    1    3    3    0    0  0.15166959640E+02 -0.71922061024E+01 -0.14681327835E+02  0.22300356065E+02  0.51100000000E-03 0. -1.
        -11    1    3    3    0    0  0.15374444469E+00 -0.28146740583E+01 -0.42837315953E+01  0.51280000049E+01  0.51100000000E-03 0.  1.
         12    1    3    3    0    0  0.15384505381E+02 -0.13298441066E+02 -0.97673362885E+00  0.20358918173E+02  0.00000000000E+00 0. -1.
</event>
<event>
 7    1  0.2700100E-010  0.4778727E+02  0.7816164E-02  0.1312668E+00
        -11   -1    0    0    0    0  0.00000000000E+00  0.00000000000E+00  0.45593999997E+02  0.45594000000E+02  0.51100000000E-03 0.  1.
         11   -1    0    0    0    0 -0.00000000000E+00 -0.00000000000E+00 -0.45593999997E+02  0.45594000000E+02  0.51100000000E-03 0. -1.
    9900012    2    1    2    0    0  0.39931030438E+02  0.35057930618E+01 -0.16638670430E+02  0.47787272696E+02  0.20000007530E+02 0.  0.
        -12    1    1    2    0    0 -0.39931030438E+02 -0.35057930618E+01  0.16638670430E+02  0.43400727304E+02  0.00000000000E+00 0.  1.
         11    1    3    3    0    0  0.47163516660E+01  0.29950347301E+01 -0.47837173468E+00  0.56074099056E+01  0.51100000000E-03 0. -1.
        -11    1    3    3    0    0  0.36188919701E+01  0.47190476607E+01 -0.66397721689E+01  0.89136055910E+01  0.51100000000E-03 0.  1.
        -12    1    3    3    0    0  0.31595786802E+02 -0.42082893290E+01 -0.95205265267E+01  0.33266257199E+02  0.00000000000E+00 0.  1.
</event>
<event>
 7    1  0.2700100E-010  0.4778727E+02  0.7816164E-02  0.1312668E+00
        -11   -1    0    0    0    0  0.00000000000E+00  0.00000000000E+00  0.45593999997E+02  0.45594000000E+02  0.51100000000E-03 0.  1.
         11   -1    0    0    0    0 -0.00000000000E+00 -0.00000000000E+00 -0.45593999997E+02  0.45594000000E+02  0.51100000000E-03 0. -1.
    9900012    2    1    2    0    0 -0.35253324744E+02  0.25252148922E+02  0.17762708938E+01  0.47787273405E+02  0.20000010764E+02 0.  0.
        -12    1    1    2    0    0  0.35253324744E+02 -0.25252148922E+02 -0.17762708938E+01  0.43400726595E+02  0.00000000000E+00 0.  1.
         11    1    3    3    0    0 -0.37497796156E+01  0.38831892880E+01 -0.34548473687E+01  0.64090542839E+01  0.51100000000E-03 0. -1.
        -11    1    3    3    0    0 -0.18787948913E+02  0.38301927324E+01  0.37834940777E+00  0.19178126845E+02  0.51100000000E-03 0.  1.
        -12    1    3    3    0    0 -0.12715596215E+02  0.17538766902E+02  0.48527688547E+01  0.22200092277E+02  0.00000000000E+00 0.  1.
</event>
<event>
 7    1  0.2700100E-010  0.4778727E+02  0.7816164E-02  0.1312668E+00
        -11   -1    0    0    0    0  0.00000000000E+00  0.00000000000E+00  0.45593999997E+02  0.45594000000E+02  0.51100000000E-03 0.  1.
         11   -1    0    0    0    0 -0.00000000000E+00 -0.00000000000E+00 -0.45593999997E+02  0.45594000000E+02  0.51100000000E-03 0. -1.
    9900012    2    1    2    0    0 -0.32752796751E+02  0.70368850346E+01 -0.27592754548E+02  0.47787267868E+02  0.19999985519E+02 0.  0.
        -12    1    1    2    0    0  0.32752796751E+02 -0.70368850346E+01  0.27592754548E+02  0.43400732132E+02  0.00000000000E+00 0.  1.
         11    1    3    3    0    0 -0.22792578671E+02  0.14008444176E+01 -0.11278141089E+02  0.25468813758E+02  0.51100000000E-03 0. -1.
        -11    1    3    3    0    0 -0.43334343894E+01  0.12668198919E+01 -0.14180252876E+02  0.14881634928E+02  0.51100000000E-03 0.  1.
         12    1    3    3    0    0 -0.56267836906E+01  0.43692207251E+01 -0.21343605829E+01  0.74368191819E+01  0.00000000000E+00 0. -1.
</event>
<event>
 7    1  0.2700100E-010  0.4778722E+02  0.7816164E-02  0.1312668E+00
        -11   -1    0    0    0    0  0.00000000000E+00  0.00000000000E+00  0.45593999997E+02  0.45594000000E+02  0.51100000000E-03 0. -1.
         11   -1    0    0    0    0 -0.00000000000E+00 -0.00000000000E+00 -0.45593999997E+02  0.45594000000E+02  0.51100000000E-03 0.  1.
    9900012    2    1    2    0    0  0.12963554961E+02 -0.40177809104E+02  0.10065646606E+02  0.47787224163E+02  0.19999786247E+02 0.  0.
        -12    1    1    2    0    0 -0.12963554961E+02  0.40177809104E+02 -0.10065646606E+02  0.43400775837E+02  0.00000000000E+00 0.  1.
         11    1    3    3    0    0  0.23489244970E+01 -0.29672866883E+02  0.82977533677E+01  0.30900634080E+02  0.51100000000E-03 0. -1.
        -11    1    3    3    0    0  0.11852542270E+02 -0.97138987120E+01  0.16330722482E+01  0.15411343604E+02  0.51100000000E-03 0.  1.
        -12    1    3    3    0    0 -0.12379118059E+01 -0.79104350957E+00  0.13482099051E+00  0.14752464786E+01  0.00000000000E+00 0.  1.
</event>
<event>
 7    1  0.2700100E-010  0.4778726E+02  0.7816164E-02  0.1312668E+00
        -11   -1    0    0    0    0  0.00000000000E+00  0.00000000000E+00  0.45593999997E+02  0.45594000000E+02  0.51100000000E-03 0. -1.
         11   -1    0    0    0    0 -0.00000000000E+00 -0.00000000000E+00 -0.45593999997E+02  0.45594000000E+02  0.51100000000E-03 0.  1.
    9900012    2    1    2    0    0 -0.23780203249E+02 -0.19105799145E+02  0.30872228619E+02  0.47787261211E+02  0.19999955166E+02 0.  0.
        -12    1    1    2    0    0  0.23780203249E+02  0.19105799145E+02 -0.30872228619E+02  0.43400738789E+02  0.00000000000E+00 0.  1.
         11    1    3    3    0    0 -0.14627599895E+02 -0.42011382151E+01  0.10009867881E+02  0.18215754068E+02  0.51100000000E-03 0.  1.
        -11    1    3    3    0    0 -0.77755354039E+01 -0.14511089212E+02  0.22182187202E+02  0.27623904327E+02  0.51100000000E-03 0. -1.
        -12    1    3    3    0    0 -0.13770679499E+01 -0.39357171722E+00 -0.13198264640E+01  0.19476028164E+01  0.00000000000E+00 0.  1.
</event>
<event>
 7    1  0.2700100E-010  0.4778727E+02  0.7816164E-02  0.1312668E+00
        -11   -1    0    0    0    0  0.00000000000E+00  0.00000000000E+00  0.45593999997E+02  0.45594000000E+02  0.51100000000E-03 0.  1.
         11   -1    0    0    0    0 -0.00000000000E+00 -0.00000000000E+00 -0.45593999997E+02  0.45594000000E+02  0.51100000000E-03 0. -1.
    9900012    2    1    2    0    0  0.30602554619E+02 -0.30178230781E+02 -0.60317079147E+01  0.47787268870E+02  0.19999990087E+02 0.  0.
        -12    1    1    2    0    0 -0.30602554619E+02  0.30178230781E+02  0.60317079147E+01  0.43400731130E+02  0.00000000000E+00 0.  1.
         11    1    3    3    0    0  0.25017109245E+02 -0.17007915823E+02 -0.34076592290E+00  0.30252951547E+02  0.51100000000E-03 0. -1.
        -11    1    3    3    0    0  0.36055341955E+00 -0.10817784646E+02 -0.42294332240E+01  0.11620781775E+02  0.51100000000E-03 0.  1.
        -12    1    3    3    0    0  0.52248919541E+01 -0.23525303121E+01 -0.14615087678E+01  0.59135355482E+01  0.00000000000E+00 0.  1.
</event>
<event>
 7    1  0.2700100E-010  0.4778727E+02  0.7816164E-02  0.1312668E+00
        -11   -1    0    0    0    0  0.00000000000E+00  0.00000000000E+00  0.45593999997E+02  0.45594000000E+02  0.51100000000E-03 0.  1.
         11   -1    0    0    0    0 -0.00000000000E+00 -0.00000000000E+00 -0.45593999997E+02  0.45594000000E+02  0.51100000000E-03 0. -1.
    9900012    2    1    2    0    0  0.17266443656E+02  0.28341307375E+01 -0.39717259029E+02  0.47787273757E+02  0.20000012370E+02 0.  0.
        -12    1    1    2    0    0 -0.17266443656E+02 -0.28341307375E+01  0.39717259029E+02  0.43400726243E+02  0.00000000000E+00 0.  1.
         11    1    3    3    0    0  0.14578960495E+02  0.59003602109E+01 -0.25811917278E+02  0.30226071752E+02  0.51100000000E-03 0. -1.
        -11    1    3    3    0    0  0.39512238086E+01  0.14742483819E+01 -0.18272655447E+01  0.45961372378E+01  0.51100000000E-03 0.  1.
         12    1    3    3    0    0 -0.12637406470E+01 -0.45404778553E+01 -0.12078076207E+02  0.12965064768E+02  0.00000000000E+00 0. -1.
</event>
<event>
 7    1  0.2700100E-010  0.4778727E+02  0.7816164E-02  0.1312668E+00
        -11   -1    0    0    0    0  0.00000000000E+00  0.00000000000E+00  0.45593999997E+02  0.45594000000E+02  0.51100000000E-03 0.  1.
         11   -1    0    0    0    0 -0.00000000000E+00 -0.00000000000E+00 -0.45593999997E+02  0.45594000000E+02  0.51100000000E-03 0. -1.
    9900012    2    1    2    0    0  0.11990163550E+02 -0.18854384585E+02 -0.37207140597E+02  0.47787272455E+02  0.20000006433E+02 0.  0.
        -12    1    1    2    0    0 -0.11990163550E+02  0.18854384585E+02  0.37207140597E+02  0.43400727545E+02  0.00000000000E+00 0.  1.
         11    1    3    3    0    0  0.65892916269E+01 -0.19936402763E+01 -0.20792672754E+01  0.71914336790E+01  0.51100000000E-03 0. -1.
        -11    1    3    3    0    0  0.75312434043E+01 -0.16556139666E+02 -0.31057444858E+02  0.35991530521E+02  0.51100000000E-03 0.  1.
        -12    1    3    3    0    0 -0.21303714817E+01 -0.30460464257E+00 -0.40704284634E+01  0.46043082557E+01  0.00000000000E+00 0.  1.
</event>
<event>
 7    1  0.2700100E-010  0.4778727E+02  0.7816164E-02  0.1312668E+00
        -11   -1    0    0    0    0  0.00000000000E+00  0.00000000000E+00  0.45593999997E+02  0.45594000000E+02  0.51100000000E-03 0.  1.
         11   -1    0    0    0    0 -0.00000000000E+00 -0.00000000000E+00 -0.45593999997E+02  0.45594000000E+02  0.51100000000E-03 0. -1.
    9900012    2    1    2    0    0 -0.35068161196E+02  0.18669298944E+01 -0.25502203587E+02  0.47787265621E+02  0.19999975270E+02 0.  0.
        -12    1    1    2    0    0  0.35068161196E+02 -0.18669298944E+01  0.25502203587E+02  0.43400734379E+02  0.00000000000E+00 0.  1.
         11    1    3    3    0    0 -0.13149993229E+02  0.72428634306E+01 -0.39796919430E+01  0.15531237582E+02  0.51100000000E-03 0. -1.
        -11    1    3    3    0    0 -0.13802320692E+02 -0.67328392834E+01 -0.16830548312E+02  0.22783821849E+02  0.51100000000E-03 0.  1.
        -12    1    3    3    0    0 -0.81158472750E+01  0.13569057472E+01 -0.46919633317E+01  0.94722061899E+01  0.00000000000E+00 0.  1.
</event>
<event>
 7    1  0.2700100E-010  0.4778727E+02  0.7816164E-02  0.1312668E+00
        -11   -1    0    0    0    0  0.00000000000E+00  0.00000000000E+00  0.45593999997E+02  0.45594000000E+02  0.51100000000E-03 0.  1.
         11   -1    0    0    0    0 -0.00000000000E+00 -0.00000000000E+00 -0.45593999997E+02  0.45594000000E+02  0.51100000000E-03 0. -1.
    9900012    2    1    2    0    0  0.11833840354E+02 -0.26372104801E+02 -0.32374303804E+02  0.47787271481E+02  0.20000001991E+02 0.  0.
        -12    1    1    2    0    0 -0.11833840354E+02  0.26372104801E+02  0.32374303804E+02  0.43400728519E+02  0.00000000000E+00 0.  1.
         11    1    3    3    0    0  0.11008564054E+02 -0.18304980042E+02 -0.16650651685E+02  0.27083297042E+02  0.51100000000E-03 0. -1.
        -11    1    3    3    0    0 -0.35716427612E+01 -0.25046739300E+01 -0.11843426459E+02  0.12621282584E+02  0.51100000000E-03 0.  1.
        -12    1    3    3    0    0  0.43969190611E+01 -0.55624508298E+01 -0.38802256599E+01  0.80826918558E+01  0.00000000000E+00 0.  1.
</event>
<event>
 7    1  0.2700100E-010  0.4778727E+02  0.7816164E-02  0.1312668E+00
        -11   -1    0    0    0    0  0.00000000000E+00  0.00000000000E+00  0.45593999997E+02  0.45594000000E+02  0.51100000000E-03 0. -1.
         11   -1    0    0    0    0 -0.00000000000E+00 -0.00000000000E+00 -0.45593999997E+02  0.45594000000E+02  0.51100000000E-03 0.  1.
    9900012    2    1    2    0    0 -0.16686735533E+02 -0.32073237479E+02  0.24010067269E+02  0.47787273792E+02  0.20000012527E+02 0.  0.
        -12    1    1    2    0    0  0.16686735533E+02  0.32073237479E+02 -0.24010067269E+02  0.43400726208E+02  0.00000000000E+00 0.  1.
         11    1    3    3    0    0 -0.74444732108E+01 -0.23625142295E+02  0.16899357899E+02  0.29985927158E+02  0.51100000000E-03 0. -1.
        -11    1    3    3    0    0 -0.10096933224E+02 -0.67656552482E+01  0.19539637464E+01  0.12310163527E+02  0.51100000000E-03 0.  1.
        -12    1    3    3    0    0  0.85467090240E+00 -0.16824399353E+01  0.51567456239E+01  0.54911831072E+01  0.00000000000E+00 0.  1.
</event>
<event>
 7    1  0.2700100E-010  0.4778727E+02  0.7816164E-02  0.1312668E+00
        -11   -1    0    0    0    0  0.00000000000E+00  0.00000000000E+00  0.45593999997E+02  0.45594000000E+02  0.51100000000E-03 0. -1.
         11   -1    0    0    0    0 -0.00000000000E+00 -0.00000000000E+00 -0.45593999997E+02  0.45594000000E+02  0.51100000000E-03 0.  1.
    9900012    2    1    2    0    0  0.21698211623E+02  0.19203032808E+02  0.32311837454E+02  0.47787266177E+02  0.19999977809E+02 0.  0.
        -12    1    1    2    0    0 -0.21698211623E+02 -0.19203032808E+02 -0.32311837454E+02  0.43400733823E+02  0.00000000000E+00 0.  1.
         11    1    3    3    0    0  0.21459769351E+02  0.18833780209E+02  0.31576419864E+02  0.42571155366E+02  0.51100000000E-03 0. -1.
        -11    1    3    3    0    0 -0.28630001678E+00  0.24506681075E+01 -0.78096549920E+00  0.25879816932E+01  0.51100000000E-03 0.  1.
         12    1    3    3    0    0  0.52474228861E+00 -0.20814155077E+01  0.15163830900E+01  0.26281291180E+01  0.00000000000E+00 0. -1.
</event>
<event>
 7    1  0.2700100E-010  0.4778727E+02  0.7816164E-02  0.1312668E+00
        -11   -1    0    0    0    0  0.00000000000E+00  0.00000000000E+00  0.45593999997E+02  0.45594000000E+02  0.51100000000E-03 0.  1.
         11   -1    0    0    0    0 -0.00000000000E+00 -0.00000000000E+00 -0.45593999997E+02  0.45594000000E+02  0.51100000000E-03 0. -1.
    9900012    2    1    2    0    0 -0.40500643040E+02  0.13912672910E+02 -0.70539710192E+01  0.47787273493E+02  0.20000011165E+02 0.  0.
        -12    1    1    2    0    0  0.40500643040E+02 -0.13912672910E+02  0.70539710192E+01  0.43400726507E+02  0.00000000000E+00 0.  1.
         11    1    3    3    0    0 -0.10786373601E+02  0.13535699340E+02 -0.18317516106E+01  0.17404491556E+02  0.51100000000E-03 0. -1.
        -11    1    3    3    0    0 -0.10018890465E+01  0.13013643177E+00 -0.88599305333E+00  0.13437637828E+01  0.51100000000E-03 0.  1.
         12    1    3    3    0    0 -0.28712380393E+02  0.24683713805E+00 -0.43362263552E+01  0.29039018155E+02  0.00000000000E+00 0. -1.
</event>
<event>
 7    1  0.2700100E-010  0.4778724E+02  0.7816164E-02  0.1312668E+00
        -11   -1    0    0    0    0  0.00000000000E+00  0.00000000000E+00  0.45593999997E+02  0.45594000000E+02  0.51100000000E-03 0. -1.
         11   -1    0    0    0    0 -0.00000000000E+00 -0.00000000000E+00 -0.45593999997E+02  0.45594000000E+02  0.51100000000E-03 0.  1.
    9900012    2    1    2    0    0  0.76984425304E+00  0.40295839058E+02  0.16102136475E+02  0.47787238432E+02  0.19999851308E+02 0.  0.
        -12    1    1    2    0    0 -0.76984425304E+00 -0.40295839058E+02 -0.16102136475E+02  0.43400761568E+02  0.00000000000E+00 0.  1.
         11    1    3    3    0    0 -0.16439304196E+01  0.61385160886E+01  0.24640419075E+01  0.68158190833E+01  0.51100000000E-03 0. -1.
        -11    1    3    3    0    0  0.51491555253E+00  0.34878657054E+02  0.91766535673E+01  0.36069333607E+02  0.51100000000E-03 0.  1.
        -12    1    3    3    0    0  0.18988591201E+01 -0.72133408426E+00  0.44614410003E+01  0.49020857416E+01  0.00000000000E+00 0.  1.
</event>
<event>
 7    1  0.2700100E-010  0.4778727E+02  0.7816164E-02  0.1312668E+00
        -11   -1    0    0    0    0  0.00000000000E+00  0.00000000000E+00  0.45593999997E+02  0.45594000000E+02  0.51100000000E-03 0.  1.
         11   -1    0    0    0    0 -0.00000000000E+00 -0.00000000000E+00 -0.45593999997E+02  0.45594000000E+02  0.51100000000E-03 0. -1.
    9900012    2    1    2    0    0 -0.28203336932E+02  0.29408136946E+02 -0.14945117171E+02  0.47787271204E+02  0.20000000729E+02 0.  0.
        -12    1    1    2    0    0  0.28203336932E+02 -0.29408136946E+02  0.14945117171E+02  0.43400728796E+02  0.00000000000E+00 0.  1.
         11    1    3    3    0    0 -0.20554419878E+02  0.23507238440E+02 -0.13379765781E+02  0.33971937952E+02  0.51100000000E-03 0. -1.
        -11    1    3    3    0    0  0.18274306792E+01 -0.79142369782E+00 -0.92681574628E+00  0.21965523088E+01  0.51100000000E-03 0.  1.
         12    1    3    3    0    0 -0.94763477338E+01  0.66923222036E+01 -0.63853564326E+00  0.11618780944E+02  0.00000000000E+00 0. -1.
</event>
<event>
 7    1  0.2700100E-010  0.4778727E+02  0.7816164E-02  0.1312668E+00
        -11   -1    0    0    0    0  0.00000000000E+00  0.00000000000E+00  0.45593999997E+02  0.45594000000E+02  0.51100000000E-03 0.  1.
         11   -1    0    0    0    0 -0.00000000000E+00 -0.00000000000E+00 -0.45593999997E+02  0.45594000000E+02  0.51100000000E-03 0. -1.
    9900012    2    1    2    0    0 -0.22792793768E+02 -0.14036181332E+01 -0.36907204261E+02  0.47787270536E+02  0.19999997683E+02 0.  0.
        -12    1    1    2    0    0  0.22792793768E+02  0.14036181332E+01  0.36907204261E+02  0.43400729464E+02  0.00000000000E+00 0.  1.
         11    1    3    3    0    0 -0.13846274663E+02 -0.55507548270E+00 -0.16912235161E+02  0.21864380376E+02  0.51100000000E-03 0. -1.
        -11    1    3    3    0    0 -0.10222718405E+00  0.49965569174E+01 -0.28165424077E+01  0.57366316616E+01  0.51100000000E-03 0.  1.
        -12    1    3    3    0    0 -0.88442919216E+01 -0.58450995678E+01 -0.17178426692E+02  0.20186258499E+02  0.00000000000E+00 0.  1.
</event>
<event>
 7    1  0.2700100E-010  0.4778730E+02  0.7816164E-02  0.1312668E+00
        -11   -1    0    0    0    0  0.00000000000E+00  0.00000000000E+00  0.45593999997E+02  0.45594000000E+02  0.51100000000E-03 0. -1.
         11   -1    0    0    0    0 -0.00000000000E+00 -0.00000000000E+00 -0.45593999997E+02  0.45594000000E+02  0.51100000000E-03 0.  1.
    9900012    2    1    2    0    0  0.43339372562E+02  0.99455221656E+00  0.20809022332E+01  0.47787302975E+02  0.20000145583E+02 0.  0.
        -12    1    1    2    0    0 -0.43339372562E+02 -0.99455221656E+00 -0.20809022332E+01  0.43400697025E+02  0.00000000000E+00 0.  1.
         11    1    3    3    0    0  0.20423900110E+01 -0.21792802168E+01  0.20071052131E+01  0.35984845168E+01  0.51100000000E-03 0. -1.
        -11    1    3    3    0    0  0.14679007743E+02  0.16496529248E+01  0.74247276097E+01  0.16532428843E+02  0.51100000000E-03 0.  1.
        -12    1    3    3    0    0  0.26617974808E+02  0.15241795086E+01 -0.73509305895E+01  0.27656389615E+02  0.00000000000E+00 0.  1.
</event>
<event>
 7    1  0.2700100E-010  0.4778727E+02  0.7816164E-02  0.1312668E+00
        -11   -1    0    0    0    0  0.00000000000E+00  0.00000000000E+00  0.45593999997E+02  0.45594000000E+02  0.51100000000E-03 0. -1.
         11   -1    0    0    0    0 -0.00000000000E+00 -0.00000000000E+00 -0.45593999997E+02  0.45594000000E+02  0.51100000000E-03 0.  1.
    9900012    2    1    2    0    0  0.58769378841E+00 -0.40328570592E+02  0.16027609922E+02  0.47787271091E+02  0.20000000214E+02 0.  0.
        -12    1    1    2    0    0 -0.58769378841E+00  0.40328570592E+02 -0.16027609922E+02  0.43400728909E+02  0.00000000000E+00 0.  1.
         11    1    3    3    0    0 -0.54087123262E+01 -0.22805509095E+02  0.31285647987E+01  0.23646000340E+02  0.51100000000E-03 0. -1.
        -11    1    3    3    0    0  0.62018695109E+01 -0.15265746861E+02  0.13999539393E+02  0.21621593746E+02  0.51100000000E-03 0.  1.
        -12    1    3    3    0    0 -0.20546339629E+00 -0.22573146360E+01 -0.11004942694E+01  0.25196770051E+01  0.00000000000E+00 0.  1.
</event>
<event>
 7    1  0.2700100E-010  0.4778727E+02  0.7816164E-02  0.1312668E+00
        -11   -1    0    0    0    0  0.00000000000E+00  0.00000000000E+00  0.45593999997E+02  0.45594000000E+02  0.51100000000E-03 0. -1.
         11   -1    0    0    0    0 -0.00000000000E+00 -0.00000000000E+00 -0.45593999997E+02  0.45594000000E+02  0.51100000000E-03 0.  1.
    9900012    2    1    2    0    0 -0.42068079068E+02 -0.10296137523E+02 -0.28087900820E+01  0.47787273899E+02  0.20000013014E+02 0.  0.
        -12    1    1    2    0    0  0.42068079068E+02  0.10296137523E+02  0.28087900820E+01  0.43400726101E+02  0.00000000000E+00 0.  1.
         11    1    3    3    0    0 -0.20279536392E+02 -0.56655840507E+01  0.72650824241E+00  0.21068608246E+02  0.51100000000E-03 0. -1.
        -11    1    3    3    0    0 -0.42389371769E+00  0.35548766480E+01 -0.87550904639E+00  0.36855596885E+01  0.51100000000E-03 0.  1.
        -12    1    3    3    0    0 -0.21364648958E+02 -0.81854301204E+01 -0.26597892780E+01  0.23033105965E+02  0.00000000000E+00 0.  1.
</event>
<event>
 7    1  0.2700100E-010  0.4778727E+02  0.7816164E-02  0.1312668E+00
        -11   -1    0    0    0    0  0.00000000000E+00  0.00000000000E+00  0.45593999997E+02  0.45594000000E+02  0.51100000000E-03 0.  1.
         11   -1    0    0    0    0 -0.00000000000E+00 -0.00000000000E+00 -0.45593999997E+02  0.45594000000E+02  0.51100000000E-03 0. -1.
    9900012    2    1    2    0    0  0.18436901079E+01 -0.47460452535E+01 -0.43101035919E+02  0.47787269176E+02  0.19999991481E+02 0.  0.
        -12    1    1    2    0    0 -0.18436901079E+01  0.47460452535E+01  0.43101035919E+02  0.43400730824E+02  0.00000000000E+00 0.  1.
         11    1    3    3    0    0 -0.56420080804E+01 -0.40260124856E+01 -0.31759809308E+02  0.32507330239E+02  0.51100000000E-03 0. -1.
        -11    1    3    3    0    0  0.50268500570E+01 -0.37395564765E+01 -0.60433796136E+01  0.87049377684E+01  0.51100000000E-03 0.  1.
         12    1    3    3    0    0  0.24588481313E+01  0.30195237086E+01 -0.52978469973E+01  0.65750011686E+01  0.00000000000E+00 0. -1.
</event>
<event>
 7    1  0.2700100E-010  0.4778727E+02  0.7816164E-02  0.1312668E+00
        -11   -1    0    0    0    0  0.00000000000E+00  0.00000000000E+00  0.45593999997E+02  0.45594000000E+02  0.51100000000E-03 0.  1.
         11   -1    0    0    0    0 -0.00000000000E+00 -0.00000000000E+00 -0.45593999997E+02  0.45594000000E+02  0.51100000000E-03 0. -1.
    9900012    2    1    2    0    0  0.32462258412E+02 -0.12729415386E+02 -0.25841571049E+02  0.47787273836E+02  0.20000012728E+02 0.  0.
        -12    1    1    2    0    0 -0.32462258412E+02  0.12729415386E+02  0.25841571049E+02  0.43400726164E+02  0.00000000000E+00 0.  1.
         11    1    3    3    0    0  0.14070531655E+02  0.42677973934E+01 -0.11126220476E+02  0.18438729294E+02  0.51100000000E-03 0.  1.
        -11    1    3    3    0    0  0.92201642758E+01 -0.11303299220E+02 -0.80347653718E+01  0.16653331720E+02  0.51100000000E-03 0. -1.
        -12    1    3    3    0    0  0.91715624811E+01 -0.56939135592E+01 -0.66805852016E+01  0.12695212822E+02  0.00000000000E+00 0.  1.
</event>
<event>
 7    1  0.2700100E-010  0.4778727E+02  0.7816164E-02  0.1312668E+00
        -11   -1    0    0    0    0  0.00000000000E+00  0.00000000000E+00  0.45593999997E+02  0.45594000000E+02  0.51100000000E-03 0.  1.
         11   -1    0    0    0    0 -0.00000000000E+00 -0.00000000000E+00 -0.45593999997E+02  0.45594000000E+02  0.51100000000E-03 0. -1.
    9900012    2    1    2    0    0 -0.64826467064E+01 -0.22362506491E+02 -0.36626720198E+02  0.47787273769E+02  0.20000012425E+02 0.  0.
        -12    1    1    2    0    0  0.64826467064E+01  0.22362506491E+02  0.36626720198E+02  0.43400726231E+02  0.00000000000E+00 0.  1.
         11    1    3    3    0    0 -0.39512885901E+01 -0.34479415090E+01 -0.21027048112E+02  0.21671126753E+02  0.51100000000E-03 0. -1.
        -11    1    3    3    0    0  0.71839822190E+00  0.49144622941E+00 -0.20462809043E+01  0.22237088843E+01  0.51100000000E-03 0.  1.
         12    1    3    3    0    0 -0.32497563383E+01 -0.19406011211E+02 -0.13553391182E+02  0.23892438133E+02  0.00000000000E+00 0. -1.
</event>
<event>
 7    1  0.2700100E-010  0.4778727E+02  0.7816164E-02  0.1312668E+00
        -11   -1    0    0    0    0  0.00000000000E+00  0.00000000000E+00  0.45593999997E+02  0.45594000000E+02  0.51100000000E-03 0. -1.
         11   -1    0    0    0    0 -0.00000000000E+00 -0.00000000000E+00 -0.45593999997E+02  0.45594000000E+02  0.51100000000E-03 0.  1.
    9900012    2    1    2    0    0 -0.20507750392E+02 -0.22517451741E+02  0.30919572334E+02  0.47787269449E+02  0.19999992726E+02 0.  0.
        -12    1    1    2    0    0  0.20507750392E+02  0.22517451741E+02 -0.30919572334E+02  0.43400730551E+02  0.00000000000E+00 0.  1.
         11    1    3    3    0    0 -0.61076084784E+01 -0.47777215630E+01 -0.90042970193E+00  0.78064254668E+01  0.51100000000E-03 0. -1.
        -11    1    3    3    0    0 -0.51013437738E+01 -0.42678873686E+01  0.15495820923E+02  0.16862948651E+02  0.51100000000E-03 0.  1.
         12    1    3    3    0    0 -0.92987981397E+01 -0.13471842809E+02  0.16324181113E+02  0.23117895331E+02  0.00000000000E+00 0. -1.
</event>
<event>
 7    1  0.2700100E-010  0.4778727E+02  0.7816164E-02  0.1312668E+00
        -11   -1    0    0    0    0  0.00000000000E+00  0.00000000000E+00  0.45593999997E+02  0.45594000000E+02  0.51100000000E-03 0.  1.
         11   -1    0    0    0    0 -0.00000000000E+00 -0.00000000000E+00 -0.45593999997E+02  0.45594000000E+02  0.51100000000E-03 0. -1.
    9900012    2    1    2    0    0 -0.38109336638E+02 -0.10836360786E+02 -0.17716528349E+02  0.47787266933E+02  0.19999981253E+02 0.  0.
        -12    1    1    2    0    0  0.38109336638E+02  0.10836360786E+02  0.17716528349E+02  0.43400733067E+02  0.00000000000E+00 0.  1.
         11    1    3    3    0    0 -0.26793727831E+02 -0.11706880908E+02 -0.16638569239E+02  0.33642189261E+02  0.51100000000E-03 0. -1.
        -11    1    3    3    0    0 -0.19520829219E+01 -0.29059595314E+01 -0.19567502677E+01  0.40104987724E+01  0.51100000000E-03 0.  1.
         12    1    3    3    0    0 -0.93635258849E+01  0.37764796539E+01  0.87879115800E+00  0.10134578900E+02  0.00000000000E+00 0. -1.
</event>
<event>
 7    1  0.2700100E-010  0.4778723E+02  0.7816164E-02  0.1312668E+00
        -11   -1    0    0    0    0  0.00000000000E+00  0.00000000000E+00  0.45593999997E+02  0.45594000000E+02  0.51100000000E-03 0. -1.
         11   -1    0    0    0    0 -0.00000000000E+00 -0.00000000000E+00 -0.45593999997E+02  0.45594000000E+02  0.51100000000E-03 0.  1.
    9900012    2    1    2    0    0  0.61553445130E+01  0.38261628624E+02  0.19539354305E+02  0.47787229757E+02  0.19999811755E+02 0.  0.
        -12    1    1    2    0    0 -0.61553445130E+01 -0.38261628624E+02 -0.19539354305E+02  0.43400770243E+02  0.00000000000E+00 0.  1.
         11    1    3    3    0    0  0.45059793444E+01  0.81767186976E+01  0.13541394702E+00  0.93370721166E+01  0.51100000000E-03 0. -1.
        -11    1    3    3    0    0  0.75383964596E+01  0.12967771352E+02  0.10232450470E+02  0.18157465625E+02  0.51100000000E-03 0.  1.
        -12    1    3    3    0    0 -0.58890312910E+01  0.17117138574E+02  0.91714898876E+01  0.20292692016E+02  0.00000000000E+00 0.  1.
</event>
<event>
 7    1  0.2700100E-010  0.4778727E+02  0.7816164E-02  0.1312668E+00
        -11   -1    0    0    0    0  0.00000000000E+00  0.00000000000E+00  0.45593999997E+02  0.45594000000E+02  0.51100000000E-03 0. -1.
         11   -1    0    0    0    0 -0.00000000000E+00 -0.00000000000E+00 -0.45593999997E+02  0.45594000000E+02  0.51100000000E-03 0.  1.
    9900012    2    1    2    0    0 -0.31959378896E+02  0.29363124822E+02 -0.16813406164E+00  0.47787271114E+02  0.20000000319E+02 0.  0.
        -12    1    1    2    0    0  0.31959378896E+02 -0.29363124822E+02  0.16813406164E+00  0.43400728886E+02  0.00000000000E+00 0.  1.
         11    1    3    3    0    0 -0.11147488064E+02  0.17292640708E+02 -0.27733063053E+01  0.20760374296E+02  0.51100000000E-03 0. -1.
        -11    1    3    3    0    0 -0.27088203115E+01  0.10720170427E+01  0.49207602177E+01  0.57184621535E+01  0.51100000000E-03 0.  1.
        -12    1    3    3    0    0 -0.18103070520E+02  0.10998467071E+02 -0.23155879741E+01  0.21308434664E+02  0.00000000000E+00 0.  1.
</event>
<event>
 7    1  0.2700100E-010  0.4778727E+02  0.7816164E-02  0.1312668E+00
        -11   -1    0    0    0    0  0.00000000000E+00  0.00000000000E+00  0.45593999997E+02  0.45594000000E+02  0.51100000000E-03 0.  1.
         11   -1    0    0    0    0 -0.00000000000E+00 -0.00000000000E+00 -0.45593999997E+02  0.45594000000E+02  0.51100000000E-03 0. -1.
    9900012    2    1    2    0    0 -0.85525766124E+01  0.27217696301E+02 -0.32705872968E+02  0.47787266306E+02  0.19999978394E+02 0.  0.
        -12    1    1    2    0    0  0.85525766124E+01 -0.27217696301E+02  0.32705872968E+02  0.43400733694E+02  0.00000000000E+00 0.  1.
         11    1    3    3    0    0 -0.13369141234E+02  0.19412264125E+02 -0.22910789362E+02  0.32870567462E+02  0.51100000000E-03 0. -1.
        -11    1    3    3    0    0  0.28268195863E+01  0.88627109462E+00 -0.61956379570E+01  0.68674824632E+01  0.51100000000E-03 0.  1.
         12    1    3    3    0    0  0.19897450348E+01  0.69191610810E+01 -0.35994456487E+01  0.80492163809E+01  0.00000000000E+00 0. -1.
</event>
<event>
 7    1  0.2700100E-010  0.4778727E+02  0.7816164E-02  0.1312668E+00
        -11   -1    0    0    0    0  0.00000000000E+00  0.00000000000E+00  0.45593999997E+02  0.45594000000E+02  0.51100000000E-03 0.  1.
         11   -1    0    0    0    0 -0.00000000000E+00 -0.00000000000E+00 -0.45593999997E+02  0.45594000000E+02  0.51100000000E-03 0. -1.
    9900012    2    1    2    0    0 -0.86942296667E+01 -0.38308658947E+02 -0.18452102291E+02  0.47787273522E+02  0.20000011297E+02 0.  0.
        -12    1    1    2    0    0  0.86942296667E+01  0.38308658947E+02  0.18452102291E+02  0.43400726478E+02  0.00000000000E+00 0.  1.
         11    1    3    3    0    0  0.41119809872E+01 -0.11815337174E+02  0.66379097003E+00  0.12528016558E+02  0.51100000000E-03 0. -1.
        -11    1    3    3    0    0 -0.58969978737E+01 -0.84775076825E+01 -0.69920425837E+01  0.12471222081E+02  0.51100000000E-03 0.  1.
         12    1    3    3    0    0 -0.69092127802E+01 -0.18015814091E+02 -0.12123850678E+02  0.22788034884E+02  0.00000000000E+00 0. -1.
</event>
<event>
 7    1  0.2700100E-010  0.4778727E+02  0.7816164E-02  0.1312668E+00
        -11   -1    0    0    0    0  0.00000000000E+00  0.00000000000E+00  0.45593999997E+02  0.45594000000E+02  0.51100000000E-03 0. -1.
         11   -1    0    0    0    0 -0.00000000000E+00 -0.00000000000E+00 -0.45593999997E+02  0.45594000000E+02  0.51100000000E-03 0.  1.
    9900012    2    1    2    0    0 -0.33985933917E+02  0.15459860398E+02  0.22126275321E+02  0.47787273655E+02  0.20000011902E+02 0.  0.
        -12    1    1    2    0    0  0.33985933917E+02 -0.15459860398E+02 -0.22126275321E+02  0.43400726345E+02  0.00000000000E+00 0.  1.
         11    1    3    3    0    0 -0.94108122490E+01  0.15320794296E+01  0.17516735667E+01  0.96942774413E+01  0.51100000000E-03 0. -1.
        -11    1    3    3    0    0 -0.16709765368E+02  0.81101345600E+00  0.12549118172E+02  0.20913019118E+02  0.51100000000E-03 0.  1.
        -12    1    3    3    0    0 -0.78653562994E+01  0.13116767513E+02  0.78254835823E+01  0.17179977095E+02  0.00000000000E+00 0.  1.
</event>
<event>
 7    1  0.2700100E-010  0.4778728E+02  0.7816164E-02  0.1312668E+00
        -11   -1    0    0    0    0  0.00000000000E+00  0.00000000000E+00  0.45593999997E+02  0.45594000000E+02  0.51100000000E-03 0. -1.
         11   -1    0    0    0    0 -0.00000000000E+00 -0.00000000000E+00 -0.45593999997E+02  0.45594000000E+02  0.51100000000E-03 0.  1.
    9900012    2    1    2    0    0 -0.11846589881E+02 -0.35163488046E+02  0.22512443107E+02  0.47787277909E+02  0.20000031297E+02 0.  0.
        -12    1    1    2    0    0  0.11846589881E+02  0.35163488046E+02 -0.22512443107E+02  0.43400722091E+02  0.00000000000E+00 0.  1.
         11    1    3    3    0    0 -0.42447632606E+01 -0.12064055674E+02  0.18462014172E+02  0.22458971971E+02  0.51100000000E-03 0. -1.
        -11    1    3    3    0    0 -0.10907358291E+01 -0.81038304864E+01 -0.95144991655E+00  0.82320732751E+01  0.51100000000E-03 0.  1.
         12    1    3    3    0    0 -0.65110907918E+01 -0.14995601886E+02  0.50018788517E+01  0.17096232663E+02  0.00000000000E+00 0. -1.
</event>
<event>
 7    1  0.2700100E-010  0.4778727E+02  0.7816164E-02  0.1312668E+00
        -11   -1    0    0    0    0  0.00000000000E+00  0.00000000000E+00  0.45593999997E+02  0.45594000000E+02  0.51100000000E-03 0. -1.
         11   -1    0    0    0    0 -0.00000000000E+00 -0.00000000000E+00 -0.45593999997E+02  0.45594000000E+02  0.51100000000E-03 0.  1.
    9900012    2    1    2    0    0 -0.34054470399E+02 -0.97033384961E+01  0.25095044647E+02  0.47787274223E+02  0.20000014490E+02 0.  0.
        -12    1    1    2    0    0  0.34054470399E+02  0.97033384961E+01 -0.25095044647E+02  0.43400725777E+02  0.00000000000E+00 0.  1.
         11    1    3    3    0    0 -0.88051416560E+01 -0.17454098958E+01  0.10902593706E+02  0.14122447560E+02  0.51100000000E-03 0. -1.
        -11    1    3    3    0    0 -0.23504864548E+02 -0.12103157037E+01  0.10414201335E+02  0.25737115441E+02  0.51100000000E-03 0.  1.
        -12    1    3    3    0    0 -0.17444641953E+01 -0.67476128966E+01  0.37782496064E+01  0.79277112220E+01  0.00000000000E+00 0.  1.
</event>
<event>
 7    1  0.2700100E-010  0.4778730E+02  0.7816164E-02  0.1312668E+00
        -11   -1    0    0    0    0  0.00000000000E+00  0.00000000000E+00  0.45593999997E+02  0.45594000000E+02  0.51100000000E-03 0.  1.
         11   -1    0    0    0    0 -0.00000000000E+00 -0.00000000000E+00 -0.45593999997E+02  0.45594000000E+02  0.51100000000E-03 0. -1.
    9900012    2    1    2    0    0 -0.23793583028E+01 -0.97867291639E+01 -0.42215869125E+02  0.47787297015E+02  0.20000118408E+02 0.  0.
        -12    1    1    2    0    0  0.23793583028E+01  0.97867291639E+01  0.42215869125E+02  0.43400702985E+02  0.00000000000E+00 0.  1.
         11    1    3    3    0    0 -0.24342513048E+01 -0.32782352033E+01 -0.19770912861E+02  0.20188150016E+02  0.51100000000E-03 0. -1.
        -11    1    3    3    0    0  0.61618441267E+01 -0.73692154407E+01 -0.16120021175E+02  0.18765093716E+02  0.51100000000E-03 0.  1.
        -12    1    3    3    0    0 -0.61069511246E+01  0.86072148012E+00 -0.63249350898E+01  0.88340532823E+01  0.00000000000E+00 0.  1.
</event>
<event>
 7    1  0.2700100E-010  0.4778727E+02  0.7816164E-02  0.1312668E+00
        -11   -1    0    0    0    0  0.00000000000E+00  0.00000000000E+00  0.45593999997E+02  0.45594000000E+02  0.51100000000E-03 0.  1.
         11   -1    0    0    0    0 -0.00000000000E+00 -0.00000000000E+00 -0.45593999997E+02  0.45594000000E+02  0.51100000000E-03 0. -1.
    9900012    2    1    2    0    0  0.21214583589E+01 -0.11412180023E+01 -0.43333822774E+02  0.47787272353E+02  0.20000005965E+02 0.  0.
        -12    1    1    2    0    0 -0.21214583589E+01  0.11412180023E+01  0.43333822774E+02  0.43400727647E+02  0.00000000000E+00 0.  1.
         11    1    3    3    0    0  0.14481293523E+01  0.23109914273E+00  0.47434564402E+00  0.15412623027E+01  0.51100000000E-03 0.  1.
        -11    1    3    3    0    0 -0.15109522720E+01  0.21720935802E+01 -0.41301660003E+02  0.41386327290E+02  0.51100000000E-03 0. -1.
        -12    1    3    3    0    0  0.21842812786E+01 -0.35444107252E+01 -0.25065084147E+01  0.48596827598E+01  0.00000000000E+00 0.  1.
</event>
<event>
 7    1  0.2700100E-010  0.4778727E+02  0.7816164E-02  0.1312668E+00
        -11   -1    0    0    0    0  0.00000000000E+00  0.00000000000E+00  0.45593999997E+02  0.45594000000E+02  0.51100000000E-03 0.  1.
         11   -1    0    0    0    0 -0.00000000000E+00 -0.00000000000E+00 -0.45593999997E+02  0.45594000000E+02  0.51100000000E-03 0. -1.
    9900012    2    1    2    0    0 -0.24719216104E+02  0.85959926645E+00 -0.35662932226E+02  0.47787270851E+02  0.19999999118E+02 0.  0.
        -12    1    1    2    0    0  0.24719216104E+02 -0.85959926645E+00  0.35662932226E+02  0.43400729149E+02  0.00000000000E+00 0.  1.
         11    1    3    3    0    0 -0.18222710368E+02  0.60516692184E+01 -0.13900944571E+02  0.23704981200E+02  0.51100000000E-03 0. -1.
        -11    1    3    3    0    0 -0.34704696658E+00 -0.20389090209E+01 -0.11664110575E+02  0.11846057039E+02  0.51100000000E-03 0.  1.
         12    1    3    3    0    0 -0.61494587698E+01 -0.31531609310E+01 -0.10097877080E+02  0.12236232613E+02  0.00000000000E+00 0. -1.
</event>
<event>
 7    1  0.2700100E-010  0.4778727E+02  0.7816164E-02  0.1312668E+00
        -11   -1    0    0    0    0  0.00000000000E+00  0.00000000000E+00  0.45593999997E+02  0.45594000000E+02  0.51100000000E-03 0. -1.
         11   -1    0    0    0    0 -0.00000000000E+00 -0.00000000000E+00 -0.45593999997E+02  0.45594000000E+02  0.51100000000E-03 0.  1.
    9900012    2    1    2    0    0 -0.33182651645E+01 -0.35181048384E+02  0.25197342312E+02  0.47787272948E+02  0.20000008677E+02 0.  0.
        -12    1    1    2    0    0  0.33182651645E+01  0.35181048384E+02 -0.25197342312E+02  0.43400727052E+02  0.00000000000E+00 0.  1.
         11    1    3    3    0    0  0.25382663103E+01 -0.18883498904E+02  0.16953991311E+02  0.25504257455E+02  0.51100000000E-03 0. -1.
        -11    1    3    3    0    0 -0.25297068242E+01 -0.65623676098E+00 -0.20012747724E+01  0.32916810718E+01  0.51100000000E-03 0.  1.
        -12    1    3    3    0    0 -0.33268246505E+01 -0.15641312719E+02  0.10244625774E+02  0.18991334421E+02  0.00000000000E+00 0.  1.
</event>
<event>
 7    1  0.2700100E-010  0.4778727E+02  0.7816164E-02  0.1312668E+00
        -11   -1    0    0    0    0  0.00000000000E+00  0.00000000000E+00  0.45593999997E+02  0.45594000000E+02  0.51100000000E-03 0. -1.
         11   -1    0    0    0    0 -0.00000000000E+00 -0.00000000000E+00 -0.45593999997E+02  0.45594000000E+02  0.51100000000E-03 0.  1.
    9900012    2    1    2    0    0 -0.42731645291E+01  0.43181674537E+02 -0.84023259866E+00  0.47787274871E+02  0.20000017446E+02 0.  0.
        -12    1    1    2    0    0  0.42731645291E+01 -0.43181674537E+02  0.84023259866E+00  0.43400725129E+02  0.00000000000E+00 0.  1.
         11    1    3    3    0    0 -0.58464509079E+01  0.68123586421E+01 -0.42212177441E+01  0.99200755033E+01  0.51100000000E-03 0. -1.
        -11    1    3    3    0    0 -0.21723208108E+01  0.26923543223E+02  0.53004516605E+01  0.27526186540E+02  0.51100000000E-03 0.  1.
        -12    1    3    3    0    0  0.37456071897E+01  0.94457726723E+01 -0.19194665151E+01  0.10341012827E+02  0.00000000000E+00 0.  1.
</event>
<event>
 7    1  0.2700100E-010  0.4778727E+02  0.7816164E-02  0.1312668E+00
        -11   -1    0    0    0    0  0.00000000000E+00  0.00000000000E+00  0.45593999997E+02  0.45594000000E+02  0.51100000000E-03 0. -1.
         11   -1    0    0    0    0 -0.00000000000E+00 -0.00000000000E+00 -0.45593999997E+02  0.45594000000E+02  0.51100000000E-03 0.  1.
    9900012    2    1    2    0    0 -0.32417578864E+02  0.25945493267E+02 -0.12631530151E+02  0.47787267354E+02  0.19999983172E+02 0.  0.
        -12    1    1    2    0    0  0.32417578864E+02 -0.25945493267E+02  0.12631530151E+02  0.43400732646E+02  0.00000000000E+00 0.  1.
         11    1    3    3    0    0 -0.31933152555E+02  0.24068733039E+02 -0.81792576380E+01  0.40815810637E+02  0.51100000000E-03 0. -1.
        -11    1    3    3    0    0 -0.10922044487E+01 -0.24243692185E+00 -0.46265969199E+01  0.47599459596E+01  0.51100000000E-03 0.  1.
        -12    1    3    3    0    0  0.60777813986E+00  0.21191971501E+01  0.17432440653E+00  0.22115107567E+01  0.00000000000E+00 0.  1.
</event>
<event>
 7    1  0.2700100E-010  0.4778728E+02  0.7816164E-02  0.1312668E+00
        -11   -1    0    0    0    0  0.00000000000E+00  0.00000000000E+00  0.45593999997E+02  0.45594000000E+02  0.51100000000E-03 0.  1.
         11   -1    0    0    0    0 -0.00000000000E+00 -0.00000000000E+00 -0.45593999997E+02  0.45594000000E+02  0.51100000000E-03 0. -1.
    9900012    2    1    2    0    0 -0.35690079922E+02 -0.10225654362E+02 -0.22478360036E+02  0.47787280169E+02  0.20000041602E+02 0.  0.
        -12    1    1    2    0    0  0.35690079922E+02  0.10225654362E+02  0.22478360036E+02  0.43400719831E+02  0.00000000000E+00 0.  1.
         11    1    3    3    0    0 -0.25935687761E+02 -0.31428172954E+00 -0.99905167872E+01  0.27795127245E+02  0.51100000000E-03 0.  1.
        -11    1    3    3    0    0 -0.23547985345E+01 -0.58178087187E+01 -0.21459350568E+01  0.66330243445E+01  0.51100000000E-03 0. -1.
         12    1    3    3    0    0 -0.73995936265E+01 -0.40935639136E+01 -0.10341908192E+02  0.13359128580E+02  0.00000000000E+00 0. -1.
</event>
<event>
 7    1  0.2700100E-010  0.4778728E+02  0.7816164E-02  0.1312668E+00
        -11   -1    0    0    0    0  0.00000000000E+00  0.00000000000E+00  0.45593999997E+02  0.45594000000E+02  0.51100000000E-03 0.  1.
         11   -1    0    0    0    0 -0.00000000000E+00 -0.00000000000E+00 -0.45593999997E+02  0.45594000000E+02  0.51100000000E-03 0. -1.
    9900012    2    1    2    0    0 -0.51884320851E+01 -0.42094206035E+01 -0.42883373988E+02  0.47787276344E+02  0.20000024162E+02 0.  0.
        -12    1    1    2    0    0  0.51884320851E+01  0.42094206035E+01  0.42883373988E+02  0.43400723656E+02  0.00000000000E+00 0.  1.
         11    1    3    3    0    0 -0.38071535008E+01 -0.96666977800E+01 -0.34495738000E+02  0.36026315440E+02  0.51100000000E-03 0. -1.
        -11    1    3    3    0    0 -0.91995116306E+00  0.34734453936E+01 -0.51597285773E+00  0.36300635388E+01  0.51100000000E-03 0.  1.
         12    1    3    3    0    0 -0.46132742123E+00  0.19838317828E+01 -0.78716631299E+01  0.81308973651E+01  0.00000000000E+00 0. -1.
</event>
<event>
 7    1  0.2700100E-010  0.4778728E+02  0.7816164E-02  0.1312668E+00
        -11   -1    0    0    0    0  0.00000000000E+00  0.00000000000E+00  0.45593999997E+02  0.45594000000E+02  0.51100000000E-03 0.  1.
         11   -1    0    0    0    0 -0.00000000000E+00 -0.00000000000E+00 -0.45593999997E+02  0.45594000000E+02  0.51100000000E-03 0. -1.
    9900012    2    1    2    0    0  0.27729053838E+02 -0.21163955362E+02 -0.25822647675E+02  0.47787279196E+02  0.20000037168E+02 0.  0.
        -12    1    1    2    0    0 -0.27729053838E+02  0.21163955362E+02  0.25822647675E+02  0.43400720804E+02  0.00000000000E+00 0.  1.
         11    1    3    3    0    0  0.24684164081E+02 -0.23656808220E+02 -0.18158210574E+02  0.38712700023E+02  0.51100000000E-03 0. -1.
        -11    1    3    3    0    0  0.28470690688E+00  0.59122192131E+00  0.55345040968E-01  0.65853224503E+00  0.51100000000E-03 0.  1.
         12    1    3    3    0    0  0.27601828501E+01  0.19016309366E+01 -0.77197821420E+01  0.84160469286E+01  0.00000000000E+00 0. -1.
</event>
<event>
 7    1  0.2700100E-010  0.4778728E+02  0.7816164E-02  0.1312668E+00
        -11   -1    0    0    0    0  0.00000000000E+00  0.00000000000E+00  0.45593999997E+02  0.45594000000E+02  0.51100000000E-03 0.  1.
         11   -1    0    0    0    0 -0.00000000000E+00 -0.00000000000E+00 -0.45593999997E+02  0.45594000000E+02  0.51100000000E-03 0. -1.
    9900012    2    1    2    0    0 -0.31834281484E+02  0.16465322578E+02 -0.24476406989E+02  0.47787276224E+02  0.20000023616E+02 0.  0.
        -12    1    1    2    0    0  0.31834281484E+02 -0.16465322578E+02  0.24476406989E+02  0.43400723776E+02  0.00000000000E+00 0.  1.
         11    1    3    3    0    0 -0.97359021759E+01  0.94096816012E+01 -0.98067714380E+01  0.16718333210E+02  0.51100000000E-03 0. -1.
        -11    1    3    3    0    0 -0.12335347638E+02 -0.26896464667E+01 -0.29429868196E+01  0.12963648065E+02  0.51100000000E-03 0.  1.
        -12    1    3    3    0    0 -0.97630316696E+01  0.97452874439E+01 -0.11726648731E+02  0.18105294949E+02  0.00000000000E+00 0.  1.
</event>
<event>
 7    1  0.2700100E-010  0.4778727E+02  0.7816164E-02  0.1312668E+00
        -11   -1    0    0    0    0  0.00000000000E+00  0.00000000000E+00  0.45593999997E+02  0.45594000000E+02  0.51100000000E-03 0. -1.
         11   -1    0    0    0    0 -0.00000000000E+00 -0.00000000000E+00 -0.45593999997E+02  0.45594000000E+02  0.51100000000E-03 0.  1.
    9900012    2    1    2    0    0  0.87638425043E+01 -0.38695976451E+01  0.42330182922E+02  0.47787272960E+02  0.20000008733E+02 0.  0.
        -12    1    1    2    0    0 -0.87638425043E+01  0.38695976451E+01 -0.42330182922E+02  0.43400727040E+02  0.00000000000E+00 0.  1.
         11    1    3    3    0    0 -0.30170655173E+01 -0.49167215788E+01  0.22372211496E+02  0.23103953837E+02  0.51100000000E-03 0. -1.
        -11    1    3    3    0    0  0.56740403938E+01 -0.36779062151E+01  0.83991179764E+01  0.10782713553E+02  0.51100000000E-03 0.  1.
         12    1    3    3    0    0  0.61068676279E+01  0.47250301488E+01  0.11558853450E+02  0.13900605570E+02  0.00000000000E+00 0. -1.
</event>
<event>
 7    1  0.2700100E-010  0.4778729E+02  0.7816164E-02  0.1312668E+00
        -11   -1    0    0    0    0  0.00000000000E+00  0.00000000000E+00  0.45593999997E+02  0.45594000000E+02  0.51100000000E-03 0.  1.
         11   -1    0    0    0    0 -0.00000000000E+00 -0.00000000000E+00 -0.45593999997E+02  0.45594000000E+02  0.51100000000E-03 0. -1.
    9900012    2    1    2    0    0 -0.37957092869E+02  0.18130524715E+02 -0.10684810328E+02  0.47787285752E+02  0.20000067059E+02 0.  0.
        -12    1    1    2    0    0  0.37957092869E+02 -0.18130524715E+02  0.10684810328E+02  0.43400714248E+02  0.00000000000E+00 0.  1.
         11    1    3    3    0    0 -0.12339876948E+02  0.10347303686E+02 -0.48557851295E+01  0.16820163677E+02  0.51100000000E-03 0. -1.
        -11    1    3    3    0    0 -0.21394655778E+02  0.93705400790E+00 -0.76128549650E+01  0.22728064745E+02  0.51100000000E-03 0.  1.
        -12    1    3    3    0    0 -0.42225601426E+01  0.68461670215E+01  0.17838297668E+01  0.82390573296E+01  0.00000000000E+00 0.  1.
</event>
<event>
 7    1  0.2700100E-010  0.4778727E+02  0.7816164E-02  0.1312668E+00
        -11   -1    0    0    0    0  0.00000000000E+00  0.00000000000E+00  0.45593999997E+02  0.45594000000E+02  0.51100000000E-03 0.  1.
         11   -1    0    0    0    0 -0.00000000000E+00 -0.00000000000E+00 -0.45593999997E+02  0.45594000000E+02  0.51100000000E-03 0. -1.
    9900012    2    1    2    0    0  0.97721248762E+01 -0.27612365512E+02 -0.32026339915E+02  0.47787267263E+02  0.19999982757E+02 0.  0.
        -12    1    1    2    0    0 -0.97721248762E+01  0.27612365512E+02  0.32026339915E+02  0.43400732737E+02  0.00000000000E+00 0.  1.
         11    1    3    3    0    0  0.23191569273E+01  0.10515015043E+01 -0.10194677529E+02  0.10507882491E+02  0.51100000000E-03 0. -1.
        -11    1    3    3    0    0  0.10822575986E+01 -0.15376689619E+02 -0.12408507246E+02  0.19788504680E+02  0.51100000000E-03 0.  1.
        -12    1    3    3    0    0  0.63707103503E+01 -0.13287177398E+02 -0.94231551406E+01  0.17490880091E+02  0.00000000000E+00 0.  1.
</event>
<event>
 7    1  0.2700100E-010  0.4778727E+02  0.7816164E-02  0.1312668E+00
        -11   -1    0    0    0    0  0.00000000000E+00  0.00000000000E+00  0.45593999997E+02  0.45594000000E+02  0.51100000000E-03 0. -1.
         11   -1    0    0    0    0 -0.00000000000E+00 -0.00000000000E+00 -0.45593999997E+02  0.45594000000E+02  0.51100000000E-03 0.  1.
    9900012    2    1    2    0    0  0.29949079711E+02  0.33766254161E+01  0.31229382415E+02  0.47787270734E+02  0.19999998586E+02 0.  0.
        -12    1    1    2    0    0 -0.29949079711E+02 -0.33766254161E+01 -0.31229382415E+02  0.43400729266E+02  0.00000000000E+00 0.  1.
         11    1    3    3    0    0  0.23131435670E+02 -0.42421969690E+01  0.15680829389E+02  0.28265667546E+02  0.51100000000E-03 0. -1.
        -11    1    3    3    0    0  0.16359107025E+01  0.52730232126E+01  0.10729630724E+02  0.12066729190E+02  0.51100000000E-03 0.  1.
         12    1    3    3    0    0  0.51817333393E+01  0.23457991725E+01  0.48189223029E+01  0.74548739975E+01  0.00000000000E+00 0. -1.
</event>
<event>
 7    1  0.2700100E-010  0.4778727E+02  0.7816164E-02  0.1312668E+00
        -11   -1    0    0    0    0  0.00000000000E+00  0.00000000000E+00  0.45593999997E+02  0.45594000000E+02  0.51100000000E-03 0.  1.
         11   -1    0    0    0    0 -0.00000000000E+00 -0.00000000000E+00 -0.45593999997E+02  0.45594000000E+02  0.51100000000E-03 0. -1.
    9900012    2    1    2    0    0 -0.25346269874E+02 -0.19606420014E+02 -0.29270771967E+02  0.47787271966E+02  0.20000004203E+02 0.  0.
        -12    1    1    2    0    0  0.25346269874E+02  0.19606420014E+02  0.29270771967E+02  0.43400728034E+02  0.00000000000E+00 0.  1.
         11    1    3    3    0    0  0.31885334326E+00 -0.88615545051E+00 -0.32145937070E+01  0.33497092260E+01  0.51100000000E-03 0. -1.
        -11    1    3    3    0    0 -0.13070016171E+02  0.41006368144E+00 -0.88333362377E+01  0.15780408876E+02  0.51100000000E-03 0.  1.
        -12    1    3    3    0    0 -0.12595107047E+02 -0.19130328245E+02 -0.17222842022E+02  0.28657153865E+02  0.00000000000E+00 0.  1.
</event>
<event>
 7    1  0.2700100E-010  0.4778729E+02  0.7816164E-02  0.1312668E+00
        -11   -1    0    0    0    0  0.00000000000E+00  0.00000000000E+00  0.45593999997E+02  0.45594000000E+02  0.51100000000E-03 0.  1.
         11   -1    0    0    0    0 -0.00000000000E+00 -0.00000000000E+00 -0.45593999997E+02  0.45594000000E+02  0.51100000000E-03 0. -1.
    9900012    2    1    2    0    0  0.43172077648E+02  0.32194601182E+01  0.30705250866E+01  0.47787293368E+02  0.20000101781E+02 0.  0.
        -12    1    1    2    0    0 -0.43172077648E+02 -0.32194601182E+01 -0.30705250866E+01  0.43400706632E+02  0.00000000000E+00 0.  1.
         11    1    3    3    0    0  0.61817902247E+01  0.37640686879E+01  0.20170129946E+01  0.75133937173E+01  0.51100000000E-03 0. -1.
        -11    1    3    3    0    0  0.15510889559E+02 -0.48805685331E+00  0.83078904896E+01  0.17602469686E+02  0.51100000000E-03 0.  1.
        -12    1    3    3    0    0  0.21479397864E+02 -0.56551716354E-01 -0.72543783976E+01  0.22671429964E+02  0.00000000000E+00 0.  1.
</event>
<event>
 7    1  0.2700100E-010  0.4778727E+02  0.7816164E-02  0.1312668E+00
        -11   -1    0    0    0    0  0.00000000000E+00  0.00000000000E+00  0.45593999997E+02  0.45594000000E+02  0.51100000000E-03 0.  1.
         11   -1    0    0    0    0 -0.00000000000E+00 -0.00000000000E+00 -0.45593999997E+02  0.45594000000E+02  0.51100000000E-03 0. -1.
    9900012    2    1    2    0    0 -0.35518227648E+02  0.89809451395E+01 -0.23268460791E+02  0.47787272605E+02  0.20000007116E+02 0.  0.
        -12    1    1    2    0    0  0.35518227648E+02 -0.89809451395E+01  0.23268460791E+02  0.43400727395E+02  0.00000000000E+00 0.  1.
         11    1    3    3    0    0 -0.12118002388E+02  0.58738644985E+01 -0.87332494215E+01  0.16050480109E+02  0.51100000000E-03 0. -1.
        -11    1    3    3    0    0 -0.67048847146E+01  0.16374118849E+01 -0.13234980269E+02  0.14926530062E+02  0.51100000000E-03 0.  1.
        -12    1    3    3    0    0 -0.16695340546E+02  0.14696687561E+01 -0.13002311002E+01  0.16810262434E+02  0.00000000000E+00 0.  1.
</event>
<event>
 7    1  0.2700100E-010  0.4778727E+02  0.7816164E-02  0.1312668E+00
        -11   -1    0    0    0    0  0.00000000000E+00  0.00000000000E+00  0.45593999997E+02  0.45594000000E+02  0.51100000000E-03 0. -1.
         11   -1    0    0    0    0 -0.00000000000E+00 -0.00000000000E+00 -0.45593999997E+02  0.45594000000E+02  0.51100000000E-03 0.  1.
    9900012    2    1    2    0    0  0.12350467157E+01  0.43379188321E+02  0.58630642583E+00  0.47787273336E+02  0.20000010446E+02 0.  0.
        -12    1    1    2    0    0 -0.12350467157E+01 -0.43379188321E+02 -0.58630642583E+00  0.43400726664E+02  0.00000000000E+00 0.  1.
         11    1    3    3    0    0  0.34053635817E+01  0.15540009231E+02  0.35011822916E+01  0.16289464869E+02  0.51100000000E-03 0. -1.
        -11    1    3    3    0    0 -0.58016567608E+01  0.11048625166E+02 -0.63145708528E+01  0.13985890910E+02  0.51100000000E-03 0.  1.
        -12    1    3    3    0    0  0.36313398948E+01  0.16790553924E+02  0.33996949871E+01  0.17511917556E+02  0.00000000000E+00 0.  1.
</event>
<event>
 7    1  0.2700100E-010  0.4778728E+02  0.7816164E-02  0.1312668E+00
        -11   -1    0    0    0    0  0.00000000000E+00  0.00000000000E+00  0.45593999997E+02  0.45594000000E+02  0.51100000000E-03 0.  1.
         11   -1    0    0    0    0 -0.00000000000E+00 -0.00000000000E+00 -0.45593999997E+02  0.45594000000E+02  0.51100000000E-03 0. -1.
    9900012    2    1    2    0    0  0.36129097017E+02  0.69948441233E+01 -0.23008322879E+02  0.47787280913E+02  0.20000044997E+02 0.  0.
        -12    1    1    2    0    0 -0.36129097017E+02 -0.69948441233E+01  0.23008322879E+02  0.43400719087E+02  0.00000000000E+00 0.  1.
         11    1    3    3    0    0  0.23954881307E+02  0.46942274827E+00 -0.11483253542E+02  0.26569189079E+02  0.51100000000E-03 0. -1.
        -11    1    3    3    0    0  0.80878384700E+01  0.94462416099E+01 -0.10032888516E+02  0.15978218421E+02  0.51100000000E-03 0.  1.
        -12    1    3    3    0    0  0.40863772397E+01 -0.29208202348E+01 -0.14921808204E+01  0.52398734136E+01  0.00000000000E+00 0.  1.
</event>
<event>
 7    1  0.2700100E-010  0.4778727E+02  0.7816164E-02  0.1312668E+00
        -11   -1    0    0    0    0  0.00000000000E+00  0.00000000000E+00  0.45593999997E+02  0.45594000000E+02  0.51100000000E-03 0. -1.
         11   -1    0    0    0    0 -0.00000000000E+00 -0.00000000000E+00 -0.45593999997E+02  0.45594000000E+02  0.51100000000E-03 0.  1.
    9900012    2    1    2    0    0 -0.24558156596E+02 -0.28850448119E+02  0.21170069090E+02  0.47787271466E+02  0.20000001921E+02 0.  0.
        -12    1    1    2    0    0  0.24558156596E+02  0.28850448119E+02 -0.21170069090E+02  0.43400728534E+02  0.00000000000E+00 0.  1.
         11    1    3    3    0    0 -0.15845645827E+02 -0.11298809556E+02  0.11097185103E+02  0.22403015568E+02  0.51100000000E-03 0. -1.
        -11    1    3    3    0    0  0.21520371644E+01 -0.20451169420E+00  0.30622631233E+01  0.37484056194E+01  0.51100000000E-03 0.  1.
        -12    1    3    3    0    0 -0.10864547934E+02 -0.17347126868E+02  0.70106208637E+01  0.21635850279E+02  0.00000000000E+00 0.  1.
</event>
<event>
 7    1  0.2700100E-010  0.4778727E+02  0.7816164E-02  0.1312668E+00
        -11   -1    0    0    0    0  0.00000000000E+00  0.00000000000E+00  0.45593999997E+02  0.45594000000E+02  0.51100000000E-03 0.  1.
         11   -1    0    0    0    0 -0.00000000000E+00 -0.00000000000E+00 -0.45593999997E+02  0.45594000000E+02  0.51100000000E-03 0. -1.
    9900012    2    1    2    0    0 -0.26760190936E+02  0.92839147041E+01 -0.32883501012E+02  0.47787268094E+02  0.19999986547E+02 0.  0.
        -12    1    1    2    0    0  0.26760190936E+02 -0.92839147041E+01  0.32883501012E+02  0.43400731906E+02  0.00000000000E+00 0.  1.
         11    1    3    3    0    0 -0.20776566113E+02  0.46823705644E+01 -0.26147091519E+02  0.33723295935E+02  0.51100000000E-03 0. -1.
        -11    1    3    3    0    0 -0.34684157492E+01  0.75780646098E+01 -0.36751368890E+01  0.91084357853E+01  0.51100000000E-03 0.  1.
        -12    1    3    3    0    0 -0.25152090735E+01 -0.29765204701E+01 -0.30612726040E+01  0.49555363734E+01  0.00000000000E+00 0.  1.
</event>
<event>
 7    1  0.2700100E-010  0.4778726E+02  0.7816164E-02  0.1312668E+00
        -11   -1    0    0    0    0  0.00000000000E+00  0.00000000000E+00  0.45593999997E+02  0.45594000000E+02  0.51100000000E-03 0.  1.
         11   -1    0    0    0    0 -0.00000000000E+00 -0.00000000000E+00 -0.45593999997E+02  0.45594000000E+02  0.51100000000E-03 0. -1.
    9900012    2    1    2    0    0  0.31873754165E+02 -0.23320121243E+02 -0.17996106050E+02  0.47787261615E+02  0.19999957008E+02 0.  0.
        -12    1    1    2    0    0 -0.31873754165E+02  0.23320121243E+02  0.17996106050E+02  0.43400738385E+02  0.00000000000E+00 0.  1.
         11    1    3    3    0    0  0.17319573296E+02 -0.12743759406E+02 -0.11262456957E+02  0.24273729831E+02  0.51100000000E-03 0. -1.
        -11    1    3    3    0    0  0.10591958770E+02 -0.48594100758E+00  0.27160992546E+00  0.10606578216E+02  0.51100000000E-03 0.  1.
        -12    1    3    3    0    0  0.39622220995E+01 -0.10090420830E+02 -0.70052590176E+01  0.12906953568E+02  0.00000000000E+00 0.  1.
</event>
<event>
 7    1  0.2700100E-010  0.4778727E+02  0.7816164E-02  0.1312668E+00
        -11   -1    0    0    0    0  0.00000000000E+00  0.00000000000E+00  0.45593999997E+02  0.45594000000E+02  0.51100000000E-03 0. -1.
         11   -1    0    0    0    0 -0.00000000000E+00 -0.00000000000E+00 -0.45593999997E+02  0.45594000000E+02  0.51100000000E-03 0.  1.
    9900012    2    1    2    0    0 -0.25288617335E+02 -0.19854998048E+02  0.29152839526E+02  0.47787272280E+02  0.20000005635E+02 0.  0.
        -12    1    1    2    0    0  0.25288617335E+02  0.19854998048E+02 -0.29152839526E+02  0.43400727720E+02  0.00000000000E+00 0.  1.
         11    1    3    3    0    0 -0.97423568794E+01 -0.19775251507E+01  0.10768921181E+02  0.14655844805E+02  0.51100000000E-03 0. -1.
        -11    1    3    3    0    0 -0.31941278805E+01 -0.26295924006E+01 -0.22055961452E+01  0.46884820280E+01  0.51100000000E-03 0.  1.
        -12    1    3    3    0    0 -0.12352132575E+02 -0.15247880497E+02  0.20589514490E+02  0.28442945447E+02  0.00000000000E+00 0.  1.
</event>
<event>
 7    1  0.2700100E-010  0.4778727E+02  0.7816164E-02  0.1312668E+00
        -11   -1    0    0    0    0  0.00000000000E+00  0.00000000000E+00  0.45593999997E+02  0.45594000000E+02  0.51100000000E-03 0. -1.
         11   -1    0    0    0    0 -0.00000000000E+00 -0.00000000000E+00 -0.45593999997E+02  0.45594000000E+02  0.51100000000E-03 0.  1.
    9900012    2    1    2    0    0 -0.58921551014E+01  0.15205286283E+02  0.40220704215E+02  0.47787271086E+02  0.20000000190E+02 0.  0.
        -12    1    1    2    0    0  0.58921551014E+01 -0.15205286283E+02 -0.40220704215E+02  0.43400728914E+02  0.00000000000E+00 0.  1.
         11    1    3    3    0    0 -0.46689422214E+01  0.11378635462E+02  0.79292543684E+01  0.14633709083E+02  0.51100000000E-03 0. -1.
        -11    1    3    3    0    0  0.10890847367E+01 -0.14112725963E+01  0.72656722838E+01  0.74811623363E+01  0.51100000000E-03 0.  1.
         12    1    3    3    0    0 -0.23122976168E+01  0.52379234174E+01  0.25025777563E+02  0.25672399666E+02  0.00000000000E+00 0. -1.
</event>
<event>
 7    1  0.2700100E-010  0.4778727E+02  0.7816164E-02  0.1312668E+00
        -11   -1    0    0    0    0  0.00000000000E+00  0.00000000000E+00  0.45593999997E+02  0.45594000000E+02  0.51100000000E-03 0.  1.
         11   -1    0    0    0    0 -0.00000000000E+00 -0.00000000000E+00 -0.45593999997E+02  0.45594000000E+02  0.51100000000E-03 0. -1.
    9900012    2    1    2    0    0  0.61595276579E+01 -0.36213869467E+02 -0.23113616705E+02  0.47787269592E+02  0.19999993378E+02 0.  0.
        -12    1    1    2    0    0 -0.61595276579E+01  0.36213869467E+02  0.23113616705E+02  0.43400730408E+02  0.00000000000E+00 0.  1.
         11    1    3    3    0    0  0.46507988846E+01 -0.26215343436E+02 -0.10191171111E+02  0.28508492254E+02  0.51100000000E-03 0. -1.
        -11    1    3    3    0    0  0.15376908560E+01 -0.13184087377E+01 -0.98728557623E+01  0.10078490757E+02  0.51100000000E-03 0.  1.
        -12    1    3    3    0    0 -0.28962082729E-01 -0.86801172933E+01 -0.30495898320E+01  0.92002865809E+01  0.00000000000E+00 0.  1.
</event>
<event>
 7    1  0.2700100E-010  0.4778727E+02  0.7816164E-02  0.1312668E+00
        -11   -1    0    0    0    0  0.00000000000E+00  0.00000000000E+00  0.45593999997E+02  0.45594000000E+02  0.51100000000E-03 0.  1.
         11   -1    0    0    0    0 -0.00000000000E+00 -0.00000000000E+00 -0.45593999997E+02  0.45594000000E+02  0.51100000000E-03 0. -1.
    9900012    2    1    2    0    0 -0.97139488027E+01  0.42248066287E+02 -0.20889209809E+01  0.47787268471E+02  0.19999988268E+02 0.  0.
        -12    1    1    2    0    0  0.97139488027E+01 -0.42248066287E+02  0.20889209809E+01  0.43400731529E+02  0.00000000000E+00 0.  1.
         11    1    3    3    0    0 -0.67673999144E+01  0.16623114340E+02  0.71874375060E+01  0.19333517273E+02  0.51100000000E-03 0. -1.
        -11    1    3    3    0    0 -0.14810449162E+00  0.15180827829E+01  0.12774060294E+01  0.19895418320E+01  0.51100000000E-03 0.  1.
         12    1    3    3    0    0 -0.27984443967E+01  0.24106869164E+02 -0.10553764516E+02  0.26464209367E+02  0.00000000000E+00 0. -1.
</event>
<event>
 7    1  0.2700100E-010  0.4778727E+02  0.7816164E-02  0.1312668E+00
        -11   -1    0    0    0    0  0.00000000000E+00  0.00000000000E+00  0.45593999997E+02  0.45594000000E+02  0.51100000000E-03 0. -1.
         11   -1    0    0    0    0 -0.00000000000E+00 -0.00000000000E+00 -0.45593999997E+02  0.45594000000E+02  0.51100000000E-03 0.  1.
    9900012    2    1    2    0    0  0.12691981110E+02 -0.14090742595E+02  0.39038287568E+02  0.47787270656E+02  0.19999998229E+02 0.  0.
        -12    1    1    2    0    0 -0.12691981110E+02  0.14090742595E+02 -0.39038287568E+02  0.43400729344E+02  0.00000000000E+00 0.  1.
         11    1    3    3    0    0  0.21251156337E+01 -0.89436297829E+01  0.67698476558E+01  0.11416456004E+02  0.51100000000E-03 0. -1.
        -11    1    3    3    0    0  0.49037739918E+01 -0.28835996092E+01  0.28796616099E+02  0.29353147107E+02  0.51100000000E-03 0.  1.
         12    1    3    3    0    0  0.56630914844E+01 -0.22635132029E+01  0.34718238125E+01  0.70176675446E+01  0.00000000000E+00 0. -1.
</event>
<event>
 7    1  0.2700100E-010  0.4778727E+02  0.7816164E-02  0.1312668E+00
        -11   -1    0    0    0    0  0.00000000000E+00  0.00000000000E+00  0.45593999997E+02  0.45594000000E+02  0.51100000000E-03 0.  1.
         11   -1    0    0    0    0 -0.00000000000E+00 -0.00000000000E+00 -0.45593999997E+02  0.45594000000E+02  0.51100000000E-03 0. -1.
    9900012    2    1    2    0    0  0.32209994984E+01 -0.37584802286E+02 -0.21462312265E+02  0.47787273642E+02  0.20000011844E+02 0.  0.
        -12    1    1    2    0    0 -0.32209994984E+01  0.37584802286E+02  0.21462312265E+02  0.43400726358E+02  0.00000000000E+00 0.  1.
         11    1    3    3    0    0  0.79323384157E+01 -0.28949815342E+02 -0.14411677333E+02  0.33297300865E+02  0.51100000000E-03 0. -1.
        -11    1    3    3    0    0 -0.36714492275E+01 -0.86890905052E+01 -0.85051931271E+01  0.12701107969E+02  0.51100000000E-03 0.  1.
         12    1    3    3    0    0 -0.10398896898E+01  0.54103561150E-01  0.14545581949E+01  0.17888648089E+01  0.00000000000E+00 0. -1.
</event>
<event>
 7    1  0.2700100E-010  0.4778727E+02  0.7816164E-02  0.1312668E+00
        -11   -1    0    0    0    0  0.00000000000E+00  0.00000000000E+00  0.45593999997E+02  0.45594000000E+02  0.51100000000E-03 0.  1.
         11   -1    0    0    0    0 -0.00000000000E+00 -0.00000000000E+00 -0.45593999997E+02  0.45594000000E+02  0.51100000000E-03 0. -1.
    9900012    2    1    2    0    0 -0.39235071839E+02  0.17465846638E+02  0.62591118985E+01  0.47787272555E+02  0.20000006886E+02 0.  0.
        -12    1    1    2    0    0  0.39235071839E+02 -0.17465846638E+02 -0.62591118985E+01  0.43400727445E+02  0.00000000000E+00 0.  1.
         11    1    3    3    0    0 -0.21670722475E+02  0.14693333707E+02  0.60712436465E+01  0.26877021183E+02  0.51100000000E-03 0. -1.
        -11    1    3    3    0    0 -0.37173109451E+01 -0.27575831722E+01  0.32923817643E+01  0.56800038343E+01  0.51100000000E-03 0.  1.
         12    1    3    3    0    0 -0.13847038420E+02  0.55300961029E+01 -0.31045135122E+01  0.15230247538E+02  0.00000000000E+00 0. -1.
</event>
<event>
 7    1  0.2700100E-010  0.4778727E+02  0.7816164E-02  0.1312668E+00
        -11   -1    0    0    0    0  0.00000000000E+00  0.00000000000E+00  0.45593999997E+02  0.45594000000E+02  0.51100000000E-03 0.  1.
         11   -1    0    0    0    0 -0.00000000000E+00 -0.00000000000E+00 -0.45593999997E+02  0.45594000000E+02  0.51100000000E-03 0. -1.
    9900012    2    1    2    0    0 -0.10643072862E+02  0.41317837792E+02  0.79488713076E+01  0.47787271034E+02  0.19999999952E+02 0.  0.
        -12    1    1    2    0    0  0.10643072862E+02 -0.41317837792E+02 -0.79488713076E+01  0.43400728966E+02  0.00000000000E+00 0.  1.
         11    1    3    3    0    0 -0.61299270355E+01  0.62538566045E+01 -0.23556434987E+01  0.90683948108E+01  0.51100000000E-03 0. -1.
        -11    1    3    3    0    0 -0.14960200344E+00  0.31964002818E+02  0.90591083780E+01  0.33223294566E+02  0.51100000000E-03 0.  1.
        -12    1    3    3    0    0 -0.43635438231E+01  0.30999783688E+01  0.12454064283E+01  0.54955816576E+01  0.00000000000E+00 0.  1.
</event>
<event>
 7    1  0.2700100E-010  0.4778727E+02  0.7816164E-02  0.1312668E+00
        -11   -1    0    0    0    0  0.00000000000E+00  0.00000000000E+00  0.45593999997E+02  0.45594000000E+02  0.51100000000E-03 0.  1.
         11   -1    0    0    0    0 -0.00000000000E+00 -0.00000000000E+00 -0.45593999997E+02  0.45594000000E+02  0.51100000000E-03 0. -1.
    9900012    2    1    2    0    0 -0.18022109641E+02  0.11397851917E+02 -0.37801004357E+02  0.47787269653E+02  0.19999993657E+02 0.  0.
        -12    1    1    2    0    0  0.18022109641E+02 -0.11397851917E+02  0.37801004357E+02  0.43400730347E+02  0.00000000000E+00 0.  1.
         11    1    3    3    0    0 -0.33021141316E+01  0.43908769093E-01 -0.11651742405E+02  0.12110697216E+02  0.51100000000E-03 0. -1.
        -11    1    3    3    0    0 -0.15645918937E+02  0.49432475845E+01 -0.23538351362E+02  0.28692933994E+02  0.51100000000E-03 0.  1.
        -12    1    3    3    0    0  0.92592342771E+00  0.64106955632E+01 -0.26109105896E+01  0.69836384431E+01  0.00000000000E+00 0.  1.
</event>
<event>
 7    1  0.2700100E-010  0.4778727E+02  0.7816164E-02  0.1312668E+00
        -11   -1    0    0    0    0  0.00000000000E+00  0.00000000000E+00  0.45593999997E+02  0.45594000000E+02  0.51100000000E-03 0. -1.
         11   -1    0    0    0    0 -0.00000000000E+00 -0.00000000000E+00 -0.45593999997E+02  0.45594000000E+02  0.51100000000E-03 0.  1.
    9900012    2    1    2    0    0 -0.11386637112E+02 -0.21343759525E+02  0.36033480059E+02  0.47787271198E+02  0.20000000700E+02 0.  0.
        -12    1    1    2    0    0  0.11386637112E+02  0.21343759525E+02 -0.36033480059E+02  0.43400728802E+02  0.00000000000E+00 0.  1.
         11    1    3    3    0    0 -0.11315749131E+01 -0.13639301469E+02  0.26298520864E+02  0.29646639038E+02  0.51100000000E-03 0. -1.
        -11    1    3    3    0    0 -0.10509461752E+02 -0.83296620527E+01  0.66233058894E+01  0.14956611829E+02  0.51100000000E-03 0.  1.
        -12    1    3    3    0    0  0.25439955385E+00  0.62520399728E+00  0.31116533064E+01  0.31840203313E+01  0.00000000000E+00 0.  1.
</event>
<event>
 7    1  0.2700100E-010  0.4778727E+02  0.7816164E-02  0.1312668E+00
        -11   -1    0    0    0    0  0.00000000000E+00  0.00000000000E+00  0.45593999997E+02  0.45594000000E+02  0.51100000000E-03 0.  1.
         11   -1    0    0    0    0 -0.00000000000E+00 -0.00000000000E+00 -0.45593999997E+02  0.45594000000E+02  0.51100000000E-03 0. -1.
    9900012    2    1    2    0    0  0.13954432713E+02 -0.40641796415E+02  0.60943972267E+01  0.47787268603E+02  0.19999988870E+02 0.  0.
        -12    1    1    2    0    0 -0.13954432713E+02  0.40641796415E+02 -0.60943972267E+01  0.43400731397E+02  0.00000000000E+00 0.  1.
         11    1    3    3    0    0  0.70896310637E+01 -0.10865505292E+02  0.11415141752E+00  0.12974401900E+02  0.51100000000E-03 0.  1.
        -11    1    3    3    0    0  0.31690760972E+01 -0.18848637632E+02 -0.40369868297E+01  0.19534877702E+02  0.51100000000E-03 0. -1.
        -12    1    3    3    0    0  0.36957255518E+01 -0.10927653492E+02  0.10017232639E+02  0.15277989002E+02  0.00000000000E+00 0.  1.
</event>
<event>
 7    1  0.2700100E-010  0.4778726E+02  0.7816164E-02  0.1312668E+00
        -11   -1    0    0    0    0  0.00000000000E+00  0.00000000000E+00  0.45593999997E+02  0.45594000000E+02  0.51100000000E-03 0. -1.
         11   -1    0    0    0    0 -0.00000000000E+00 -0.00000000000E+00 -0.45593999997E+02  0.45594000000E+02  0.51100000000E-03 0.  1.
    9900012    2    1    2    0    0 -0.42084429839E+02 -0.10418149086E+02  0.19968195726E+01  0.47787258605E+02  0.19999943283E+02 0.  0.
        -12    1    1    2    0    0  0.42084429839E+02  0.10418149086E+02 -0.19968195726E+01  0.43400741395E+02  0.00000000000E+00 0.  1.
         11    1    3    3    0    0 -0.82668428310E+01 -0.33437815177E+01  0.58456068611E+01  0.10662677200E+02  0.51100000000E-03 0. -1.
        -11    1    3    3    0    0 -0.22775905650E+02 -0.27314499152E+01 -0.83826799465E+01  0.24422776668E+02  0.51100000000E-03 0.  1.
        -12    1    3    3    0    0 -0.11041681358E+02 -0.43429176531E+01  0.45338926580E+01  0.12701804737E+02  0.00000000000E+00 0.  1.
</event>
<event>
 7    1  0.2725589E-010  0.4778727E+02  0.7816164E-02  0.1312668E+00
        -11   -1    0    0    0    0  0.00000000000E+00  0.00000000000E+00  0.45593999997E+02  0.45594000000E+02  0.51100000000E-03 0.  1.
         11   -1    0    0    0    0 -0.00000000000E+00 -0.00000000000E+00 -0.45593999997E+02  0.45594000000E+02  0.51100000000E-03 0. -1.
    9900012    2    1    2    0    0  0.21356963985E+02 -0.28521830830E+02 -0.24779201379E+02  0.47787267684E+02  0.19999984680E+02 0.  0.
        -12    1    1    2    0    0 -0.21356963985E+02  0.28521830830E+02  0.24779201379E+02  0.43400732316E+02  0.00000000000E+00 0.  1.
         11    1    3    3    0    0  0.11934468274E+02 -0.16143474047E+02 -0.11753731692E+02  0.23263565854E+02  0.51100000000E-03 0. -1.
        -11    1    3    3    0    0 -0.24454052324E+01 -0.40279312380E+01  0.43315668224E+00  0.47320039921E+01  0.51100000000E-03 0.  1.
        -12    1    3    3    0    0  0.11867900943E+02 -0.83504255457E+01 -0.13458626369E+02  0.19791697838E+02  0.00000000000E+00 0.  1.
</event>
<event>
 7    1  0.2700100E-010  0.4778727E+02  0.7816164E-02  0.1312668E+00
        -11   -1    0    0    0    0  0.00000000000E+00  0.00000000000E+00  0.45593999997E+02  0.45594000000E+02  0.51100000000E-03 0.  1.
         11   -1    0    0    0    0 -0.00000000000E+00 -0.00000000000E+00 -0.45593999997E+02  0.45594000000E+02  0.51100000000E-03 0. -1.
    9900012    2    1    2    0    0  0.12623758830E+02 -0.13407403119E+02 -0.39300195114E+02  0.47787273262E+02  0.20000010111E+02 0.  0.
        -12    1    1    2    0    0 -0.12623758830E+02  0.13407403119E+02  0.39300195114E+02  0.43400726738E+02  0.00000000000E+00 0.  1.
         11    1    3    3    0    0  0.28296118749E+00  0.25306957813E+01 -0.11948758825E+02  0.12217091548E+02  0.51100000000E-03 0. -1.
        -11    1    3    3    0    0  0.15765589788E+01  0.14052950121E+01 -0.13220714301E+01  0.24916391015E+01  0.51100000000E-03 0.  1.
         12    1    3    3    0    0  0.10764238664E+02 -0.17343393913E+02 -0.26029364858E+02  0.33078542612E+02  0.00000000000E+00 0. -1.
</event>
<event>
 7    1  0.2700100E-010  0.4778727E+02  0.7816164E-02  0.1312668E+00
        -11   -1    0    0    0    0  0.00000000000E+00  0.00000000000E+00  0.45593999997E+02  0.45594000000E+02  0.51100000000E-03 0.  1.
         11   -1    0    0    0    0 -0.00000000000E+00 -0.00000000000E+00 -0.45593999997E+02  0.45594000000E+02  0.51100000000E-03 0. -1.
    9900012    2    1    2    0    0  0.18582773140E+02 -0.17688529043E+02 -0.35005991899E+02  0.47787274360E+02  0.20000015118E+02 0.  0.
        -12    1    1    2    0    0 -0.18582773140E+02  0.17688529043E+02  0.35005991899E+02  0.43400725640E+02  0.00000000000E+00 0.  1.
         11    1    3    3    0    0  0.18448799405E+02 -0.10211956875E+02 -0.21288254240E+02  0.29963845407E+02  0.51100000000E-03 0. -1.
        -11    1    3    3    0    0  0.39273142838E+01 -0.56509527204E+01 -0.10366000861E+02  0.12442308397E+02  0.51100000000E-03 0.  1.
        -12    1    3    3    0    0 -0.37933405487E+01 -0.18256194470E+01 -0.33517367971E+01  0.53811205562E+01  0.00000000000E+00 0.  1.
</event>
<event>
 7    1  0.2700100E-010  0.4778727E+02  0.7816164E-02  0.1312668E+00
        -11   -1    0    0    0    0  0.00000000000E+00  0.00000000000E+00  0.45593999997E+02  0.45594000000E+02  0.51100000000E-03 0.  1.
         11   -1    0    0    0    0 -0.00000000000E+00 -0.00000000000E+00 -0.45593999997E+02  0.45594000000E+02  0.51100000000E-03 0. -1.
    9900012    2    1    2    0    0 -0.41913237662E+02 -0.10537476512E+02 -0.39831324484E+01  0.47787271358E+02  0.20000001431E+02 0.  0.
        -12    1    1    2    0    0  0.41913237662E+02  0.10537476512E+02  0.39831324484E+01  0.43400728642E+02  0.00000000000E+00 0.  1.
         11    1    3    3    0    0 -0.98625029779E+01 -0.78696499163E+01 -0.97986546942E+00  0.12655453030E+02  0.51100000000E-03 0. -1.
        -11    1    3    3    0    0 -0.48870398847E+01  0.37804755411E+01  0.25189347296E+01  0.66723449090E+01  0.51100000000E-03 0.  1.
        -12    1    3    3    0    0 -0.27163694799E+02 -0.64483021365E+01 -0.55222017086E+01  0.28459473419E+02  0.00000000000E+00 0.  1.
</event>
<event>
 7    1  0.2700100E-010  0.4778727E+02  0.7816164E-02  0.1312668E+00
        -11   -1    0    0    0    0  0.00000000000E+00  0.00000000000E+00  0.45593999997E+02  0.45594000000E+02  0.51100000000E-03 0. -1.
         11   -1    0    0    0    0 -0.00000000000E+00 -0.00000000000E+00 -0.45593999997E+02  0.45594000000E+02  0.51100000000E-03 0.  1.
    9900012    2    1    2    0    0 -0.11958929099E+02  0.12687009134E+02  0.39744774401E+02  0.47787270995E+02  0.19999999776E+02 0.  0.
        -12    1    1    2    0    0  0.11958929099E+02 -0.12687009134E+02 -0.39744774401E+02  0.43400729005E+02  0.00000000000E+00 0.  1.
         11    1    3    3    0    0 -0.79927131559E+01  0.11637425031E+02  0.37047181380E+02  0.39646018380E+02  0.51100000000E-03 0. -1.
        -11    1    3    3    0    0 -0.50216089467E+01  0.27138315158E+01  0.20981671833E+01  0.60814261239E+01  0.51100000000E-03 0.  1.
         12    1    3    3    0    0  0.10553930034E+01 -0.16642474123E+01  0.59942583791E+00  0.20598264918E+01  0.00000000000E+00 0. -1.
</event>
<event>
 7    1  0.2700100E-010  0.4778727E+02  0.7816164E-02  0.1312668E+00
        -11   -1    0    0    0    0  0.00000000000E+00  0.00000000000E+00  0.45593999997E+02  0.45594000000E+02  0.51100000000E-03 0.  1.
         11   -1    0    0    0    0 -0.00000000000E+00 -0.00000000000E+00 -0.45593999997E+02  0.45594000000E+02  0.51100000000E-03 0. -1.
    9900012    2    1    2    0    0  0.22937907255E+02  0.15498135824E+02 -0.33425787929E+02  0.47787273025E+02  0.20000009032E+02 0.  0.
        -12    1    1    2    0    0 -0.22937907255E+02 -0.15498135824E+02  0.33425787929E+02  0.43400726975E+02  0.00000000000E+00 0.  1.
         11    1    3    3    0    0  0.20038362690E+02  0.12543192649E+02 -0.19475968020E+02  0.30629740314E+02  0.51100000000E-03 0. -1.
        -11    1    3    3    0    0  0.46779722840E+00  0.59589814513E+01 -0.69953741153E+01  0.92012799902E+01  0.51100000000E-03 0.  1.
         12    1    3    3    0    0  0.24317473362E+01 -0.30040382759E+01 -0.69544457934E+01  0.79562527212E+01  0.00000000000E+00 0. -1.
</event>
<event>
 7    1  0.2700100E-010  0.4778726E+02  0.7816164E-02  0.1312668E+00
        -11   -1    0    0    0    0  0.00000000000E+00  0.00000000000E+00  0.45593999997E+02  0.45594000000E+02  0.51100000000E-03 0.  1.
         11   -1    0    0    0    0 -0.00000000000E+00 -0.00000000000E+00 -0.45593999997E+02  0.45594000000E+02  0.51100000000E-03 0. -1.
    9900012    2    1    2    0    0 -0.89242189660E+01 -0.35033467635E+02 -0.24013299385E+02  0.47787261688E+02  0.19999957342E+02 0.  0.
        -12    1    1    2    0    0  0.89242189660E+01  0.35033467635E+02  0.24013299385E+02  0.43400738312E+02  0.00000000000E+00 0.  1.
         11    1    3    3    0    0 -0.35126566547E+01 -0.56785570702E+01 -0.43042567354E+01  0.79442679637E+01  0.51100000000E-03 0. -1.
        -11    1    3    3    0    0 -0.92047032842E-01 -0.10700679015E+02 -0.17236499119E+02  0.20288171583E+02  0.51100000000E-03 0.  1.
        -12    1    3    3    0    0 -0.53195152785E+01 -0.18654231549E+02 -0.24725435305E+01  0.19554822142E+02  0.00000000000E+00 0.  1.
</event>
<event>
 7    1  0.2700100E-010  0.4778727E+02  0.7816164E-02  0.1312668E+00
        -11   -1    0    0    0    0  0.00000000000E+00  0.00000000000E+00  0.45593999997E+02  0.45594000000E+02  0.51100000000E-03 0.  1.
         11   -1    0    0    0    0 -0.00000000000E+00 -0.00000000000E+00 -0.45593999997E+02  0.45594000000E+02  0.51100000000E-03 0. -1.
    9900012    2    1    2    0    0 -0.10193930033E+02 -0.34198406928E+02 -0.24701737879E+02  0.47787273045E+02  0.20000009123E+02 0.  0.
        -12    1    1    2    0    0  0.10193930033E+02  0.34198406928E+02  0.24701737879E+02  0.43400726955E+02  0.00000000000E+00 0.  1.
         11    1    3    3    0    0  0.49554380988E+01 -0.86931967600E+01 -0.26381687277E+01  0.10348331805E+02  0.51100000000E-03 0.  1.
        -11    1    3    3    0    0 -0.11398127162E+02 -0.23170015512E+02 -0.19107154564E+02  0.32122426394E+02  0.51100000000E-03 0. -1.
        -12    1    3    3    0    0 -0.37512409695E+01 -0.23351946559E+01 -0.29564145874E+01  0.53165148457E+01  0.00000000000E+00 0.  1.
</event>
<event>
 7    1  0.2700100E-010  0.4778727E+02  0.7816164E-02  0.1312668E+00
        -11   -1    0    0    0    0  0.00000000000E+00  0.00000000000E+00  0.45593999997E+02  0.45594000000E+02  0.51100000000E-03 0.  1.
         11   -1    0    0    0    0 -0.00000000000E+00 -0.00000000000E+00 -0.45593999997E+02  0.45594000000E+02  0.51100000000E-03 0. -1.
    9900012    2    1    2    0    0 -0.19135826040E+02  0.26796835720E+01 -0.38862101891E+02  0.47787268374E+02  0.19999987826E+02 0.  0.
        -12    1    1    2    0    0  0.19135826040E+02 -0.26796835720E+01  0.38862101891E+02  0.43400731626E+02  0.00000000000E+00 0.  1.
         11    1    3    3    0    0 -0.11796347953E+02  0.16869657989E+01 -0.25331814161E+02  0.27994651053E+02  0.51100000000E-03 0. -1.
        -11    1    3    3    0    0 -0.53261613634E+00  0.57701028402E+01 -0.35252297154E+01  0.67826994289E+01  0.51100000000E-03 0.  1.
        -12    1    3    3    0    0 -0.68068619509E+01 -0.47773850671E+01 -0.10005058014E+02  0.13009917892E+02  0.00000000000E+00 0.  1.
</event>
<event>
 7    1  0.2700100E-010  0.4778727E+02  0.7816164E-02  0.1312668E+00
        -11   -1    0    0    0    0  0.00000000000E+00  0.00000000000E+00  0.45593999997E+02  0.45594000000E+02  0.51100000000E-03 0.  1.
         11   -1    0    0    0    0 -0.00000000000E+00 -0.00000000000E+00 -0.45593999997E+02  0.45594000000E+02  0.51100000000E-03 0. -1.
    9900012    2    1    2    0    0  0.36294999009E+02 -0.74525240862E+00 -0.23785309487E+02  0.47787270725E+02  0.19999998544E+02 0.  0.
        -12    1    1    2    0    0 -0.36294999009E+02  0.74525240862E+00  0.23785309487E+02  0.43400729275E+02  0.00000000000E+00 0.  1.
         11    1    3    3    0    0  0.11930155148E+02 -0.41950714428E+01 -0.57246581276E+01  0.13881604273E+02  0.51100000000E-03 0. -1.
        -11    1    3    3    0    0  0.18557726916E+02  0.90060603454E+01 -0.13689333807E+02  0.24756740730E+02  0.51100000000E-03 0.  1.
        -12    1    3    3    0    0  0.58071169452E+01 -0.55562413112E+01 -0.43713175518E+01  0.91489257218E+01  0.00000000000E+00 0.  1.
</event>
<event>
 7    1  0.2700100E-010  0.4778725E+02  0.7816164E-02  0.1312668E+00
        -11   -1    0    0    0    0  0.00000000000E+00  0.00000000000E+00  0.45593999997E+02  0.45594000000E+02  0.51100000000E-03 0.  1.
         11   -1    0    0    0    0 -0.00000000000E+00 -0.00000000000E+00 -0.45593999997E+02  0.45594000000E+02  0.51100000000E-03 0. -1.
    9900012    2    1    2    0    0  0.21641853832E+02 -0.18781376545E+02 -0.32596238741E+02  0.47787254359E+02  0.19999923923E+02 0.  0.
        -12    1    1    2    0    0 -0.21641853832E+02  0.18781376545E+02  0.32596238741E+02  0.43400745641E+02  0.00000000000E+00 0.  1.
         11    1    3    3    0    0  0.16950035542E+02 -0.39423373559E+01 -0.13496739766E+02  0.22022890666E+02  0.51100000000E-03 0. -1.
        -11    1    3    3    0    0 -0.17921950765E+00  0.76444808314E+00 -0.27179516987E+00  0.83088710378E+00  0.51100000000E-03 0.  1.
         12    1    3    3    0    0  0.48710377972E+01 -0.15603487272E+02 -0.18827703805E+02  0.24933476589E+02  0.00000000000E+00 0. -1.
</event>
<event>
 7    1  0.2700100E-010  0.4778725E+02  0.7816164E-02  0.1312668E+00
        -11   -1    0    0    0    0  0.00000000000E+00  0.00000000000E+00  0.45593999997E+02  0.45594000000E+02  0.51100000000E-03 0.  1.
         11   -1    0    0    0    0 -0.00000000000E+00 -0.00000000000E+00 -0.45593999997E+02  0.45594000000E+02  0.51100000000E-03 0. -1.
    9900012    2    1    2    0    0 -0.15394795616E+02  0.10082158320E+01 -0.40566108894E+02  0.47787246297E+02  0.19999887166E+02 0.  0.
        -12    1    1    2    0    0  0.15394795616E+02 -0.10082158320E+01  0.40566108894E+02  0.43400753703E+02  0.00000000000E+00 0.  1.
         11    1    3    3    0    0 -0.26430562714E+01  0.43069766940E+01 -0.58012885735E+01  0.76935521101E+01  0.51100000000E-03 0. -1.
        -11    1    3    3    0    0 -0.23175270747E+01 -0.18748212616E+01  0.73050795419E+00  0.30691250605E+01  0.51100000000E-03 0.  1.
        -12    1    3    3    0    0 -0.10434212270E+02 -0.14239396004E+01 -0.35495328274E+02  0.37024569126E+02  0.00000000000E+00 0.  1.
</event>
<event>
 7    1  0.2700100E-010  0.4778727E+02  0.7816164E-02  0.1312668E+00
        -11   -1    0    0    0    0  0.00000000000E+00  0.00000000000E+00  0.45593999997E+02  0.45594000000E+02  0.51100000000E-03 0.  1.
         11   -1    0    0    0    0 -0.00000000000E+00 -0.00000000000E+00 -0.45593999997E+02  0.45594000000E+02  0.51100000000E-03 0. -1.
    9900012    2    1    2    0    0 -0.29205821746E+02 -0.58540027834E+01 -0.31565386123E+02  0.47787274504E+02  0.20000015775E+02 0.  0.
        -12    1    1    2    0    0  0.29205821746E+02  0.58540027834E+01  0.31565386123E+02  0.43400725496E+02  0.00000000000E+00 0.  1.
         11    1    3    3    0    0 -0.14574037612E+02 -0.36753986322E+01 -0.48337762285E+01  0.15788493288E+02  0.51100000000E-03 0.  1.
        -11    1    3    3    0    0 -0.27364104846E+00 -0.16749030328E+01 -0.90904270306E+01  0.92474884943E+01  0.51100000000E-03 0. -1.
        -12    1    3    3    0    0 -0.14358143086E+02 -0.50370111845E+00 -0.17641182864E+02  0.22751292722E+02  0.00000000000E+00 0.  1.
</event>
<event>
 7    1  0.2700100E-010  0.4778726E+02  0.7816164E-02  0.1312668E+00
        -11   -1    0    0    0    0  0.00000000000E+00  0.00000000000E+00  0.45593999997E+02  0.45594000000E+02  0.51100000000E-03 0. -1.
         11   -1    0    0    0    0 -0.00000000000E+00 -0.00000000000E+00 -0.45593999997E+02  0.45594000000E+02  0.51100000000E-03 0.  1.
    9900012    2    1    2    0    0  0.27142805098E+02  0.14001795020E+02  0.30835721650E+02  0.47787264269E+02  0.19999969108E+02 0.  0.
        -12    1    1    2    0    0 -0.27142805098E+02 -0.14001795020E+02 -0.30835721650E+02  0.43400735731E+02  0.00000000000E+00 0.  1.
         11    1    3    3    0    0  0.55470348644E+01  0.95571065313E+01  0.13480558203E+02  0.17430815551E+02  0.51100000000E-03 0. -1.
        -11    1    3    3    0    0  0.89977249696E+01 -0.14366686384E+01  0.14418374219E+01  0.92250727270E+01  0.51100000000E-03 0.  1.
        -12    1    3    3    0    0  0.12598045264E+02  0.58813571266E+01  0.15913326025E+02  0.21131375991E+02  0.00000000000E+00 0.  1.
</event>
<event>
 7    1  0.2700100E-010  0.4778728E+02  0.7816164E-02  0.1312668E+00
        -11   -1    0    0    0    0  0.00000000000E+00  0.00000000000E+00  0.45593999997E+02  0.45594000000E+02  0.51100000000E-03 0.  1.
         11   -1    0    0    0    0 -0.00000000000E+00 -0.00000000000E+00 -0.45593999997E+02  0.45594000000E+02  0.51100000000E-03 0. -1.
    9900012    2    1    2    0    0  0.29210803425E+02 -0.28003264919E+02 -0.15689756164E+02  0.47787281903E+02  0.20000049508E+02 0.  0.
        -12    1    1    2    0    0 -0.29210803425E+02  0.28003264919E+02  0.15689756164E+02  0.43400718097E+02  0.00000000000E+00 0.  1.
         11    1    3    3    0    0  0.14868670456E+02 -0.11716301643E+02 -0.10590488600E+02  0.21691185638E+02  0.51100000000E-03 0. -1.
        -11    1    3    3    0    0  0.49147531510E+01 -0.46554315098E+01  0.46649689232E+01  0.82213001644E+01  0.51100000000E-03 0.  1.
         12    1    3    3    0    0  0.94273798178E+01 -0.11631531766E+02 -0.97642364879E+01  0.17874796101E+02  0.00000000000E+00 0. -1.
</event>
<event>
 7    1  0.2700100E-010  0.4778727E+02  0.7816164E-02  0.1312668E+00
        -11   -1    0    0    0    0  0.00000000000E+00  0.00000000000E+00  0.45593999997E+02  0.45594000000E+02  0.51100000000E-03 0.  1.
         11   -1    0    0    0    0 -0.00000000000E+00 -0.00000000000E+00 -0.45593999997E+02  0.45594000000E+02  0.51100000000E-03 0. -1.
    9900012    2    1    2    0    0 -0.26192042918E+02 -0.80891632210E+01 -0.33647664647E+02  0.47787274084E+02  0.20000013859E+02 0.  0.
        -12    1    1    2    0    0  0.26192042918E+02  0.80891632210E+01  0.33647664647E+02  0.43400725916E+02  0.00000000000E+00 0.  1.
         11    1    3    3    0    0 -0.22430587404E+02 -0.27458769922E+01 -0.24965946153E+02  0.33674464500E+02  0.51100000000E-03 0. -1.
        -11    1    3    3    0    0  0.15370519118E+01  0.14271405727E+01 -0.32342087596E+00  0.21222299871E+01  0.51100000000E-03 0.  1.
        -12    1    3    3    0    0 -0.52985074257E+01 -0.67704268016E+01 -0.83582976177E+01  0.11990579597E+02  0.00000000000E+00 0.  1.
</event>
<event>
 7    1  0.2700100E-010  0.4778728E+02  0.7816164E-02  0.1312668E+00
        -11   -1    0    0    0    0  0.00000000000E+00  0.00000000000E+00  0.45593999997E+02  0.45594000000E+02  0.51100000000E-03 0.  1.
         11   -1    0    0    0    0 -0.00000000000E+00 -0.00000000000E+00 -0.45593999997E+02  0.45594000000E+02  0.51100000000E-03 0. -1.
    9900012    2    1    2    0    0 -0.29622099474E+02  0.31362789941E+02 -0.47465282998E+01  0.47787275340E+02  0.20000019583E+02 0.  0.
        -12    1    1    2    0    0  0.29622099474E+02 -0.31362789941E+02  0.47465282998E+01  0.43400724660E+02  0.00000000000E+00 0.  1.
         11    1    3    3    0    0 -0.96434462329E+01  0.99577623508E+01 -0.43075364556E+01  0.14515783026E+02  0.51100000000E-03 0. -1.
        -11    1    3    3    0    0 -0.18014052499E+02  0.23185470086E+02 -0.30887031931E+01  0.29523079077E+02  0.51100000000E-03 0.  1.
        -12    1    3    3    0    0 -0.19646007425E+01 -0.17804424956E+01  0.26497113488E+01  0.37484132362E+01  0.00000000000E+00 0.  1.
</event>
<event>
 7    1  0.2700100E-010  0.4778728E+02  0.7816164E-02  0.1312668E+00
        -11   -1    0    0    0    0  0.00000000000E+00  0.00000000000E+00  0.45593999997E+02  0.45594000000E+02  0.51100000000E-03 0.  1.
         11   -1    0    0    0    0 -0.00000000000E+00 -0.00000000000E+00 -0.45593999997E+02  0.45594000000E+02  0.51100000000E-03 0. -1.
    9900012    2    1    2    0    0  0.34382867511E+02  0.22592320911E+02  0.13821297621E+02  0.47787276384E+02  0.20000024346E+02 0.  0.
        -12    1    1    2    0    0 -0.34382867511E+02 -0.22592320911E+02 -0.13821297621E+02  0.43400723616E+02  0.00000000000E+00 0.  1.
         11    1    3    3    0    0  0.12668813744E+02  0.27390693655E+01 -0.26310588182E+01  0.13225876660E+02  0.51100000000E-03 0. -1.
        -11    1    3    3    0    0  0.51493930763E+01  0.84913880202E+01  0.80678047782E+01  0.12794897177E+02  0.51100000000E-03 0.  1.
        -12    1    3    3    0    0  0.16564660691E+02  0.11361863525E+02  0.83845516612E+01  0.21766502547E+02  0.00000000000E+00 0.  1.
</event>
<event>
 7    1  0.2700100E-010  0.4778725E+02  0.7816164E-02  0.1312668E+00
        -11   -1    0    0    0    0  0.00000000000E+00  0.00000000000E+00  0.45593999997E+02  0.45594000000E+02  0.51100000000E-03 0.  1.
         11   -1    0    0    0    0 -0.00000000000E+00 -0.00000000000E+00 -0.45593999997E+02  0.45594000000E+02  0.51100000000E-03 0. -1.
    9900012    2    1    2    0    0 -0.15077559567E+02  0.36887269673E+02 -0.17193643531E+02  0.47787252952E+02  0.19999917510E+02 0.  0.
        -12    1    1    2    0    0  0.15077559567E+02 -0.36887269673E+02  0.17193643531E+02  0.43400747048E+02  0.00000000000E+00 0.  1.
         11    1    3    3    0    0 -0.15003847930E+01 -0.96710137498E+00  0.14917103927E+01  0.23262931357E+01  0.51100000000E-03 0. -1.
        -11    1    3    3    0    0 -0.37225978438E+01  0.21730143241E+01 -0.94724568454E+00  0.44132754964E+01  0.51100000000E-03 0.  1.
         12    1    3    3    0    0 -0.98545769302E+01  0.35681356724E+02 -0.17738108240E+02  0.41047684320E+02  0.00000000000E+00 0. -1.
</event>
<event>
 7    1  0.2700100E-010  0.4778726E+02  0.7816164E-02  0.1312668E+00
        -11   -1    0    0    0    0  0.00000000000E+00  0.00000000000E+00  0.45593999997E+02  0.45594000000E+02  0.51100000000E-03 0.  1.
         11   -1    0    0    0    0 -0.00000000000E+00 -0.00000000000E+00 -0.45593999997E+02  0.45594000000E+02  0.51100000000E-03 0. -1.
    9900012    2    1    2    0    0 -0.11941095313E+02  0.31130166400E+02 -0.27783937089E+02  0.47787260633E+02  0.19999952532E+02 0.  0.
        -12    1    1    2    0    0  0.11941095313E+02 -0.31130166400E+02  0.27783937089E+02  0.43400739367E+02  0.00000000000E+00 0.  1.
         11    1    3    3    0    0  0.10978145827E+01  0.92868020594E+00 -0.42259489330E+01  0.44638871433E+01  0.51100000000E-03 0. -1.
        -11    1    3    3    0    0 -0.25390785731E+01  0.16027675308E+02 -0.19227940927E+02  0.25160425441E+02  0.51100000000E-03 0.  1.
        -12    1    3    3    0    0 -0.10499831323E+02  0.14173810886E+02 -0.43300472287E+01  0.18162948050E+02  0.00000000000E+00 0.  1.
</event>
<event>
 7    1  0.2700100E-010  0.4778727E+02  0.7816164E-02  0.1312668E+00
        -11   -1    0    0    0    0  0.00000000000E+00  0.00000000000E+00  0.45593999997E+02  0.45594000000E+02  0.51100000000E-03 0. -1.
         11   -1    0    0    0    0 -0.00000000000E+00 -0.00000000000E+00 -0.45593999997E+02  0.45594000000E+02  0.51100000000E-03 0.  1.
    9900012    2    1    2    0    0  0.29126558508E+02  0.15700686741E+02  0.28084789001E+02  0.47787270192E+02  0.19999996113E+02 0.  0.
        -12    1    1    2    0    0 -0.29126558508E+02 -0.15700686741E+02 -0.28084789001E+02  0.43400729808E+02  0.00000000000E+00 0.  1.
         11    1    3    3    0    0  0.51100179524E+01  0.89250769852E+00  0.60268868572E+01  0.79518688945E+01  0.51100000000E-03 0. -1.
        -11    1    3    3    0    0  0.18534330774E+02  0.23157882426E+01  0.82321550911E+01  0.20412071677E+02  0.51100000000E-03 0.  1.
        -12    1    3    3    0    0  0.54822097815E+01  0.12492390800E+02  0.13825747052E+02  0.19423329621E+02  0.00000000000E+00 0.  1.
</event>
<event>
 7    1  0.2700100E-010  0.4778727E+02  0.7816164E-02  0.1312668E+00
        -11   -1    0    0    0    0  0.00000000000E+00  0.00000000000E+00  0.45593999997E+02  0.45594000000E+02  0.51100000000E-03 0. -1.
         11   -1    0    0    0    0 -0.00000000000E+00 -0.00000000000E+00 -0.45593999997E+02  0.45594000000E+02  0.51100000000E-03 0.  1.
    9900012    2    1    2    0    0  0.17101460605E+02 -0.83657152990E+01  0.39002286652E+02  0.47787268308E+02  0.19999987525E+02 0.  0.
        -12    1    1    2    0    0 -0.17101460605E+02  0.83657152990E+01 -0.39002286652E+02  0.43400731692E+02  0.00000000000E+00 0.  1.
         11    1    3    3    0    0  0.14208424100E+02  0.14779454306E+01  0.19254223541E+02  0.23974752607E+02  0.51100000000E-03 0. -1.
        -11    1    3    3    0    0  0.40020264018E+01 -0.98421262434E+01  0.20025402615E+02  0.22669371726E+02  0.51100000000E-03 0.  1.
         12    1    3    3    0    0 -0.11089898974E+01 -0.15344862033E-02 -0.27733950428E+00  0.11431439751E+01  0.00000000000E+00 0. -1.
</event>
<event>
 7    1  0.2700100E-010  0.4778724E+02  0.7816164E-02  0.1312668E+00
        -11   -1    0    0    0    0  0.00000000000E+00  0.00000000000E+00  0.45593999997E+02  0.45594000000E+02  0.51100000000E-03 0.  1.
         11   -1    0    0    0    0 -0.00000000000E+00 -0.00000000000E+00 -0.45593999997E+02  0.45594000000E+02  0.51100000000E-03 0. -1.
    9900012    2    1    2    0    0  0.32608022014E+02  0.91051860482E+01 -0.27155811761E+02  0.47787243958E+02  0.19999876501E+02 0.  0.
        -12    1    1    2    0    0 -0.32608022014E+02 -0.91051860482E+01  0.27155811761E+02  0.43400756042E+02  0.00000000000E+00 0.  1.
         11    1    3    3    0    0  0.31224920127E+02  0.75402763987E+01 -0.29027950336E+02  0.43295188024E+02  0.51100000000E-03 0. -1.
        -11    1    3    3    0    0  0.21109940180E+00  0.25052356341E+00  0.25751427764E+01  0.25958978396E+01  0.51100000000E-03 0.  1.
        -12    1    3    3    0    0  0.11720024855E+01  0.13143860862E+01 -0.70300420125E+00  0.18961580938E+01  0.00000000000E+00 0.  1.
</event>
<event>
 7    1  0.2700100E-010  0.4778727E+02  0.7816164E-02  0.1312668E+00
        -11   -1    0    0    0    0  0.00000000000E+00  0.00000000000E+00  0.45593999997E+02  0.45594000000E+02  0.51100000000E-03 0. -1.
         11   -1    0    0    0    0 -0.00000000000E+00 -0.00000000000E+00 -0.45593999997E+02  0.45594000000E+02  0.51100000000E-03 0.  1.
    9900012    2    1    2    0    0 -0.42636771336E+02  0.81057731520E+01 -0.15952827927E+00  0.47787271001E+02  0.19999999802E+02 0.  0.
        -12    1    1    2    0    0  0.42636771336E+02 -0.81057731520E+01  0.15952827927E+00  0.43400728999E+02  0.00000000000E+00 0.  1.
         11    1    3    3    0    0 -0.29484909927E+02  0.53440856457E+01  0.52625191238E+01  0.30423893120E+02  0.51100000000E-03 0. -1.
        -11    1    3    3    0    0 -0.16781834868E+01  0.42305387080E+01 -0.32534827838E+01  0.55945427035E+01  0.51100000000E-03 0.  1.
         12    1    3    3    0    0 -0.11473677923E+02 -0.14688512018E+01 -0.21685646193E+01  0.11768835178E+02  0.00000000000E+00 0. -1.
</event>
<event>
 7    1  0.2700100E-010  0.4778728E+02  0.7816164E-02  0.1312668E+00
        -11   -1    0    0    0    0  0.00000000000E+00  0.00000000000E+00  0.45593999997E+02  0.45594000000E+02  0.51100000000E-03 0. -1.
         11   -1    0    0    0    0 -0.00000000000E+00 -0.00000000000E+00 -0.45593999997E+02  0.45594000000E+02  0.51100000000E-03 0.  1.
    9900012    2    1    2    0    0 -0.23904819041E+02  0.18447609789E+02 -0.31174801391E+02  0.47787275097E+02  0.20000018479E+02 0.  0.
        -12    1    1    2    0    0  0.23904819041E+02 -0.18447609789E+02  0.31174801391E+02  0.43400724903E+02  0.00000000000E+00 0.  1.
         11    1    3    3    0    0 -0.17837441958E+02  0.77495029306E+01 -0.12592396591E+02  0.23168892581E+02  0.51100000000E-03 0. -1.
        -11    1    3    3    0    0 -0.57379891063E+01  0.69577319808E+00 -0.94083128390E+01  0.11041964049E+02  0.51100000000E-03 0.  1.
         12    1    3    3    0    0 -0.32938797688E+00  0.10002333660E+02 -0.91740919606E+01  0.13576418467E+02  0.00000000000E+00 0. -1.
</event>
<event>
 7    1  0.2700100E-010  0.4778727E+02  0.7816164E-02  0.1312668E+00
        -11   -1    0    0    0    0  0.00000000000E+00  0.00000000000E+00  0.45593999997E+02  0.45594000000E+02  0.51100000000E-03 0. -1.
         11   -1    0    0    0    0 -0.00000000000E+00 -0.00000000000E+00 -0.45593999997E+02  0.45594000000E+02  0.51100000000E-03 0.  1.
    9900012    2    1    2    0    0  0.15391152799E+02  0.36640463443E+02  0.17441678095E+02  0.47787270967E+02  0.19999999649E+02 0.  0.
        -12    1    1    2    0    0 -0.15391152799E+02 -0.36640463443E+02 -0.17441678095E+02  0.43400729033E+02  0.00000000000E+00 0.  1.
         11    1    3    3    0    0  0.15168951413E+02  0.19927086605E+02  0.97201669175E+01  0.26863870025E+02  0.51100000000E-03 0. -1.
        -11    1    3    3    0    0 -0.45989436381E+01  0.57017046122E+01  0.39636670474E+01  0.83288879687E+01  0.51100000000E-03 0.  1.
        -12    1    3    3    0    0  0.48211450239E+01  0.11011672226E+02  0.37578441300E+01  0.12594512974E+02  0.00000000000E+00 0.  1.
</event>
<event>
 7    1  0.2700100E-010  0.4778728E+02  0.7816164E-02  0.1312668E+00
        -11   -1    0    0    0    0  0.00000000000E+00  0.00000000000E+00  0.45593999997E+02  0.45594000000E+02  0.51100000000E-03 0.  1.
         11   -1    0    0    0    0 -0.00000000000E+00 -0.00000000000E+00 -0.45593999997E+02  0.45594000000E+02  0.51100000000E-03 0. -1.
    9900012    2    1    2    0    0 -0.44644984846E+01  0.15814915783E+02 -0.40169385439E+02  0.47787276106E+02  0.20000023079E+02 0.  0.
        -12    1    1    2    0    0  0.44644984846E+01 -0.15814915783E+02  0.40169385439E+02  0.43400723894E+02  0.00000000000E+00 0.  1.
         11    1    3    3    0    0 -0.61269722674E+01  0.81880726930E+00 -0.23005579709E+02  0.23821564443E+02  0.51100000000E-03 0. -1.
        -11    1    3    3    0    0  0.18487043154E+01  0.15692925986E+02 -0.15419632463E+02  0.22078285695E+02  0.51100000000E-03 0.  1.
        -12    1    3    3    0    0 -0.18623053261E+00 -0.69681747267E+00 -0.17441732670E+01  0.18874259686E+01  0.00000000000E+00 0.  1.
</event>
<event>
 7    1  0.2700100E-010  0.4778725E+02  0.7816164E-02  0.1312668E+00
        -11   -1    0    0    0    0  0.00000000000E+00  0.00000000000E+00  0.45593999997E+02  0.45594000000E+02  0.51100000000E-03 0.  1.
         11   -1    0    0    0    0 -0.00000000000E+00 -0.00000000000E+00 -0.45593999997E+02  0.45594000000E+02  0.51100000000E-03 0. -1.
    9900012    2    1    2    0    0 -0.22530864692E+02 -0.98596460142E+01 -0.35759924770E+02  0.47787254582E+02  0.19999924940E+02 0.  0.
        -12    1    1    2    0    0  0.22530864692E+02  0.98596460142E+01  0.35759924770E+02  0.43400745418E+02  0.00000000000E+00 0.  1.
         11    1    3    3    0    0 -0.16898538879E+02 -0.12565760100E+01 -0.28224003501E+02  0.32920115027E+02  0.51100000000E-03 0. -1.
        -11    1    3    3    0    0  0.99429945175E+00 -0.21334961942E+01  0.71885695343E+00  0.24611365243E+01  0.51100000000E-03 0.  1.
        -12    1    3    3    0    0 -0.66266252652E+01 -0.64695738099E+01 -0.82547782225E+01  0.12406003030E+02  0.00000000000E+00 0.  1.
</event>
<event>
 7    1  0.2700100E-010  0.4778727E+02  0.7816164E-02  0.1312668E+00
        -11   -1    0    0    0    0  0.00000000000E+00  0.00000000000E+00  0.45593999997E+02  0.45594000000E+02  0.51100000000E-03 0.  1.
         11   -1    0    0    0    0 -0.00000000000E+00 -0.00000000000E+00 -0.45593999997E+02  0.45594000000E+02  0.51100000000E-03 0. -1.
    9900012    2    1    2    0    0 -0.40387734312E+02  0.12357167145E+01 -0.15840677999E+02  0.47787272378E+02  0.20000006081E+02 0.  0.
        -12    1    1    2    0    0  0.40387734312E+02 -0.12357167145E+01  0.15840677999E+02  0.43400727622E+02  0.00000000000E+00 0.  1.
         11    1    3    3    0    0 -0.29680018385E+02 -0.51581134304E+01 -0.93777419011E+01  0.31550779212E+02  0.51100000000E-03 0. -1.
        -11    1    3    3    0    0 -0.10768033230E+01  0.49392700170E+01 -0.31104441363E+01  0.59355502427E+01  0.51100000000E-03 0.  1.
        -12    1    3    3    0    0 -0.96309126040E+01  0.14545601279E+01 -0.33524919616E+01  0.10300942923E+02  0.00000000000E+00 0.  1.
</event>
<event>
 7    1  0.3095260E-010  0.4778727E+02  0.7816164E-02  0.1312668E+00
        -11   -1    0    0    0    0  0.00000000000E+00  0.00000000000E+00  0.45593999997E+02  0.45594000000E+02  0.51100000000E-03 0. -1.
         11   -1    0    0    0    0 -0.00000000000E+00 -0.00000000000E+00 -0.45593999997E+02  0.45594000000E+02  0.51100000000E-03 0.  1.
    9900012    2    1    2    0    0 -0.22880180368E+02 -0.23001137722E+02  0.28828253134E+02  0.47787272254E+02  0.20000005513E+02 0.  0.
        -12    1    1    2    0    0  0.22880180368E+02  0.23001137722E+02 -0.28828253134E+02  0.43400727746E+02  0.00000000000E+00 0.  1.
         11    1    3    3    0    0 -0.55480902976E+01 -0.34659714894E+01  0.15421839629E+02  0.16751937264E+02  0.51100000000E-03 0.  1.
        -11    1    3    3    0    0 -0.14494751200E+02 -0.17839624369E+02  0.14916176672E+02  0.27401502454E+02  0.51100000000E-03 0. -1.
        -12    1    3    3    0    0 -0.28373388703E+01 -0.16955418631E+01 -0.15097631665E+01  0.36338325351E+01  0.00000000000E+00 0.  1.
</event>
<event>
 7    1  0.3172213E-010  0.4778727E+02  0.7816164E-02  0.1312668E+00
        -11   -1    0    0    0    0  0.00000000000E+00  0.00000000000E+00  0.45593999997E+02  0.45594000000E+02  0.51100000000E-03 0.  1.
         11   -1    0    0    0    0 -0.00000000000E+00 -0.00000000000E+00 -0.45593999997E+02  0.45594000000E+02  0.51100000000E-03 0. -1.
    9900012    2    1    2    0    0 -0.32203060621E+01 -0.42377985077E+02  0.87954123790E+01  0.47787271098E+02  0.20000000243E+02 0.  0.
        -12    1    1    2    0    0  0.32203060621E+01  0.42377985077E+02 -0.87954123790E+01  0.43400728902E+02  0.00000000000E+00 0.  1.
         11    1    3    3    0    0 -0.56821409978E+01 -0.24525443877E+02  0.81481250383E+01  0.26460840228E+02  0.51100000000E-03 0. -1.
        -11    1    3    3    0    0 -0.14989814846E+01 -0.20399194170E+01 -0.36745377521E+01  0.44621121312E+01  0.51100000000E-03 0.  1.
        -12    1    3    3    0    0  0.39608164203E+01 -0.15812621783E+02  0.43218250928E+01  0.16864318738E+02  0.00000000000E+00 0.  1.
</event>
<event>
 7    1  0.2700100E-010  0.4778728E+02  0.7816164E-02  0.1312668E+00
        -11   -1    0    0    0    0  0.00000000000E+00  0.00000000000E+00  0.45593999997E+02  0.45594000000E+02  0.51100000000E-03 0.  1.
         11   -1    0    0    0    0 -0.00000000000E+00 -0.00000000000E+00 -0.45593999997E+02  0.45594000000E+02  0.51100000000E-03 0. -1.
    9900012    2    1    2    0    0  0.38557922572E+02  0.19915438182E+02  0.53354088765E+00  0.47787277230E+02  0.20000028203E+02 0.  0.
        -12    1    1    2    0    0 -0.38557922572E+02 -0.19915438182E+02 -0.53354088765E+00  0.43400722770E+02  0.00000000000E+00 0.  1.
         11    1    3    3    0    0  0.12461197254E+02  0.43509502964E+01 -0.30549326751E+01  0.13547871398E+02  0.51100000000E-03 0. -1.
        -11    1    3    3    0    0  0.56296200542E+01 -0.27697347294E+01  0.24569956062E+01  0.67380175197E+01  0.51100000000E-03 0.  1.
        -12    1    3    3    0    0  0.20467105263E+02  0.18334222615E+02  0.11314779566E+01  0.27501388313E+02  0.00000000000E+00 0.  1.
</event>
<event>
 7    1  0.2700100E-010  0.4778727E+02  0.7816164E-02  0.1312668E+00
        -11   -1    0    0    0    0  0.00000000000E+00  0.00000000000E+00  0.45593999997E+02  0.45594000000E+02  0.51100000000E-03 0.  1.
         11   -1    0    0    0    0 -0.00000000000E+00 -0.00000000000E+00 -0.45593999997E+02  0.45594000000E+02  0.51100000000E-03 0. -1.
    9900012    2    1    2    0    0 -0.31969343677E+02 -0.23038653399E+02 -0.18188042812E+02  0.47787269743E+02  0.19999994064E+02 0.  0.
        -12    1    1    2    0    0  0.31969343677E+02  0.23038653399E+02  0.18188042812E+02  0.43400730257E+02  0.00000000000E+00 0.  1.
         11    1    3    3    0    0 -0.11200854498E+02 -0.82733588033E+01  0.21019341252E+01  0.14082817002E+02  0.51100000000E-03 0.  1.
        -11    1    3    3    0    0 -0.17205153919E+02 -0.86291527911E+01 -0.17705436145E+02  0.26152668480E+02  0.51100000000E-03 0. -1.
         12    1    3    3    0    0 -0.35633352599E+01 -0.61361418048E+01 -0.25845407917E+01  0.75517842612E+01  0.00000000000E+00 0. -1.
</event>
<event>
 7    1  0.2700100E-010  0.4778727E+02  0.7816164E-02  0.1312668E+00
        -11   -1    0    0    0    0  0.00000000000E+00  0.00000000000E+00  0.45593999997E+02  0.45594000000E+02  0.51100000000E-03 0.  1.
         11   -1    0    0    0    0 -0.00000000000E+00 -0.00000000000E+00 -0.45593999997E+02  0.45594000000E+02  0.51100000000E-03 0. -1.
    9900012    2    1    2    0    0 -0.38211175914E+00 -0.17601354257E+02 -0.39669506424E+02  0.47787269350E+02  0.19999992274E+02 0.  0.
        -12    1    1    2    0    0  0.38211175914E+00  0.17601354257E+02  0.39669506424E+02  0.43400730650E+02  0.00000000000E+00 0.  1.
         11    1    3    3    0    0 -0.43550531130E+01 -0.15209877841E+01 -0.17408584402E+02  0.18009405948E+02  0.51100000000E-03 0. -1.
        -11    1    3    3    0    0  0.11673010619E+01  0.15174918519E+01 -0.16126735892E+01  0.25032158629E+01  0.51100000000E-03 0.  1.
         12    1    3    3    0    0  0.28056402919E+01 -0.17597858325E+02 -0.20648248433E+02  0.27274647539E+02  0.00000000000E+00 0. -1.
</event>
<event>
 7    1  0.2700100E-010  0.4778727E+02  0.7816164E-02  0.1312668E+00
        -11   -1    0    0    0    0  0.00000000000E+00  0.00000000000E+00  0.45593999997E+02  0.45594000000E+02  0.51100000000E-03 0.  1.
         11   -1    0    0    0    0 -0.00000000000E+00 -0.00000000000E+00 -0.45593999997E+02  0.45594000000E+02  0.51100000000E-03 0. -1.
    9900012    2    1    2    0    0  0.25119672513E+02  0.19850314231E+02 -0.29301707614E+02  0.47787274299E+02  0.20000014840E+02 0.  0.
        -12    1    1    2    0    0 -0.25119672513E+02 -0.19850314231E+02  0.29301707614E+02  0.43400725701E+02  0.00000000000E+00 0.  1.
         11    1    3    3    0    0  0.77766309528E+00  0.49704239008E+01 -0.66067088198E+01  0.83041239956E+01  0.51100000000E-03 0. -1.
        -11    1    3    3    0    0  0.17890060483E+02  0.37383182398E+01 -0.18339690365E+02  0.25891572573E+02  0.51100000000E-03 0.  1.
        -12    1    3    3    0    0  0.64519489355E+01  0.11141572090E+02 -0.43553084297E+01  0.13591577731E+02  0.00000000000E+00 0.  1.
</event>
<event>
 7    1  0.2700100E-010  0.4778727E+02  0.7816164E-02  0.1312668E+00
        -11   -1    0    0    0    0  0.00000000000E+00  0.00000000000E+00  0.45593999997E+02  0.45594000000E+02  0.51100000000E-03 0.  1.
         11   -1    0    0    0    0 -0.00000000000E+00 -0.00000000000E+00 -0.45593999997E+02  0.45594000000E+02  0.51100000000E-03 0. -1.
    9900012    2    1    2    0    0 -0.22534650865E+02 -0.33801725646E+02 -0.15272728516E+02  0.47787269792E+02  0.19999994290E+02 0.  0.
        -12    1    1    2    0    0  0.22534650865E+02  0.33801725646E+02  0.15272728516E+02  0.43400730208E+02  0.00000000000E+00 0.  1.
         11    1    3    3    0    0 -0.10675611690E+02 -0.17257181717E+02 -0.94937948326E+01  0.22403373548E+02  0.51100000000E-03 0. -1.
        -11    1    3    3    0    0 -0.66347455966E+01 -0.51252767823E+00  0.18052291961E+01  0.68950262120E+01  0.51100000000E-03 0.  1.
        -12    1    3    3    0    0 -0.52242935787E+01 -0.16032016251E+02 -0.75841628799E+01  0.18488870032E+02  0.00000000000E+00 0.  1.
</event>
<event>
 7    1  0.2700100E-010  0.4778727E+02  0.7816164E-02  0.1312668E+00
        -11   -1    0    0    0    0  0.00000000000E+00  0.00000000000E+00  0.45593999997E+02  0.45594000000E+02  0.51100000000E-03 0. -1.
         11   -1    0    0    0    0 -0.00000000000E+00 -0.00000000000E+00 -0.45593999997E+02  0.45594000000E+02  0.51100000000E-03 0.  1.
    9900012    2    1    2    0    0 -0.21890224209E+02  0.16867195895E+02  0.33465488462E+02  0.47787272687E+02  0.20000007491E+02 0.  0.
        -12    1    1    2    0    0  0.21890224209E+02 -0.16867195895E+02 -0.33465488462E+02  0.43400727313E+02  0.00000000000E+00 0.  1.
         11    1    3    3    0    0 -0.11884534946E+02  0.13921275121E+02  0.22928685549E+02  0.29338859779E+02  0.51100000000E-03 0. -1.
        -11    1    3    3    0    0 -0.52987203876E+01 -0.37104561823E+01  0.70892371082E+01  0.95969373169E+01  0.51100000000E-03 0.  1.
        -12    1    3    3    0    0 -0.47069688751E+01  0.66563769555E+01  0.34475658050E+01  0.88514755914E+01  0.00000000000E+00 0.  1.
</event>
<event>
 7    1  0.2700100E-010  0.4778727E+02  0.7816164E-02  0.1312668E+00
        -11   -1    0    0    0    0  0.00000000000E+00  0.00000000000E+00  0.45593999997E+02  0.45594000000E+02  0.51100000000E-03 0. -1.
         11   -1    0    0    0    0 -0.00000000000E+00 -0.00000000000E+00 -0.45593999997E+02  0.45594000000E+02  0.51100000000E-03 0.  1.
    9900012    2    1    2    0    0  0.31533724650E+02 -0.22648711279E+02  0.19398018146E+02  0.47787273959E+02  0.20000013289E+02 0.  0.
        -12    1    1    2    0    0 -0.31533724650E+02  0.22648711279E+02 -0.19398018146E+02  0.43400726041E+02  0.00000000000E+00 0.  1.
         11    1    3    3    0    0  0.12493979264E+02 -0.57419823525E+00  0.25029674487E+01  0.12755158477E+02  0.51100000000E-03 0. -1.
        -11    1    3    3    0    0  0.25877969276E+01 -0.97427340725E+01  0.46498428137E+01  0.11101288150E+02  0.51100000000E-03 0.  1.
         12    1    3    3    0    0  0.16451948458E+02 -0.12331778971E+02  0.12245207884E+02  0.23930827332E+02  0.00000000000E+00 0. -1.
</event>
<event>
 7    1  0.2700100E-010  0.4778727E+02  0.7816164E-02  0.1312668E+00
        -11   -1    0    0    0    0  0.00000000000E+00  0.00000000000E+00  0.45593999997E+02  0.45594000000E+02  0.51100000000E-03 0. -1.
         11   -1    0    0    0    0 -0.00000000000E+00 -0.00000000000E+00 -0.45593999997E+02  0.45594000000E+02  0.51100000000E-03 0.  1.
    9900012    2    1    2    0    0 -0.35771500022E+02  0.24379994047E+02  0.31046503287E+01  0.47787272158E+02  0.20000005077E+02 0.  0.
        -12    1    1    2    0    0  0.35771500022E+02 -0.24379994047E+02 -0.31046503287E+01  0.43400727842E+02  0.00000000000E+00 0.  1.
         11    1    3    3    0    0 -0.55601175544E+01  0.66280873153E+01  0.71571048273E+00  0.86809383384E+01  0.51100000000E-03 0. -1.
        -11    1    3    3    0    0 -0.10091175923E+02  0.14399498094E+02  0.56084797245E+01  0.18456229896E+02  0.51100000000E-03 0.  1.
        -12    1    3    3    0    0 -0.20120206544E+02  0.33524086379E+01 -0.32195398785E+01  0.20650103924E+02  0.00000000000E+00 0.  1.
</event>
<event>
 7    1  0.2700100E-010  0.4778727E+02  0.7816164E-02  0.1312668E+00
        -11   -1    0    0    0    0  0.00000000000E+00  0.00000000000E+00  0.45593999997E+02  0.45594000000E+02  0.51100000000E-03 0. -1.
         11   -1    0    0    0    0 -0.00000000000E+00 -0.00000000000E+00 -0.45593999997E+02  0.45594000000E+02  0.51100000000E-03 0.  1.
    9900012    2    1    2    0    0  0.95896884099E+01 -0.17132347580E+02  0.38705862575E+02  0.47787271261E+02  0.20000000988E+02 0.  0.
        -12    1    1    2    0    0 -0.95896884099E+01  0.17132347580E+02 -0.38705862575E+02  0.43400728739E+02  0.00000000000E+00 0.  1.
         11    1    3    3    0    0  0.12611676001E+02 -0.97513273140E+01  0.14279507868E+02  0.21402034977E+02  0.51100000000E-03 0. -1.
        -11    1    3    3    0    0  0.13673640097E+01 -0.53958840084E+00  0.16915368114E+01  0.22410124994E+01  0.51100000000E-03 0.  1.
         12    1    3    3    0    0 -0.43893516005E+01 -0.68414318656E+01  0.22734817895E+02  0.24144223785E+02  0.00000000000E+00 0. -1.
</event>
<event>
 7    1  0.2700100E-010  0.4778727E+02  0.7816164E-02  0.1312668E+00
        -11   -1    0    0    0    0  0.00000000000E+00  0.00000000000E+00  0.45593999997E+02  0.45594000000E+02  0.51100000000E-03 0. -1.
         11   -1    0    0    0    0 -0.00000000000E+00 -0.00000000000E+00 -0.45593999997E+02  0.45594000000E+02  0.51100000000E-03 0.  1.
    9900012    2    1    2    0    0 -0.42226439267E+02 -0.88890761825E+00  0.99880412419E+01  0.47787270769E+02  0.19999998746E+02 0.  0.
        -12    1    1    2    0    0  0.42226439267E+02  0.88890761825E+00 -0.99880412419E+01  0.43400729231E+02  0.00000000000E+00 0.  1.
         11    1    3    3    0    0 -0.23953051033E+02 -0.98421899071E+00  0.11278589530E+02  0.26493846887E+02  0.51100000000E-03 0. -1.
        -11    1    3    3    0    0 -0.17082135593E+02 -0.17598195076E+01 -0.41654199058E+01  0.17670513415E+02  0.51100000000E-03 0.  1.
         12    1    3    3    0    0 -0.11912526409E+01  0.18551308801E+01  0.28748716175E+01  0.36229104673E+01  0.00000000000E+00 0. -1.
</event>
<event>
 7    1  0.2700100E-010  0.4778728E+02  0.7816164E-02  0.1312668E+00
        -11   -1    0    0    0    0  0.00000000000E+00  0.00000000000E+00  0.45593999997E+02  0.45594000000E+02  0.51100000000E-03 0. -1.
         11   -1    0    0    0    0 -0.00000000000E+00 -0.00000000000E+00 -0.45593999997E+02  0.45594000000E+02  0.51100000000E-03 0.  1.
    9900012    2    1    2    0    0  0.12987331541E+02  0.40854424470E+02  0.67725916624E+01  0.47787276766E+02  0.20000026089E+02 0.  0.
        -12    1    1    2    0    0 -0.12987331541E+02 -0.40854424470E+02 -0.67725916624E+01  0.43400723234E+02  0.00000000000E+00 0.  1.
         11    1    3    3    0    0  0.35168247965E+00  0.89624667505E+01  0.79144307636E+01  0.11961927328E+02  0.51100000000E-03 0. -1.
        -11    1    3    3    0    0  0.98559703138E+01  0.12330413188E+02 -0.26645060153E+01  0.16008711153E+02  0.51100000000E-03 0.  1.
         12    1    3    3    0    0  0.27796787474E+01  0.19561544532E+02  0.15226669141E+01  0.19816638286E+02  0.00000000000E+00 0. -1.
</event>
<event>
 7    1  0.2700100E-010  0.4778727E+02  0.7816164E-02  0.1312668E+00
        -11   -1    0    0    0    0  0.00000000000E+00  0.00000000000E+00  0.45593999997E+02  0.45594000000E+02  0.51100000000E-03 0. -1.
         11   -1    0    0    0    0 -0.00000000000E+00 -0.00000000000E+00 -0.45593999997E+02  0.45594000000E+02  0.51100000000E-03 0.  1.
    9900012    2    1    2    0    0 -0.20915707504E+02 -0.37033240187E+02  0.86426536161E+01  0.47787272349E+02  0.20000005947E+02 0.  0.
        -12    1    1    2    0    0  0.20915707504E+02  0.37033240187E+02 -0.86426536161E+01  0.43400727651E+02  0.00000000000E+00 0.  1.
         11    1    3    3    0    0 -0.56508147446E+01 -0.14481718989E+02  0.10209275182E+02  0.18597881389E+02  0.51100000000E-03 0. -1.
        -11    1    3    3    0    0 -0.56053927265E+01 -0.11066932396E+02 -0.56580578491E+01  0.13634919844E+02  0.51100000000E-03 0.  1.
         12    1    3    3    0    0 -0.96595000324E+01 -0.11484588802E+02  0.40914362834E+01  0.15554471116E+02  0.00000000000E+00 0. -1.
</event>
<event>
 7    1  0.2700100E-010  0.4778727E+02  0.7816164E-02  0.1312668E+00
        -11   -1    0    0    0    0  0.00000000000E+00  0.00000000000E+00  0.45593999997E+02  0.45594000000E+02  0.51100000000E-03 0.  1.
         11   -1    0    0    0    0 -0.00000000000E+00 -0.00000000000E+00 -0.45593999997E+02  0.45594000000E+02  0.51100000000E-03 0. -1.
    9900012    2    1    2    0    0 -0.25216045687E+01  0.18427808066E+02 -0.39213271017E+02  0.47787271624E+02  0.20000002643E+02 0.  0.
        -12    1    1    2    0    0  0.25216045687E+01 -0.18427808066E+02  0.39213271017E+02  0.43400728376E+02  0.00000000000E+00 0.  1.
         11    1    3    3    0    0 -0.93158610895E+01  0.13747866572E+02 -0.27869848191E+02  0.32442526745E+02  0.51100000000E-03 0. -1.
        -11    1    3    3    0    0  0.37192829128E+01  0.52861389346E-01 -0.80959858929E+01  0.89095930070E+01  0.51100000000E-03 0.  1.
         12    1    3    3    0    0  0.30749736080E+01  0.46270801051E+01 -0.32474369323E+01  0.64351518722E+01  0.00000000000E+00 0. -1.
</event>
<event>
 7    1  0.2700100E-010  0.4778727E+02  0.7816164E-02  0.1312668E+00
        -11   -1    0    0    0    0  0.00000000000E+00  0.00000000000E+00  0.45593999997E+02  0.45594000000E+02  0.51100000000E-03 0.  1.
         11   -1    0    0    0    0 -0.00000000000E+00 -0.00000000000E+00 -0.45593999997E+02  0.45594000000E+02  0.51100000000E-03 0. -1.
    9900012    2    1    2    0    0 -0.42605099017E+02 -0.34863415057E+01  0.75016016614E+01  0.47787273429E+02  0.20000010874E+02 0.  0.
        -12    1    1    2    0    0  0.42605099017E+02  0.34863415057E+01 -0.75016016614E+01  0.43400726571E+02  0.00000000000E+00 0.  1.
         11    1    3    3    0    0 -0.30753143617E+02 -0.58533761827E+01 -0.23837911759E+00  0.31306144444E+02  0.51100000000E-03 0. -1.
        -11    1    3    3    0    0 -0.23125283474E+00  0.70962602520E-01 -0.14617593991E+01  0.14816390811E+01  0.51100000000E-03 0.  1.
         12    1    3    3    0    0 -0.11620702565E+02  0.22960720745E+01  0.92017401781E+01  0.14999489904E+02  0.00000000000E+00 0. -1.
</event>
<event>
 7    1  0.2700100E-010  0.4778727E+02  0.7816164E-02  0.1312668E+00
        -11   -1    0    0    0    0  0.00000000000E+00  0.00000000000E+00  0.45593999997E+02  0.45594000000E+02  0.51100000000E-03 0.  1.
         11   -1    0    0    0    0 -0.00000000000E+00 -0.00000000000E+00 -0.45593999997E+02  0.45594000000E+02  0.51100000000E-03 0. -1.
    9900012    2    1    2    0    0 -0.17072628976E+02 -0.15460878742E+02 -0.36784644467E+02  0.47787268437E+02  0.19999988111E+02 0.  0.
        -12    1    1    2    0    0  0.17072628976E+02  0.15460878742E+02  0.36784644467E+02  0.43400731563E+02  0.00000000000E+00 0.  1.
         11    1    3    3    0    0 -0.55233325798E+00  0.11673946086E+01  0.12498979119E+01  0.17972554774E+01  0.51100000000E-03 0.  1.
        -11    1    3    3    0    0 -0.11384970985E+02 -0.64538166453E+01 -0.27566053709E+02  0.30514859183E+02  0.51100000000E-03 0. -1.
         12    1    3    3    0    0 -0.51353247334E+01 -0.10174456706E+02 -0.10468488670E+02  0.15475153777E+02  0.00000000000E+00 0. -1.
</event>
<event>
 7    1  0.2700100E-010  0.4778727E+02  0.7816164E-02  0.1312668E+00
        -11   -1    0    0    0    0  0.00000000000E+00  0.00000000000E+00  0.45593999997E+02  0.45594000000E+02  0.51100000000E-03 0. -1.
         11   -1    0    0    0    0 -0.00000000000E+00 -0.00000000000E+00 -0.45593999997E+02  0.45594000000E+02  0.51100000000E-03 0.  1.
    9900012    2    1    2    0    0  0.65831014701E+01 -0.17556063605E+02  0.39141672148E+02  0.47787273130E+02  0.20000009511E+02 0.  0.
        -12    1    1    2    0    0 -0.65831014701E+01  0.17556063605E+02 -0.39141672148E+02  0.43400726870E+02  0.00000000000E+00 0.  1.
         11    1    3    3    0    0  0.51788402536E+01 -0.11851530394E+02  0.33399645887E+02  0.35816413900E+02  0.51100000000E-03 0. -1.
        -11    1    3    3    0    0  0.50172853195E-01 -0.49047066934E+01  0.79010714701E+01  0.92997632067E+01  0.51100000000E-03 0.  1.
         12    1    3    3    0    0  0.13540883633E+01 -0.79982651799E+00 -0.21590452087E+01  0.26710960237E+01  0.00000000000E+00 0. -1.
</event>
<event>
 7    1  0.2700100E-010  0.4778727E+02  0.7816164E-02  0.1312668E+00
        -11   -1    0    0    0    0  0.00000000000E+00  0.00000000000E+00  0.45593999997E+02  0.45594000000E+02  0.51100000000E-03 0.  1.
         11   -1    0    0    0    0 -0.00000000000E+00 -0.00000000000E+00 -0.45593999997E+02  0.45594000000E+02  0.51100000000E-03 0. -1.
    9900012    2    1    2    0    0  0.21586882985E+02  0.37651251875E+02 -0.11416403477E+00  0.47787270534E+02  0.19999997672E+02 0.  0.
        -12    1    1    2    0    0 -0.21586882985E+02 -0.37651251875E+02  0.11416403477E+00  0.43400729466E+02  0.00000000000E+00 0.  1.
         11    1    3    3    0    0  0.48380575189E+00  0.96147263482E+01 -0.24889398688E+01  0.99434326410E+01  0.51100000000E-03 0. -1.
        -11    1    3    3    0    0  0.21464078614E+02  0.29025545408E+02  0.35406573231E+01  0.36272926702E+02  0.51100000000E-03 0.  1.
        -12    1    3    3    0    0 -0.36100138063E+00 -0.98901988149E+00 -0.11658814891E+01  0.15709111908E+01  0.00000000000E+00 0.  1.
</event>
<event>
 7    1  0.2700100E-010  0.4778727E+02  0.7816164E-02  0.1312668E+00
        -11   -1    0    0    0    0  0.00000000000E+00  0.00000000000E+00  0.45593999997E+02  0.45594000000E+02  0.51100000000E-03 0. -1.
         11   -1    0    0    0    0 -0.00000000000E+00 -0.00000000000E+00 -0.45593999997E+02  0.45594000000E+02  0.51100000000E-03 0.  1.
    9900012    2    1    2    0    0 -0.19409089142E+02 -0.32019209048E+02  0.21947222529E+02  0.47787273438E+02  0.20000010915E+02 0.  0.
        -12    1    1    2    0    0  0.19409089142E+02  0.32019209048E+02 -0.21947222529E+02  0.43400726562E+02  0.00000000000E+00 0.  1.
         11    1    3    3    0    0 -0.59949533694E+01 -0.13267664134E+02  0.55384666214E+01  0.15577066163E+02  0.51100000000E-03 0.  1.
        -11    1    3    3    0    0 -0.13259674465E+02 -0.19867441581E+02  0.18244375129E+02  0.30056470617E+02  0.51100000000E-03 0. -1.
        -12    1    3    3    0    0 -0.15446130826E+00  0.11158966665E+01 -0.18356192217E+01  0.21537366582E+01  0.00000000000E+00 0.  1.
</event>
<event>
 7    1  0.2700100E-010  0.4778727E+02  0.7816164E-02  0.1312668E+00
        -11   -1    0    0    0    0  0.00000000000E+00  0.00000000000E+00  0.45593999997E+02  0.45594000000E+02  0.51100000000E-03 0.  1.
         11   -1    0    0    0    0 -0.00000000000E+00 -0.00000000000E+00 -0.45593999997E+02  0.45594000000E+02  0.51100000000E-03 0. -1.
    9900012    2    1    2    0    0 -0.31222661505E+02  0.78422173223E+01 -0.29107873166E+02  0.47787271386E+02  0.20000001557E+02 0.  0.
        -12    1    1    2    0    0  0.31222661505E+02 -0.78422173223E+01  0.29107873166E+02  0.43400728614E+02  0.00000000000E+00 0.  1.
         11    1    3    3    0    0 -0.96793370876E+01 -0.93325257688E+00 -0.12080279357E+02  0.15507858538E+02  0.51100000000E-03 0. -1.
        -11    1    3    3    0    0 -0.10919609535E+02  0.81506922130E+01 -0.18624910069E+01  0.13752837124E+02  0.51100000000E-03 0.  1.
        -12    1    3    3    0    0 -0.10623714882E+02  0.62477768617E+00 -0.15165102803E+02  0.18526575725E+02  0.00000000000E+00 0.  1.
</event>
<event>
 7    1  0.2700100E-010  0.4778721E+02  0.7816164E-02  0.1312668E+00
        -11   -1    0    0    0    0  0.00000000000E+00  0.00000000000E+00  0.45593999997E+02  0.45594000000E+02  0.51100000000E-03 0.  1.
         11   -1    0    0    0    0 -0.00000000000E+00 -0.00000000000E+00 -0.45593999997E+02  0.45594000000E+02  0.51100000000E-03 0. -1.
    9900012    2    1    2    0    0  0.17288086874E+02 -0.32076412763E+02 -0.23576565954E+02  0.47787208927E+02  0.19999716782E+02 0.  0.
        -12    1    1    2    0    0 -0.17288086874E+02  0.32076412763E+02  0.23576565954E+02  0.43400791073E+02  0.00000000000E+00 0.  1.
         11    1    3    3    0    0  0.82512728758E+01 -0.12734333982E+02 -0.92399893412E+01  0.17765814626E+02  0.51100000000E-03 0. -1.
        -11    1    3    3    0    0  0.12692379081E+02 -0.96217004743E+01 -0.96991270695E+01  0.18647966992E+02  0.51100000000E-03 0.  1.
        -12    1    3    3    0    0 -0.36555650825E+01 -0.97203783070E+01 -0.46374495436E+01  0.11373427310E+02  0.00000000000E+00 0.  1.
</event>
<event>
 7    1  0.2700100E-010  0.4778726E+02  0.7816164E-02  0.1312668E+00
        -11   -1    0    0    0    0  0.00000000000E+00  0.00000000000E+00  0.45593999997E+02  0.45594000000E+02  0.51100000000E-03 0.  1.
         11   -1    0    0    0    0 -0.00000000000E+00 -0.00000000000E+00 -0.45593999997E+02  0.45594000000E+02  0.51100000000E-03 0. -1.
    9900012    2    1    2    0    0 -0.29690979920E+02  0.98519755847E+01 -0.30083361001E+02  0.47787258985E+02  0.19999945015E+02 0.  0.
        -12    1    1    2    0    0  0.29690979920E+02 -0.98519755847E+01  0.30083361001E+02  0.43400741015E+02  0.00000000000E+00 0.  1.
         11    1    3    3    0    0 -0.68058744001E+01  0.75735759424E+01 -0.78122838355E+01  0.12833968906E+02  0.51100000000E-03 0. -1.
        -11    1    3    3    0    0 -0.22892291311E+02 -0.45484848083E+00 -0.15495867838E+02  0.27647528080E+02  0.51100000000E-03 0.  1.
        -12    1    3    3    0    0  0.71857914812E-02  0.27332481231E+01 -0.67752093275E+01  0.73057619979E+01  0.00000000000E+00 0.  1.
</event>
<event>
 7    1  0.2700100E-010  0.4778727E+02  0.7816164E-02  0.1312668E+00
        -11   -1    0    0    0    0  0.00000000000E+00  0.00000000000E+00  0.45593999997E+02  0.45594000000E+02  0.51100000000E-03 0.  1.
         11   -1    0    0    0    0 -0.00000000000E+00 -0.00000000000E+00 -0.45593999997E+02  0.45594000000E+02  0.51100000000E-03 0. -1.
    9900012    2    1    2    0    0 -0.19974737468E+02  0.36270088417E+02 -0.13004377506E+02  0.47787270916E+02  0.19999999414E+02 0.  0.
        -12    1    1    2    0    0  0.19974737468E+02 -0.36270088417E+02  0.13004377506E+02  0.43400729084E+02  0.00000000000E+00 0.  1.
         11    1    3    3    0    0 -0.86167845989E+01  0.16457875738E+02 -0.60421307873E+01  0.19535045312E+02  0.51100000000E-03 0. -1.
        -11    1    3    3    0    0 -0.21510288833E+01 -0.22497906528E+01 -0.23625121921E+01  0.39076780007E+01  0.51100000000E-03 0.  1.
        -12    1    3    3    0    0 -0.92069239859E+01  0.22062003331E+02 -0.45997345271E+01  0.24344547603E+02  0.00000000000E+00 0.  1.
</event>
<event>
 7    1  0.2700100E-010  0.4778727E+02  0.7816164E-02  0.1312668E+00
        -11   -1    0    0    0    0  0.00000000000E+00  0.00000000000E+00  0.45593999997E+02  0.45594000000E+02  0.51100000000E-03 0.  1.
         11   -1    0    0    0    0 -0.00000000000E+00 -0.00000000000E+00 -0.45593999997E+02  0.45594000000E+02  0.51100000000E-03 0. -1.
    9900012    2    1    2    0    0 -0.34087536611E+02  0.13316912275E+02 -0.23330726986E+02  0.47787272743E+02  0.20000007743E+02 0.  0.
        -12    1    1    2    0    0  0.34087536611E+02 -0.13316912275E+02  0.23330726986E+02  0.43400727257E+02  0.00000000000E+00 0.  1.
         11    1    3    3    0    0 -0.17789760631E+02 -0.23212847744E+01 -0.74928207570E+01  0.19442384357E+02  0.51100000000E-03 0. -1.
        -11    1    3    3    0    0 -0.10243449887E+02  0.13697410834E+02 -0.10748180494E+02  0.20200760217E+02  0.51100000000E-03 0.  1.
        -12    1    3    3    0    0 -0.60543260930E+01  0.19407862147E+01 -0.50897257353E+01  0.81441281689E+01  0.00000000000E+00 0.  1.
</event>
<event>
 7    1  0.2700100E-010  0.4778727E+02  0.7816164E-02  0.1312668E+00
        -11   -1    0    0    0    0  0.00000000000E+00  0.00000000000E+00  0.45593999997E+02  0.45594000000E+02  0.51100000000E-03 0.  1.
         11   -1    0    0    0    0 -0.00000000000E+00 -0.00000000000E+00 -0.45593999997E+02  0.45594000000E+02  0.51100000000E-03 0. -1.
    9900012    2    1    2    0    0 -0.20167723677E+01 -0.28181100697E+02 -0.32945127878E+02  0.47787271225E+02  0.20000000824E+02 0.  0.
        -12    1    1    2    0    0  0.20167723677E+01  0.28181100697E+02  0.32945127878E+02  0.43400728775E+02  0.00000000000E+00 0.  1.
         11    1    3    3    0    0 -0.22632540966E+01 -0.36561342970E+01 -0.47356952986E+01  0.63965965424E+01  0.51100000000E-03 0. -1.
        -11    1    3    3    0    0 -0.87245477208E+01 -0.13191181535E+02 -0.14006178360E+02  0.21125767104E+02  0.51100000000E-03 0.  1.
        -12    1    3    3    0    0  0.89710294497E+01 -0.11333784865E+02 -0.14203254219E+02  0.20264907578E+02  0.00000000000E+00 0.  1.
</event>
<event>
 7    1  0.2700100E-010  0.4778721E+02  0.7816164E-02  0.1312668E+00
        -11   -1    0    0    0    0  0.00000000000E+00  0.00000000000E+00  0.45593999997E+02  0.45594000000E+02  0.51100000000E-03 0.  1.
         11   -1    0    0    0    0 -0.00000000000E+00 -0.00000000000E+00 -0.45593999997E+02  0.45594000000E+02  0.51100000000E-03 0. -1.
    9900012    2    1    2    0    0 -0.12579818667E+02  0.35929432840E+02 -0.20843529149E+02  0.47787208656E+02  0.19999715543E+02 0.  0.
        -12    1    1    2    0    0  0.12579818667E+02 -0.35929432840E+02  0.20843529149E+02  0.43400791344E+02  0.00000000000E+00 0.  1.
         11    1    3    3    0    0 -0.10459912160E+02  0.30211298498E+02 -0.79824697657E+01  0.32952270683E+02  0.51100000000E-03 0. -1.
        -11    1    3    3    0    0 -0.76796277370E+00  0.79280058793E+00 -0.68882111434E+01  0.69760843323E+01  0.51100000000E-03 0.  1.
        -12    1    3    3    0    0 -0.13519437335E+01  0.49253337539E+01 -0.59728482398E+01  0.78588536404E+01  0.00000000000E+00 0.  1.
</event>
<event>
 7    1  0.2700100E-010  0.4778726E+02  0.7816164E-02  0.1312668E+00
        -11   -1    0    0    0    0  0.00000000000E+00  0.00000000000E+00  0.45593999997E+02  0.45594000000E+02  0.51100000000E-03 0.  1.
         11   -1    0    0    0    0 -0.00000000000E+00 -0.00000000000E+00 -0.45593999997E+02  0.45594000000E+02  0.51100000000E-03 0. -1.
    9900012    2    1    2    0    0 -0.37497656604E+02 -0.21568031719E+02 -0.35171010318E+01  0.47787259883E+02  0.19999949112E+02 0.  0.
        -12    1    1    2    0    0  0.37497656604E+02  0.21568031719E+02  0.35171010318E+01  0.43400740117E+02  0.00000000000E+00 0.  1.
         11    1    3    3    0    0 -0.10673322759E+02  0.25964648500E+01 -0.30472674719E+01  0.11399442431E+02  0.51100000000E-03 0.  1.
        -11    1    3    3    0    0 -0.23020838062E+02 -0.18988707848E+02 -0.15155765334E+01  0.29880210563E+02  0.51100000000E-03 0. -1.
        -12    1    3    3    0    0 -0.38034957831E+01 -0.51757887212E+01  0.10457429735E+01  0.65076068893E+01  0.00000000000E+00 0.  1.
</event>
<event>
 7    1  0.2700100E-010  0.4778727E+02  0.7816164E-02  0.1312668E+00
        -11   -1    0    0    0    0  0.00000000000E+00  0.00000000000E+00  0.45593999997E+02  0.45594000000E+02  0.51100000000E-03 0.  1.
         11   -1    0    0    0    0 -0.00000000000E+00 -0.00000000000E+00 -0.45593999997E+02  0.45594000000E+02  0.51100000000E-03 0. -1.
    9900012    2    1    2    0    0  0.42228673778E+02 -0.99191197796E+01 -0.14048474245E+01  0.47787269332E+02  0.19999992193E+02 0.  0.
        -12    1    1    2    0    0 -0.42228673778E+02  0.99191197796E+01  0.14048474245E+01  0.43400730668E+02  0.00000000000E+00 0.  1.
         11    1    3    3    0    0  0.38322645699E+02 -0.65787122162E+01 -0.33394496694E+01  0.39026357146E+02  0.51100000000E-03 0. -1.
        -11    1    3    3    0    0  0.18315779475E+01 -0.15058628826E+01  0.44354984657E+01  0.50295076995E+01  0.51100000000E-03 0.  1.
         12    1    3    3    0    0  0.20744501314E+01 -0.18345446808E+01 -0.25008962208E+01  0.37314044863E+01  0.00000000000E+00 0. -1.
</event>
<event>
 7    1  0.2700100E-010  0.4778727E+02  0.7816164E-02  0.1312668E+00
        -11   -1    0    0    0    0  0.00000000000E+00  0.00000000000E+00  0.45593999997E+02  0.45594000000E+02  0.51100000000E-03 0.  1.
         11   -1    0    0    0    0 -0.00000000000E+00 -0.00000000000E+00 -0.45593999997E+02  0.45594000000E+02  0.51100000000E-03 0. -1.
    9900012    2    1    2    0    0  0.22445861124E+01 -0.30354989761E+02 -0.30937999213E+02  0.47787269989E+02  0.19999995188E+02 0.  0.
        -12    1    1    2    0    0 -0.22445861124E+01  0.30354989761E+02  0.30937999213E+02  0.43400730011E+02  0.00000000000E+00 0.  1.
         11    1    3    3    0    0  0.19236054323E+01 -0.31028521006E+00 -0.11632004642E+02  0.11794069146E+02  0.51100000000E-03 0. -1.
        -11    1    3    3    0    0 -0.20171861635E+01 -0.16623746633E+02 -0.10217863830E+02  0.19616899185E+02  0.51100000000E-03 0.  1.
         12    1    3    3    0    0  0.23381668436E+01 -0.13420957918E+02 -0.90881307404E+01  0.16376301658E+02  0.00000000000E+00 0. -1.
</event>
<event>
 7    1  0.2700100E-010  0.4778728E+02  0.7816164E-02  0.1312668E+00
        -11   -1    0    0    0    0  0.00000000000E+00  0.00000000000E+00  0.45593999997E+02  0.45594000000E+02  0.51100000000E-03 0.  1.
         11   -1    0    0    0    0 -0.00000000000E+00 -0.00000000000E+00 -0.45593999997E+02  0.45594000000E+02  0.51100000000E-03 0. -1.
    9900012    2    1    2    0    0 -0.17011032189E+01 -0.38343026875E+01 -0.43197534444E+02  0.47787278678E+02  0.20000034804E+02 0.  0.
        -12    1    1    2    0    0  0.17011032189E+01  0.38343026875E+01  0.43197534444E+02  0.43400721322E+02  0.00000000000E+00 0.  1.
         11    1    3    3    0    0 -0.40192040091E+01 -0.34108438692E+01 -0.21615597277E+02  0.22249087682E+02  0.51100000000E-03 0. -1.
        -11    1    3    3    0    0  0.74514689887E+01  0.26181724282E+00 -0.17228074817E+02  0.18772306745E+02  0.51100000000E-03 0.  1.
        -12    1    3    3    0    0 -0.51333681984E+01 -0.68527606114E+00 -0.43538623492E+01  0.67658842509E+01  0.00000000000E+00 0.  1.
</event>
<event>
 7    1  0.2700100E-010  0.4778727E+02  0.7816164E-02  0.1312668E+00
        -11   -1    0    0    0    0  0.00000000000E+00  0.00000000000E+00  0.45593999997E+02  0.45594000000E+02  0.51100000000E-03 0.  1.
         11   -1    0    0    0    0 -0.00000000000E+00 -0.00000000000E+00 -0.45593999997E+02  0.45594000000E+02  0.51100000000E-03 0. -1.
    9900012    2    1    2    0    0  0.12458124895E+02  0.38587069102E+02 -0.15474387443E+02  0.47787269079E+02  0.19999991037E+02 0.  0.
        -12    1    1    2    0    0 -0.12458124895E+02 -0.38587069102E+02  0.15474387443E+02  0.43400730921E+02  0.00000000000E+00 0.  1.
         11    1    3    3    0    0 -0.50822864108E+01  0.93197476552E+01 -0.57854331751E+01  0.12089605817E+02  0.51100000000E-03 0. -1.
        -11    1    3    3    0    0  0.80712203685E+01  0.16620509779E+02 -0.39921747212E+01  0.18902999837E+02  0.51100000000E-03 0.  1.
         12    1    3    3    0    0  0.94691909375E+01  0.12646811668E+02 -0.56967795470E+01  0.16794663425E+02  0.00000000000E+00 0. -1.
</event>
<event>
 7    1  0.2700100E-010  0.4778727E+02  0.7816164E-02  0.1312668E+00
        -11   -1    0    0    0    0  0.00000000000E+00  0.00000000000E+00  0.45593999997E+02  0.45594000000E+02  0.51100000000E-03 0. -1.
         11   -1    0    0    0    0 -0.00000000000E+00 -0.00000000000E+00 -0.45593999997E+02  0.45594000000E+02  0.51100000000E-03 0.  1.
    9900012    2    1    2    0    0  0.27573440516E+02  0.19554021762E+02  0.27220738421E+02  0.47787274324E+02  0.20000014955E+02 0.  0.
        -12    1    1    2    0    0 -0.27573440516E+02 -0.19554021762E+02 -0.27220738421E+02  0.43400725676E+02  0.00000000000E+00 0.  1.
         11    1    3    3    0    0  0.12857176164E+02  0.11735551498E+02  0.72197892198E+01  0.18845569892E+02  0.51100000000E-03 0. -1.
        -11    1    3    3    0    0  0.99011206370E+01  0.66151821923E+01  0.20748361400E+02  0.23922527591E+02  0.51100000000E-03 0.  1.
        -12    1    3    3    0    0  0.48151437143E+01  0.12032880713E+01 -0.74741219847E+00  0.50191768415E+01  0.00000000000E+00 0.  1.
</event>
<event>
 7    1  0.2700100E-010  0.4778727E+02  0.7816164E-02  0.1312668E+00
        -11   -1    0    0    0    0  0.00000000000E+00  0.00000000000E+00  0.45593999997E+02  0.45594000000E+02  0.51100000000E-03 0.  1.
         11   -1    0    0    0    0 -0.00000000000E+00 -0.00000000000E+00 -0.45593999997E+02  0.45594000000E+02  0.51100000000E-03 0. -1.
    9900012    2    1    2    0    0 -0.14292266867E+02 -0.40620117982E+02 -0.54185151653E+01  0.47787272084E+02  0.20000004739E+02 0.  0.
        -12    1    1    2    0    0  0.14292266867E+02  0.40620117982E+02  0.54185151653E+01  0.43400727916E+02  0.00000000000E+00 0.  1.
         11    1    3    3    0    0 -0.42763535206E+01 -0.18869532630E+02  0.53383624796E+01  0.20070988400E+02  0.51100000000E-03 0. -1.
        -11    1    3    3    0    0 -0.47244493991E+01 -0.28420791334E+01 -0.44749168616E+01  0.71008955143E+01  0.51100000000E-03 0.  1.
         12    1    3    3    0    0 -0.52914639475E+01 -0.18908506218E+02 -0.62819607832E+01  0.20615388170E+02  0.00000000000E+00 0. -1.
</event>
<event>
 7    1  0.2700100E-010  0.4778727E+02  0.7816164E-02  0.1312668E+00
        -11   -1    0    0    0    0  0.00000000000E+00  0.00000000000E+00  0.45593999997E+02  0.45594000000E+02  0.51100000000E-03 0.  1.
         11   -1    0    0    0    0 -0.00000000000E+00 -0.00000000000E+00 -0.45593999997E+02  0.45594000000E+02  0.51100000000E-03 0. -1.
    9900012    2    1    2    0    0  0.26906444193E+02  0.13643236320E+02 -0.31201417104E+02  0.47787273443E+02  0.20000010937E+02 0.  0.
        -12    1    1    2    0    0 -0.26906444193E+02 -0.13643236320E+02  0.31201417104E+02  0.43400726557E+02  0.00000000000E+00 0.  1.
         11    1    3    3    0    0  0.93966308347E+01  0.98285390444E+01 -0.79873165004E+01  0.15770037284E+02  0.51100000000E-03 0. -1.
        -11    1    3    3    0    0  0.18447492485E+02  0.47554167578E+00 -0.18184780910E+02  0.25907959702E+02  0.51100000000E-03 0.  1.
        -12    1    3    3    0    0 -0.93767912743E+00  0.33391555998E+01 -0.50293196929E+01  0.61092764579E+01  0.00000000000E+00 0.  1.
</event>
<event>
 7    1  0.2700100E-010  0.4778727E+02  0.7816164E-02  0.1312668E+00
        -11   -1    0    0    0    0  0.00000000000E+00  0.00000000000E+00  0.45593999997E+02  0.45594000000E+02  0.51100000000E-03 0. -1.
         11   -1    0    0    0    0 -0.00000000000E+00 -0.00000000000E+00 -0.45593999997E+02  0.45594000000E+02  0.51100000000E-03 0.  1.
    9900012    2    1    2    0    0 -0.21871927202E+02  0.11875610170E+02  0.35555757347E+02  0.47787271931E+02  0.20000004041E+02 0.  0.
        -12    1    1    2    0    0  0.21871927202E+02 -0.11875610170E+02 -0.35555757347E+02  0.43400728069E+02  0.00000000000E+00 0.  1.
         11    1    3    3    0    0 -0.65760770998E+01 -0.20705673242E+01  0.17817041388E+02  0.19104423654E+02  0.51100000000E-03 0. -1.
        -11    1    3    3    0    0  0.77251566348E+00  0.19872117938E+01  0.35567737404E+00  0.21615498651E+01  0.51100000000E-03 0.  1.
         12    1    3    3    0    0 -0.16068365766E+02  0.11958965700E+02  0.17383038584E+02  0.26521298411E+02  0.00000000000E+00 0. -1.
</event>
<event>
 7    1  0.2700100E-010  0.4778727E+02  0.7816164E-02  0.1312668E+00
        -11   -1    0    0    0    0  0.00000000000E+00  0.00000000000E+00  0.45593999997E+02  0.45594000000E+02  0.51100000000E-03 0.  1.
         11   -1    0    0    0    0 -0.00000000000E+00 -0.00000000000E+00 -0.45593999997E+02  0.45594000000E+02  0.51100000000E-03 0. -1.
    9900012    2    1    2    0    0  0.28818783609E+02 -0.31739879391E+02 -0.67587808022E+01  0.47787270163E+02  0.19999995981E+02 0.  0.
        -12    1    1    2    0    0 -0.28818783609E+02  0.31739879391E+02  0.67587808022E+01  0.43400729837E+02  0.00000000000E+00 0.  1.
         11    1    3    3    0    0  0.16079404959E+02 -0.12694420096E+02  0.15140347162E+01  0.20542343265E+02  0.51100000000E-03 0. -1.
        -11    1    3    3    0    0  0.10362229211E+02 -0.20126630924E+02 -0.92529899647E+01  0.24455569716E+02  0.51100000000E-03 0.  1.
        -12    1    3    3    0    0  0.23771494385E+01  0.10811716293E+01  0.98017444624E+00  0.27893571822E+01  0.00000000000E+00 0.  1.
</event>
<event>
 7    1  0.2700100E-010  0.4778727E+02  0.7816164E-02  0.1312668E+00
        -11   -1    0    0    0    0  0.00000000000E+00  0.00000000000E+00  0.45593999997E+02  0.45594000000E+02  0.51100000000E-03 0.  1.
         11   -1    0    0    0    0 -0.00000000000E+00 -0.00000000000E+00 -0.45593999997E+02  0.45594000000E+02  0.51100000000E-03 0. -1.
    9900012    2    1    2    0    0 -0.55521080574E+01 -0.19096806596E+02 -0.38576019130E+02  0.47787272149E+02  0.20000005036E+02 0.  0.
        -12    1    1    2    0    0  0.55521080574E+01  0.19096806596E+02  0.38576019130E+02  0.43400727851E+02  0.00000000000E+00 0.  1.
         11    1    3    3    0    0 -0.27756842949E+01 -0.41444153176E+01 -0.25703506580E+02  0.26183026036E+02  0.51100000000E-03 0. -1.
        -11    1    3    3    0    0  0.13996858350E+01 -0.38744241765E+01 -0.56967418673E-02  0.41195043210E+01  0.51100000000E-03 0.  1.
         12    1    3    3    0    0 -0.41761095976E+01 -0.11077967102E+02 -0.12866815808E+02  0.17484741792E+02  0.00000000000E+00 0. -1.
</event>
<event>
 7    1  0.2700100E-010  0.4778728E+02  0.7816164E-02  0.1312668E+00
        -11   -1    0    0    0    0  0.00000000000E+00  0.00000000000E+00  0.45593999997E+02  0.45594000000E+02  0.51100000000E-03 0.  1.
         11   -1    0    0    0    0 -0.00000000000E+00 -0.00000000000E+00 -0.45593999997E+02  0.45594000000E+02  0.51100000000E-03 0. -1.
    9900012    2    1    2    0    0 -0.42081514843E+02 -0.10546929404E+02  0.12374497877E+01  0.47787275429E+02  0.20000019990E+02 0.  0.
        -12    1    1    2    0    0  0.42081514843E+02  0.10546929404E+02 -0.12374497877E+01  0.43400724571E+02  0.00000000000E+00 0.  1.
         11    1    3    3    0    0 -0.18326269458E+02 -0.99050320139E+01 -0.42327834958E+01  0.21257428533E+02  0.51100000000E-03 0. -1.
        -11    1    3    3    0    0 -0.87453884067E+01  0.44992955978E+01  0.39237258238E+01  0.10588725318E+02  0.51100000000E-03 0.  1.
        -12    1    3    3    0    0 -0.15009856978E+02 -0.51411929876E+01  0.15465074597E+01  0.15941121578E+02  0.00000000000E+00 0.  1.
</event>
<event>
 7    1  0.2700100E-010  0.4778727E+02  0.7816164E-02  0.1312668E+00
        -11   -1    0    0    0    0  0.00000000000E+00  0.00000000000E+00  0.45593999997E+02  0.45594000000E+02  0.51100000000E-03 0.  1.
         11   -1    0    0    0    0 -0.00000000000E+00 -0.00000000000E+00 -0.45593999997E+02  0.45594000000E+02  0.51100000000E-03 0. -1.
    9900012    2    1    2    0    0 -0.27718044381E+02  0.86741635780E+01 -0.32250461031E+02  0.47787270342E+02  0.19999996799E+02 0.  0.
        -12    1    1    2    0    0  0.27718044381E+02 -0.86741635780E+01  0.32250461031E+02  0.43400729658E+02  0.00000000000E+00 0.  1.
         11    1    3    3    0    0 -0.40630383465E+01  0.23822060654E+01 -0.90881498647E+01  0.10236095670E+02  0.51100000000E-03 0. -1.
        -11    1    3    3    0    0 -0.21817413347E+02  0.11050004156E+02 -0.19160288300E+02  0.31067970081E+02  0.51100000000E-03 0.  1.
        -12    1    3    3    0    0 -0.18375926883E+01 -0.47580466432E+01 -0.40020228666E+01  0.64832045912E+01  0.00000000000E+00 0.  1.
</event>
<event>
 7    1  0.2700100E-010  0.4778727E+02  0.7816164E-02  0.1312668E+00
        -11   -1    0    0    0    0  0.00000000000E+00  0.00000000000E+00  0.45593999997E+02  0.45594000000E+02  0.51100000000E-03 0. -1.
         11   -1    0    0    0    0 -0.00000000000E+00 -0.00000000000E+00 -0.45593999997E+02  0.45594000000E+02  0.51100000000E-03 0.  1.
    9900012    2    1    2    0    0  0.19334272433E+02 -0.34891081347E+02 -0.17100339967E+02  0.47787271031E+02  0.19999999938E+02 0.  0.
        -12    1    1    2    0    0 -0.19334272433E+02  0.34891081347E+02  0.17100339967E+02  0.43400728969E+02  0.00000000000E+00 0.  1.
         11    1    3    3    0    0  0.13453988998E+02 -0.31126720517E+02 -0.13952640459E+02  0.36668225020E+02  0.51100000000E-03 0. -1.
        -11    1    3    3    0    0  0.62155800439E+01 -0.15052007554E+01  0.91304826621E+00  0.64600868410E+01  0.51100000000E-03 0.  1.
         12    1    3    3    0    0 -0.33529660917E+00 -0.22591600746E+01 -0.40607477742E+01  0.46589591696E+01  0.00000000000E+00 0. -1.
</event>
<event>
 7    1  0.2700100E-010  0.4778727E+02  0.7816164E-02  0.1312668E+00
        -11   -1    0    0    0    0  0.00000000000E+00  0.00000000000E+00  0.45593999997E+02  0.45594000000E+02  0.51100000000E-03 0.  1.
         11   -1    0    0    0    0 -0.00000000000E+00 -0.00000000000E+00 -0.45593999997E+02  0.45594000000E+02  0.51100000000E-03 0. -1.
    9900012    2    1    2    0    0  0.35782412015E+02  0.12268427299E+02 -0.21277404944E+02  0.47787270984E+02  0.19999999724E+02 0.  0.
        -12    1    1    2    0    0 -0.35782412015E+02 -0.12268427299E+02  0.21277404944E+02  0.43400729016E+02  0.00000000000E+00 0.  1.
         11    1    3    3    0    0  0.23579691161E+02  0.89579111455E+01 -0.13263362531E+02  0.28498470015E+02  0.51100000000E-03 0. -1.
        -11    1    3    3    0    0  0.10727911109E+01 -0.33148343366E+01  0.85899620913E+00  0.35884372916E+01  0.51100000000E-03 0.  1.
        -12    1    3    3    0    0  0.11129929743E+02  0.66253504901E+01 -0.88730386219E+01  0.15700363677E+02  0.00000000000E+00 0.  1.
</event>
<event>
 7    1  0.2700100E-010  0.4778728E+02  0.7816164E-02  0.1312668E+00
        -11   -1    0    0    0    0  0.00000000000E+00  0.00000000000E+00  0.45593999997E+02  0.45594000000E+02  0.51100000000E-03 0.  1.
         11   -1    0    0    0    0 -0.00000000000E+00 -0.00000000000E+00 -0.45593999997E+02  0.45594000000E+02  0.51100000000E-03 0. -1.
    9900012    2    1    2    0    0 -0.12157480611E+02 -0.13183191561E+02 -0.39522422704E+02  0.47787276838E+02  0.20000026416E+02 0.  0.
        -12    1    1    2    0    0  0.12157480611E+02  0.13183191561E+02  0.39522422704E+02  0.43400723162E+02  0.00000000000E+00 0.  1.
         11    1    3    3    0    0 -0.11729875948E+02 -0.72429441884E+00 -0.22244627677E+02  0.25158260133E+02  0.51100000000E-03 0. -1.
        -11    1    3    3    0    0 -0.30389144111E+01 -0.97498707455E+01 -0.93176765291E+01  0.13824401488E+02  0.51100000000E-03 0.  1.
         12    1    3    3    0    0  0.26113097477E+01 -0.27090263969E+01 -0.79601184980E+01  0.88046152170E+01  0.00000000000E+00 0. -1.
</event>
<event>
 7    1  0.2700100E-010  0.4778728E+02  0.7816164E-02  0.1312668E+00
        -11   -1    0    0    0    0  0.00000000000E+00  0.00000000000E+00  0.45593999997E+02  0.45594000000E+02  0.51100000000E-03 0.  1.
         11   -1    0    0    0    0 -0.00000000000E+00 -0.00000000000E+00 -0.45593999997E+02  0.45594000000E+02  0.51100000000E-03 0. -1.
    9900012    2    1    2    0    0  0.80726552965E+01 -0.18600925157E+02 -0.38372648120E+02  0.47787282218E+02  0.20000050946E+02 0.  0.
        -12    1    1    2    0    0 -0.80726552965E+01  0.18600925157E+02  0.38372648120E+02  0.43400717782E+02  0.00000000000E+00 0.  1.
         11    1    3    3    0    0  0.37137424443E+01 -0.15187627138E+02 -0.16025079577E+02  0.22388815885E+02  0.51100000000E-03 0. -1.
        -11    1    3    3    0    0  0.77076716695E+01 -0.90234211045E+00 -0.16179620084E+02  0.17944428945E+02  0.51100000000E-03 0.  1.
         12    1    3    3    0    0 -0.33487588173E+01 -0.25109559091E+01 -0.61679484587E+01  0.74540373881E+01  0.00000000000E+00 0. -1.
</event>
<event>
 7    1  0.2700100E-010  0.4778727E+02  0.7816164E-02  0.1312668E+00
        -11   -1    0    0    0    0  0.00000000000E+00  0.00000000000E+00  0.45593999997E+02  0.45594000000E+02  0.51100000000E-03 0.  1.
         11   -1    0    0    0    0 -0.00000000000E+00 -0.00000000000E+00 -0.45593999997E+02  0.45594000000E+02  0.51100000000E-03 0. -1.
    9900012    2    1    2    0    0 -0.31743647833E+02 -0.24287277732E+02  0.16914262347E+02  0.47787270650E+02  0.19999998201E+02 0.  0.
        -12    1    1    2    0    0  0.31743647833E+02  0.24287277732E+02 -0.16914262347E+02  0.43400729350E+02  0.00000000000E+00 0.  1.
         11    1    3    3    0    0 -0.15125075970E+02 -0.91589504592E+01  0.14258290926E+02  0.22714602286E+02  0.51100000000E-03 0. -1.
        -11    1    3    3    0    0 -0.11608544438E+02 -0.78196177736E+01  0.64773911938E+01  0.15422753420E+02  0.51100000000E-03 0.  1.
         12    1    3    3    0    0 -0.50100274245E+01 -0.73087094997E+01 -0.38214197733E+01  0.96499149441E+01  0.00000000000E+00 0. -1.
</event>
<event>
 7    1  0.2700100E-010  0.4778725E+02  0.7816164E-02  0.1312668E+00
        -11   -1    0    0    0    0  0.00000000000E+00  0.00000000000E+00  0.45593999997E+02  0.45594000000E+02  0.51100000000E-03 0. -1.
         11   -1    0    0    0    0 -0.00000000000E+00 -0.00000000000E+00 -0.45593999997E+02  0.45594000000E+02  0.51100000000E-03 0.  1.
    9900012    2    1    2    0    0  0.38131716243E+02 -0.19998103726E+02  0.54473370478E+01  0.47787246353E+02  0.19999887420E+02 0.  0.
        -12    1    1    2    0    0 -0.38131716243E+02  0.19998103726E+02 -0.54473370478E+01  0.43400753647E+02  0.00000000000E+00 0.  1.
         11    1    3    3    0    0  0.18685110572E+02 -0.13839323905E+02  0.11518823686E+02  0.25948863995E+02  0.51100000000E-03 0. -1.
        -11    1    3    3    0    0  0.16988371301E+02 -0.36574817896E+01 -0.58035478861E+01  0.18321110797E+02  0.51100000000E-03 0.  1.
        -12    1    3    3    0    0  0.24582343691E+01 -0.25012980316E+01 -0.26793875250E+00  0.35172715607E+01  0.00000000000E+00 0.  1.
</event>
<event>
 7    1  0.2700100E-010  0.4778728E+02  0.7816164E-02  0.1312668E+00
        -11   -1    0    0    0    0  0.00000000000E+00  0.00000000000E+00  0.45593999997E+02  0.45594000000E+02  0.51100000000E-03 0.  1.
         11   -1    0    0    0    0 -0.00000000000E+00 -0.00000000000E+00 -0.45593999997E+02  0.45594000000E+02  0.51100000000E-03 0. -1.
    9900012    2    1    2    0    0  0.23257507524E+02 -0.95120720822E+01 -0.35386886141E+02  0.47787275556E+02  0.20000020570E+02 0.  0.
        -12    1    1    2    0    0 -0.23257507524E+02  0.95120720822E+01  0.35386886141E+02  0.43400724444E+02  0.00000000000E+00 0.  1.
         11    1    3    3    0    0  0.21779228729E+02 -0.43048750280E+01 -0.24607524030E+02  0.33142072841E+02  0.51100000000E-03 0. -1.
        -11    1    3    3    0    0 -0.15003370602E+01  0.11194457347E+01 -0.57078850703E+01  0.60070060999E+01  0.51100000000E-03 0.  1.
         12    1    3    3    0    0  0.29786158552E+01 -0.63266427889E+01 -0.50714770408E+01  0.86381966155E+01  0.00000000000E+00 0. -1.
</event>
<event>
 7    1  0.2700100E-010  0.4778728E+02  0.7816164E-02  0.1312668E+00
        -11   -1    0    0    0    0  0.00000000000E+00  0.00000000000E+00  0.45593999997E+02  0.45594000000E+02  0.51100000000E-03 0. -1.
         11   -1    0    0    0    0 -0.00000000000E+00 -0.00000000000E+00 -0.45593999997E+02  0.45594000000E+02  0.51100000000E-03 0.  1.
    9900012    2    1    2    0    0 -0.94863230806E+01  0.17102935394E+02  0.38744316480E+02  0.47787276686E+02  0.20000025720E+02 0.  0.
        -12    1    1    2    0    0  0.94863230806E+01 -0.17102935394E+02 -0.38744316480E+02  0.43400723314E+02  0.00000000000E+00 0.  1.
         11    1    3    3    0    0 -0.36538955876E+01 -0.33541937042E+01  0.65911608721E+01  0.82489375239E+01  0.51100000000E-03 0.  1.
        -11    1    3    3    0    0 -0.72213997162E+01  0.18107801524E+02  0.23881270219E+02  0.30827847110E+02  0.51100000000E-03 0. -1.
         12    1    3    3    0    0  0.13889722232E+01  0.23493275742E+01  0.82718853896E+01  0.87104920519E+01  0.00000000000E+00 0. -1.
</event>
<event>
 7    1  0.2700100E-010  0.4778727E+02  0.7816164E-02  0.1312668E+00
        -11   -1    0    0    0    0  0.00000000000E+00  0.00000000000E+00  0.45593999997E+02  0.45594000000E+02  0.51100000000E-03 0.  1.
         11   -1    0    0    0    0 -0.00000000000E+00 -0.00000000000E+00 -0.45593999997E+02  0.45594000000E+02  0.51100000000E-03 0. -1.
    9900012    2    1    2    0    0 -0.19532446727E+02 -0.22724693841E+02 -0.31395785141E+02  0.47787268325E+02  0.19999987602E+02 0.  0.
        -12    1    1    2    0    0  0.19532446727E+02  0.22724693841E+02  0.31395785141E+02  0.43400731675E+02  0.00000000000E+00 0.  1.
         11    1    3    3    0    0 -0.59581698500E+01 -0.93039765652E+00 -0.13792822667E+01  0.61861011625E+01  0.51100000000E-03 0. -1.
        -11    1    3    3    0    0 -0.10428036936E+01 -0.13578214664E+02 -0.16751567413E+02  0.21588662860E+02  0.51100000000E-03 0.  1.
         12    1    3    3    0    0 -0.12531473183E+02 -0.82160815204E+01 -0.13264935461E+02  0.20012504303E+02  0.00000000000E+00 0. -1.
</event>
<event>
 7    1  0.2700100E-010  0.4778727E+02  0.7816164E-02  0.1312668E+00
        -11   -1    0    0    0    0  0.00000000000E+00  0.00000000000E+00  0.45593999997E+02  0.45594000000E+02  0.51100000000E-03 0.  1.
         11   -1    0    0    0    0 -0.00000000000E+00 -0.00000000000E+00 -0.45593999997E+02  0.45594000000E+02  0.51100000000E-03 0. -1.
    9900012    2    1    2    0    0 -0.22440318884E+02 -0.37096040245E+02  0.19847865983E+01  0.47787268540E+02  0.19999988579E+02 0.  0.
        -12    1    1    2    0    0  0.22440318884E+02  0.37096040245E+02 -0.19847865983E+01  0.43400731460E+02  0.00000000000E+00 0.  1.
         11    1    3    3    0    0 -0.10585092797E+02 -0.89173958123E+01 -0.19371176212E+01  0.13975570204E+02  0.51100000000E-03 0. -1.
        -11    1    3    3    0    0 -0.10366091923E+02 -0.29183529264E+02  0.17868473075E+01  0.31021396900E+02  0.51100000000E-03 0.  1.
        -12    1    3    3    0    0 -0.14891341644E+01  0.10048848317E+01  0.21350569120E+01  0.27903014357E+01  0.00000000000E+00 0.  1.
</event>
<event>
 7    1  0.2700100E-010  0.4778727E+02  0.7816164E-02  0.1312668E+00
        -11   -1    0    0    0    0  0.00000000000E+00  0.00000000000E+00  0.45593999997E+02  0.45594000000E+02  0.51100000000E-03 0. -1.
         11   -1    0    0    0    0 -0.00000000000E+00 -0.00000000000E+00 -0.45593999997E+02  0.45594000000E+02  0.51100000000E-03 0.  1.
    9900012    2    1    2    0    0  0.10567667379E+02  0.22721963580E+02 -0.35435292197E+02  0.47787272404E+02  0.20000006200E+02 0.  0.
        -12    1    1    2    0    0 -0.10567667379E+02 -0.22721963580E+02  0.35435292197E+02  0.43400727596E+02  0.00000000000E+00 0.  1.
         11    1    3    3    0    0 -0.28729189215E+00  0.82343156703E+01 -0.48794079433E+01  0.95757565408E+01  0.51100000000E-03 0. -1.
        -11    1    3    3    0    0  0.76730193007E+01  0.12430387618E+02 -0.31122584993E+02  0.34380300441E+02  0.51100000000E-03 0.  1.
        -12    1    3    3    0    0  0.31819399708E+01  0.20572602919E+01  0.56670073927E+00  0.38312154226E+01  0.00000000000E+00 0.  1.
</event>
<event>
 7    1  0.2700100E-010  0.4778728E+02  0.7816164E-02  0.1312668E+00
        -11   -1    0    0    0    0  0.00000000000E+00  0.00000000000E+00  0.45593999997E+02  0.45594000000E+02  0.51100000000E-03 0.  1.
         11   -1    0    0    0    0 -0.00000000000E+00 -0.00000000000E+00 -0.45593999997E+02  0.45594000000E+02  0.51100000000E-03 0. -1.
    9900012    2    1    2    0    0  0.28655940639E+02 -0.31032122298E+02 -0.99732981603E+01  0.47787283135E+02  0.20000055126E+02 0.  0.
        -12    1    1    2    0    0 -0.28655940639E+02  0.31032122298E+02  0.99732981603E+01  0.43400716865E+02  0.00000000000E+00 0.  1.
         11    1    3    3    0    0  0.21253758033E+02 -0.20104361183E+02 -0.12194726673E+02  0.31695724128E+02  0.51100000000E-03 0. -1.
        -11    1    3    3    0    0 -0.15003781411E+01 -0.61989341918E+00 -0.12349325483E+01  0.20397208332E+01  0.51100000000E-03 0.  1.
         12    1    3    3    0    0  0.89025607471E+01 -0.10307867695E+02  0.34563610610E+01  0.14051838174E+02  0.00000000000E+00 0. -1.
</event>
<event>
 7    1  0.2700100E-010  0.4778726E+02  0.7816164E-02  0.1312668E+00
        -11   -1    0    0    0    0  0.00000000000E+00  0.00000000000E+00  0.45593999997E+02  0.45594000000E+02  0.51100000000E-03 0.  1.
         11   -1    0    0    0    0 -0.00000000000E+00 -0.00000000000E+00 -0.45593999997E+02  0.45594000000E+02  0.51100000000E-03 0. -1.
    9900012    2    1    2    0    0 -0.66505149203E+01 -0.25792287418E+02 -0.34265914573E+02  0.47787258757E+02  0.19999943975E+02 0.  0.
        -12    1    1    2    0    0  0.66505149203E+01  0.25792287418E+02  0.34265914573E+02  0.43400741243E+02  0.00000000000E+00 0.  1.
         11    1    3    3    0    0 -0.82499387463E+01 -0.23324076489E+02 -0.27249349531E+02  0.36804905699E+02  0.51100000000E-03 0. -1.
        -11    1    3    3    0    0 -0.13684475303E+01  0.23754244884E+01 -0.18828920088E+01  0.33257439350E+01  0.51100000000E-03 0.  1.
         12    1    3    3    0    0  0.29678713563E+01 -0.48436354180E+01 -0.51336730326E+01  0.76566091226E+01  0.00000000000E+00 0. -1.
</event>
<event>
 7    1  0.2700100E-010  0.4778728E+02  0.7816164E-02  0.1312668E+00
        -11   -1    0    0    0    0  0.00000000000E+00  0.00000000000E+00  0.45593999997E+02  0.45594000000E+02  0.51100000000E-03 0.  1.
         11   -1    0    0    0    0 -0.00000000000E+00 -0.00000000000E+00 -0.45593999997E+02  0.45594000000E+02  0.51100000000E-03 0. -1.
    9900012    2    1    2    0    0 -0.17099184179E+02  0.27481242334E+02 -0.28914035322E+02  0.47787283204E+02  0.20000055441E+02 0.  0.
        -12    1    1    2    0    0  0.17099184179E+02 -0.27481242334E+02  0.28914035322E+02  0.43400716796E+02  0.00000000000E+00 0.  1.
         11    1    3    3    0    0 -0.11561500812E+02  0.17074636295E+02 -0.55832288904E+01  0.21363144683E+02  0.51100000000E-03 0. -1.
        -11    1    3    3    0    0 -0.23789260830E+01  0.76115234867E+01 -0.12811013685E+02  0.15090283330E+02  0.51100000000E-03 0.  1.
         12    1    3    3    0    0 -0.31587572836E+01  0.27950825522E+01 -0.10519792747E+02  0.11333855191E+02  0.00000000000E+00 0. -1.
</event>
<event>
 7    1  0.3251185E-010  0.4778727E+02  0.7816164E-02  0.1312668E+00
        -11   -1    0    0    0    0  0.00000000000E+00  0.00000000000E+00  0.45593999997E+02  0.45594000000E+02  0.51100000000E-03 0.  1.
         11   -1    0    0    0    0 -0.00000000000E+00 -0.00000000000E+00 -0.45593999997E+02  0.45594000000E+02  0.51100000000E-03 0. -1.
    9900012    2    1    2    0    0  0.35453053298E+02  0.12181839417E+02 -0.21870238254E+02  0.47787268197E+02  0.19999987019E+02 0.  0.
        -12    1    1    2    0    0 -0.35453053298E+02 -0.12181839417E+02  0.21870238254E+02  0.43400731803E+02  0.00000000000E+00 0.  1.
         11    1    3    3    0    0  0.13162482825E+02  0.24054857887E+01 -0.13433592887E+02  0.18960451844E+02  0.51100000000E-03 0. -1.
        -11    1    3    3    0    0  0.61236532320E+01 -0.10591930646E+01  0.22673134349E+01  0.66152648720E+01  0.51100000000E-03 0.  1.
        -12    1    3    3    0    0  0.16166917240E+02  0.10835546693E+02 -0.10703958802E+02  0.22211551482E+02  0.00000000000E+00 0.  1.
</event>
<event>
 7    1  0.2700100E-010  0.4778727E+02  0.7816164E-02  0.1312668E+00
        -11   -1    0    0    0    0  0.00000000000E+00  0.00000000000E+00  0.45593999997E+02  0.45594000000E+02  0.51100000000E-03 0.  1.
         11   -1    0    0    0    0 -0.00000000000E+00 -0.00000000000E+00 -0.45593999997E+02  0.45594000000E+02  0.51100000000E-03 0. -1.
    9900012    2    1    2    0    0  0.81654419942E+01 -0.38980393340E+02 -0.17247545165E+02  0.47787270488E+02  0.19999997464E+02 0.  0.
        -12    1    1    2    0    0 -0.81654419942E+01  0.38980393340E+02  0.17247545165E+02  0.43400729512E+02  0.00000000000E+00 0.  1.
         11    1    3    3    0    0  0.58523857535E+01 -0.39202362864E+02 -0.12859388560E+02  0.41670607717E+02  0.51100000000E-03 0. -1.
        -11    1    3    3    0    0  0.28740977670E+01  0.12265057524E+00 -0.46669652164E+01  0.54823394395E+01  0.51100000000E-03 0.  1.
         12    1    3    3    0    0 -0.56104152628E+00  0.99318948025E-01  0.27880861105E+00  0.63432333178E+00  0.00000000000E+00 0. -1.
</event>
<event>
 7    1  0.2700100E-010  0.4778728E+02  0.7816164E-02  0.1312668E+00
        -11   -1    0    0    0    0  0.00000000000E+00  0.00000000000E+00  0.45593999997E+02  0.45594000000E+02  0.51100000000E-03 0.  1.
         11   -1    0    0    0    0 -0.00000000000E+00 -0.00000000000E+00 -0.45593999997E+02  0.45594000000E+02  0.51100000000E-03 0. -1.
    9900012    2    1    2    0    0  0.31811942069E+02  0.27217027401E+02 -0.11439256499E+02  0.47787276181E+02  0.20000023418E+02 0.  0.
        -12    1    1    2    0    0 -0.31811942069E+02 -0.27217027401E+02  0.11439256499E+02  0.43400723819E+02  0.00000000000E+00 0.  1.
         11    1    3    3    0    0  0.19021773068E+02  0.13744970195E+02 -0.67731021050E+01  0.24425948676E+02  0.51100000000E-03 0. -1.
        -11    1    3    3    0    0  0.34846839711E+01  0.12943721976E+02 -0.13666835771E+01  0.13474078271E+02  0.51100000000E-03 0.  1.
        -12    1    3    3    0    0  0.93054850296E+01  0.52833523027E+00 -0.32994708168E+01  0.98872492344E+01  0.00000000000E+00 0.  1.
</event>
<event>
 7    1  0.2700100E-010  0.4778726E+02  0.7816164E-02  0.1312668E+00
        -11   -1    0    0    0    0  0.00000000000E+00  0.00000000000E+00  0.45593999997E+02  0.45594000000E+02  0.51100000000E-03 0. -1.
         11   -1    0    0    0    0 -0.00000000000E+00 -0.00000000000E+00 -0.45593999997E+02  0.45594000000E+02  0.51100000000E-03 0.  1.
    9900012    2    1    2    0    0 -0.44930411475E+00  0.41249676117E+02  0.13486520763E+02  0.47787263874E+02  0.19999967308E+02 0.  0.
        -12    1    1    2    0    0  0.44930411475E+00 -0.41249676117E+02 -0.13486520763E+02  0.43400736126E+02  0.00000000000E+00 0.  1.
         11    1    3    3    0    0 -0.25360455186E+01  0.22009219704E+02  0.16097311402E+02  0.27385410596E+02  0.51100000000E-03 0. -1.
        -11    1    3    3    0    0  0.20008400778E+01  0.19674749691E+02 -0.24351991673E+01  0.19925594889E+02  0.51100000000E-03 0.  1.
        -12    1    3    3    0    0  0.85901325997E-01 -0.43429327768E+00 -0.17559147203E+00  0.47625838984E+00  0.00000000000E+00 0.  1.
</event>
<event>
 7    1  0.2700100E-010  0.4778727E+02  0.7816164E-02  0.1312668E+00
        -11   -1    0    0    0    0  0.00000000000E+00  0.00000000000E+00  0.45593999997E+02  0.45594000000E+02  0.51100000000E-03 0.  1.
         11   -1    0    0    0    0 -0.00000000000E+00 -0.00000000000E+00 -0.45593999997E+02  0.45594000000E+02  0.51100000000E-03 0. -1.
    9900012    2    1    2    0    0  0.67532927309E+01 -0.24851502513E+02 -0.34934497424E+02  0.47787271318E+02  0.20000001246E+02 0.  0.
        -12    1    1    2    0    0 -0.67532927309E+01  0.24851502513E+02  0.34934497424E+02  0.43400728682E+02  0.00000000000E+00 0.  1.
         11    1    3    3    0    0  0.30347619459E+01 -0.47418267500E+01 -0.34856474191E+00  0.56405849551E+01  0.51100000000E-03 0. -1.
        -11    1    3    3    0    0  0.63322990061E+01 -0.18263764118E+02 -0.33659728428E+02  0.38815466100E+02  0.51100000000E-03 0.  1.
        -12    1    3    3    0    0 -0.26137682212E+01 -0.18459116449E+01 -0.92620425443E+00  0.33312202622E+01  0.00000000000E+00 0.  1.
</event>
<event>
 7    1  0.2700100E-010  0.4778729E+02  0.7816164E-02  0.1312668E+00
        -11   -1    0    0    0    0  0.00000000000E+00  0.00000000000E+00  0.45593999997E+02  0.45594000000E+02  0.51100000000E-03 0.  1.
         11   -1    0    0    0    0 -0.00000000000E+00 -0.00000000000E+00 -0.45593999997E+02  0.45594000000E+02  0.51100000000E-03 0. -1.
    9900012    2    1    2    0    0 -0.40186997807E+02  0.10196771770E+01 -0.16358097571E+02  0.47787286982E+02  0.20000072667E+02 0.  0.
        -12    1    1    2    0    0  0.40186997807E+02 -0.10196771770E+01  0.16358097571E+02  0.43400713018E+02  0.00000000000E+00 0.  1.
         11    1    3    3    0    0 -0.13931891747E+02 -0.21491744089E+01 -0.74182440583E+01  0.15929435127E+02  0.51100000000E-03 0. -1.
        -11    1    3    3    0    0 -0.57554776834E+01 -0.47432985498E+01  0.13747717683E+01  0.75838250357E+01  0.51100000000E-03 0.  1.
        -12    1    3    3    0    0 -0.20499628377E+02  0.79121501357E+01 -0.10314625281E+02  0.24274026820E+02  0.00000000000E+00 0.  1.
</event>
<event>
 7    1  0.2700100E-010  0.4778727E+02  0.7816164E-02  0.1312668E+00
        -11   -1    0    0    0    0  0.00000000000E+00  0.00000000000E+00  0.45593999997E+02  0.45594000000E+02  0.51100000000E-03 0.  1.
         11   -1    0    0    0    0 -0.00000000000E+00 -0.00000000000E+00 -0.45593999997E+02  0.45594000000E+02  0.51100000000E-03 0. -1.
    9900012    2    1    2    0    0  0.24598608658E+02 -0.22885256345E+02 -0.27473565300E+02  0.47787270787E+02  0.19999998828E+02 0.  0.
        -12    1    1    2    0    0 -0.24598608658E+02  0.22885256345E+02  0.27473565300E+02  0.43400729213E+02  0.00000000000E+00 0.  1.
         11    1    3    3    0    0  0.10958315398E+02 -0.31607392525E+01 -0.17459018169E+02  0.20854070698E+02  0.51100000000E-03 0. -1.
        -11    1    3    3    0    0  0.23391371785E+01 -0.45812607647E+01  0.73185994255E+00  0.51956839945E+01  0.51100000000E-03 0.  1.
        -12    1    3    3    0    0  0.11301156081E+02 -0.15143256328E+02 -0.10746407073E+02  0.21737516095E+02  0.00000000000E+00 0.  1.
</event>
<event>
 7    1  0.2700100E-010  0.4778727E+02  0.7816164E-02  0.1312668E+00
        -11   -1    0    0    0    0  0.00000000000E+00  0.00000000000E+00  0.45593999997E+02  0.45594000000E+02  0.51100000000E-03 0.  1.
         11   -1    0    0    0    0 -0.00000000000E+00 -0.00000000000E+00 -0.45593999997E+02  0.45594000000E+02  0.51100000000E-03 0. -1.
    9900012    2    1    2    0    0  0.45574084762E+00  0.96587647127E+01 -0.42309851077E+02  0.47787274964E+02  0.20000017870E+02 0.  0.
        -12    1    1    2    0    0 -0.45574084762E+00 -0.96587647127E+01  0.42309851077E+02  0.43400725036E+02  0.00000000000E+00 0.  1.
         11    1    3    3    0    0  0.38337317365E+01  0.79852976851E+01 -0.31958216342E+02  0.33163082941E+02  0.51100000000E-03 0. -1.
        -11    1    3    3    0    0 -0.32973495578E+01 -0.23833939280E+01 -0.66567225020E+00  0.41226448463E+01  0.51100000000E-03 0.  1.
        -12    1    3    3    0    0 -0.80641331028E-01  0.40568609557E+01 -0.96859624853E+01  0.10501547177E+02  0.00000000000E+00 0.  1.
</event>
<event>
 7    1  0.2700100E-010  0.4778727E+02  0.7816164E-02  0.1312668E+00
        -11   -1    0    0    0    0  0.00000000000E+00  0.00000000000E+00  0.45593999997E+02  0.45594000000E+02  0.51100000000E-03 0.  1.
         11   -1    0    0    0    0 -0.00000000000E+00 -0.00000000000E+00 -0.45593999997E+02  0.45594000000E+02  0.51100000000E-03 0. -1.
    9900012    2    1    2    0    0  0.71546178175E+01  0.26500150434E+02 -0.33618101166E+02  0.47787271260E+02  0.20000000985E+02 0.  0.
        -12    1    1    2    0    0 -0.71546178175E+01 -0.26500150434E+02  0.33618101166E+02  0.43400728740E+02  0.00000000000E+00 0.  1.
         11    1    3    3    0    0  0.54218707635E+01  0.25610910624E+02 -0.20230093396E+02  0.33084318108E+02  0.51100000000E-03 0. -1.
        -11    1    3    3    0    0 -0.23846102318E-01 -0.17497937082E+01 -0.12314114052E+01  0.21397946088E+01  0.51100000000E-03 0.  1.
         12    1    3    3    0    0  0.17565931563E+01  0.26390335178E+01 -0.12156596365E+02  0.12563158544E+02  0.00000000000E+00 0. -1.
</event>
<event>
 7    1  0.2700100E-010  0.4778728E+02  0.7816164E-02  0.1312668E+00
        -11   -1    0    0    0    0  0.00000000000E+00  0.00000000000E+00  0.45593999997E+02  0.45594000000E+02  0.51100000000E-03 0.  1.
         11   -1    0    0    0    0 -0.00000000000E+00 -0.00000000000E+00 -0.45593999997E+02  0.45594000000E+02  0.51100000000E-03 0. -1.
    9900012    2    1    2    0    0  0.15042115665E+02  0.89863570992E+01 -0.39706458874E+02  0.47787277266E+02  0.20000028365E+02 0.  0.
        -12    1    1    2    0    0 -0.15042115665E+02 -0.89863570992E+01  0.39706458874E+02  0.43400722734E+02  0.00000000000E+00 0.  1.
         11    1    3    3    0    0  0.83351294799E+00  0.36294638015E+01 -0.39218175511E+01  0.54081794059E+01  0.51100000000E-03 0. -1.
        -11    1    3    3    0    0  0.84910019392E+00  0.60792902197E+01 -0.23246469314E+02  0.24043233487E+02  0.51100000000E-03 0.  1.
        -12    1    3    3    0    0  0.13359502523E+02 -0.72239692202E+00 -0.12538172009E+02  0.18335864373E+02  0.00000000000E+00 0.  1.
</event>
<event>
 7    1  0.2700100E-010  0.4778727E+02  0.7816164E-02  0.1312668E+00
        -11   -1    0    0    0    0  0.00000000000E+00  0.00000000000E+00  0.45593999997E+02  0.45594000000E+02  0.51100000000E-03 0. -1.
         11   -1    0    0    0    0 -0.00000000000E+00 -0.00000000000E+00 -0.45593999997E+02  0.45594000000E+02  0.51100000000E-03 0.  1.
    9900012    2    1    2    0    0  0.35179740460E+02  0.48204270146E+01  0.24955416755E+02  0.47787268660E+02  0.19999989129E+02 0.  0.
        -12    1    1    2    0    0 -0.35179740460E+02 -0.48204270146E+01 -0.24955416755E+02  0.43400731340E+02  0.00000000000E+00 0.  1.
         11    1    3    3    0    0  0.16016306948E+02  0.62116834625E+01  0.17122361619E+02  0.24254532924E+02  0.51100000000E-03 0. -1.
        -11    1    3    3    0    0  0.19714204629E+02 -0.29863596150E+00  0.48437939487E+01  0.20302743353E+02  0.51100000000E-03 0.  1.
        -12    1    3    3    0    0 -0.55077111655E+00 -0.10926204864E+01  0.29892611872E+01  0.32299923832E+01  0.00000000000E+00 0.  1.
</event>
<event>
 7    1  0.2700100E-010  0.4778728E+02  0.7816164E-02  0.1312668E+00
        -11   -1    0    0    0    0  0.00000000000E+00  0.00000000000E+00  0.45593999997E+02  0.45594000000E+02  0.51100000000E-03 0.  1.
         11   -1    0    0    0    0 -0.00000000000E+00 -0.00000000000E+00 -0.45593999997E+02  0.45594000000E+02  0.51100000000E-03 0. -1.
    9900012    2    1    2    0    0  0.34568410954E+02  0.25737121011E+02 -0.51233252816E+01  0.47787275401E+02  0.20000019861E+02 0.  0.
        -12    1    1    2    0    0 -0.34568410954E+02 -0.25737121011E+02  0.51233252816E+01  0.43400724599E+02  0.00000000000E+00 0.  1.
         11    1    3    3    0    0  0.26674579023E+02  0.25989970380E+02 -0.14353233839E+01  0.37270254626E+02  0.51100000000E-03 0. -1.
        -11    1    3    3    0    0  0.37980362868E+01 -0.29637044433E+01 -0.10082747645E+01  0.49219144573E+01  0.51100000000E-03 0.  1.
         12    1    3    3    0    0  0.40957956440E+01  0.27108550742E+01 -0.26797271332E+01  0.55951063170E+01  0.00000000000E+00 0. -1.
</event>
<event>
 7    1  0.2700100E-010  0.4778727E+02  0.7816164E-02  0.1312668E+00
        -11   -1    0    0    0    0  0.00000000000E+00  0.00000000000E+00  0.45593999997E+02  0.45594000000E+02  0.51100000000E-03 0. -1.
         11   -1    0    0    0    0 -0.00000000000E+00 -0.00000000000E+00 -0.45593999997E+02  0.45594000000E+02  0.51100000000E-03 0.  1.
    9900012    2    1    2    0    0  0.94032524395E+01  0.10982580153E+02  0.40921692237E+02  0.47787272831E+02  0.20000008146E+02 0.  0.
        -12    1    1    2    0    0 -0.94032524395E+01 -0.10982580153E+02 -0.40921692237E+02  0.43400727169E+02  0.00000000000E+00 0.  1.
         11    1    3    3    0    0  0.22313038637E+01  0.39042101110E+01  0.17468888364E+02  0.18038393345E+02  0.51100000000E-03 0. -1.
        -11    1    3    3    0    0 -0.27695351866E+01  0.70188678023E+01  0.14610457923E+02  0.16443853300E+02  0.51100000000E-03 0.  1.
        -12    1    3    3    0    0  0.99414837623E+01  0.59502239980E-01  0.88423459494E+01  0.13305026186E+02  0.00000000000E+00 0.  1.
</event>
<event>
 7    1  0.2700100E-010  0.4778729E+02  0.7816164E-02  0.1312668E+00
        -11   -1    0    0    0    0  0.00000000000E+00  0.00000000000E+00  0.45593999997E+02  0.45594000000E+02  0.51100000000E-03 0. -1.
         11   -1    0    0    0    0 -0.00000000000E+00 -0.00000000000E+00 -0.45593999997E+02  0.45594000000E+02  0.51100000000E-03 0.  1.
    9900012    2    1    2    0    0  0.32468830829E+02  0.20483550032E+02  0.20244031582E+02  0.47787290190E+02  0.20000087293E+02 0.  0.
        -12    1    1    2    0    0 -0.32468830829E+02 -0.20483550032E+02 -0.20244031582E+02  0.43400709810E+02  0.00000000000E+00 0.  1.
         11    1    3    3    0    0  0.95256331997E+01  0.10895694461E+02  0.30457427889E+00  0.14475724901E+02  0.51100000000E-03 0. -1.
        -11    1    3    3    0    0  0.14404379170E+00  0.22531410007E+00  0.38916793630E+01  0.39008567756E+01  0.51100000000E-03 0.  1.
         12    1    3    3    0    0  0.22799153837E+02  0.93625414708E+01  0.16047777940E+02  0.29410708514E+02  0.00000000000E+00 0. -1.
</event>
<event>
 7    1  0.2700100E-010  0.4778727E+02  0.7816164E-02  0.1312668E+00
        -11   -1    0    0    0    0  0.00000000000E+00  0.00000000000E+00  0.45593999997E+02  0.45594000000E+02  0.51100000000E-03 0.  1.
         11   -1    0    0    0    0 -0.00000000000E+00 -0.00000000000E+00 -0.45593999997E+02  0.45594000000E+02  0.51100000000E-03 0. -1.
    9900012    2    1    2    0    0  0.19824287846E+02 -0.15509944192E+02 -0.35356224836E+02  0.47787269683E+02  0.19999993792E+02 0.  0.
        -12    1    1    2    0    0 -0.19824287846E+02  0.15509944192E+02  0.35356224836E+02  0.43400730317E+02  0.00000000000E+00 0.  1.
         11    1    3    3    0    0  0.44617616846E+00 -0.75772716896E+00 -0.48790337224E+01  0.49576399589E+01  0.51100000000E-03 0. -1.
        -11    1    3    3    0    0  0.10200555200E+02 -0.17706397500E+02 -0.21354106885E+02  0.29556145215E+02  0.51100000000E-03 0.  1.
        -12    1    3    3    0    0  0.91775564768E+01  0.29541804776E+01 -0.91230842283E+01  0.13273484509E+02  0.00000000000E+00 0.  1.
</event>
<event>
 7    1  0.2700100E-010  0.4778727E+02  0.7816164E-02  0.1312668E+00
        -11   -1    0    0    0    0  0.00000000000E+00  0.00000000000E+00  0.45593999997E+02  0.45594000000E+02  0.51100000000E-03 0.  1.
         11   -1    0    0    0    0 -0.00000000000E+00 -0.00000000000E+00 -0.45593999997E+02  0.45594000000E+02  0.51100000000E-03 0. -1.
    9900012    2    1    2    0    0  0.32268412287E+01 -0.22279149382E+02 -0.37105934660E+02  0.47787269724E+02  0.19999993981E+02 0.  0.
        -12    1    1    2    0    0 -0.32268412287E+01  0.22279149382E+02  0.37105934660E+02  0.43400730276E+02  0.00000000000E+00 0.  1.
         11    1    3    3    0    0  0.63486754346E+01 -0.13855362839E+02 -0.20718155134E+02  0.25720006057E+02  0.51100000000E-03 0. -1.
        -11    1    3    3    0    0  0.79329181341E+00  0.24139565551E+01 -0.76334261297E+00  0.26531472551E+01  0.51100000000E-03 0.  1.
        -12    1    3    3    0    0 -0.39151260193E+01 -0.10837743098E+02 -0.15624436913E+02  0.19414116412E+02  0.00000000000E+00 0.  1.
</event>
<event>
 7    1  0.2700100E-010  0.4778726E+02  0.7816164E-02  0.1312668E+00
        -11   -1    0    0    0    0  0.00000000000E+00  0.00000000000E+00  0.45593999997E+02  0.45594000000E+02  0.51100000000E-03 0. -1.
         11   -1    0    0    0    0 -0.00000000000E+00 -0.00000000000E+00 -0.45593999997E+02  0.45594000000E+02  0.51100000000E-03 0.  1.
    9900012    2    1    2    0    0  0.35272768019E+01  0.19646152398E+02  0.38538442486E+02  0.47787256517E+02  0.19999933761E+02 0.  0.
        -12    1    1    2    0    0 -0.35272768019E+01 -0.19646152398E+02 -0.38538442486E+02  0.43400743483E+02  0.00000000000E+00 0.  1.
         11    1    3    3    0    0  0.37028723725E+01  0.44726896251E+01  0.51675202976E+01  0.77729970138E+01  0.51100000000E-03 0. -1.
        -11    1    3    3    0    0  0.12515584433E+01 -0.10345103686E+01 -0.10554013606E+01  0.19366162586E+01  0.51100000000E-03 0.  1.
        -12    1    3    3    0    0 -0.14271540139E+01  0.16207973141E+02  0.34426323549E+02  0.38077643244E+02  0.00000000000E+00 0.  1.
</event>
<event>
 7    1  0.3298469E-010  0.4778727E+02  0.7816164E-02  0.1312668E+00
        -11   -1    0    0    0    0  0.00000000000E+00  0.00000000000E+00  0.45593999997E+02  0.45594000000E+02  0.51100000000E-03 0. -1.
         11   -1    0    0    0    0 -0.00000000000E+00 -0.00000000000E+00 -0.45593999997E+02  0.45594000000E+02  0.51100000000E-03 0.  1.
    9900012    2    1    2    0    0 -0.77457770447E+01  0.39255619023E+02  0.16811373021E+02  0.47787274778E+02  0.20000017025E+02 0.  0.
        -12    1    1    2    0    0  0.77457770447E+01 -0.39255619023E+02 -0.16811373021E+02  0.43400725222E+02  0.00000000000E+00 0.  1.
         11    1    3    3    0    0 -0.20726335115E+01  0.10619251253E+02  0.62985753967E+01  0.12519439250E+02  0.51100000000E-03 0. -1.
        -11    1    3    3    0    0 -0.78584750685E+01  0.28558424059E+02  0.59549816140E+01  0.30212597065E+02  0.51100000000E-03 0.  1.
        -12    1    3    3    0    0  0.21853315353E+01  0.77943711392E-01  0.45578160100E+01  0.50552384635E+01  0.00000000000E+00 0.  1.
</event>
<event>
 7    1  0.2700100E-010  0.4778728E+02  0.7816164E-02  0.1312668E+00
        -11   -1    0    0    0    0  0.00000000000E+00  0.00000000000E+00  0.45593999997E+02  0.45594000000E+02  0.51100000000E-03 0. -1.
         11   -1    0    0    0    0 -0.00000000000E+00 -0.00000000000E+00 -0.45593999997E+02  0.45594000000E+02  0.51100000000E-03 0.  1.
    9900012    2    1    2    0    0 -0.35046417158E+02  0.46505871575E+01  0.25174263715E+02  0.47787275695E+02  0.20000021206E+02 0.  0.
        -12    1    1    2    0    0  0.35046417158E+02 -0.46505871575E+01 -0.25174263715E+02  0.43400724305E+02  0.00000000000E+00 0.  1.
         11    1    3    3    0    0  0.92719507581E-01  0.22151940282E+01  0.65790061429E+01  0.69425502216E+01  0.51100000000E-03 0. -1.
        -11    1    3    3    0    0 -0.21933197875E+01  0.21787767047E+01  0.17102961543E+00  0.30962834188E+01  0.51100000000E-03 0.  1.
         12    1    3    3    0    0 -0.32945816878E+02  0.25661642462E+00  0.18424227957E+02  0.37748442055E+02  0.00000000000E+00 0. -1.
</event>
<event>
 7    1  0.2700100E-010  0.4778727E+02  0.7816164E-02  0.1312668E+00
        -11   -1    0    0    0    0  0.00000000000E+00  0.00000000000E+00  0.45593999997E+02  0.45594000000E+02  0.51100000000E-03 0.  1.
         11   -1    0    0    0    0 -0.00000000000E+00 -0.00000000000E+00 -0.45593999997E+02  0.45594000000E+02  0.51100000000E-03 0. -1.
    9900012    2    1    2    0    0  0.23614634259E+02 -0.17190362572E+02 -0.32100838324E+02  0.47787270310E+02  0.19999996651E+02 0.  0.
        -12    1    1    2    0    0 -0.23614634259E+02  0.17190362572E+02  0.32100838324E+02  0.43400729690E+02  0.00000000000E+00 0.  1.
         11    1    3    3    0    0  0.14897346873E+02 -0.37147534948E+01 -0.99375548215E+01  0.18288940195E+02  0.51100000000E-03 0.  1.
        -11    1    3    3    0    0  0.54129403334E+01 -0.13254325608E+02 -0.11595260030E+02  0.18423548133E+02  0.51100000000E-03 0. -1.
        -12    1    3    3    0    0  0.33043470523E+01 -0.22128346865E+00 -0.10568023473E+02  0.11074781982E+02  0.00000000000E+00 0.  1.
</event>
<event>
 7    1  0.2700100E-010  0.4778727E+02  0.7816164E-02  0.1312668E+00
        -11   -1    0    0    0    0  0.00000000000E+00  0.00000000000E+00  0.45593999997E+02  0.45594000000E+02  0.51100000000E-03 0.  1.
         11   -1    0    0    0    0 -0.00000000000E+00 -0.00000000000E+00 -0.45593999997E+02  0.45594000000E+02  0.51100000000E-03 0. -1.
    9900012    2    1    2    0    0 -0.76747440372E+01  0.17322682945E+02 -0.39046718596E+02  0.47787271048E+02  0.20000000015E+02 0.  0.
        -12    1    1    2    0    0  0.76747440372E+01 -0.17322682945E+02  0.39046718596E+02  0.43400728952E+02  0.00000000000E+00 0.  1.
         11    1    3    3    0    0  0.33222451289E+01  0.78556484350E+00 -0.79169354648E+01  0.86216177272E+01  0.51100000000E-03 0. -1.
        -11    1    3    3    0    0 -0.94049641239E+01  0.17251001431E+02 -0.20506790912E+02  0.28400332292E+02  0.51100000000E-03 0.  1.
         12    1    3    3    0    0 -0.15920250422E+01 -0.71388332915E+00 -0.10622992220E+02  0.10765321029E+02  0.00000000000E+00 0. -1.
</event>
<event>
 7    1  0.2700100E-010  0.4778727E+02  0.7816164E-02  0.1312668E+00
        -11   -1    0    0    0    0  0.00000000000E+00  0.00000000000E+00  0.45593999997E+02  0.45594000000E+02  0.51100000000E-03 0.  1.
         11   -1    0    0    0    0 -0.00000000000E+00 -0.00000000000E+00 -0.45593999997E+02  0.45594000000E+02  0.51100000000E-03 0. -1.
    9900012    2    1    2    0    0 -0.10854333512E+02 -0.96966972492E+00 -0.42010313142E+02  0.47787271600E+02  0.20000002533E+02 0.  0.
        -12    1    1    2    0    0  0.10854333512E+02  0.96966972492E+00  0.42010313142E+02  0.43400728400E+02  0.00000000000E+00 0.  1.
         11    1    3    3    0    0 -0.10636446174E+02 -0.14105649266E+01 -0.14871699646E+02  0.18338242316E+02  0.51100000000E-03 0. -1.
        -11    1    3    3    0    0  0.43634620373E+01  0.18435877171E+01 -0.53758316350E+01  0.71650668281E+01  0.51100000000E-03 0.  1.
         12    1    3    3    0    0 -0.45813493753E+01 -0.14026925154E+01 -0.21762781861E+02  0.22283962456E+02  0.00000000000E+00 0. -1.
</event>
<event>
 7    1  0.2700100E-010  0.4778727E+02  0.7816164E-02  0.1312668E+00
        -11   -1    0    0    0    0  0.00000000000E+00  0.00000000000E+00  0.45593999997E+02  0.45594000000E+02  0.51100000000E-03 0.  1.
         11   -1    0    0    0    0 -0.00000000000E+00 -0.00000000000E+00 -0.45593999997E+02  0.45594000000E+02  0.51100000000E-03 0. -1.
    9900012    2    1    2    0    0 -0.25936401629E+02  0.32419187468E+02 -0.12646043415E+02  0.47787273513E+02  0.20000011255E+02 0.  0.
        -12    1    1    2    0    0  0.25936401629E+02 -0.32419187468E+02  0.12646043415E+02  0.43400726487E+02  0.00000000000E+00 0.  1.
         11    1    3    3    0    0 -0.99287470925E+01  0.41205927920E+01  0.35495983313E+01  0.11320731088E+02  0.51100000000E-03 0.  1.
        -11    1    3    3    0    0 -0.94276961766E+01  0.13639505298E+02 -0.89234505908E+01  0.18829379455E+02  0.51100000000E-03 0. -1.
        -12    1    3    3    0    0 -0.65799583595E+01  0.14659089379E+02 -0.72721911558E+01  0.17637162970E+02  0.00000000000E+00 0.  1.
</event>
<event>
 7    1  0.2700100E-010  0.4778727E+02  0.7816164E-02  0.1312668E+00
        -11   -1    0    0    0    0  0.00000000000E+00  0.00000000000E+00  0.45593999997E+02  0.45594000000E+02  0.51100000000E-03 0.  1.
         11   -1    0    0    0    0 -0.00000000000E+00 -0.00000000000E+00 -0.45593999997E+02  0.45594000000E+02  0.51100000000E-03 0. -1.
    9900012    2    1    2    0    0  0.36147238283E+02 -0.22984027323E+02  0.69810394733E+01  0.47787271209E+02  0.20000000748E+02 0.  0.
        -12    1    1    2    0    0 -0.36147238283E+02  0.22984027323E+02 -0.69810394733E+01  0.43400728791E+02  0.00000000000E+00 0.  1.
         11    1    3    3    0    0  0.14637620019E+02 -0.83232512617E+01  0.27638799717E+01  0.17063864279E+02  0.51100000000E-03 0. -1.
        -11    1    3    3    0    0  0.14166794082E+02 -0.76894354038E+01 -0.51582318563E+01  0.16924326502E+02  0.51100000000E-03 0.  1.
        -12    1    3    3    0    0  0.73428241828E+01 -0.69713406576E+01  0.93753913579E+01  0.13799080428E+02  0.00000000000E+00 0.  1.
</event>
<event>
 7    1  0.2700100E-010  0.4778727E+02  0.7816164E-02  0.1312668E+00
        -11   -1    0    0    0    0  0.00000000000E+00  0.00000000000E+00  0.45593999997E+02  0.45594000000E+02  0.51100000000E-03 0.  1.
         11   -1    0    0    0    0 -0.00000000000E+00 -0.00000000000E+00 -0.45593999997E+02  0.45594000000E+02  0.51100000000E-03 0. -1.
    9900012    2    1    2    0    0  0.16557521764E+02 -0.35459269342E+02 -0.18764648376E+02  0.47787270307E+02  0.19999996636E+02 0.  0.
        -12    1    1    2    0    0 -0.16557521764E+02  0.35459269342E+02  0.18764648376E+02  0.43400729693E+02  0.00000000000E+00 0.  1.
         11    1    3    3    0    0  0.18411181333E+02 -0.25469648668E+02 -0.12463413999E+02  0.33808449982E+02  0.51100000000E-03 0. -1.
        -11    1    3    3    0    0 -0.42684136626E+01 -0.39512328863E+01 -0.18714913415E+01  0.61101617507E+01  0.51100000000E-03 0.  1.
         12    1    3    3    0    0  0.24147540934E+01 -0.60383877872E+01 -0.44297430356E+01  0.78686585745E+01  0.00000000000E+00 0. -1.
</event>
<event>
 7    1  0.2700100E-010  0.4778726E+02  0.7816164E-02  0.1312668E+00
        -11   -1    0    0    0    0  0.00000000000E+00  0.00000000000E+00  0.45593999997E+02  0.45594000000E+02  0.51100000000E-03 0.  1.
         11   -1    0    0    0    0 -0.00000000000E+00 -0.00000000000E+00 -0.45593999997E+02  0.45594000000E+02  0.51100000000E-03 0. -1.
    9900012    2    1    2    0    0  0.19698251437E+02 -0.25244342983E+02 -0.29297201949E+02  0.47787262629E+02  0.19999961628E+02 0.  0.
        -12    1    1    2    0    0 -0.19698251437E+02  0.25244342983E+02  0.29297201949E+02  0.43400737371E+02  0.00000000000E+00 0.  1.
         11    1    3    3    0    0  0.15804096532E+02 -0.25752422748E+02 -0.26329139806E+02  0.40077179888E+02  0.51100000000E-03 0. -1.
        -11    1    3    3    0    0  0.52265462124E+01  0.13425773146E+01 -0.16064723893E+01  0.56302800068E+01  0.51100000000E-03 0.  1.
         12    1    3    3    0    0 -0.13323913066E+01 -0.83449754959E+00 -0.13615897539E+01  0.20798027340E+01  0.00000000000E+00 0. -1.
</event>
<event>
 7    1  0.2700100E-010  0.4778728E+02  0.7816164E-02  0.1312668E+00
        -11   -1    0    0    0    0  0.00000000000E+00  0.00000000000E+00  0.45593999997E+02  0.45594000000E+02  0.51100000000E-03 0. -1.
         11   -1    0    0    0    0 -0.00000000000E+00 -0.00000000000E+00 -0.45593999997E+02  0.45594000000E+02  0.51100000000E-03 0.  1.
    9900012    2    1    2    0    0  0.35789614938E+02  0.92268769122E+01  0.22750628113E+02  0.47787275645E+02  0.20000020976E+02 0.  0.
        -12    1    1    2    0    0 -0.35789614938E+02 -0.92268769122E+01 -0.22750628113E+02  0.43400724355E+02  0.00000000000E+00 0.  1.
         11    1    3    3    0    0  0.46361392625E+01  0.25308808872E+01  0.11981254905E+02  0.13093876992E+02  0.51100000000E-03 0. -1.
        -11    1    3    3    0    0  0.26958549599E+02  0.86119268984E+01  0.10014342567E+02  0.30020255474E+02  0.51100000000E-03 0.  1.
         12    1    3    3    0    0  0.41949260769E+01 -0.19159308734E+01  0.75503064100E+00  0.46731431790E+01  0.00000000000E+00 0. -1.
</event>
<event>
 7    1  0.2700100E-010  0.4778729E+02  0.7816164E-02  0.1312668E+00
        -11   -1    0    0    0    0  0.00000000000E+00  0.00000000000E+00  0.45593999997E+02  0.45594000000E+02  0.51100000000E-03 0.  1.
         11   -1    0    0    0    0 -0.00000000000E+00 -0.00000000000E+00 -0.45593999997E+02  0.45594000000E+02  0.51100000000E-03 0. -1.
    9900012    2    1    2    0    0  0.36691495451E+02  0.22307268516E+02  0.63041089170E+01  0.47787287376E+02  0.20000074461E+02 0.  0.
        -12    1    1    2    0    0 -0.36691495451E+02 -0.22307268516E+02 -0.63041089170E+01  0.43400712624E+02  0.00000000000E+00 0.  1.
         11    1    3    3    0    0  0.26544311180E+02  0.83243704002E+01 -0.29438603008E+01  0.27974308076E+02  0.51100000000E-03 0.  1.
        -11    1    3    3    0    0  0.91321624022E+01  0.12106464002E+02  0.69623819082E+01  0.16686450277E+02  0.51100000000E-03 0. -1.
        -12    1    3    3    0    0  0.10150218682E+01  0.18764341145E+01  0.22855873096E+01  0.31265290226E+01  0.00000000000E+00 0.  1.
</event>
<event>
 7    1  0.2700100E-010  0.4778727E+02  0.7816164E-02  0.1312668E+00
        -11   -1    0    0    0    0  0.00000000000E+00  0.00000000000E+00  0.45593999997E+02  0.45594000000E+02  0.51100000000E-03 0.  1.
         11   -1    0    0    0    0 -0.00000000000E+00 -0.00000000000E+00 -0.45593999997E+02  0.45594000000E+02  0.51100000000E-03 0. -1.
    9900012    2    1    2    0    0  0.13889569588E+02 -0.40585894180E+02 -0.65945661754E+01  0.47787271288E+02  0.20000001109E+02 0.  0.
        -12    1    1    2    0    0 -0.13889569588E+02  0.40585894180E+02  0.65945661754E+01  0.43400728712E+02  0.00000000000E+00 0.  1.
         11    1    3    3    0    0  0.92777175922E+01 -0.11964969450E+02  0.71046917090E+00  0.15157219546E+02  0.51100000000E-03 0. -1.
        -11    1    3    3    0    0 -0.39386185753E+01 -0.11436905735E+02 -0.83113693627E-02  0.12096098479E+02  0.51100000000E-03 0.  1.
        -12    1    3    3    0    0  0.85504705714E+01 -0.17184018995E+02 -0.72967239769E+01  0.20533953263E+02  0.00000000000E+00 0.  1.
</event>
<event>
 7    1  0.2700100E-010  0.4778728E+02  0.7816164E-02  0.1312668E+00
        -11   -1    0    0    0    0  0.00000000000E+00  0.00000000000E+00  0.45593999997E+02  0.45594000000E+02  0.51100000000E-03 0.  1.
         11   -1    0    0    0    0 -0.00000000000E+00 -0.00000000000E+00 -0.45593999997E+02  0.45594000000E+02  0.51100000000E-03 0. -1.
    9900012    2    1    2    0    0  0.18939198651E+02  0.23142201010E+02 -0.31454218255E+02  0.47787279278E+02  0.20000037542E+02 0.  0.
        -12    1    1    2    0    0 -0.18939198651E+02 -0.23142201010E+02  0.31454218255E+02  0.43400720722E+02  0.00000000000E+00 0.  1.
         11    1    3    3    0    0  0.41697474378E+01  0.13493140933E+02 -0.47226650653E+01  0.14891447597E+02  0.51100000000E-03 0. -1.
        -11    1    3    3    0    0  0.89396203836E+01  0.50660802415E+01 -0.21473445056E+02  0.23805268838E+02  0.51100000000E-03 0.  1.
         12    1    3    3    0    0  0.58298308299E+01  0.45829798350E+01 -0.52581081330E+01  0.90905628434E+01  0.00000000000E+00 0. -1.
</event>
<event>
 7    1  0.2700100E-010  0.4778728E+02  0.7816164E-02  0.1312668E+00
        -11   -1    0    0    0    0  0.00000000000E+00  0.00000000000E+00  0.45593999997E+02  0.45594000000E+02  0.51100000000E-03 0.  1.
         11   -1    0    0    0    0 -0.00000000000E+00 -0.00000000000E+00 -0.45593999997E+02  0.45594000000E+02  0.51100000000E-03 0. -1.
    9900012    2    1    2    0    0  0.41187636104E+02 -0.12705366147E+02 -0.50769207595E+01  0.47787276260E+02  0.20000023780E+02 0.  0.
        -12    1    1    2    0    0 -0.41187636104E+02  0.12705366147E+02  0.50769207595E+01  0.43400723740E+02  0.00000000000E+00 0.  1.
         11    1    3    3    0    0  0.18138594634E+02 -0.14547610197E+02  0.50962348262E+00  0.23257284753E+02  0.51100000000E-03 0. -1.
        -11    1    3    3    0    0  0.16431048579E+02  0.40201719509E+01 -0.37948116999E+01  0.17336139594E+02  0.51100000000E-03 0.  1.
         12    1    3    3    0    0  0.66179928910E+01 -0.21779279008E+01 -0.17917325422E+01  0.71938519132E+01  0.00000000000E+00 0. -1.
</event>
<event>
 7    1  0.2700100E-010  0.4778727E+02  0.7816164E-02  0.1312668E+00
        -11   -1    0    0    0    0  0.00000000000E+00  0.00000000000E+00  0.45593999997E+02  0.45594000000E+02  0.51100000000E-03 0. -1.
         11   -1    0    0    0    0 -0.00000000000E+00 -0.00000000000E+00 -0.45593999997E+02  0.45594000000E+02  0.51100000000E-03 0.  1.
    9900012    2    1    2    0    0  0.41884128848E+02 -0.93959395450E+01 -0.64077503448E+01  0.47787271968E+02  0.20000004209E+02 0.  0.
        -12    1    1    2    0    0 -0.41884128848E+02  0.93959395450E+01  0.64077503448E+01  0.43400728032E+02  0.00000000000E+00 0.  1.
         11    1    3    3    0    0  0.23911268639E+02  0.40520637106E+01 -0.36040385185E+01  0.24518504892E+02  0.51100000000E-03 0. -1.
        -11    1    3    3    0    0  0.65583592608E+01 -0.68999563131E+01 -0.33668975685E+01  0.10097399309E+02  0.51100000000E-03 0.  1.
         12    1    3    3    0    0  0.11414500948E+02 -0.65480469425E+01  0.56318574216E+00  0.13171367766E+02  0.00000000000E+00 0. -1.
</event>
<event>
 7    1  0.2700100E-010  0.4778726E+02  0.7816164E-02  0.1312668E+00
        -11   -1    0    0    0    0  0.00000000000E+00  0.00000000000E+00  0.45593999997E+02  0.45594000000E+02  0.51100000000E-03 0. -1.
         11   -1    0    0    0    0 -0.00000000000E+00 -0.00000000000E+00 -0.45593999997E+02  0.45594000000E+02  0.51100000000E-03 0.  1.
    9900012    2    1    2    0    0 -0.28432532268E+01  0.40653215714E+02 -0.14928358735E+02  0.47787263470E+02  0.19999965467E+02 0.  0.
        -12    1    1    2    0    0  0.28432532268E+01 -0.40653215714E+02  0.14928358735E+02  0.43400736530E+02  0.00000000000E+00 0.  1.
         11    1    3    3    0    0  0.36103544761E+01  0.19404487984E+02 -0.17707925131E+00  0.19738291991E+02  0.51100000000E-03 0. -1.
        -11    1    3    3    0    0 -0.18077746875E+00  0.87151911209E-01 -0.30703294152E+01  0.30768813640E+01  0.51100000000E-03 0.  1.
         12    1    3    3    0    0 -0.62728302342E+01  0.21161575818E+02 -0.11680950069E+02  0.24972090116E+02  0.00000000000E+00 0. -1.
</event>
<event>
 7    1  0.2700100E-010  0.4778727E+02  0.7816164E-02  0.1312668E+00
        -11   -1    0    0    0    0  0.00000000000E+00  0.00000000000E+00  0.45593999997E+02  0.45594000000E+02  0.51100000000E-03 0.  1.
         11   -1    0    0    0    0 -0.00000000000E+00 -0.00000000000E+00 -0.45593999997E+02  0.45594000000E+02  0.51100000000E-03 0. -1.
    9900012    2    1    2    0    0  0.13001578315E+02 -0.55188460067E+01 -0.41038088326E+02  0.47787269668E+02  0.19999993722E+02 0.  0.
        -12    1    1    2    0    0 -0.13001578315E+02  0.55188460067E+01  0.41038088326E+02  0.43400730332E+02  0.00000000000E+00 0.  1.
         11    1    3    3    0    0  0.10954859360E+02 -0.83778538842E+01 -0.20508742995E+02  0.24714488035E+02  0.51100000000E-03 0. -1.
        -11    1    3    3    0    0 -0.55314351493E-01 -0.34886165558E+01 -0.10083732822E+02  0.10670293953E+02  0.51100000000E-03 0.  1.
         12    1    3    3    0    0  0.21020333062E+01  0.63476244334E+01 -0.10445612509E+02  0.12402487680E+02  0.00000000000E+00 0. -1.
</event>
<event>
 7    1  0.2700100E-010  0.4778723E+02  0.7816164E-02  0.1312668E+00
        -11   -1    0    0    0    0  0.00000000000E+00  0.00000000000E+00  0.45593999997E+02  0.45594000000E+02  0.51100000000E-03 0.  1.
         11   -1    0    0    0    0 -0.00000000000E+00 -0.00000000000E+00 -0.45593999997E+02  0.45594000000E+02  0.51100000000E-03 0. -1.
    9900012    2    1    2    0    0  0.26614654955E+01  0.31243645502E+00 -0.43317962540E+02  0.47787229342E+02  0.19999809861E+02 0.  0.
        -12    1    1    2    0    0 -0.26614654955E+01 -0.31243645502E+00  0.43317962540E+02  0.43400770658E+02  0.00000000000E+00 0.  1.
         11    1    3    3    0    0 -0.12401208785E+01  0.77157422419E+01 -0.23497795507E+02  0.24763218128E+02  0.51100000000E-03 0.  1.
        -11    1    3    3    0    0  0.50911479763E+01 -0.62875408341E+01 -0.19804214175E+02  0.21392986159E+02  0.51100000000E-03 0. -1.
        -12    1    3    3    0    0 -0.11895616023E+01 -0.11157649528E+01 -0.15952858208E-01  0.16310250547E+01  0.00000000000E+00 0.  1.
</event>
<event>
 7    1  0.2700100E-010  0.4778727E+02  0.7816164E-02  0.1312668E+00
        -11   -1    0    0    0    0  0.00000000000E+00  0.00000000000E+00  0.45593999997E+02  0.45594000000E+02  0.51100000000E-03 0.  1.
         11   -1    0    0    0    0 -0.00000000000E+00 -0.00000000000E+00 -0.45593999997E+02  0.45594000000E+02  0.51100000000E-03 0. -1.
    9900012    2    1    2    0    0  0.34114364937E+02 -0.20580715754E+02 -0.17212413669E+02  0.47787274887E+02  0.20000017519E+02 0.  0.
        -12    1    1    2    0    0 -0.34114364937E+02  0.20580715754E+02  0.17212413669E+02  0.43400725113E+02  0.00000000000E+00 0.  1.
         11    1    3    3    0    0  0.28715828256E+02 -0.12640593258E+02 -0.70343713025E+01  0.32153783140E+02  0.51100000000E-03 0. -1.
        -11    1    3    3    0    0  0.19021983782E+01 -0.81208172052E+01 -0.66984591989E+01  0.10697447670E+02  0.51100000000E-03 0.  1.
         12    1    3    3    0    0  0.34963383034E+01  0.18069470899E+00 -0.34795831677E+01  0.49360440771E+01  0.00000000000E+00 0. -1.
</event>
<event>
 7    1  0.2700100E-010  0.4778727E+02  0.7816164E-02  0.1312668E+00
        -11   -1    0    0    0    0  0.00000000000E+00  0.00000000000E+00  0.45593999997E+02  0.45594000000E+02  0.51100000000E-03 0.  1.
         11   -1    0    0    0    0 -0.00000000000E+00 -0.00000000000E+00 -0.45593999997E+02  0.45594000000E+02  0.51100000000E-03 0. -1.
    9900012    2    1    2    0    0  0.25852857834E+02 -0.61891820642E+01 -0.34306662020E+02  0.47787270839E+02  0.19999999062E+02 0.  0.
        -12    1    1    2    0    0 -0.25852857834E+02  0.61891820642E+01  0.34306662020E+02  0.43400729161E+02  0.00000000000E+00 0.  1.
         11    1    3    3    0    0  0.16033682812E+02  0.30361552644E+01 -0.16273390388E+02  0.23046050818E+02  0.51100000000E-03 0. -1.
        -11    1    3    3    0    0  0.11934660622E+02 -0.86153890816E+01 -0.15289666848E+02  0.21223453201E+02  0.51100000000E-03 0.  1.
        -12    1    3    3    0    0 -0.21154856005E+01 -0.60994824706E+00 -0.27436047840E+01  0.35177668201E+01  0.00000000000E+00 0.  1.
</event>
<event>
 7    1  0.2700100E-010  0.4778727E+02  0.7816164E-02  0.1312668E+00
        -11   -1    0    0    0    0  0.00000000000E+00  0.00000000000E+00  0.45593999997E+02  0.45594000000E+02  0.51100000000E-03 0. -1.
         11   -1    0    0    0    0 -0.00000000000E+00 -0.00000000000E+00 -0.45593999997E+02  0.45594000000E+02  0.51100000000E-03 0.  1.
    9900012    2    1    2    0    0  0.35370300098E+02 -0.21564119869E+02  0.12944273807E+02  0.47787267067E+02  0.19999981863E+02 0.  0.
        -12    1    1    2    0    0 -0.35370300098E+02  0.21564119869E+02 -0.12944273807E+02  0.43400732933E+02  0.00000000000E+00 0.  1.
         11    1    3    3    0    0  0.90522140818E+01 -0.35075365066E+01  0.10941734598E+01  0.97694732687E+01  0.51100000000E-03 0. -1.
        -11    1    3    3    0    0  0.28274204583E+02 -0.18500385532E+02  0.12307156422E+02  0.35960547953E+02  0.51100000000E-03 0.  1.
        -12    1    3    3    0    0 -0.19561185663E+01  0.44380216982E+00 -0.45705607426E+00  0.20572458449E+01  0.00000000000E+00 0.  1.
</event>
<event>
 7    1  0.2700100E-010  0.4778728E+02  0.7816164E-02  0.1312668E+00
        -11   -1    0    0    0    0  0.00000000000E+00  0.00000000000E+00  0.45593999997E+02  0.45594000000E+02  0.51100000000E-03 0.  1.
         11   -1    0    0    0    0 -0.00000000000E+00 -0.00000000000E+00 -0.45593999997E+02  0.45594000000E+02  0.51100000000E-03 0. -1.
    9900012    2    1    2    0    0 -0.84529270896E+01 -0.16456137093E+01 -0.42537776740E+02  0.47787280296E+02  0.20000042182E+02 0.  0.
        -12    1    1    2    0    0  0.84529270896E+01  0.16456137093E+01  0.42537776740E+02  0.43400719704E+02  0.00000000000E+00 0.  1.
         11    1    3    3    0    0  0.73612826203E+00  0.25588641409E+01 -0.28832710495E+02  0.28955394407E+02  0.51100000000E-03 0. -1.
        -11    1    3    3    0    0 -0.48422156628E+01 -0.41636631298E+01 -0.12923338439E+02  0.14415124691E+02  0.51100000000E-03 0.  1.
         12    1    3    3    0    0 -0.43468396888E+01 -0.40814720474E-01 -0.78172780557E+00  0.44167611984E+01  0.00000000000E+00 0. -1.
</event>
<event>
 7    1  0.2700100E-010  0.4778728E+02  0.7816164E-02  0.1312668E+00
        -11   -1    0    0    0    0  0.00000000000E+00  0.00000000000E+00  0.45593999997E+02  0.45594000000E+02  0.51100000000E-03 0.  1.
         11   -1    0    0    0    0 -0.00000000000E+00 -0.00000000000E+00 -0.45593999997E+02  0.45594000000E+02  0.51100000000E-03 0. -1.
    9900012    2    1    2    0    0  0.31091628729E+02  0.27327722226E+02  0.13043332411E+02  0.47787282270E+02  0.20000051184E+02 0.  0.
        -12    1    1    2    0    0 -0.31091628729E+02 -0.27327722226E+02 -0.13043332411E+02  0.43400717730E+02  0.00000000000E+00 0.  1.
         11    1    3    3    0    0  0.20408508912E+02  0.18167244222E+02  0.68219438311E+01  0.28161940923E+02  0.51100000000E-03 0. -1.
        -11    1    3    3    0    0  0.10733914905E+01 -0.14967630741E+01 -0.22916993089E+01  0.29401283943E+01  0.51100000000E-03 0.  1.
         12    1    3    3    0    0  0.96097283259E+01  0.10657241078E+02  0.85130878888E+01  0.16685212953E+02  0.00000000000E+00 0. -1.
</event>
<event>
 7    1  0.2700100E-010  0.4778728E+02  0.7816164E-02  0.1312668E+00
        -11   -1    0    0    0    0  0.00000000000E+00  0.00000000000E+00  0.45593999997E+02  0.45594000000E+02  0.51100000000E-03 0. -1.
         11   -1    0    0    0    0 -0.00000000000E+00 -0.00000000000E+00 -0.45593999997E+02  0.45594000000E+02  0.51100000000E-03 0.  1.
    9900012    2    1    2    0    0 -0.25823175990E+01  0.31565394091E+01  0.43208687987E+02  0.47787276242E+02  0.20000023696E+02 0.  0.
        -12    1    1    2    0    0  0.25823175990E+01 -0.31565394091E+01 -0.43208687987E+02  0.43400723758E+02  0.00000000000E+00 0.  1.
         11    1    3    3    0    0 -0.19863892269E+01 -0.17198091217E+01  0.96297046161E+01  0.99817181302E+01  0.51100000000E-03 0. -1.
        -11    1    3    3    0    0  0.86343012623E+00 -0.30340892285E+01  0.27608164607E+02  0.27787802401E+02  0.51100000000E-03 0.  1.
        -12    1    3    3    0    0 -0.14593584983E+01  0.79104377593E+01  0.59708187631E+01  0.10017755710E+02  0.00000000000E+00 0.  1.
</event>
<event>
 7    1  0.2700100E-010  0.4778727E+02  0.7816164E-02  0.1312668E+00
        -11   -1    0    0    0    0  0.00000000000E+00  0.00000000000E+00  0.45593999997E+02  0.45594000000E+02  0.51100000000E-03 0. -1.
         11   -1    0    0    0    0 -0.00000000000E+00 -0.00000000000E+00 -0.45593999997E+02  0.45594000000E+02  0.51100000000E-03 0.  1.
    9900012    2    1    2    0    0 -0.36136045627E+02 -0.21824039958E+02 -0.10075754498E+02  0.47787270256E+02  0.19999996403E+02 0.  0.
        -12    1    1    2    0    0  0.36136045627E+02  0.21824039958E+02  0.10075754498E+02  0.43400729744E+02  0.00000000000E+00 0.  1.
         11    1    3    3    0    0 -0.21453120677E+02 -0.11055542563E+02 -0.10117562207E+02  0.26169189391E+02  0.51100000000E-03 0. -1.
        -11    1    3    3    0    0 -0.77660467134E+01 -0.12116906323E+02  0.13331496695E+01  0.14453656586E+02  0.51100000000E-03 0.  1.
         12    1    3    3    0    0 -0.69168782372E+01  0.13484089281E+01 -0.12913419611E+01  0.71644242787E+01  0.00000000000E+00 0. -1.
</event>
<event>
 7    1  0.2700100E-010  0.4778727E+02  0.7816164E-02  0.1312668E+00
        -11   -1    0    0    0    0  0.00000000000E+00  0.00000000000E+00  0.45593999997E+02  0.45594000000E+02  0.51100000000E-03 0.  1.
         11   -1    0    0    0    0 -0.00000000000E+00 -0.00000000000E+00 -0.45593999997E+02  0.45594000000E+02  0.51100000000E-03 0. -1.
    9900012    2    1    2    0    0 -0.47124502110E+01 -0.27059931033E+02 -0.33603219937E+02  0.47787269077E+02  0.19999991030E+02 0.  0.
        -12    1    1    2    0    0  0.47124502110E+01  0.27059931033E+02  0.33603219937E+02  0.43400730923E+02  0.00000000000E+00 0.  1.
         11    1    3    3    0    0 -0.35313815457E+00  0.18613298846E+00 -0.89032300821E+01  0.89121747178E+01  0.51100000000E-03 0. -1.
        -11    1    3    3    0    0 -0.37537337516E+01 -0.11868859495E+02 -0.39874908933E+01  0.13071359022E+02  0.51100000000E-03 0.  1.
        -12    1    3    3    0    0 -0.60557830484E+00 -0.15377204526E+02 -0.20712498962E+02  0.25803735338E+02  0.00000000000E+00 0.  1.
</event>
<event>
 7    1  0.3175774E-010  0.4778727E+02  0.7816164E-02  0.1312668E+00
        -11   -1    0    0    0    0  0.00000000000E+00  0.00000000000E+00  0.45593999997E+02  0.45594000000E+02  0.51100000000E-03 0.  1.
         11   -1    0    0    0    0 -0.00000000000E+00 -0.00000000000E+00 -0.45593999997E+02  0.45594000000E+02  0.51100000000E-03 0. -1.
    9900012    2    1    2    0    0  0.29390356588E+02 -0.23186927909E+02 -0.21958978945E+02  0.47787269102E+02  0.19999991141E+02 0.  0.
        -12    1    1    2    0    0 -0.29390356588E+02  0.23186927909E+02  0.21958978945E+02  0.43400730898E+02  0.00000000000E+00 0.  1.
         11    1    3    3    0    0  0.92747632265E+01 -0.70488432881E+01 -0.78683253481E+01  0.14057665832E+02  0.51100000000E-03 0. -1.
        -11    1    3    3    0    0  0.10698940027E+02 -0.15427741897E+02 -0.15286561395E+02  0.24210772340E+02  0.51100000000E-03 0.  1.
        -12    1    3    3    0    0  0.94166533341E+01 -0.71034272351E+00  0.11959077978E+01  0.95188309293E+01  0.00000000000E+00 0.  1.
</event>
<event>
 7    1  0.2700100E-010  0.4778732E+02  0.7816164E-02  0.1312668E+00
        -11   -1    0    0    0    0  0.00000000000E+00  0.00000000000E+00  0.45593999997E+02  0.45594000000E+02  0.51100000000E-03 0. -1.
         11   -1    0    0    0    0 -0.00000000000E+00 -0.00000000000E+00 -0.45593999997E+02  0.45594000000E+02  0.51100000000E-03 0.  1.
    9900012    2    1    2    0    0 -0.78658080158E+01  0.10020816575E+01  0.42670175404E+02  0.47787320599E+02  0.20000225940E+02 0.  0.
        -12    1    1    2    0    0  0.78658080158E+01 -0.10020816575E+01 -0.42670175404E+02  0.43400679401E+02  0.00000000000E+00 0.  1.
         11    1    3    3    0    0 -0.35150135158E+01  0.86000132572E+00  0.94577861647E+01  0.10126432822E+02  0.51100000000E-03 0. -1.
        -11    1    3    3    0    0 -0.90990640288E+01 -0.52337474914E+01  0.21525270439E+02  0.23948326596E+02  0.51100000000E-03 0.  1.
        -12    1    3    3    0    0  0.47482695288E+01  0.53758278232E+01  0.11687118801E+02  0.13712561182E+02  0.00000000000E+00 0.  1.
</event>
<event>
 7    1  0.2700100E-010  0.4778727E+02  0.7816164E-02  0.1312668E+00
        -11   -1    0    0    0    0  0.00000000000E+00  0.00000000000E+00  0.45593999997E+02  0.45594000000E+02  0.51100000000E-03 0. -1.
         11   -1    0    0    0    0 -0.00000000000E+00 -0.00000000000E+00 -0.45593999997E+02  0.45594000000E+02  0.51100000000E-03 0.  1.
    9900012    2    1    2    0    0 -0.18306045747E+02  0.38304909467E+02  0.90136367806E+01  0.47787273645E+02  0.20000011856E+02 0.  0.
        -12    1    1    2    0    0  0.18306045747E+02 -0.38304909467E+02 -0.90136367806E+01  0.43400726355E+02  0.00000000000E+00 0.  1.
         11    1    3    3    0    0 -0.11502519287E+02  0.38023059113E+02  0.93710164524E+01  0.40815155566E+02  0.51100000000E-03 0. -1.
        -11    1    3    3    0    0 -0.38566908383E+01  0.39408977501E+00  0.48046671781E+00  0.39064330919E+01  0.51100000000E-03 0.  1.
         12    1    3    3    0    0 -0.29468356214E+01 -0.11223942096E+00 -0.83784638960E+00  0.30656849871E+01  0.00000000000E+00 0. -1.
</event>
<event>
 7    1  0.2700100E-010  0.4778727E+02  0.7816164E-02  0.1312668E+00
        -11   -1    0    0    0    0  0.00000000000E+00  0.00000000000E+00  0.45593999997E+02  0.45594000000E+02  0.51100000000E-03 0. -1.
         11   -1    0    0    0    0 -0.00000000000E+00 -0.00000000000E+00 -0.45593999997E+02  0.45594000000E+02  0.51100000000E-03 0.  1.
    9900012    2    1    2    0    0  0.24801099142E+02  0.18385355372E+02 -0.30504223468E+02  0.47787268897E+02  0.19999990211E+02 0.  0.
        -12    1    1    2    0    0 -0.24801099142E+02 -0.18385355372E+02  0.30504223468E+02  0.43400731103E+02  0.00000000000E+00 0.  1.
         11    1    3    3    0    0  0.73881322288E+01  0.49927901530E+00 -0.25009701600E+01  0.78159215303E+01  0.51100000000E-03 0. -1.
        -11    1    3    3    0    0  0.13661924694E+02  0.15408545088E+02 -0.28800950518E+02  0.35405736810E+02  0.51100000000E-03 0.  1.
        -12    1    3    3    0    0  0.37510422200E+01  0.24775312688E+01  0.79769720930E+00  0.45656105574E+01  0.00000000000E+00 0.  1.
</event>
<event>
 7    1  0.2700100E-010  0.4778728E+02  0.7816164E-02  0.1312668E+00
        -11   -1    0    0    0    0  0.00000000000E+00  0.00000000000E+00  0.45593999997E+02  0.45594000000E+02  0.51100000000E-03 0. -1.
         11   -1    0    0    0    0 -0.00000000000E+00 -0.00000000000E+00 -0.45593999997E+02  0.45594000000E+02  0.51100000000E-03 0.  1.
    9900012    2    1    2    0    0 -0.41969806779E+02  0.89662315450E+01 -0.64625586296E+01  0.47787278195E+02  0.20000032603E+02 0.  0.
        -12    1    1    2    0    0  0.41969806779E+02 -0.89662315450E+01  0.64625586296E+01  0.43400721805E+02  0.00000000000E+00 0.  1.
         11    1    3    3    0    0 -0.39255802879E+02  0.67869092429E+01 -0.22929146057E+01  0.39904105733E+02  0.51100000000E-03 0. -1.
        -11    1    3    3    0    0 -0.14220726885E+01  0.28043574619E+01 -0.52274759980E+01  0.61002636891E+01  0.51100000000E-03 0.  1.
         12    1    3    3    0    0 -0.12919312111E+01 -0.62503515980E+00  0.10578319742E+01  0.17829087725E+01  0.00000000000E+00 0. -1.
</event>
<event>
 7    1  0.2700100E-010  0.4778727E+02  0.7816164E-02  0.1312668E+00
        -11   -1    0    0    0    0  0.00000000000E+00  0.00000000000E+00  0.45593999997E+02  0.45594000000E+02  0.51100000000E-03 0. -1.
         11   -1    0    0    0    0 -0.00000000000E+00 -0.00000000000E+00 -0.45593999997E+02  0.45594000000E+02  0.51100000000E-03 0.  1.
    9900012    2    1    2    0    0 -0.27487583062E+02 -0.30279072467E+02 -0.14533886350E+02  0.47787270692E+02  0.19999998392E+02 0.  0.
        -12    1    1    2    0    0  0.27487583062E+02  0.30279072467E+02  0.14533886350E+02  0.43400729308E+02  0.00000000000E+00 0.  1.
         11    1    3    3    0    0 -0.30180464944E+01 -0.84966298132E+01 -0.12534898553E+01  0.91034367084E+01  0.51100000000E-03 0. -1.
        -11    1    3    3    0    0 -0.24742456664E+02 -0.16708779380E+02 -0.71101829144E+01  0.30690832043E+02  0.51100000000E-03 0.  1.
        -12    1    3    3    0    0  0.27292009657E+00 -0.50736632741E+01 -0.61702135799E+01  0.79930019404E+01  0.00000000000E+00 0.  1.
</event>
<event>
 7    1  0.2700100E-010  0.4778727E+02  0.7816164E-02  0.1312668E+00
        -11   -1    0    0    0    0  0.00000000000E+00  0.00000000000E+00  0.45593999997E+02  0.45594000000E+02  0.51100000000E-03 0.  1.
         11   -1    0    0    0    0 -0.00000000000E+00 -0.00000000000E+00 -0.45593999997E+02  0.45594000000E+02  0.51100000000E-03 0. -1.
    9900012    2    1    2    0    0  0.19338137202E+02 -0.27586708869E+02 -0.27361168611E+02  0.47787267237E+02  0.19999982640E+02 0.  0.
        -12    1    1    2    0    0 -0.19338137202E+02  0.27586708869E+02  0.27361168611E+02  0.43400732763E+02  0.00000000000E+00 0.  1.
         11    1    3    3    0    0  0.14800148771E+00 -0.63267121548E+01 -0.12157927674E+02  0.13706363366E+02  0.51100000000E-03 0. -1.
        -11    1    3    3    0    0  0.10871872750E+02 -0.16207265599E+02 -0.53603885449E+01  0.20238746031E+02  0.51100000000E-03 0.  1.
        -12    1    3    3    0    0  0.83182629646E+01 -0.50527311145E+01 -0.98428523913E+01  0.13842157840E+02  0.00000000000E+00 0.  1.
</event>
<event>
 7    1  0.2700100E-010  0.4778727E+02  0.7816164E-02  0.1312668E+00
        -11   -1    0    0    0    0  0.00000000000E+00  0.00000000000E+00  0.45593999997E+02  0.45594000000E+02  0.51100000000E-03 0.  1.
         11   -1    0    0    0    0 -0.00000000000E+00 -0.00000000000E+00 -0.45593999997E+02  0.45594000000E+02  0.51100000000E-03 0. -1.
    9900012    2    1    2    0    0  0.26260038739E+02  0.34439040196E+02 -0.28260282162E+01  0.47787267752E+02  0.19999984990E+02 0.  0.
        -12    1    1    2    0    0 -0.26260038739E+02 -0.34439040196E+02  0.28260282162E+01  0.43400732248E+02  0.00000000000E+00 0.  1.
         11    1    3    3    0    0  0.44868535761E+01  0.14065409869E+01 -0.57563485395E+01  0.74327492444E+01  0.51100000000E-03 0. -1.
        -11    1    3    3    0    0  0.19786767280E+02  0.29438681926E+02  0.48876704275E+01  0.35805606759E+02  0.51100000000E-03 0.  1.
         12    1    3    3    0    0  0.19864178827E+01  0.35938172827E+01 -0.19573501041E+01  0.45489117485E+01  0.00000000000E+00 0. -1.
</event>
<event>
 7    1  0.2700100E-010  0.4778727E+02  0.7816164E-02  0.1312668E+00
        -11   -1    0    0    0    0  0.00000000000E+00  0.00000000000E+00  0.45593999997E+02  0.45594000000E+02  0.51100000000E-03 0.  1.
         11   -1    0    0    0    0 -0.00000000000E+00 -0.00000000000E+00 -0.45593999997E+02  0.45594000000E+02  0.51100000000E-03 0. -1.
    9900012    2    1    2    0    0 -0.11228911939E+02  0.20074668569E+02 -0.36804109927E+02  0.47787270870E+02  0.19999999204E+02 0.  0.
        -12    1    1    2    0    0  0.11228911939E+02 -0.20074668569E+02  0.36804109927E+02  0.43400729130E+02  0.00000000000E+00 0.  1.
         11    1    3    3    0    0 -0.10777709047E+02  0.91804611405E+01 -0.29593367616E+02  0.32805598397E+02  0.51100000000E-03 0. -1.
        -11    1    3    3    0    0 -0.35254974165E+01  0.86049078638E+01 -0.51304830175E+01  0.10620519179E+02  0.51100000000E-03 0.  1.
         12    1    3    3    0    0  0.30742945251E+01  0.22892995646E+01 -0.20802592939E+01  0.43611532939E+01  0.00000000000E+00 0. -1.
</event>
<event>
 7    1  0.2700100E-010  0.4778727E+02  0.7816164E-02  0.1312668E+00
        -11   -1    0    0    0    0  0.00000000000E+00  0.00000000000E+00  0.45593999997E+02  0.45594000000E+02  0.51100000000E-03 0.  1.
         11   -1    0    0    0    0 -0.00000000000E+00 -0.00000000000E+00 -0.45593999997E+02  0.45594000000E+02  0.51100000000E-03 0. -1.
    9900012    2    1    2    0    0 -0.18857164931E+02  0.29440696799E+02 -0.25715284609E+02  0.47787272359E+02  0.20000005995E+02 0.  0.
        -12    1    1    2    0    0  0.18857164931E+02 -0.29440696799E+02  0.25715284609E+02  0.43400727641E+02  0.00000000000E+00 0.  1.
         11    1    3    3    0    0 -0.13805563996E+02  0.28210557950E+02 -0.26345705852E+02  0.40994211715E+02  0.51100000000E-03 0. -1.
        -11    1    3    3    0    0 -0.61455503672E+00  0.57174390932E+00  0.19453146474E+01  0.21186831593E+01  0.51100000000E-03 0.  1.
         12    1    3    3    0    0 -0.44370458985E+01  0.65839493982E+00 -0.13148934042E+01  0.46743774844E+01  0.00000000000E+00 0. -1.
</event>
<event>
 7    1  0.2700100E-010  0.4778728E+02  0.7816164E-02  0.1312668E+00
        -11   -1    0    0    0    0  0.00000000000E+00  0.00000000000E+00  0.45593999997E+02  0.45594000000E+02  0.51100000000E-03 0.  1.
         11   -1    0    0    0    0 -0.00000000000E+00 -0.00000000000E+00 -0.45593999997E+02  0.45594000000E+02  0.51100000000E-03 0. -1.
    9900012    2    1    2    0    0  0.94732003275E+01 -0.34731683815E+02 -0.24240278611E+02  0.47787280050E+02  0.20000041058E+02 0.  0.
        -12    1    1    2    0    0 -0.94732003275E+01  0.34731683815E+02  0.24240278611E+02  0.43400719950E+02  0.00000000000E+00 0.  1.
         11    1    3    3    0    0  0.75738550568E+01 -0.66496052871E+01 -0.37454905746E+01  0.10752173306E+02  0.51100000000E-03 0. -1.
        -11    1    3    3    0    0 -0.11068076069E+01 -0.24839003149E+02 -0.12337565508E+02  0.27756379869E+02  0.51100000000E-03 0.  1.
        -12    1    3    3    0    0  0.30061528776E+01 -0.32430753790E+01 -0.81572225287E+01  0.92787268750E+01  0.00000000000E+00 0.  1.
</event>
<event>
 7    1  0.2700100E-010  0.4778730E+02  0.7816164E-02  0.1312668E+00
        -11   -1    0    0    0    0  0.00000000000E+00  0.00000000000E+00  0.45593999997E+02  0.45594000000E+02  0.51100000000E-03 0.  1.
         11   -1    0    0    0    0 -0.00000000000E+00 -0.00000000000E+00 -0.45593999997E+02  0.45594000000E+02  0.51100000000E-03 0. -1.
    9900012    2    1    2    0    0 -0.16543426932E+00  0.50971272220E+01 -0.43100036146E+02  0.47787295049E+02  0.20000109447E+02 0.  0.
        -12    1    1    2    0    0  0.16543426932E+00 -0.50971272220E+01  0.43100036146E+02  0.43400704951E+02  0.00000000000E+00 0.  1.
         11    1    3    3    0    0 -0.18714791318E+01  0.56899418669E+01 -0.68515486877E+01  0.91006369156E+01  0.51100000000E-03 0. -1.
        -11    1    3    3    0    0  0.35985769860E+00 -0.65991091918E+00 -0.37090039328E+02  0.37097654880E+02  0.51100000000E-03 0.  1.
        -12    1    3    3    0    0  0.13461871638E+01  0.67096274297E-01  0.84155186956E+00  0.15890032534E+01  0.00000000000E+00 0.  1.
</event>
<event>
 7    1  0.2700100E-010  0.4778727E+02  0.7816164E-02  0.1312668E+00
        -11   -1    0    0    0    0  0.00000000000E+00  0.00000000000E+00  0.45593999997E+02  0.45594000000E+02  0.51100000000E-03 0.  1.
         11   -1    0    0    0    0 -0.00000000000E+00 -0.00000000000E+00 -0.45593999997E+02  0.45594000000E+02  0.51100000000E-03 0. -1.
    9900012    2    1    2    0    0 -0.25596086401E+02  0.30331965577E+02 -0.17562331550E+02  0.47787271155E+02  0.20000000504E+02 0.  0.
        -12    1    1    2    0    0  0.25596086401E+02 -0.30331965577E+02  0.17562331550E+02  0.43400728845E+02  0.00000000000E+00 0.  1.
         11    1    3    3    0    0 -0.15574656797E+02  0.19556081033E+02 -0.87399384518E+00  0.25015477313E+02  0.51100000000E-03 0. -1.
        -11    1    3    3    0    0 -0.70755026758E+01  0.10004885027E+02 -0.11794940056E+02  0.17008264864E+02  0.51100000000E-03 0.  1.
         12    1    3    3    0    0 -0.29459269287E+01  0.77099951714E+00 -0.48933976490E+01  0.57635289776E+01  0.00000000000E+00 0. -1.
</event>
<event>
 7    1  0.2700100E-010  0.4778728E+02  0.7816164E-02  0.1312668E+00
        -11   -1    0    0    0    0  0.00000000000E+00  0.00000000000E+00  0.45593999997E+02  0.45594000000E+02  0.51100000000E-03 0. -1.
         11   -1    0    0    0    0 -0.00000000000E+00 -0.00000000000E+00 -0.45593999997E+02  0.45594000000E+02  0.51100000000E-03 0.  1.
    9900012    2    1    2    0    0  0.34579081390E+02 -0.30411451988E+01 -0.26051131507E+02  0.47787275505E+02  0.20000020337E+02 0.  0.
        -12    1    1    2    0    0 -0.34579081390E+02  0.30411451988E+01  0.26051131507E+02  0.43400724495E+02  0.00000000000E+00 0.  1.
         11    1    3    3    0    0  0.81120876425E+01 -0.61560213799E+01 -0.14605737289E+01  0.10287654788E+02  0.51100000000E-03 0. -1.
        -11    1    3    3    0    0  0.46261451333E+01 -0.29232748442E+01 -0.32064157114E+01  0.63425433845E+01  0.51100000000E-03 0.  1.
         12    1    3    3    0    0  0.21840848615E+02  0.60381510253E+01 -0.21384142066E+02  0.31157077333E+02  0.00000000000E+00 0. -1.
</event>
<event>
 7    1  0.2700100E-010  0.4778727E+02  0.7816164E-02  0.1312668E+00
        -11   -1    0    0    0    0  0.00000000000E+00  0.00000000000E+00  0.45593999997E+02  0.45594000000E+02  0.51100000000E-03 0.  1.
         11   -1    0    0    0    0 -0.00000000000E+00 -0.00000000000E+00 -0.45593999997E+02  0.45594000000E+02  0.51100000000E-03 0. -1.
    9900012    2    1    2    0    0 -0.15933271172E+02 -0.12857865563E+02 -0.38267870094E+02  0.47787265921E+02  0.19999976639E+02 0.  0.
        -12    1    1    2    0    0  0.15933271172E+02  0.12857865563E+02  0.38267870094E+02  0.43400734079E+02  0.00000000000E+00 0.  1.
         11    1    3    3    0    0 -0.13060391730E+02 -0.10171210330E+02 -0.33092167516E+02  0.37001606760E+02  0.51100000000E-03 0. -1.
        -11    1    3    3    0    0 -0.51122361508E+01  0.92681485355E+00 -0.25336156133E+01  0.57804111075E+01  0.51100000000E-03 0.  1.
         12    1    3    3    0    0  0.22393567091E+01 -0.36134700869E+01 -0.26420869653E+01  0.50052480529E+01  0.00000000000E+00 0. -1.
</event>
<event>
 7    1  0.2700100E-010  0.4778727E+02  0.7816164E-02  0.1312668E+00
        -11   -1    0    0    0    0  0.00000000000E+00  0.00000000000E+00  0.45593999997E+02  0.45594000000E+02  0.51100000000E-03 0. -1.
         11   -1    0    0    0    0 -0.00000000000E+00 -0.00000000000E+00 -0.45593999997E+02  0.45594000000E+02  0.51100000000E-03 0.  1.
    9900012    2    1    2    0    0 -0.24675827302E+02  0.19422839679E+02  0.29957978837E+02  0.47787266709E+02  0.19999980231E+02 0.  0.
        -12    1    1    2    0    0  0.24675827302E+02 -0.19422839679E+02 -0.29957978837E+02  0.43400733291E+02  0.00000000000E+00 0.  1.
         11    1    3    3    0    0 -0.56446664136E+01  0.99638691222E+01  0.18487905015E+02  0.21747266010E+02  0.51100000000E-03 0. -1.
        -11    1    3    3    0    0 -0.92192945961E+01  0.84173907100E+01  0.25563927738E+01  0.12742958977E+02  0.51100000000E-03 0.  1.
        -12    1    3    3    0    0 -0.98118662922E+01  0.10415798467E+01  0.89136810481E+01  0.13297041721E+02  0.00000000000E+00 0.  1.
</event>
<event>
 7    1  0.2700100E-010  0.4778727E+02  0.7816164E-02  0.1312668E+00
        -11   -1    0    0    0    0  0.00000000000E+00  0.00000000000E+00  0.45593999997E+02  0.45594000000E+02  0.51100000000E-03 0.  1.
         11   -1    0    0    0    0 -0.00000000000E+00 -0.00000000000E+00 -0.45593999997E+02  0.45594000000E+02  0.51100000000E-03 0. -1.
    9900012    2    1    2    0    0  0.27688613100E+02 -0.28996243138E+01 -0.33294989018E+02  0.47787269473E+02  0.19999992834E+02 0.  0.
        -12    1    1    2    0    0 -0.27688613100E+02  0.28996243138E+01  0.33294989018E+02  0.43400730527E+02  0.00000000000E+00 0.  1.
         11    1    3    3    0    0  0.76211407620E+01  0.50193228667E+01 -0.33227650129E+01  0.97116505367E+01  0.51100000000E-03 0. -1.
        -11    1    3    3    0    0  0.80764855665E+01 -0.81706047640E+01 -0.14622624392E+02  0.18595955089E+02  0.51100000000E-03 0.  1.
        -12    1    3    3    0    0  0.11990986772E+02  0.25165758354E+00 -0.15349599613E+02  0.19479663847E+02  0.00000000000E+00 0.  1.
</event>
<event>
 7    1  0.2700100E-010  0.4778727E+02  0.7816164E-02  0.1312668E+00
        -11   -1    0    0    0    0  0.00000000000E+00  0.00000000000E+00  0.45593999997E+02  0.45594000000E+02  0.51100000000E-03 0.  1.
         11   -1    0    0    0    0 -0.00000000000E+00 -0.00000000000E+00 -0.45593999997E+02  0.45594000000E+02  0.51100000000E-03 0. -1.
    9900012    2    1    2    0    0 -0.34794339872E+02 -0.15228789486E+01 -0.25897059872E+02  0.47787274689E+02  0.20000016619E+02 0.  0.
        -12    1    1    2    0    0  0.34794339872E+02  0.15228789486E+01  0.25897059872E+02  0.43400725311E+02  0.00000000000E+00 0.  1.
         11    1    3    3    0    0 -0.19107136171E+02 -0.24892502400E+01 -0.37454987252E+01  0.19629258274E+02  0.51100000000E-03 0.  1.
        -11    1    3    3    0    0 -0.11812625089E+02 -0.21856254226E+01 -0.18113750176E+02  0.21735294240E+02  0.51100000000E-03 0. -1.
         12    1    3    3    0    0 -0.38745786117E+01  0.31519967139E+01 -0.40378109708E+01  0.64227221752E+01  0.00000000000E+00 0. -1.
</event>
<event>
 7    1  0.2700100E-010  0.4778727E+02  0.7816164E-02  0.1312668E+00
        -11   -1    0    0    0    0  0.00000000000E+00  0.00000000000E+00  0.45593999997E+02  0.45594000000E+02  0.51100000000E-03 0.  1.
         11   -1    0    0    0    0 -0.00000000000E+00 -0.00000000000E+00 -0.45593999997E+02  0.45594000000E+02  0.51100000000E-03 0. -1.
    9900012    2    1    2    0    0  0.69212460110E+01 -0.39011669154E+02 -0.17714661977E+02  0.47787271602E+02  0.20000002542E+02 0.  0.
        -12    1    1    2    0    0 -0.69212460110E+01  0.39011669154E+02  0.17714661977E+02  0.43400728398E+02  0.00000000000E+00 0.  1.
         11    1    3    3    0    0  0.79310128934E+01 -0.16277370077E+02  0.89658145893E-02  0.18106734184E+02  0.51100000000E-03 0. -1.
        -11    1    3    3    0    0 -0.12250934752E+01 -0.17372606391E+02 -0.16870543058E+02  0.24247134473E+02  0.51100000000E-03 0.  1.
        -12    1    3    3    0    0  0.21532659272E+00 -0.53616926862E+01 -0.85308473351E+00  0.54334029452E+01  0.00000000000E+00 0.  1.
</event>
<event>
 7    1  0.2700100E-010  0.4778727E+02  0.7816164E-02  0.1312668E+00
        -11   -1    0    0    0    0  0.00000000000E+00  0.00000000000E+00  0.45593999997E+02  0.45594000000E+02  0.51100000000E-03 0.  1.
         11   -1    0    0    0    0 -0.00000000000E+00 -0.00000000000E+00 -0.45593999997E+02  0.45594000000E+02  0.51100000000E-03 0. -1.
    9900012    2    1    2    0    0 -0.34840788213E+02 -0.17151778822E+02 -0.19379354026E+02  0.47787269562E+02  0.19999993242E+02 0.  0.
        -12    1    1    2    0    0  0.34840788213E+02  0.17151778822E+02  0.19379354026E+02  0.43400730438E+02  0.00000000000E+00 0.  1.
         11    1    3    3    0    0 -0.34184194764E+02 -0.97650041769E+01 -0.13089157147E+02  0.37884568274E+02  0.51100000000E-03 0. -1.
        -11    1    3    3    0    0 -0.51566276780E+00 -0.35089623547E+01 -0.18305027260E+01  0.39911734349E+01  0.51100000000E-03 0.  1.
         12    1    3    3    0    0 -0.14093068094E+00 -0.38778122907E+01 -0.44596941530E+01  0.59115278530E+01  0.00000000000E+00 0. -1.
</event>
<event>
 7    1  0.2700100E-010  0.4778727E+02  0.7816164E-02  0.1312668E+00
        -11   -1    0    0    0    0  0.00000000000E+00  0.00000000000E+00  0.45593999997E+02  0.45594000000E+02  0.51100000000E-03 0.  1.
         11   -1    0    0    0    0 -0.00000000000E+00 -0.00000000000E+00 -0.45593999997E+02  0.45594000000E+02  0.51100000000E-03 0. -1.
    9900012    2    1    2    0    0 -0.24741787466E+02 -0.11944569924E+01 -0.35637625289E+02  0.47787272924E+02  0.20000008569E+02 0.  0.
        -12    1    1    2    0    0  0.24741787466E+02  0.11944569924E+01  0.35637625289E+02  0.43400727076E+02  0.00000000000E+00 0.  1.
         11    1    3    3    0    0 -0.15699706985E+02  0.67579794814E+01 -0.15779014122E+02  0.23262166129E+02  0.51100000000E-03 0. -1.
        -11    1    3    3    0    0 -0.66313895375E+01 -0.43312214666E+01 -0.18236507875E+02  0.19882279203E+02  0.51100000000E-03 0.  1.
         12    1    3    3    0    0 -0.24106909435E+01 -0.36212150073E+01 -0.16221032918E+01  0.46428275914E+01  0.00000000000E+00 0. -1.
</event>
<event>
 7    1  0.2700100E-010  0.4778728E+02  0.7816164E-02  0.1312668E+00
        -11   -1    0    0    0    0  0.00000000000E+00  0.00000000000E+00  0.45593999997E+02  0.45594000000E+02  0.51100000000E-03 0.  1.
         11   -1    0    0    0    0 -0.00000000000E+00 -0.00000000000E+00 -0.45593999997E+02  0.45594000000E+02  0.51100000000E-03 0. -1.
    9900012    2    1    2    0    0 -0.38651626584E+02 -0.73275957298E+01 -0.18329773028E+02  0.47787280236E+02  0.20000041909E+02 0.  0.
        -12    1    1    2    0    0  0.38651626584E+02  0.73275957298E+01  0.18329773028E+02  0.43400719764E+02  0.00000000000E+00 0.  1.
         11    1    3    3    0    0 -0.13100213354E+02 -0.63534654556E+01 -0.12697822831E+02  0.19318820309E+02  0.51100000000E-03 0. -1.
        -11    1    3    3    0    0 -0.22362946283E+02 -0.35628217580E+01 -0.15815328115E+01  0.22700139022E+02  0.51100000000E-03 0.  1.
        -12    1    3    3    0    0 -0.31884669464E+01  0.25886914838E+01 -0.40504173854E+01  0.57683209049E+01  0.00000000000E+00 0.  1.
</event>
<event>
 7    1  0.2700100E-010  0.4778727E+02  0.7816164E-02  0.1312668E+00
        -11   -1    0    0    0    0  0.00000000000E+00  0.00000000000E+00  0.45593999997E+02  0.45594000000E+02  0.51100000000E-03 0.  1.
         11   -1    0    0    0    0 -0.00000000000E+00 -0.00000000000E+00 -0.45593999997E+02  0.45594000000E+02  0.51100000000E-03 0. -1.
    9900012    2    1    2    0    0  0.89356286146E+01  0.13173311287E+02  0.40376249534E+02  0.47787272870E+02  0.20000008323E+02 0.  0.
        -12    1    1    2    0    0 -0.89356286146E+01 -0.13173311287E+02 -0.40376249534E+02  0.43400727130E+02  0.00000000000E+00 0.  1.
         11    1    3    3    0    0  0.84069857408E+01  0.87844568859E+01  0.12065858229E+02  0.17129770200E+02  0.51100000000E-03 0. -1.
        -11    1    3    3    0    0 -0.51905902078E+01  0.19812359329E+01  0.13009460254E+02  0.14146150674E+02  0.51100000000E-03 0.  1.
        -12    1    3    3    0    0  0.57192330816E+01  0.24076184680E+01  0.15300931051E+02  0.16511351996E+02  0.00000000000E+00 0.  1.
</event>
<event>
 7    1  0.2700100E-010  0.4778728E+02  0.7816164E-02  0.1312668E+00
        -11   -1    0    0    0    0  0.00000000000E+00  0.00000000000E+00  0.45593999997E+02  0.45594000000E+02  0.51100000000E-03 0.  1.
         11   -1    0    0    0    0 -0.00000000000E+00 -0.00000000000E+00 -0.45593999997E+02  0.45594000000E+02  0.51100000000E-03 0. -1.
    9900012    2    1    2    0    0  0.21015016929E+02 -0.91335231671E+01 -0.36858792374E+02  0.47787276996E+02  0.20000027136E+02 0.  0.
        -12    1    1    2    0    0 -0.21015016929E+02  0.91335231671E+01  0.36858792374E+02  0.43400723004E+02  0.00000000000E+00 0.  1.
         11    1    3    3    0    0  0.39835439384E+01 -0.49649371086E+01 -0.19099837781E+02  0.20132635852E+02  0.51100000000E-03 0. -1.
        -11    1    3    3    0    0  0.10545458109E+02  0.34443519360E+01 -0.10701381713E+02  0.15413948807E+02  0.51100000000E-03 0.  1.
        -12    1    3    3    0    0  0.64860148814E+01 -0.76129379944E+01 -0.70575728806E+01  0.12240692338E+02  0.00000000000E+00 0.  1.
</event>
<event>
 7    1  0.2700100E-010  0.4778727E+02  0.7816164E-02  0.1312668E+00
        -11   -1    0    0    0    0  0.00000000000E+00  0.00000000000E+00  0.45593999997E+02  0.45594000000E+02  0.51100000000E-03 0. -1.
         11   -1    0    0    0    0 -0.00000000000E+00 -0.00000000000E+00 -0.45593999997E+02  0.45594000000E+02  0.51100000000E-03 0.  1.
    9900012    2    1    2    0    0  0.57012919657E+01 -0.42928625961E+02 -0.28725575513E+01  0.47787271390E+02  0.20000001575E+02 0.  0.
        -12    1    1    2    0    0 -0.57012919657E+01  0.42928625961E+02  0.28725575513E+01  0.43400728610E+02  0.00000000000E+00 0.  1.
         11    1    3    3    0    0 -0.59284940115E+01 -0.20421972841E+02 -0.20694690590E+01  0.21365549804E+02  0.51100000000E-03 0. -1.
        -11    1    3    3    0    0  0.26667028707E+01 -0.29179476447E+01 -0.27144078859E+01  0.47951781082E+01  0.51100000000E-03 0.  1.
         12    1    3    3    0    0  0.89630831066E+01 -0.19588705476E+02  0.19113193935E+01  0.21626543478E+02  0.00000000000E+00 0. -1.
</event>
<event>
 7    1  0.2700100E-010  0.4778727E+02  0.7816164E-02  0.1312668E+00
        -11   -1    0    0    0    0  0.00000000000E+00  0.00000000000E+00  0.45593999997E+02  0.45594000000E+02  0.51100000000E-03 0.  1.
         11   -1    0    0    0    0 -0.00000000000E+00 -0.00000000000E+00 -0.45593999997E+02  0.45594000000E+02  0.51100000000E-03 0. -1.
    9900012    2    1    2    0    0  0.28397658314E+02 -0.32578317093E+01 -0.32658578944E+02  0.47787271391E+02  0.20000001579E+02 0.  0.
        -12    1    1    2    0    0 -0.28397658314E+02  0.32578317093E+01  0.32658578944E+02  0.43400728609E+02  0.00000000000E+00 0.  1.
         11    1    3    3    0    0  0.87624042272E+00 -0.15172476332E+01 -0.13200351631E+02  0.13316122600E+02  0.51100000000E-03 0. -1.
        -11    1    3    3    0    0  0.10024649196E+02 -0.30016164070E+01 -0.43977782749E+01  0.11350935934E+02  0.51100000000E-03 0.  1.
         12    1    3    3    0    0  0.17496768695E+02  0.12610323309E+01 -0.15060449039E+02  0.23120212857E+02  0.00000000000E+00 0. -1.
</event>
<event>
 7    1  0.2700100E-010  0.4778727E+02  0.7816164E-02  0.1312668E+00
        -11   -1    0    0    0    0  0.00000000000E+00  0.00000000000E+00  0.45593999997E+02  0.45594000000E+02  0.51100000000E-03 0.  1.
         11   -1    0    0    0    0 -0.00000000000E+00 -0.00000000000E+00 -0.45593999997E+02  0.45594000000E+02  0.51100000000E-03 0. -1.
    9900012    2    1    2    0    0 -0.27132102448E+01  0.25825345369E+02 -0.34775183822E+02  0.47787269786E+02  0.19999994263E+02 0.  0.
        -12    1    1    2    0    0  0.27132102448E+01 -0.25825345369E+02  0.34775183822E+02  0.43400730214E+02  0.00000000000E+00 0.  1.
         11    1    3    3    0    0  0.31043178643E+01 -0.20643427708E+01 -0.24224801831E+01  0.44459769429E+01  0.51100000000E-03 0. -1.
        -11    1    3    3    0    0 -0.53676394938E+01  0.18591911449E+02 -0.19504514852E+02  0.27475385802E+02  0.51100000000E-03 0.  1.
         12    1    3    3    0    0 -0.44988861531E+00  0.92977766905E+01 -0.12848188787E+02  0.15865907041E+02  0.00000000000E+00 0. -1.
</event>
<event>
 7    1  0.2700100E-010  0.4778727E+02  0.7816164E-02  0.1312668E+00
        -11   -1    0    0    0    0  0.00000000000E+00  0.00000000000E+00  0.45593999997E+02  0.45594000000E+02  0.51100000000E-03 0.  1.
         11   -1    0    0    0    0 -0.00000000000E+00 -0.00000000000E+00 -0.45593999997E+02  0.45594000000E+02  0.51100000000E-03 0. -1.
    9900012    2    1    2    0    0 -0.11576739723E+02 -0.41645896764E+02 -0.39015107764E+01  0.47787269520E+02  0.19999993047E+02 0.  0.
        -12    1    1    2    0    0  0.11576739723E+02  0.41645896764E+02  0.39015107764E+01  0.43400730480E+02  0.00000000000E+00 0.  1.
         11    1    3    3    0    0 -0.46675143175E+01 -0.56786007219E+01  0.38904181019E+01  0.83167030326E+01  0.51100000000E-03 0. -1.
        -11    1    3    3    0    0 -0.16061421399E+01 -0.16040242619E+02 -0.96139884422E+01  0.18769599087E+02  0.51100000000E-03 0.  1.
         12    1    3    3    0    0 -0.53030832659E+01 -0.19927053423E+02  0.18220595639E+01  0.20700967400E+02  0.00000000000E+00 0. -1.
</event>
<event>
 7    1  0.2700100E-010  0.4778727E+02  0.7816164E-02  0.1312668E+00
        -11   -1    0    0    0    0  0.00000000000E+00  0.00000000000E+00  0.45593999997E+02  0.45594000000E+02  0.51100000000E-03 0. -1.
         11   -1    0    0    0    0 -0.00000000000E+00 -0.00000000000E+00 -0.45593999997E+02  0.45594000000E+02  0.51100000000E-03 0.  1.
    9900012    2    1    2    0    0 -0.28000000274E+02 -0.96682211948E+01  0.31719845346E+02  0.47787272988E+02  0.20000008861E+02 0.  0.
        -12    1    1    2    0    0  0.28000000274E+02  0.96682211948E+01 -0.31719845346E+02  0.43400727012E+02  0.00000000000E+00 0.  1.
         11    1    3    3    0    0 -0.12835370511E+02 -0.19805387662E+01  0.97133263235E+01  0.16217829031E+02  0.51100000000E-03 0. -1.
        -11    1    3    3    0    0 -0.13360579093E+01  0.41350097973E+01  0.31516393839E+01  0.53680711460E+01  0.51100000000E-03 0.  1.
        -12    1    3    3    0    0 -0.13828571854E+02 -0.11822692226E+02  0.18854879639E+02  0.26201372811E+02  0.00000000000E+00 0.  1.
</event>
<event>
 7    1  0.2700100E-010  0.4778727E+02  0.7816164E-02  0.1312668E+00
        -11   -1    0    0    0    0  0.00000000000E+00  0.00000000000E+00  0.45593999997E+02  0.45594000000E+02  0.51100000000E-03 0.  1.
         11   -1    0    0    0    0 -0.00000000000E+00 -0.00000000000E+00 -0.45593999997E+02  0.45594000000E+02  0.51100000000E-03 0. -1.
    9900012    2    1    2    0    0  0.12006089851E+01  0.18021881555E+02 -0.39463829042E+02  0.47787268677E+02  0.19999989204E+02 0.  0.
        -12    1    1    2    0    0 -0.12006089851E+01 -0.18021881555E+02  0.39463829042E+02  0.43400731323E+02  0.00000000000E+00 0.  1.
         11    1    3    3    0    0 -0.22299017677E+01  0.81684211269E+01 -0.17695376913E+02  0.19616878700E+02  0.51100000000E-03 0. -1.
        -11    1    3    3    0    0  0.65298141412E+01  0.56329456039E+01 -0.21220113738E+02  0.22905496638E+02  0.51100000000E-03 0.  1.
        -12    1    3    3    0    0 -0.30993033884E+01  0.42205148244E+01 -0.54833839155E+00  0.52648933387E+01  0.00000000000E+00 0.  1.
</event>
<event>
 7    1  0.2700100E-010  0.4778727E+02  0.7816164E-02  0.1312668E+00
        -11   -1    0    0    0    0  0.00000000000E+00  0.00000000000E+00  0.45593999997E+02  0.45594000000E+02  0.51100000000E-03 0.  1.
         11   -1    0    0    0    0 -0.00000000000E+00 -0.00000000000E+00 -0.45593999997E+02  0.45594000000E+02  0.51100000000E-03 0. -1.
    9900012    2    1    2    0    0  0.10728409666E+02 -0.12391042735E+02 -0.40186895294E+02  0.47787271119E+02  0.20000000340E+02 0.  0.
        -12    1    1    2    0    0 -0.10728409666E+02  0.12391042735E+02  0.40186895294E+02  0.43400728881E+02  0.00000000000E+00 0.  1.
         11    1    3    3    0    0  0.90716594201E+01 -0.95752376378E+01 -0.36361720943E+02  0.38680161978E+02  0.51100000000E-03 0. -1.
        -11    1    3    3    0    0  0.33647842155E+01  0.14526219380E+01 -0.15878797779E+01  0.39941514446E+01  0.51100000000E-03 0.  1.
         12    1    3    3    0    0 -0.17080339698E+01 -0.42684270353E+01 -0.22372945732E+01  0.51129576964E+01  0.00000000000E+00 0. -1.
</event>
<event>
 7    1  0.2700100E-010  0.4778727E+02  0.7816164E-02  0.1312668E+00
        -11   -1    0    0    0    0  0.00000000000E+00  0.00000000000E+00  0.45593999997E+02  0.45594000000E+02  0.51100000000E-03 0. -1.
         11   -1    0    0    0    0 -0.00000000000E+00 -0.00000000000E+00 -0.45593999997E+02  0.45594000000E+02  0.51100000000E-03 0.  1.
    9900012    2    1    2    0    0  0.28893161379E+01  0.29957418408E+01  0.43200706604E+02  0.47787266504E+02  0.19999979300E+02 0.  0.
        -12    1    1    2    0    0 -0.28893161379E+01 -0.29957418408E+01 -0.43200706604E+02  0.43400733496E+02  0.00000000000E+00 0.  1.
         11    1    3    3    0    0  0.96472271079E+00 -0.45866231163E+01  0.24023861424E+02  0.24476799617E+02  0.51100000000E-03 0. -1.
        -11    1    3    3    0    0 -0.13516467012E+01 -0.60381900976E+00 -0.64586266547E+00  0.16151424225E+01  0.51100000000E-03 0.  1.
         12    1    3    3    0    0  0.32762401283E+01  0.81861839668E+01  0.19822707845E+02  0.21695324465E+02  0.00000000000E+00 0. -1.
</event>
<event>
 7    1  0.2700100E-010  0.4778727E+02  0.7816164E-02  0.1312668E+00
        -11   -1    0    0    0    0  0.00000000000E+00  0.00000000000E+00  0.45593999997E+02  0.45594000000E+02  0.51100000000E-03 0. -1.
         11   -1    0    0    0    0 -0.00000000000E+00 -0.00000000000E+00 -0.45593999997E+02  0.45594000000E+02  0.51100000000E-03 0.  1.
    9900012    2    1    2    0    0 -0.10129580897E+02 -0.26551911271E+02  0.32802607869E+02  0.47787268620E+02  0.19999988945E+02 0.  0.
        -12    1    1    2    0    0  0.10129580897E+02  0.26551911271E+02 -0.32802607869E+02  0.43400731380E+02  0.00000000000E+00 0.  1.
         11    1    3    3    0    0 -0.93513102379E+00 -0.78756911988E+01  0.13415725710E+01  0.80436806945E+01  0.51100000000E-03 0. -1.
        -11    1    3    3    0    0 -0.12325193460E+02 -0.15135290591E+02  0.24398178047E+02  0.31245135740E+02  0.51100000000E-03 0.  1.
        -12    1    3    3    0    0  0.31307435869E+01 -0.35409294814E+01  0.70628572512E+01  0.84984521855E+01  0.00000000000E+00 0.  1.
</event>
<event>
 7    1  0.2700100E-010  0.4778726E+02  0.7816164E-02  0.1312668E+00
        -11   -1    0    0    0    0  0.00000000000E+00  0.00000000000E+00  0.45593999997E+02  0.45594000000E+02  0.51100000000E-03 0.  1.
         11   -1    0    0    0    0 -0.00000000000E+00 -0.00000000000E+00 -0.45593999997E+02  0.45594000000E+02  0.51100000000E-03 0. -1.
    9900012    2    1    2    0    0  0.15788973181E+02 -0.40203595565E+02  0.42430181410E+01  0.47787262985E+02  0.19999963256E+02 0.  0.
        -12    1    1    2    0    0 -0.15788973181E+02  0.40203595565E+02 -0.42430181410E+01  0.43400737015E+02  0.00000000000E+00 0.  1.
         11    1    3    3    0    0  0.14310714865E+02 -0.28872905288E+02 -0.26923946722E+01  0.32337133593E+02  0.51100000000E-03 0. -1.
        -11    1    3    3    0    0  0.29714195238E+01 -0.65088667225E+01  0.75064357300E+01  0.10370210105E+02  0.51100000000E-03 0.  1.
         12    1    3    3    0    0 -0.14931612083E+01 -0.48218235549E+01 -0.57102291679E+00  0.50799192868E+01  0.00000000000E+00 0. -1.
</event>
<event>
 7    1  0.2700100E-010  0.4778727E+02  0.7816164E-02  0.1312668E+00
        -11   -1    0    0    0    0  0.00000000000E+00  0.00000000000E+00  0.45593999997E+02  0.45594000000E+02  0.51100000000E-03 0.  1.
         11   -1    0    0    0    0 -0.00000000000E+00 -0.00000000000E+00 -0.45593999997E+02  0.45594000000E+02  0.51100000000E-03 0. -1.
    9900012    2    1    2    0    0 -0.27933154984E+02 -0.17944811216E+02 -0.27952562090E+02  0.47787272767E+02  0.20000007855E+02 0.  0.
        -12    1    1    2    0    0  0.27933154984E+02  0.17944811216E+02  0.27952562090E+02  0.43400727233E+02  0.00000000000E+00 0.  1.
         11    1    3    3    0    0 -0.11114764229E+02 -0.16186617087E+02 -0.11101238534E+02  0.22556197681E+02  0.51100000000E-03 0. -1.
        -11    1    3    3    0    0 -0.87920466090E+01  0.14446602980E+01 -0.13022988032E+02  0.15779269453E+02  0.51100000000E-03 0.  1.
        -12    1    3    3    0    0 -0.80263441460E+01 -0.32028544276E+01 -0.38283355243E+01  0.94518056328E+01  0.00000000000E+00 0.  1.
</event>
<event>
 7    1  0.2700100E-010  0.4778727E+02  0.7816164E-02  0.1312668E+00
        -11   -1    0    0    0    0  0.00000000000E+00  0.00000000000E+00  0.45593999997E+02  0.45594000000E+02  0.51100000000E-03 0.  1.
         11   -1    0    0    0    0 -0.00000000000E+00 -0.00000000000E+00 -0.45593999997E+02  0.45594000000E+02  0.51100000000E-03 0. -1.
    9900012    2    1    2    0    0 -0.12858317096E+02  0.12201144552E+01 -0.41434270812E+02  0.47787265035E+02  0.19999972598E+02 0.  0.
        -12    1    1    2    0    0  0.12858317096E+02 -0.12201144552E+01  0.41434270812E+02  0.43400734965E+02  0.00000000000E+00 0.  1.
         11    1    3    3    0    0 -0.79793314519E+01  0.81258698935E+01 -0.18490062065E+02  0.21715936254E+02  0.51100000000E-03 0. -1.
        -11    1    3    3    0    0 -0.66735152762E+01 -0.54152724726E+01 -0.11306068605E+02  0.14201696013E+02  0.51100000000E-03 0.  1.
         12    1    3    3    0    0  0.17945296321E+01 -0.14904829658E+01 -0.11638140142E+02  0.11869632767E+02  0.00000000000E+00 0. -1.
</event>
<event>
 7    1  0.2700100E-010  0.4778727E+02  0.7816164E-02  0.1312668E+00
        -11   -1    0    0    0    0  0.00000000000E+00  0.00000000000E+00  0.45593999997E+02  0.45594000000E+02  0.51100000000E-03 0.  1.
         11   -1    0    0    0    0 -0.00000000000E+00 -0.00000000000E+00 -0.45593999997E+02  0.45594000000E+02  0.51100000000E-03 0. -1.
    9900012    2    1    2    0    0 -0.28888997477E+02  0.20187188322E+02 -0.25328367794E+02  0.47787274630E+02  0.20000016348E+02 0.  0.
        -12    1    1    2    0    0  0.28888997477E+02 -0.20187188322E+02  0.25328367794E+02  0.43400725370E+02  0.00000000000E+00 0.  1.
         11    1    3    3    0    0 -0.17891700332E+02  0.46882132442E+01 -0.15298895628E+02  0.24003093382E+02  0.51100000000E-03 0. -1.
        -11    1    3    3    0    0 -0.91020428108E+01  0.42725043820E+01 -0.34267247215E+01  0.10622801872E+02  0.51100000000E-03 0.  1.
         12    1    3    3    0    0 -0.18952543334E+01  0.11226470696E+02 -0.66027474439E+01  0.13161379376E+02  0.00000000000E+00 0. -1.
</event>
<event>
 7    1  0.2700100E-010  0.4778727E+02  0.7816164E-02  0.1312668E+00
        -11   -1    0    0    0    0  0.00000000000E+00  0.00000000000E+00  0.45593999997E+02  0.45594000000E+02  0.51100000000E-03 0.  1.
         11   -1    0    0    0    0 -0.00000000000E+00 -0.00000000000E+00 -0.45593999997E+02  0.45594000000E+02  0.51100000000E-03 0. -1.
    9900012    2    1    2    0    0  0.25773693126E+02 -0.10988924972E+02 -0.33144889875E+02  0.47787268967E+02  0.19999990527E+02 0.  0.
        -12    1    1    2    0    0 -0.25773693126E+02  0.10988924972E+02  0.33144889875E+02  0.43400731033E+02  0.00000000000E+00 0.  1.
         11    1    3    3    0    0  0.41400646130E+01  0.51003878284E+01 -0.33781853370E+01  0.73868956560E+01  0.51100000000E-03 0. -1.
        -11    1    3    3    0    0  0.17415126752E+02 -0.14915688714E+02 -0.24648662560E+02  0.33664832925E+02  0.51100000000E-03 0.  1.
         12    1    3    3    0    0  0.42185017609E+01 -0.11736240864E+01 -0.51180419783E+01  0.67355403862E+01  0.00000000000E+00 0. -1.
</event>
<event>
 7    1  0.2700100E-010  0.4778728E+02  0.7816164E-02  0.1312668E+00
        -11   -1    0    0    0    0  0.00000000000E+00  0.00000000000E+00  0.45593999997E+02  0.45594000000E+02  0.51100000000E-03 0.  1.
         11   -1    0    0    0    0 -0.00000000000E+00 -0.00000000000E+00 -0.45593999997E+02  0.45594000000E+02  0.51100000000E-03 0. -1.
    9900012    2    1    2    0    0 -0.37920043590E+02 -0.20504506302E+02 -0.50257540616E+01  0.47787277788E+02  0.20000030749E+02 0.  0.
        -12    1    1    2    0    0  0.37920043590E+02  0.20504506302E+02  0.50257540616E+01  0.43400722212E+02  0.00000000000E+00 0.  1.
         11    1    3    3    0    0 -0.16700214607E+02 -0.18049003960E+02 -0.56411074414E+01  0.25228670304E+02  0.51100000000E-03 0. -1.
        -11    1    3    3    0    0 -0.11930889584E+02 -0.49170704054E+00 -0.31426839676E+01  0.12347646127E+02  0.51100000000E-03 0.  1.
         12    1    3    3    0    0 -0.92889393991E+01 -0.19637953012E+01  0.37580373475E+01  0.10210961358E+02  0.00000000000E+00 0. -1.
</event>
<event>
 7    1  0.2700100E-010  0.4778724E+02  0.7816164E-02  0.1312668E+00
        -11   -1    0    0    0    0  0.00000000000E+00  0.00000000000E+00  0.45593999997E+02  0.45594000000E+02  0.51100000000E-03 0.  1.
         11   -1    0    0    0    0 -0.00000000000E+00 -0.00000000000E+00 -0.45593999997E+02  0.45594000000E+02  0.51100000000E-03 0. -1.
    9900012    2    1    2    0    0  0.27693363927E+02 -0.28457783280E+02 -0.17517360699E+02  0.47787242395E+02  0.19999869376E+02 0.  0.
        -12    1    1    2    0    0 -0.27693363927E+02  0.28457783280E+02  0.17517360699E+02  0.43400757605E+02  0.00000000000E+00 0.  1.
         11    1    3    3    0    0  0.18887153581E+02 -0.19268361936E+02 -0.44104050000E+01  0.27339458930E+02  0.51100000000E-03 0. -1.
        -11    1    3    3    0    0  0.89099861037E+01 -0.91564279719E+01 -0.14342362503E+02  0.19207586730E+02  0.51100000000E-03 0.  1.
        -12    1    3    3    0    0 -0.10377575734E+00 -0.32993372075E-01  0.12354068036E+01  0.12401967347E+01  0.00000000000E+00 0.  1.
</event>
<event>
 7    1  0.2700100E-010  0.4778727E+02  0.7816164E-02  0.1312668E+00
        -11   -1    0    0    0    0  0.00000000000E+00  0.00000000000E+00  0.45593999997E+02  0.45594000000E+02  0.51100000000E-03 0.  1.
         11   -1    0    0    0    0 -0.00000000000E+00 -0.00000000000E+00 -0.45593999997E+02  0.45594000000E+02  0.51100000000E-03 0. -1.
    9900012    2    1    2    0    0 -0.58467299000E+01 -0.10480424185E+02 -0.41708513022E+02  0.47787267286E+02  0.19999982862E+02 0.  0.
        -12    1    1    2    0    0  0.58467299000E+01  0.10480424185E+02  0.41708513022E+02  0.43400732714E+02  0.00000000000E+00 0.  1.
         11    1    3    3    0    0 -0.60620764867E+01 -0.82456183989E+01 -0.15100100082E+02  0.18241491629E+02  0.51100000000E-03 0. -1.
        -11    1    3    3    0    0  0.45030386276E+01 -0.46474449537E-01 -0.23235533209E+02  0.23667900636E+02  0.51100000000E-03 0.  1.
        -12    1    3    3    0    0 -0.42876920409E+01 -0.21883313363E+01 -0.33728797320E+01  0.58778750209E+01  0.00000000000E+00 0.  1.
</event>
<event>
 7    1  0.2700100E-010  0.4778728E+02  0.7816164E-02  0.1312668E+00
        -11   -1    0    0    0    0  0.00000000000E+00  0.00000000000E+00  0.45593999997E+02  0.45594000000E+02  0.51100000000E-03 0. -1.
         11   -1    0    0    0    0 -0.00000000000E+00 -0.00000000000E+00 -0.45593999997E+02  0.45594000000E+02  0.51100000000E-03 0.  1.
    9900012    2    1    2    0    0  0.35684452900E+02 -0.23631444659E+02 -0.71970392947E+01  0.47787277310E+02  0.20000028565E+02 0.  0.
        -12    1    1    2    0    0 -0.35684452900E+02  0.23631444659E+02  0.71970392947E+01  0.43400722690E+02  0.00000000000E+00 0.  1.
         11    1    3    3    0    0  0.17316194078E+02 -0.18243452729E+02 -0.64305195783E+01  0.25962005453E+02  0.51100000000E-03 0. -1.
        -11    1    3    3    0    0  0.13971286671E+01  0.26785221295E+01 -0.76195429519E-01  0.30219621631E+01  0.51100000000E-03 0.  1.
        -12    1    3    3    0    0  0.16971130155E+02 -0.80665140588E+01 -0.69032428691E+00  0.18803309694E+02  0.00000000000E+00 0.  1.
</event>
<event>
 7    1  0.2700100E-010  0.4778727E+02  0.7816164E-02  0.1312668E+00
        -11   -1    0    0    0    0  0.00000000000E+00  0.00000000000E+00  0.45593999997E+02  0.45594000000E+02  0.51100000000E-03 0. -1.
         11   -1    0    0    0    0 -0.00000000000E+00 -0.00000000000E+00 -0.45593999997E+02  0.45594000000E+02  0.51100000000E-03 0.  1.
    9900012    2    1    2    0    0 -0.24487031547E+01  0.17466194393E+00  0.43331243742E+02  0.47787270304E+02  0.19999996625E+02 0.  0.
        -12    1    1    2    0    0  0.24487031547E+01 -0.17466194393E+00 -0.43331243742E+02  0.43400729696E+02  0.00000000000E+00 0.  1.
         11    1    3    3    0    0  0.62091729772E+01 -0.24656492055E+01  0.19525097159E+02  0.20636440449E+02  0.51100000000E-03 0. -1.
        -11    1    3    3    0    0 -0.61737806746E+01  0.34272014465E+01  0.63351767583E+01  0.94866085823E+01  0.51100000000E-03 0.  1.
        -12    1    3    3    0    0 -0.24840954572E+01 -0.78689029712E+00  0.17470969824E+02  0.17664221273E+02  0.00000000000E+00 0.  1.
</event>
<event>
 7    1  0.2700100E-010  0.4778727E+02  0.7816164E-02  0.1312668E+00
        -11   -1    0    0    0    0  0.00000000000E+00  0.00000000000E+00  0.45593999997E+02  0.45594000000E+02  0.51100000000E-03 0.  1.
         11   -1    0    0    0    0 -0.00000000000E+00 -0.00000000000E+00 -0.45593999997E+02  0.45594000000E+02  0.51100000000E-03 0. -1.
    9900012    2    1    2    0    0  0.94653483543E+01  0.87927922771E+01 -0.41433292060E+02  0.47787266061E+02  0.19999977280E+02 0.  0.
        -12    1    1    2    0    0 -0.94653483543E+01 -0.87927922771E+01  0.41433292060E+02  0.43400733939E+02  0.00000000000E+00 0.  1.
         11    1    3    3    0    0  0.38836584454E+01  0.26483837093E+01 -0.34646180734E+02  0.34963617932E+02  0.51100000000E-03 0. -1.
        -11    1    3    3    0    0  0.30971664319E+01  0.67877684340E+01 -0.70229454163E+01  0.10246365346E+02  0.51100000000E-03 0.  1.
         12    1    3    3    0    0  0.24845234770E+01 -0.64335986622E+00  0.23583409055E+00  0.25772827830E+01  0.00000000000E+00 0. -1.
</event>
<event>
 7    1  0.2700100E-010  0.4778727E+02  0.7816164E-02  0.1312668E+00
        -11   -1    0    0    0    0  0.00000000000E+00  0.00000000000E+00  0.45593999997E+02  0.45594000000E+02  0.51100000000E-03 0.  1.
         11   -1    0    0    0    0 -0.00000000000E+00 -0.00000000000E+00 -0.45593999997E+02  0.45594000000E+02  0.51100000000E-03 0. -1.
    9900012    2    1    2    0    0  0.27684671055E+02 -0.32760117832E+02 -0.66300032171E+01  0.47787271037E+02  0.19999999968E+02 0.  0.
        -12    1    1    2    0    0 -0.27684671055E+02  0.32760117832E+02  0.66300032171E+01  0.43400728963E+02  0.00000000000E+00 0.  1.
         11    1    3    3    0    0 -0.14787562130E+01 -0.33396216201E+01 -0.42333170975E+01  0.55911328380E+01  0.51100000000E-03 0. -1.
        -11    1    3    3    0    0  0.20380916369E+02 -0.24920595045E+02 -0.82851516782E+00  0.32204102955E+02  0.51100000000E-03 0.  1.
         12    1    3    3    0    0  0.87825108988E+01 -0.44999011670E+01 -0.15681709518E+01  0.99920352449E+01  0.00000000000E+00 0. -1.
</event>
<event>
 7    1  0.2700100E-010  0.4778727E+02  0.7816164E-02  0.1312668E+00
        -11   -1    0    0    0    0  0.00000000000E+00  0.00000000000E+00  0.45593999997E+02  0.45594000000E+02  0.51100000000E-03 0.  1.
         11   -1    0    0    0    0 -0.00000000000E+00 -0.00000000000E+00 -0.45593999997E+02  0.45594000000E+02  0.51100000000E-03 0. -1.
    9900012    2    1    2    0    0  0.62262014471E+01 -0.17509233387E+02 -0.39220968235E+02  0.47787272039E+02  0.20000004535E+02 0.  0.
        -12    1    1    2    0    0 -0.62262014471E+01  0.17509233387E+02  0.39220968235E+02  0.43400727961E+02  0.00000000000E+00 0.  1.
         11    1    3    3    0    0 -0.36093090960E+01 -0.95218328655E+01 -0.16249196316E+02  0.19176256007E+02  0.51100000000E-03 0. -1.
        -11    1    3    3    0    0 -0.14001041772E+01 -0.50057196098E+01 -0.50338043091E+01  0.72357934328E+01  0.51100000000E-03 0.  1.
         12    1    3    3    0    0  0.11235614720E+02 -0.29816809122E+01 -0.17937967609E+02  0.21375222599E+02  0.00000000000E+00 0. -1.
</event>
<event>
 7    1  0.2700100E-010  0.4778725E+02  0.7816164E-02  0.1312668E+00
        -11   -1    0    0    0    0  0.00000000000E+00  0.00000000000E+00  0.45593999997E+02  0.45594000000E+02  0.51100000000E-03 0.  1.
         11   -1    0    0    0    0 -0.00000000000E+00 -0.00000000000E+00 -0.45593999997E+02  0.45594000000E+02  0.51100000000E-03 0. -1.
    9900012    2    1    2    0    0 -0.48784263958E+01  0.97336809964E+01 -0.42012870005E+02  0.47787253049E+02  0.19999917950E+02 0.  0.
        -12    1    1    2    0    0  0.48784263958E+01 -0.97336809964E+01  0.42012870005E+02  0.43400746951E+02  0.00000000000E+00 0.  1.
         11    1    3    3    0    0  0.14023025201E+01  0.87888939958E+01 -0.15826997653E+02  0.18157779738E+02  0.51100000000E-03 0. -1.
        -11    1    3    3    0    0  0.71759345319E+00 -0.46631432533E+01 -0.11381738819E+02  0.12320869456E+02  0.51100000000E-03 0.  1.
        -12    1    3    3    0    0 -0.69983223690E+01  0.56079302540E+01 -0.14804133533E+02  0.17308603854E+02  0.00000000000E+00 0.  1.
</event>
<event>
 7    1  0.2700100E-010  0.4778723E+02  0.7816164E-02  0.1312668E+00
        -11   -1    0    0    0    0  0.00000000000E+00  0.00000000000E+00  0.45593999997E+02  0.45594000000E+02  0.51100000000E-03 0.  1.
         11   -1    0    0    0    0 -0.00000000000E+00 -0.00000000000E+00 -0.45593999997E+02  0.45594000000E+02  0.51100000000E-03 0. -1.
    9900012    2    1    2    0    0  0.18178992593E+02 -0.25414823271E+02 -0.30120392060E+02  0.47787227755E+02  0.19999802626E+02 0.  0.
        -12    1    1    2    0    0 -0.18178992593E+02  0.25414823271E+02  0.30120392060E+02  0.43400772245E+02  0.00000000000E+00 0.  1.
         11    1    3    3    0    0 -0.17856019977E+00 -0.28289243050E+01 -0.11959056217E+02  0.12290391464E+02  0.51100000000E-03 0. -1.
        -11    1    3    3    0    0 -0.25385247328E+00  0.45954764683E+00  0.28824781487E+00  0.59892585668E+00  0.51100000000E-03 0.  1.
         12    1    3    3    0    0  0.18611405266E+02 -0.23045446613E+02 -0.18449583658E+02  0.34897910435E+02  0.00000000000E+00 0. -1.
</event>
<event>
 7    1  0.2700100E-010  0.4778727E+02  0.7816164E-02  0.1312668E+00
        -11   -1    0    0    0    0  0.00000000000E+00  0.00000000000E+00  0.45593999997E+02  0.45594000000E+02  0.51100000000E-03 0. -1.
         11   -1    0    0    0    0 -0.00000000000E+00 -0.00000000000E+00 -0.45593999997E+02  0.45594000000E+02  0.51100000000E-03 0.  1.
    9900012    2    1    2    0    0 -0.24470509534E+02  0.27894375360E+02  0.22510465913E+02  0.47787273171E+02  0.20000009697E+02 0.  0.
        -12    1    1    2    0    0  0.24470509534E+02 -0.27894375360E+02 -0.22510465913E+02  0.43400726829E+02  0.00000000000E+00 0.  1.
         11    1    3    3    0    0 -0.25241689770E+02  0.16312288875E+02  0.19170037724E+02  0.35647216124E+02  0.51100000000E-03 0. -1.
        -11    1    3    3    0    0  0.73473777826E+00  0.40729000664E+01  0.15576220669E+01  0.44220517091E+01  0.51100000000E-03 0.  1.
         12    1    3    3    0    0  0.36442456912E-01  0.75091864196E+01  0.17828061222E+01  0.77180053385E+01  0.00000000000E+00 0. -1.
</event>
<event>
 7    1  0.2700100E-010  0.4778728E+02  0.7816164E-02  0.1312668E+00
        -11   -1    0    0    0    0  0.00000000000E+00  0.00000000000E+00  0.45593999997E+02  0.45594000000E+02  0.51100000000E-03 0.  1.
         11   -1    0    0    0    0 -0.00000000000E+00 -0.00000000000E+00 -0.45593999997E+02  0.45594000000E+02  0.51100000000E-03 0. -1.
    9900012    2    1    2    0    0 -0.39633711074E+02  0.16870807067E+02  0.53073251768E+01  0.47787275524E+02  0.20000020423E+02 0.  0.
        -12    1    1    2    0    0  0.39633711074E+02 -0.16870807067E+02 -0.53073251768E+01  0.43400724476E+02  0.00000000000E+00 0.  1.
         11    1    3    3    0    0 -0.26133879652E+02  0.46423061841E+01  0.26120824424E+01  0.26671213832E+02  0.51100000000E-03 0. -1.
        -11    1    3    3    0    0 -0.97817825257E+01  0.20692899896E+01  0.13563845944E+00  0.99991813912E+01  0.51100000000E-03 0.  1.
         12    1    3    3    0    0 -0.37180488962E+01  0.10159210893E+02  0.25596042749E+01  0.11116880300E+02  0.00000000000E+00 0. -1.
</event>
<event>
 7    1  0.2700100E-010  0.4778727E+02  0.7816164E-02  0.1312668E+00
        -11   -1    0    0    0    0  0.00000000000E+00  0.00000000000E+00  0.45593999997E+02  0.45594000000E+02  0.51100000000E-03 0.  1.
         11   -1    0    0    0    0 -0.00000000000E+00 -0.00000000000E+00 -0.45593999997E+02  0.45594000000E+02  0.51100000000E-03 0. -1.
    9900012    2    1    2    0    0  0.41231924191E+02  0.92832883711E+01 -0.98677441468E+01  0.47787269706E+02  0.19999993898E+02 0.  0.
        -12    1    1    2    0    0 -0.41231924191E+02 -0.92832883711E+01  0.98677441468E+01  0.43400730294E+02  0.00000000000E+00 0.  1.
         11    1    3    3    0    0  0.10436625609E+02  0.53458880263E+01 -0.44344255814E+01  0.12536578616E+02  0.51100000000E-03 0. -1.
        -11    1    3    3    0    0  0.25259579192E+02  0.89477583628E+01 -0.15688561772E+01  0.26843435523E+02  0.51100000000E-03 0.  1.
        -12    1    3    3    0    0  0.55357193899E+01 -0.50103580180E+01 -0.38644623882E+01  0.84072555678E+01  0.00000000000E+00 0.  1.
</event>
<event>
 7    1  0.2700100E-010  0.4778727E+02  0.7816164E-02  0.1312668E+00
        -11   -1    0    0    0    0  0.00000000000E+00  0.00000000000E+00  0.45593999997E+02  0.45594000000E+02  0.51100000000E-03 0. -1.
         11   -1    0    0    0    0 -0.00000000000E+00 -0.00000000000E+00 -0.45593999997E+02  0.45594000000E+02  0.51100000000E-03 0.  1.
    9900012    2    1    2    0    0 -0.85351603246E+01  0.23299045729E+01  0.42489364419E+02  0.47787268372E+02  0.19999987816E+02 0.  0.
        -12    1    1    2    0    0  0.85351603246E+01 -0.23299045729E+01 -0.42489364419E+02  0.43400731628E+02  0.00000000000E+00 0.  1.
         11    1    3    3    0    0 -0.18903334378E+01  0.54778572260E+01  0.36449521807E+02  0.36907288177E+02  0.51100000000E-03 0. -1.
        -11    1    3    3    0    0 -0.50370358700E+01 -0.41648082216E+01  0.61500400561E+01  0.89744276046E+01  0.51100000000E-03 0.  1.
         12    1    3    3    0    0 -0.16077910167E+01  0.10168555685E+01 -0.11019744439E+00  0.19055525910E+01  0.00000000000E+00 0. -1.
</event>
<event>
 7    1  0.2700100E-010  0.4778728E+02  0.7816164E-02  0.1312668E+00
        -11   -1    0    0    0    0  0.00000000000E+00  0.00000000000E+00  0.45593999997E+02  0.45594000000E+02  0.51100000000E-03 0. -1.
         11   -1    0    0    0    0 -0.00000000000E+00 -0.00000000000E+00 -0.45593999997E+02  0.45594000000E+02  0.51100000000E-03 0.  1.
    9900012    2    1    2    0    0 -0.34083818135E+02  0.17394148438E+02  0.20478278003E+02  0.47787275024E+02  0.20000018142E+02 0.  0.
        -12    1    1    2    0    0  0.34083818135E+02 -0.17394148438E+02 -0.20478278003E+02  0.43400724976E+02  0.00000000000E+00 0.  1.
         11    1    3    3    0    0  0.29268959205E+00  0.26695174415E+01  0.29856333069E+01  0.40157187491E+01  0.51100000000E-03 0.  1.
        -11    1    3    3    0    0 -0.31493323228E+02  0.16428491910E+02  0.12295100150E+02  0.37588485502E+02  0.51100000000E-03 0. -1.
        -12    1    3    3    0    0 -0.28831844987E+01 -0.17038609138E+01  0.51975445459E+01  0.61830707722E+01  0.00000000000E+00 0.  1.
</event>
<event>
 7    1  0.2700100E-010  0.4778727E+02  0.7816164E-02  0.1312668E+00
        -11   -1    0    0    0    0  0.00000000000E+00  0.00000000000E+00  0.45593999997E+02  0.45594000000E+02  0.51100000000E-03 0.  1.
         11   -1    0    0    0    0 -0.00000000000E+00 -0.00000000000E+00 -0.45593999997E+02  0.45594000000E+02  0.51100000000E-03 0. -1.
    9900012    2    1    2    0    0  0.65407164148E+01 -0.15967692852E+01 -0.42875320869E+02  0.47787265179E+02  0.19999973257E+02 0.  0.
        -12    1    1    2    0    0 -0.65407164148E+01  0.15967692852E+01  0.42875320869E+02  0.43400734821E+02  0.00000000000E+00 0.  1.
         11    1    3    3    0    0 -0.16855699802E+01 -0.29174508527E+01 -0.26908458821E+02  0.27118588128E+02  0.51100000000E-03 0. -1.
        -11    1    3    3    0    0  0.10344319414E+02  0.25421424758E+01 -0.13486348991E+02  0.17185722035E+02  0.51100000000E-03 0.  1.
        -12    1    3    3    0    0 -0.21180330187E+01 -0.12214609083E+01 -0.24805130565E+01  0.34829550158E+01  0.00000000000E+00 0.  1.
</event>
<event>
 7    1  0.2700100E-010  0.4778727E+02  0.7816164E-02  0.1312668E+00
        -11   -1    0    0    0    0  0.00000000000E+00  0.00000000000E+00  0.45593999997E+02  0.45594000000E+02  0.51100000000E-03 0.  1.
         11   -1    0    0    0    0 -0.00000000000E+00 -0.00000000000E+00 -0.45593999997E+02  0.45594000000E+02  0.51100000000E-03 0. -1.
    9900012    2    1    2    0    0  0.27695067094E+02 -0.24875391846E+02 -0.22311910537E+02  0.47787271750E+02  0.20000003216E+02 0.  0.
        -12    1    1    2    0    0 -0.27695067094E+02  0.24875391846E+02  0.22311910537E+02  0.43400728250E+02  0.00000000000E+00 0.  1.
         11    1    3    3    0    0  0.18015598722E+02 -0.13127747524E+02 -0.21505083839E+01  0.22394736858E+02  0.51100000000E-03 0. -1.
        -11    1    3    3    0    0  0.41244438428E+01 -0.48517178654E+01 -0.10558048647E+02  0.12329744310E+02  0.51100000000E-03 0.  1.
         12    1    3    3    0    0  0.55550245293E+01 -0.68959264570E+01 -0.96033535068E+01  0.13062790582E+02  0.00000000000E+00 0. -1.
</event>
<event>
 7    1  0.2866812E-010  0.4778727E+02  0.7816164E-02  0.1312668E+00
        -11   -1    0    0    0    0  0.00000000000E+00  0.00000000000E+00  0.45593999997E+02  0.45594000000E+02  0.51100000000E-03 0. -1.
         11   -1    0    0    0    0 -0.00000000000E+00 -0.00000000000E+00 -0.45593999997E+02  0.45594000000E+02  0.51100000000E-03 0.  1.
    9900012    2    1    2    0    0  0.90368831660E+01  0.12960126903E+02  0.40422678719E+02  0.47787273030E+02  0.20000009053E+02 0.  0.
        -12    1    1    2    0    0 -0.90368831660E+01 -0.12960126903E+02 -0.40422678719E+02  0.43400726970E+02  0.00000000000E+00 0.  1.
         11    1    3    3    0    0  0.88323268533E+01  0.12314148415E+02  0.21153370273E+02  0.26021401250E+02  0.51100000000E-03 0. -1.
        -11    1    3    3    0    0 -0.92773895401E+00 -0.44579045591E+01  0.62224517051E+01  0.77105459021E+01  0.51100000000E-03 0.  1.
        -12    1    3    3    0    0  0.11322952667E+01  0.51038830475E+01  0.13046856740E+02  0.14055325878E+02  0.00000000000E+00 0.  1.
</event>
<event>
 7    1  0.2700100E-010  0.4778727E+02  0.7816164E-02  0.1312668E+00
        -11   -1    0    0    0    0  0.00000000000E+00  0.00000000000E+00  0.45593999997E+02  0.45594000000E+02  0.51100000000E-03 0. -1.
         11   -1    0    0    0    0 -0.00000000000E+00 -0.00000000000E+00 -0.45593999997E+02  0.45594000000E+02  0.51100000000E-03 0.  1.
    9900012    2    1    2    0    0 -0.20105619566E+02 -0.63399954515E+01  0.37936681276E+02  0.47787271127E+02  0.20000000375E+02 0.  0.
        -12    1    1    2    0    0  0.20105619566E+02  0.63399954515E+01 -0.37936681276E+02  0.43400728873E+02  0.00000000000E+00 0.  1.
         11    1    3    3    0    0 -0.11427158109E+02  0.29699349228E+01  0.17423956730E+02  0.21047439851E+02  0.51100000000E-03 0. -1.
        -11    1    3    3    0    0 -0.36054652803E+01 -0.11093741970E+02  0.15405551007E+02  0.19323599377E+02  0.51100000000E-03 0.  1.
        -12    1    3    3    0    0 -0.50729961769E+01  0.17838115954E+01  0.51071735392E+01  0.74162318989E+01  0.00000000000E+00 0.  1.
</event>
<event>
 7    1  0.2700100E-010  0.4778727E+02  0.7816164E-02  0.1312668E+00
        -11   -1    0    0    0    0  0.00000000000E+00  0.00000000000E+00  0.45593999997E+02  0.45594000000E+02  0.51100000000E-03 0. -1.
         11   -1    0    0    0    0 -0.00000000000E+00 -0.00000000000E+00 -0.45593999997E+02  0.45594000000E+02  0.51100000000E-03 0.  1.
    9900012    2    1    2    0    0 -0.75571027938E+01  0.35140367738E+02  0.24324226459E+02  0.47787271432E+02  0.20000001768E+02 0.  0.
        -12    1    1    2    0    0  0.75571027938E+01 -0.35140367738E+02 -0.24324226459E+02  0.43400728568E+02  0.00000000000E+00 0.  1.
         11    1    3    3    0    0  0.33507584561E-01  0.17266525778E+02  0.20773016792E+01  0.17391067182E+02  0.51100000000E-03 0. -1.
        -11    1    3    3    0    0 -0.23096673659E+01  0.32127015272E+01  0.10613159195E+01  0.40966335186E+01  0.51100000000E-03 0.  1.
         12    1    3    3    0    0 -0.52809430124E+01  0.14661140433E+02  0.21185608860E+02  0.26299570731E+02  0.00000000000E+00 0. -1.
</event>
<event>
 7    1  0.2700100E-010  0.4778727E+02  0.7816164E-02  0.1312668E+00
        -11   -1    0    0    0    0  0.00000000000E+00  0.00000000000E+00  0.45593999997E+02  0.45594000000E+02  0.51100000000E-03 0.  1.
         11   -1    0    0    0    0 -0.00000000000E+00 -0.00000000000E+00 -0.45593999997E+02  0.45594000000E+02  0.51100000000E-03 0. -1.
    9900012    2    1    2    0    0 -0.26272278329E+01 -0.28543195025E+02 -0.32588448580E+02  0.47787270868E+02  0.19999999196E+02 0.  0.
        -12    1    1    2    0    0  0.26272278329E+01  0.28543195025E+02  0.32588448580E+02  0.43400729132E+02  0.00000000000E+00 0.  1.
         11    1    3    3    0    0  0.75635348768E+01 -0.51835229263E+01 -0.92838576678E+01  0.13048600815E+02  0.51100000000E-03 0. -1.
        -11    1    3    3    0    0 -0.10339702125E+02 -0.22972628021E+02 -0.23312608104E+02  0.34323880537E+02  0.51100000000E-03 0.  1.
        -12    1    3    3    0    0  0.14893941527E+00 -0.38704407776E+00  0.80171925070E-02  0.41478951641E+00  0.00000000000E+00 0.  1.
</event>
<event>
 7    1  0.2700100E-010  0.4778727E+02  0.7816164E-02  0.1312668E+00
        -11   -1    0    0    0    0  0.00000000000E+00  0.00000000000E+00  0.45593999997E+02  0.45594000000E+02  0.51100000000E-03 0.  1.
         11   -1    0    0    0    0 -0.00000000000E+00 -0.00000000000E+00 -0.45593999997E+02  0.45594000000E+02  0.51100000000E-03 0. -1.
    9900012    2    1    2    0    0  0.37739133972E+02 -0.16765975185E+02 -0.13352271523E+02  0.47787270609E+02  0.19999998012E+02 0.  0.
        -12    1    1    2    0    0 -0.37739133972E+02  0.16765975185E+02  0.13352271523E+02  0.43400729391E+02  0.00000000000E+00 0.  1.
         11    1    3    3    0    0  0.77984573841E+01 -0.78305131807E+01 -0.51920529088E+01  0.12210253393E+02  0.51100000000E-03 0. -1.
        -11    1    3    3    0    0  0.85240792684E+01  0.38015724932E+01 -0.46022191183E+01  0.10406358723E+02  0.51100000000E-03 0.  1.
        -12    1    3    3    0    0  0.21416597320E+02 -0.12737034498E+02 -0.35579994959E+01  0.25170658493E+02  0.00000000000E+00 0.  1.
</event>
<event>
 7    1  0.2700100E-010  0.4778727E+02  0.7816164E-02  0.1312668E+00
        -11   -1    0    0    0    0  0.00000000000E+00  0.00000000000E+00  0.45593999997E+02  0.45594000000E+02  0.51100000000E-03 0. -1.
         11   -1    0    0    0    0 -0.00000000000E+00 -0.00000000000E+00 -0.45593999997E+02  0.45594000000E+02  0.51100000000E-03 0.  1.
    9900012    2    1    2    0    0 -0.32727579649E+02 -0.27005180818E+02  0.91240873479E+01  0.47787271543E+02  0.20000002272E+02 0.  0.
        -12    1    1    2    0    0  0.32727579649E+02  0.27005180818E+02 -0.91240873479E+01  0.43400728457E+02  0.00000000000E+00 0.  1.
         11    1    3    3    0    0 -0.60219437158E+01 -0.11550000786E+02 -0.47548456554E+01  0.13866321854E+02  0.51100000000E-03 0.  1.
        -11    1    3    3    0    0 -0.12144092647E+02 -0.58448930795E+01  0.67561490116E+01  0.15076050911E+02  0.51100000000E-03 0. -1.
        -12    1    3    3    0    0 -0.14561543286E+02 -0.96102869525E+01  0.71227839917E+01  0.18844898778E+02  0.00000000000E+00 0.  1.
</event>
<event>
 7    1  0.2700100E-010  0.4778727E+02  0.7816164E-02  0.1312668E+00
        -11   -1    0    0    0    0  0.00000000000E+00  0.00000000000E+00  0.45593999997E+02  0.45594000000E+02  0.51100000000E-03 0. -1.
         11   -1    0    0    0    0 -0.00000000000E+00 -0.00000000000E+00 -0.45593999997E+02  0.45594000000E+02  0.51100000000E-03 0.  1.
    9900012    2    1    2    0    0 -0.60890783262E+01  0.40850870866E+02  0.13332395875E+02  0.47787270684E+02  0.19999998357E+02 0.  0.
        -12    1    1    2    0    0  0.60890783262E+01 -0.40850870866E+02 -0.13332395875E+02  0.43400729316E+02  0.00000000000E+00 0.  1.
         11    1    3    3    0    0 -0.65245203593E+01  0.22989238762E+02  0.11840292139E+02  0.26669589104E+02  0.51100000000E-03 0. -1.
        -11    1    3    3    0    0  0.34997628615E+01  0.82549053021E+00 -0.72058363557E+00  0.36672899721E+01  0.51100000000E-03 0.  1.
        -12    1    3    3    0    0 -0.30643208284E+01  0.17036141574E+02  0.22126873716E+01  0.17450391608E+02  0.00000000000E+00 0.  1.
</event>
<event>
 7    1  0.2700100E-010  0.4778727E+02  0.7816164E-02  0.1312668E+00
        -11   -1    0    0    0    0  0.00000000000E+00  0.00000000000E+00  0.45593999997E+02  0.45594000000E+02  0.51100000000E-03 0. -1.
         11   -1    0    0    0    0 -0.00000000000E+00 -0.00000000000E+00 -0.45593999997E+02  0.45594000000E+02  0.51100000000E-03 0.  1.
    9900012    2    1    2    0    0  0.13340383119E+02 -0.37124386963E+02  0.18095231984E+02  0.47787270171E+02  0.19999996016E+02 0.  0.
        -12    1    1    2    0    0 -0.13340383119E+02  0.37124386963E+02 -0.18095231984E+02  0.43400729829E+02  0.00000000000E+00 0.  1.
         11    1    3    3    0    0  0.93656132845E+01 -0.76455170751E+01  0.36539926820E+01  0.12630134850E+02  0.51100000000E-03 0. -1.
        -11    1    3    3    0    0 -0.19677600829E+01 -0.10607373801E+02  0.21862320961E+00  0.10790563242E+02  0.51100000000E-03 0.  1.
        -12    1    3    3    0    0  0.59425299176E+01 -0.18871496087E+02  0.14222616092E+02  0.24366572079E+02  0.00000000000E+00 0.  1.
</event>
<event>
 7    1  0.2700100E-010  0.4778728E+02  0.7816164E-02  0.1312668E+00
        -11   -1    0    0    0    0  0.00000000000E+00  0.00000000000E+00  0.45593999997E+02  0.45594000000E+02  0.51100000000E-03 0.  1.
         11   -1    0    0    0    0 -0.00000000000E+00 -0.00000000000E+00 -0.45593999997E+02  0.45594000000E+02  0.51100000000E-03 0. -1.
    9900012    2    1    2    0    0 -0.20424582162E+02  0.32693139435E+02 -0.19940360731E+02  0.47787275251E+02  0.20000019181E+02 0.  0.
        -12    1    1    2    0    0  0.20424582162E+02 -0.32693139435E+02  0.19940360731E+02  0.43400724749E+02  0.00000000000E+00 0.  1.
         11    1    3    3    0    0  0.12172158001E+01  0.90403623904E+01 -0.54825134645E+01  0.10642730881E+02  0.51100000000E-03 0. -1.
        -11    1    3    3    0    0 -0.20145675572E+02  0.24200584786E+02 -0.11029648979E+02  0.33364197954E+02  0.51100000000E-03 0.  1.
         12    1    3    3    0    0 -0.14961223900E+01 -0.54780774172E+00 -0.34281982878E+01  0.37803464165E+01  0.00000000000E+00 0. -1.
</event>
<event>
 7    1  0.2700100E-010  0.4778727E+02  0.7816164E-02  0.1312668E+00
        -11   -1    0    0    0    0  0.00000000000E+00  0.00000000000E+00  0.45593999997E+02  0.45594000000E+02  0.51100000000E-03 0. -1.
         11   -1    0    0    0    0 -0.00000000000E+00 -0.00000000000E+00 -0.45593999997E+02  0.45594000000E+02  0.51100000000E-03 0.  1.
    9900012    2    1    2    0    0 -0.29163758784E+02 -0.31971574109E+02  0.33041219002E+01  0.47787267299E+02  0.19999982923E+02 0.  0.
        -12    1    1    2    0    0  0.29163758784E+02  0.31971574109E+02 -0.33041219002E+01  0.43400732701E+02  0.00000000000E+00 0.  1.
         11    1    3    3    0    0 -0.14480359285E+02 -0.44607505090E+01 -0.35655124076E+01  0.15565730921E+02  0.51100000000E-03 0. -1.
        -11    1    3    3    0    0 -0.12304940929E+02 -0.22367795328E+02  0.39032816142E+01  0.25825674177E+02  0.51100000000E-03 0.  1.
         12    1    3    3    0    0 -0.23784585710E+01 -0.51430282723E+01  0.29663526936E+01  0.63958622004E+01  0.00000000000E+00 0. -1.
</event>
<event>
 7    1  0.2700100E-010  0.4778728E+02  0.7816164E-02  0.1312668E+00
        -11   -1    0    0    0    0  0.00000000000E+00  0.00000000000E+00  0.45593999997E+02  0.45594000000E+02  0.51100000000E-03 0.  1.
         11   -1    0    0    0    0 -0.00000000000E+00 -0.00000000000E+00 -0.45593999997E+02  0.45594000000E+02  0.51100000000E-03 0. -1.
    9900012    2    1    2    0    0 -0.29991964678E+02  0.18000703685E+02 -0.25692014380E+02  0.47787275568E+02  0.20000020623E+02 0.  0.
        -12    1    1    2    0    0  0.29991964678E+02 -0.18000703685E+02  0.25692014380E+02  0.43400724432E+02  0.00000000000E+00 0.  1.
         11    1    3    3    0    0 -0.18123581121E+02  0.44265477382E+01 -0.19808644075E+02  0.27211043675E+02  0.51100000000E-03 0. -1.
        -11    1    3    3    0    0 -0.15157999496E+01  0.64039496953E+01  0.21447613695E+00  0.65843922621E+01  0.51100000000E-03 0.  1.
        -12    1    3    3    0    0 -0.10352583607E+02  0.71702062513E+01 -0.60978464415E+01  0.13991839631E+02  0.00000000000E+00 0.  1.
</event>
<event>
 7    1  0.2700100E-010  0.4778727E+02  0.7816164E-02  0.1312668E+00
        -11   -1    0    0    0    0  0.00000000000E+00  0.00000000000E+00  0.45593999997E+02  0.45594000000E+02  0.51100000000E-03 0. -1.
         11   -1    0    0    0    0 -0.00000000000E+00 -0.00000000000E+00 -0.45593999997E+02  0.45594000000E+02  0.51100000000E-03 0.  1.
    9900012    2    1    2    0    0 -0.36079508853E+02  0.83790643595E+01 -0.22620423043E+02  0.47787271697E+02  0.20000002975E+02 0.  0.
        -12    1    1    2    0    0  0.36079508853E+02 -0.83790643595E+01  0.22620423043E+02  0.43400728303E+02  0.00000000000E+00 0.  1.
         11    1    3    3    0    0 -0.18585521835E+02  0.10703410150E+02 -0.98039392306E+01  0.23581811538E+02  0.51100000000E-03 0. -1.
        -11    1    3    3    0    0 -0.16025984136E+02 -0.40873709091E+01 -0.13959136970E+02  0.21642464594E+02  0.51100000000E-03 0.  1.
        -12    1    3    3    0    0 -0.14680028816E+01  0.17630251185E+01  0.11426531576E+01  0.25629955653E+01  0.00000000000E+00 0.  1.
</event>
<event>
 7    1  0.2700100E-010  0.4778727E+02  0.7816164E-02  0.1312668E+00
        -11   -1    0    0    0    0  0.00000000000E+00  0.00000000000E+00  0.45593999997E+02  0.45594000000E+02  0.51100000000E-03 0.  1.
         11   -1    0    0    0    0 -0.00000000000E+00 -0.00000000000E+00 -0.45593999997E+02  0.45594000000E+02  0.51100000000E-03 0. -1.
    9900012    2    1    2    0    0 -0.98128171369E+01  0.11786410970E+02 -0.40600644721E+02  0.47787271718E+02  0.20000003070E+02 0.  0.
        -12    1    1    2    0    0  0.98128171369E+01 -0.11786410970E+02  0.40600644721E+02  0.43400728282E+02  0.00000000000E+00 0.  1.
         11    1    3    3    0    0 -0.75181416222E+01  0.64341928756E+01 -0.11089345227E+02  0.14862532396E+02  0.51100000000E-03 0. -1.
        -11    1    3    3    0    0  0.46742874575E+01  0.27890820304E+01 -0.20691304420E+02  0.21395280336E+02  0.51100000000E-03 0.  1.
        -12    1    3    3    0    0 -0.69689629722E+01  0.25631360636E+01 -0.88199950737E+01  0.11529458985E+02  0.00000000000E+00 0.  1.
</event>
<event>
 7    1  0.2700100E-010  0.4778727E+02  0.7816164E-02  0.1312668E+00
        -11   -1    0    0    0    0  0.00000000000E+00  0.00000000000E+00  0.45593999997E+02  0.45594000000E+02  0.51100000000E-03 0.  1.
         11   -1    0    0    0    0 -0.00000000000E+00 -0.00000000000E+00 -0.45593999997E+02  0.45594000000E+02  0.51100000000E-03 0. -1.
    9900012    2    1    2    0    0 -0.34681902542E+02  0.25317929893E+02 -0.63080481052E+01  0.47787269489E+02  0.19999992909E+02 0.  0.
        -12    1    1    2    0    0  0.34681902542E+02 -0.25317929893E+02  0.63080481052E+01  0.43400730511E+02  0.00000000000E+00 0.  1.
         11    1    3    3    0    0 -0.15662890919E+02  0.52210156828E+01 -0.43878284589E+01  0.17083272390E+02  0.51100000000E-03 0. -1.
        -11    1    3    3    0    0 -0.12929976656E+02  0.19125660528E+02 -0.52795692706E+01  0.23682251559E+02  0.51100000000E-03 0.  1.
        -12    1    3    3    0    0 -0.60890349663E+01  0.97125368249E+00  0.33593496243E+01  0.70217455405E+01  0.00000000000E+00 0.  1.
</event>
<event>
 7    1  0.2700100E-010  0.4778727E+02  0.7816164E-02  0.1312668E+00
        -11   -1    0    0    0    0  0.00000000000E+00  0.00000000000E+00  0.45593999997E+02  0.45594000000E+02  0.51100000000E-03 0.  1.
         11   -1    0    0    0    0 -0.00000000000E+00 -0.00000000000E+00 -0.45593999997E+02  0.45594000000E+02  0.51100000000E-03 0. -1.
    9900012    2    1    2    0    0 -0.23906714218E+02 -0.16625076532E+02 -0.32182274813E+02  0.47787274585E+02  0.20000016145E+02 0.  0.
        -12    1    1    2    0    0  0.23906714218E+02  0.16625076532E+02  0.32182274813E+02  0.43400725415E+02  0.00000000000E+00 0.  1.
         11    1    3    3    0    0 -0.18606353683E+02 -0.77721228627E+01 -0.18697231967E+02  0.27498886789E+02  0.51100000000E-03 0. -1.
        -11    1    3    3    0    0 -0.19781787776E+01 -0.64209841793E+01 -0.58150025168E+00  0.67439136939E+01  0.51100000000E-03 0.  1.
         12    1    3    3    0    0 -0.33221817572E+01 -0.24319694902E+01 -0.12903542594E+02  0.13544474102E+02  0.00000000000E+00 0. -1.
</event>
<event>
 7    1  0.2700100E-010  0.4778727E+02  0.7816164E-02  0.1312668E+00
        -11   -1    0    0    0    0  0.00000000000E+00  0.00000000000E+00  0.45593999997E+02  0.45594000000E+02  0.51100000000E-03 0.  1.
         11   -1    0    0    0    0 -0.00000000000E+00 -0.00000000000E+00 -0.45593999997E+02  0.45594000000E+02  0.51100000000E-03 0. -1.
    9900012    2    1    2    0    0  0.24982751936E+02 -0.34284833136E+02 -0.91670760251E+01  0.47787274657E+02  0.20000016472E+02 0.  0.
        -12    1    1    2    0    0 -0.24982751936E+02  0.34284833136E+02  0.91670760251E+01  0.43400725343E+02  0.00000000000E+00 0.  1.
         11    1    3    3    0    0  0.16808963636E+01 -0.30429510147E+00 -0.34262327826E+00  0.17422396694E+01  0.51100000000E-03 0. -1.
        -11    1    3    3    0    0  0.90687329286E+01 -0.14559040724E+02  0.55184493715E+01  0.18018348078E+02  0.51100000000E-03 0.  1.
        -12    1    3    3    0    0  0.14233122644E+02 -0.19421497311E+02 -0.14342902118E+02  0.28026686910E+02  0.00000000000E+00 0.  1.
</event>
<event>
 7    1  0.2700100E-010  0.4778727E+02  0.7816164E-02  0.1312668E+00
        -11   -1    0    0    0    0  0.00000000000E+00  0.00000000000E+00  0.45593999997E+02  0.45594000000E+02  0.51100000000E-03 0. -1.
         11   -1    0    0    0    0 -0.00000000000E+00 -0.00000000000E+00 -0.45593999997E+02  0.45594000000E+02  0.51100000000E-03 0.  1.
    9900012    2    1    2    0    0 -0.18782303727E+02  0.11124978214E+02  0.37511106713E+02  0.47787271891E+02  0.20000003859E+02 0.  0.
        -12    1    1    2    0    0  0.18782303727E+02 -0.11124978214E+02 -0.37511106713E+02  0.43400728109E+02  0.00000000000E+00 0.  1.
         11    1    3    3    0    0 -0.17555871816E+02  0.63299428153E+01  0.28489154486E+02  0.34057432887E+02  0.51100000000E-03 0. -1.
        -11    1    3    3    0    0  0.34987272439E+01  0.43784865277E+01  0.49983149379E+01  0.75096863503E+01  0.51100000000E-03 0.  1.
         12    1    3    3    0    0 -0.47251591544E+01  0.41654887112E+00  0.40236372895E+01  0.62201526536E+01  0.00000000000E+00 0. -1.
</event>
<event>
 7    1  0.2700100E-010  0.4778727E+02  0.7816164E-02  0.1312668E+00
        -11   -1    0    0    0    0  0.00000000000E+00  0.00000000000E+00  0.45593999997E+02  0.45594000000E+02  0.51100000000E-03 0.  1.
         11   -1    0    0    0    0 -0.00000000000E+00 -0.00000000000E+00 -0.45593999997E+02  0.45594000000E+02  0.51100000000E-03 0. -1.
    9900012    2    1    2    0    0 -0.12531506830E+02  0.41537752402E+02  0.10952981087E+01  0.47787271711E+02  0.20000003040E+02 0.  0.
        -12    1    1    2    0    0  0.12531506830E+02 -0.41537752402E+02 -0.10952981087E+01  0.43400728289E+02  0.00000000000E+00 0.  1.
         11    1    3    3    0    0 -0.12721445869E+02  0.18517219526E+02 -0.18974368574E+01  0.22546016741E+02  0.51100000000E-03 0. -1.
        -11    1    3    3    0    0  0.27445426414E+01  0.16767783034E+01  0.18600189246E+01  0.37153425751E+01  0.51100000000E-03 0.  1.
        -12    1    3    3    0    0 -0.25546036016E+01  0.21343754572E+02  0.11327160414E+01  0.21525912395E+02  0.00000000000E+00 0.  1.
</event>
<event>
 7    1  0.2700100E-010  0.4778727E+02  0.7816164E-02  0.1312668E+00
        -11   -1    0    0    0    0  0.00000000000E+00  0.00000000000E+00  0.45593999997E+02  0.45594000000E+02  0.51100000000E-03 0.  1.
         11   -1    0    0    0    0 -0.00000000000E+00 -0.00000000000E+00 -0.45593999997E+02  0.45594000000E+02  0.51100000000E-03 0. -1.
    9900012    2    1    2    0    0  0.37062958846E+02  0.33679894332E+01 -0.22329731242E+02  0.47787272258E+02  0.20000005532E+02 0.  0.
        -12    1    1    2    0    0 -0.37062958846E+02 -0.33679894332E+01  0.22329731242E+02  0.43400727742E+02  0.00000000000E+00 0.  1.
         11    1    3    3    0    0  0.12272019572E+02  0.75180013797E+00 -0.47238500082E+01  0.13171272793E+02  0.51100000000E-03 0. -1.
        -11    1    3    3    0    0  0.11716920404E+02 -0.68167278882E+00  0.84078732200E+00  0.11766810321E+02  0.51100000000E-03 0.  1.
        -12    1    3    3    0    0  0.13074018869E+02  0.32978620841E+01 -0.18446668556E+02  0.22849189144E+02  0.00000000000E+00 0.  1.
</event>
<event>
 7    1  0.2700100E-010  0.4778727E+02  0.7816164E-02  0.1312668E+00
        -11   -1    0    0    0    0  0.00000000000E+00  0.00000000000E+00  0.45593999997E+02  0.45594000000E+02  0.51100000000E-03 0.  1.
         11   -1    0    0    0    0 -0.00000000000E+00 -0.00000000000E+00 -0.45593999997E+02  0.45594000000E+02  0.51100000000E-03 0. -1.
    9900012    2    1    2    0    0  0.25677874962E+02 -0.33493173458E+02 -0.10123092750E+02  0.47787274917E+02  0.20000017658E+02 0.  0.
        -12    1    1    2    0    0 -0.25677874962E+02  0.33493173458E+02  0.10123092750E+02  0.43400725083E+02  0.00000000000E+00 0.  1.
         11    1    3    3    0    0  0.13147865730E+02 -0.25873854449E+02 -0.76232779143E+01  0.30007283845E+02  0.51100000000E-03 0. -1.
        -11    1    3    3    0    0  0.56426273302E+01 -0.13419207607E+01  0.34262820109E+01  0.67364236205E+01  0.51100000000E-03 0.  1.
        -12    1    3    3    0    0  0.68873819018E+01 -0.62773982478E+01 -0.59260968469E+01  0.11043567452E+02  0.00000000000E+00 0.  1.
</event>
<event>
 7    1  0.2700100E-010  0.4778727E+02  0.7816164E-02  0.1312668E+00
        -11   -1    0    0    0    0  0.00000000000E+00  0.00000000000E+00  0.45593999997E+02  0.45594000000E+02  0.51100000000E-03 0. -1.
         11   -1    0    0    0    0 -0.00000000000E+00 -0.00000000000E+00 -0.45593999997E+02  0.45594000000E+02  0.51100000000E-03 0.  1.
    9900012    2    1    2    0    0  0.29532644217E+02  0.31794298425E+02 -0.75422997845E+00  0.47787270172E+02  0.19999996020E+02 0.  0.
        -12    1    1    2    0    0 -0.29532644217E+02 -0.31794298425E+02  0.75422997845E+00  0.43400729828E+02  0.00000000000E+00 0.  1.
         11    1    3    3    0    0  0.57262249492E+01  0.70599763204E+01 -0.72623118032E+01  0.11635037207E+02  0.51100000000E-03 0. -1.
        -11    1    3    3    0    0  0.91450027583E+01  0.16122025260E+02  0.40393776073E+01  0.18970169890E+02  0.51100000000E-03 0.  1.
         12    1    3    3    0    0  0.14661416509E+02  0.86122968446E+01  0.24687042175E+01  0.17182063075E+02  0.00000000000E+00 0. -1.
</event>
<event>
 7    1  0.2700100E-010  0.4778727E+02  0.7816164E-02  0.1312668E+00
        -11   -1    0    0    0    0  0.00000000000E+00  0.00000000000E+00  0.45593999997E+02  0.45594000000E+02  0.51100000000E-03 0.  1.
         11   -1    0    0    0    0 -0.00000000000E+00 -0.00000000000E+00 -0.45593999997E+02  0.45594000000E+02  0.51100000000E-03 0. -1.
    9900012    2    1    2    0    0  0.97393653829E+01  0.96935423096E+01 -0.41167990410E+02  0.47787269188E+02  0.19999991538E+02 0.  0.
        -12    1    1    2    0    0 -0.97393653829E+01 -0.96935423096E+01  0.41167990410E+02  0.43400730812E+02  0.00000000000E+00 0.  1.
         11    1    3    3    0    0 -0.72063324433E+00 -0.21956777744E+01 -0.59124506817E+01  0.63480222500E+01  0.51100000000E-03 0. -1.
        -11    1    3    3    0    0  0.12117753289E+02  0.39418396691E+01 -0.27024678251E+02  0.29878274374E+02  0.51100000000E-03 0.  1.
        -12    1    3    3    0    0 -0.16577546613E+01  0.79473804149E+01 -0.82308614772E+01  0.11560972564E+02  0.00000000000E+00 0.  1.
</event>
<event>
 7    1  0.2700100E-010  0.4778726E+02  0.7816164E-02  0.1312668E+00
        -11   -1    0    0    0    0  0.00000000000E+00  0.00000000000E+00  0.45593999997E+02  0.45594000000E+02  0.51100000000E-03 0.  1.
         11   -1    0    0    0    0 -0.00000000000E+00 -0.00000000000E+00 -0.45593999997E+02  0.45594000000E+02  0.51100000000E-03 0. -1.
    9900012    2    1    2    0    0  0.39621464312E+02  0.63994512037E+01 -0.16516989865E+02  0.47787258484E+02  0.19999942731E+02 0.  0.
        -12    1    1    2    0    0 -0.39621464312E+02 -0.63994512037E+01  0.16516989865E+02  0.43400741516E+02  0.00000000000E+00 0.  1.
         11    1    3    3    0    0 -0.10458292327E+01  0.58359637181E+00  0.15776313661E+01  0.19807232259E+01  0.51100000000E-03 0. -1.
        -11    1    3    3    0    0  0.14413389655E+02  0.12603755295E+01 -0.11161050129E+02  0.18273023507E+02  0.51100000000E-03 0.  1.
         12    1    3    3    0    0  0.26253903890E+02  0.45554793024E+01 -0.69335711017E+01  0.27533511751E+02  0.00000000000E+00 0. -1.
</event>
<event>
 7    1  0.2700100E-010  0.4778727E+02  0.7816164E-02  0.1312668E+00
        -11   -1    0    0    0    0  0.00000000000E+00  0.00000000000E+00  0.45593999997E+02  0.45594000000E+02  0.51100000000E-03 0.  1.
         11   -1    0    0    0    0 -0.00000000000E+00 -0.00000000000E+00 -0.45593999997E+02  0.45594000000E+02  0.51100000000E-03 0. -1.
    9900012    2    1    2    0    0 -0.38052177730E+02 -0.98519869082E+01 -0.18400908797E+02  0.47787270507E+02  0.19999997548E+02 0.  0.
        -12    1    1    2    0    0  0.38052177730E+02  0.98519869082E+01  0.18400908797E+02  0.43400729493E+02  0.00000000000E+00 0.  1.
         11    1    3    3    0    0 -0.33188046869E+02 -0.50591094254E+01 -0.13682494894E+02  0.36252609698E+02  0.51100000000E-03 0. -1.
        -11    1    3    3    0    0  0.46717327905E+00 -0.51593873063E+01 -0.22406918821E+01  0.56443094016E+01  0.51100000000E-03 0.  1.
         12    1    3    3    0    0 -0.53313041401E+01  0.36650982348E+00 -0.24777220205E+01  0.58903514068E+01  0.00000000000E+00 0. -1.
</event>
<event>
 7    1  0.2700100E-010  0.4778727E+02  0.7816164E-02  0.1312668E+00
        -11   -1    0    0    0    0  0.00000000000E+00  0.00000000000E+00  0.45593999997E+02  0.45594000000E+02  0.51100000000E-03 0. -1.
         11   -1    0    0    0    0 -0.00000000000E+00 -0.00000000000E+00 -0.45593999997E+02  0.45594000000E+02  0.51100000000E-03 0.  1.
    9900012    2    1    2    0    0  0.13346843915E+02  0.40900530103E+02  0.57124214075E+01  0.47787270012E+02  0.19999995293E+02 0.  0.
        -12    1    1    2    0    0 -0.13346843915E+02 -0.40900530103E+02 -0.57124214075E+01  0.43400729988E+02  0.00000000000E+00 0.  1.
         11    1    3    3    0    0  0.94741549302E+01  0.82016961905E+01 -0.29359860552E+01  0.12870409722E+02  0.51100000000E-03 0. -1.
        -11    1    3    3    0    0  0.41226319053E+01  0.26270179994E+02  0.38018564709E+01  0.26862102741E+02  0.51100000000E-03 0.  1.
         12    1    3    3    0    0 -0.24994292078E+00  0.64286539177E+01  0.48465509917E+01  0.80547575490E+01  0.00000000000E+00 0. -1.
</event>
<event>
 7    1  0.2700100E-010  0.4778727E+02  0.7816164E-02  0.1312668E+00
        -11   -1    0    0    0    0  0.00000000000E+00  0.00000000000E+00  0.45593999997E+02  0.45594000000E+02  0.51100000000E-03 0. -1.
         11   -1    0    0    0    0 -0.00000000000E+00 -0.00000000000E+00 -0.45593999997E+02  0.45594000000E+02  0.51100000000E-03 0.  1.
    9900012    2    1    2    0    0 -0.42317035602E+01  0.30329714960E+02  0.30754256941E+02  0.47787271382E+02  0.20000001537E+02 0.  0.
        -12    1    1    2    0    0  0.42317035602E+01 -0.30329714960E+02 -0.30754256941E+02  0.43400728618E+02  0.00000000000E+00 0.  1.
         11    1    3    3    0    0 -0.13968443960E+01  0.32193065384E+01  0.53867263078E+01  0.64289913230E+01  0.51100000000E-03 0. -1.
        -11    1    3    3    0    0  0.22172521500E+01  0.32534691023E+01  0.13832161606E+02  0.14381584171E+02  0.51100000000E-03 0.  1.
        -12    1    3    3    0    0 -0.50521113142E+01  0.23856939320E+02  0.11535369027E+02  0.26976695888E+02  0.00000000000E+00 0.  1.
</event>
<event>
 7    1  0.2700100E-010  0.4778727E+02  0.7816164E-02  0.1312668E+00
        -11   -1    0    0    0    0  0.00000000000E+00  0.00000000000E+00  0.45593999997E+02  0.45594000000E+02  0.51100000000E-03 0. -1.
         11   -1    0    0    0    0 -0.00000000000E+00 -0.00000000000E+00 -0.45593999997E+02  0.45594000000E+02  0.51100000000E-03 0.  1.
    9900012    2    1    2    0    0 -0.14837004934E+02  0.69891787601E+01  0.40182556660E+02  0.47787271954E+02  0.20000004148E+02 0.  0.
        -12    1    1    2    0    0  0.14837004934E+02 -0.69891787601E+01 -0.40182556660E+02  0.43400728046E+02  0.00000000000E+00 0.  1.
         11    1    3    3    0    0 -0.62491491483E+01  0.10966051573E+02  0.17967022388E+02  0.21957232201E+02  0.51100000000E-03 0. -1.
        -11    1    3    3    0    0 -0.52305772381E+01 -0.30703599227E+01  0.39536131620E+01  0.72399658559E+01  0.51100000000E-03 0.  1.
        -12    1    3    3    0    0 -0.33572785478E+01 -0.90651289047E+00  0.18261921110E+02  0.18590073897E+02  0.00000000000E+00 0.  1.
</event>
<event>
 7    1  0.2700100E-010  0.4778727E+02  0.7816164E-02  0.1312668E+00
        -11   -1    0    0    0    0  0.00000000000E+00  0.00000000000E+00  0.45593999997E+02  0.45594000000E+02  0.51100000000E-03 0.  1.
         11   -1    0    0    0    0 -0.00000000000E+00 -0.00000000000E+00 -0.45593999997E+02  0.45594000000E+02  0.51100000000E-03 0. -1.
    9900012    2    1    2    0    0 -0.28553500911E+01 -0.15196088325E+02 -0.40553038132E+02  0.47787273897E+02  0.20000013006E+02 0.  0.
        -12    1    1    2    0    0  0.28553500911E+01  0.15196088325E+02  0.40553038132E+02  0.43400726103E+02  0.00000000000E+00 0.  1.
         11    1    3    3    0    0 -0.61259932838E+01 -0.17134104883E+02 -0.32016166289E+02  0.36825809536E+02  0.51100000000E-03 0. -1.
        -11    1    3    3    0    0  0.42986307552E+01  0.15159656774E+00 -0.75198894054E+01  0.86631371235E+01  0.51100000000E-03 0.  1.
         12    1    3    3    0    0 -0.10279875625E+01  0.17864199909E+01 -0.10169824374E+01  0.22983272374E+01  0.00000000000E+00 0. -1.
</event>
<event>
 7    1  0.2700100E-010  0.4778727E+02  0.7816164E-02  0.1312668E+00
        -11   -1    0    0    0    0  0.00000000000E+00  0.00000000000E+00  0.45593999997E+02  0.45594000000E+02  0.51100000000E-03 0. -1.
         11   -1    0    0    0    0 -0.00000000000E+00 -0.00000000000E+00 -0.45593999997E+02  0.45594000000E+02  0.51100000000E-03 0.  1.
    9900012    2    1    2    0    0 -0.23522585119E+02 -0.30670126080E+02  0.19739667389E+02  0.47787272897E+02  0.20000008447E+02 0.  0.
        -12    1    1    2    0    0  0.23522585119E+02  0.30670126080E+02 -0.19739667389E+02  0.43400727103E+02  0.00000000000E+00 0.  1.
         11    1    3    3    0    0 -0.81717071803E+01 -0.19785293158E+02  0.93551614350E+01  0.23361371307E+02  0.51100000000E-03 0. -1.
        -11    1    3    3    0    0 -0.62860531884E+01 -0.10967648952E+01  0.89731122228E+01  0.11010635819E+02  0.51100000000E-03 0.  1.
        -12    1    3    3    0    0 -0.90648247500E+01 -0.97880680269E+01  0.14113937309E+01  0.13415265771E+02  0.00000000000E+00 0.  1.
</event>
<event>
 7    1  0.2700100E-010  0.4778727E+02  0.7816164E-02  0.1312668E+00
        -11   -1    0    0    0    0  0.00000000000E+00  0.00000000000E+00  0.45593999997E+02  0.45594000000E+02  0.51100000000E-03 0.  1.
         11   -1    0    0    0    0 -0.00000000000E+00 -0.00000000000E+00 -0.45593999997E+02  0.45594000000E+02  0.51100000000E-03 0. -1.
    9900012    2    1    2    0    0  0.66812515606E+01 -0.15818257975E+02 -0.39859339007E+02  0.47787270584E+02  0.19999997900E+02 0.  0.
        -12    1    1    2    0    0 -0.66812515606E+01  0.15818257975E+02  0.39859339007E+02  0.43400729416E+02  0.00000000000E+00 0.  1.
         11    1    3    3    0    0 -0.26993196488E+01 -0.57940181739E+01 -0.27535633958E+01  0.69598193081E+01  0.51100000000E-03 0. -1.
        -11    1    3    3    0    0  0.61972809596E+00 -0.46298129501E+01 -0.39670482657E+01  0.61283523943E+01  0.51100000000E-03 0.  1.
         12    1    3    3    0    0  0.87608431134E+01 -0.53944268510E+01 -0.33138727345E+02  0.34699098881E+02  0.00000000000E+00 0. -1.
</event>
<event>
 7    1  0.2700100E-010  0.4778727E+02  0.7816164E-02  0.1312668E+00
        -11   -1    0    0    0    0  0.00000000000E+00  0.00000000000E+00  0.45593999997E+02  0.45594000000E+02  0.51100000000E-03 0.  1.
         11   -1    0    0    0    0 -0.00000000000E+00 -0.00000000000E+00 -0.45593999997E+02  0.45594000000E+02  0.51100000000E-03 0. -1.
    9900012    2    1    2    0    0  0.89790179989E+01 -0.55301262503E+01 -0.42100098297E+02  0.47787270315E+02  0.19999996675E+02 0.  0.
        -12    1    1    2    0    0 -0.89790179989E+01  0.55301262503E+01  0.42100098297E+02  0.43400729685E+02  0.00000000000E+00 0.  1.
         11    1    3    3    0    0  0.76349452202E+01  0.13121601529E+01 -0.25612684433E+02  0.26758620235E+02  0.51100000000E-03 0. -1.
        -11    1    3    3    0    0  0.18848466242E+01 -0.76643261014E+01 -0.46709239867E+01  0.91712634100E+01  0.51100000000E-03 0.  1.
        -12    1    3    3    0    0 -0.54077384548E+00  0.82203969816E+00 -0.11816489878E+02  0.11857386670E+02  0.00000000000E+00 0.  1.
</event>
<event>
 7    1  0.2700100E-010  0.4778726E+02  0.7816164E-02  0.1312668E+00
        -11   -1    0    0    0    0  0.00000000000E+00  0.00000000000E+00  0.45593999997E+02  0.45594000000E+02  0.51100000000E-03 0.  1.
         11   -1    0    0    0    0 -0.00000000000E+00 -0.00000000000E+00 -0.45593999997E+02  0.45594000000E+02  0.51100000000E-03 0. -1.
    9900012    2    1    2    0    0  0.24945734171E+02 -0.35514206612E+02 -0.27451127235E+00  0.47787264049E+02  0.19999968106E+02 0.  0.
        -12    1    1    2    0    0 -0.24945734171E+02  0.35514206612E+02  0.27451127235E+00  0.43400735951E+02  0.00000000000E+00 0.  1.
         11    1    3    3    0    0  0.86000748579E+01 -0.13113036497E+02 -0.71158702274E+01  0.17220587188E+02  0.51100000000E-03 0. -1.
        -11    1    3    3    0    0  0.12845722648E+02 -0.85693534795E+01  0.46858265024E+01  0.16137018922E+02  0.51100000000E-03 0.  1.
         12    1    3    3    0    0  0.34999366644E+01 -0.13831816636E+02  0.21555324526E+01  0.14429657939E+02  0.00000000000E+00 0. -1.
</event>
<event>
 7    1  0.2700100E-010  0.4778727E+02  0.7816164E-02  0.1312668E+00
        -11   -1    0    0    0    0  0.00000000000E+00  0.00000000000E+00  0.45593999997E+02  0.45594000000E+02  0.51100000000E-03 0.  1.
         11   -1    0    0    0    0 -0.00000000000E+00 -0.00000000000E+00 -0.45593999997E+02  0.45594000000E+02  0.51100000000E-03 0. -1.
    9900012    2    1    2    0    0  0.35831915813E+02  0.22908050762E+02 -0.86555305118E+01  0.47787272022E+02  0.20000004459E+02 0.  0.
        -12    1    1    2    0    0 -0.35831915813E+02 -0.22908050762E+02  0.86555305118E+01  0.43400727978E+02  0.00000000000E+00 0.  1.
         11    1    3    3    0    0  0.34057346625E+02  0.21406412013E+02 -0.37761305883E+01  0.40402926836E+02  0.51100000000E-03 0. -1.
        -11    1    3    3    0    0 -0.93055749749E+00 -0.74314660120E+00  0.19963806814E+00  0.12075014478E+01  0.51100000000E-03 0.  1.
         12    1    3    3    0    0  0.27051266852E+01  0.22447853500E+01 -0.50790379916E+01  0.61768437386E+01  0.00000000000E+00 0. -1.
</event>
<event>
 7    1  0.2700100E-010  0.4778727E+02  0.7816164E-02  0.1312668E+00
        -11   -1    0    0    0    0  0.00000000000E+00  0.00000000000E+00  0.45593999997E+02  0.45594000000E+02  0.51100000000E-03 0. -1.
         11   -1    0    0    0    0 -0.00000000000E+00 -0.00000000000E+00 -0.45593999997E+02  0.45594000000E+02  0.51100000000E-03 0.  1.
    9900012    2    1    2    0    0 -0.24331177516E+02  0.33341598680E+02  0.13414726431E+02  0.47787270893E+02  0.19999999308E+02 0.  0.
        -12    1    1    2    0    0  0.24331177516E+02 -0.33341598680E+02 -0.13414726431E+02  0.43400729107E+02  0.00000000000E+00 0.  1.
         11    1    3    3    0    0 -0.24627835576E+02  0.19569015073E+02  0.12430144825E+02  0.33822849329E+02  0.51100000000E-03 0. -1.
        -11    1    3    3    0    0 -0.42977986680E+00  0.10080205976E+02  0.60847074135E-01  0.10089547358E+02  0.51100000000E-03 0.  1.
         12    1    3    3    0    0  0.72643792696E+00  0.36923776303E+01  0.92373453130E+00  0.38748742058E+01  0.00000000000E+00 0. -1.
</event>
<event>
 7    1  0.2700100E-010  0.4778727E+02  0.7816164E-02  0.1312668E+00
        -11   -1    0    0    0    0  0.00000000000E+00  0.00000000000E+00  0.45593999997E+02  0.45594000000E+02  0.51100000000E-03 0. -1.
         11   -1    0    0    0    0 -0.00000000000E+00 -0.00000000000E+00 -0.45593999997E+02  0.45594000000E+02  0.51100000000E-03 0.  1.
    9900012    2    1    2    0    0 -0.26232740240E+02 -0.66162806246E+01  0.33936577678E+02  0.47787272652E+02  0.20000007332E+02 0.  0.
        -12    1    1    2    0    0  0.26232740240E+02  0.66162806246E+01 -0.33936577678E+02  0.43400727348E+02  0.00000000000E+00 0.  1.
         11    1    3    3    0    0 -0.14735794640E+02 -0.11563128906E+02  0.18492829135E+02  0.26321746208E+02  0.51100000000E-03 0. -1.
        -11    1    3    3    0    0 -0.53339105797E+01  0.40414447807E+01  0.25786570155E+01  0.71717048359E+01  0.51100000000E-03 0.  1.
         12    1    3    3    0    0 -0.61630350202E+01  0.90540350090E+00  0.12865091527E+02  0.14293821608E+02  0.00000000000E+00 0. -1.
</event>
<event>
 7    1  0.2700100E-010  0.4778728E+02  0.7816164E-02  0.1312668E+00
        -11   -1    0    0    0    0  0.00000000000E+00  0.00000000000E+00  0.45593999997E+02  0.45594000000E+02  0.51100000000E-03 0.  1.
         11   -1    0    0    0    0 -0.00000000000E+00 -0.00000000000E+00 -0.45593999997E+02  0.45594000000E+02  0.51100000000E-03 0. -1.
    9900012    2    1    2    0    0 -0.89675657106E+00 -0.31845413961E+02 -0.29473518638E+02  0.47787275771E+02  0.20000021551E+02 0.  0.
        -12    1    1    2    0    0  0.89675657106E+00  0.31845413961E+02  0.29473518638E+02  0.43400724229E+02  0.00000000000E+00 0.  1.
         11    1    3    3    0    0 -0.34769417586E+01 -0.23761204503E+02 -0.16157119130E+02  0.28943677414E+02  0.51100000000E-03 0. -1.
        -11    1    3    3    0    0  0.60787449985E+01 -0.27724356263E+01 -0.48579498653E+01  0.82605821353E+01  0.51100000000E-03 0.  1.
        -12    1    3    3    0    0 -0.34985598109E+01 -0.53117738319E+01 -0.84584496429E+01  0.10583016222E+02  0.00000000000E+00 0.  1.
</event>
<event>
 7    1  0.2700100E-010  0.4778727E+02  0.7816164E-02  0.1312668E+00
        -11   -1    0    0    0    0  0.00000000000E+00  0.00000000000E+00  0.45593999997E+02  0.45594000000E+02  0.51100000000E-03 0.  1.
         11   -1    0    0    0    0 -0.00000000000E+00 -0.00000000000E+00 -0.45593999997E+02  0.45594000000E+02  0.51100000000E-03 0. -1.
    9900012    2    1    2    0    0 -0.39780121663E+00 -0.51930296026E+00 -0.43395796492E+02  0.47787273341E+02  0.20000010471E+02 0.  0.
        -12    1    1    2    0    0  0.39780121663E+00  0.51930296026E+00  0.43395796492E+02  0.43400726659E+02  0.00000000000E+00 0.  1.
         11    1    3    3    0    0 -0.24603092563E+01 -0.10666421561E+01 -0.54754183721E+01  0.60968068475E+01  0.51100000000E-03 0. -1.
        -11    1    3    3    0    0 -0.28671921996E+01 -0.31577589645E+01 -0.11651843874E+01  0.44215254953E+01  0.51100000000E-03 0.  1.
        -12    1    3    3    0    0  0.49297002393E+01  0.37050981603E+01 -0.36755193732E+02  0.37268940998E+02  0.00000000000E+00 0.  1.
</event>
<event>
 7    1  0.2700100E-010  0.4778727E+02  0.7816164E-02  0.1312668E+00
        -11   -1    0    0    0    0  0.00000000000E+00  0.00000000000E+00  0.45593999997E+02  0.45594000000E+02  0.51100000000E-03 0.  1.
         11   -1    0    0    0    0 -0.00000000000E+00 -0.00000000000E+00 -0.45593999997E+02  0.45594000000E+02  0.51100000000E-03 0. -1.
    9900012    2    1    2    0    0 -0.39987568138E+01  0.10816305365E+01 -0.43202585576E+02  0.47787269809E+02  0.19999994367E+02 0.  0.
        -12    1    1    2    0    0  0.39987568138E+01 -0.10816305365E+01  0.43202585576E+02  0.43400730191E+02  0.00000000000E+00 0.  1.
         11    1    3    3    0    0 -0.12277316848E+00 -0.51905773921E+01 -0.33339477021E+02  0.33741338076E+02  0.51100000000E-03 0. -1.
        -11    1    3    3    0    0 -0.39918040801E+01  0.22410714676E+01 -0.15968145945E+01  0.48483727422E+01  0.51100000000E-03 0.  1.
         12    1    3    3    0    0  0.11582043478E+00  0.40311364609E+01 -0.82662939605E+01  0.91975589904E+01  0.00000000000E+00 0. -1.
</event>
<event>
 7    1  0.2700100E-010  0.4778727E+02  0.7816164E-02  0.1312668E+00
        -11   -1    0    0    0    0  0.00000000000E+00  0.00000000000E+00  0.45593999997E+02  0.45594000000E+02  0.51100000000E-03 0. -1.
         11   -1    0    0    0    0 -0.00000000000E+00 -0.00000000000E+00 -0.45593999997E+02  0.45594000000E+02  0.51100000000E-03 0.  1.
    9900012    2    1    2    0    0  0.28886857396E+02 -0.30105906381E+02 -0.11950197780E+02  0.47787270095E+02  0.19999995673E+02 0.  0.
        -12    1    1    2    0    0 -0.28886857396E+02  0.30105906381E+02  0.11950197780E+02  0.43400729905E+02  0.00000000000E+00 0.  1.
         11    1    3    3    0    0  0.25405853811E+02 -0.16895043977E+02 -0.76597546811E+01  0.31457459543E+02  0.51100000000E-03 0. -1.
        -11    1    3    3    0    0  0.15338861289E+01 -0.15670755653E+00  0.12799519970E+01  0.20039065074E+01  0.51100000000E-03 0.  1.
         12    1    3    3    0    0  0.19471174560E+01 -0.13054154848E+02 -0.55703950964E+01  0.14325904045E+02  0.00000000000E+00 0. -1.
</event>
<event>
 7    1  0.2700100E-010  0.4778727E+02  0.7816164E-02  0.1312668E+00
        -11   -1    0    0    0    0  0.00000000000E+00  0.00000000000E+00  0.45593999997E+02  0.45594000000E+02  0.51100000000E-03 0. -1.
         11   -1    0    0    0    0 -0.00000000000E+00 -0.00000000000E+00 -0.45593999997E+02  0.45594000000E+02  0.51100000000E-03 0.  1.
    9900012    2    1    2    0    0  0.19679874872E+02  0.21925154946E+02  0.31868689483E+02  0.47787271161E+02  0.20000000530E+02 0.  0.
        -12    1    1    2    0    0 -0.19679874872E+02 -0.21925154946E+02 -0.31868689483E+02  0.43400728839E+02  0.00000000000E+00 0.  1.
         11    1    3    3    0    0  0.59303113278E+01  0.38402598297E+00  0.15876029076E+02  0.16951824913E+02  0.51100000000E-03 0. -1.
        -11    1    3    3    0    0  0.74902392399E+01  0.71451650191E+01  0.40693311143E+01  0.11122792950E+02  0.51100000000E-03 0.  1.
         12    1    3    3    0    0  0.62593243047E+01  0.14395963944E+02  0.11923329293E+02  0.19712653298E+02  0.00000000000E+00 0. -1.
</event>
<event>
 7    1  0.2700100E-010  0.4778727E+02  0.7816164E-02  0.1312668E+00
        -11   -1    0    0    0    0  0.00000000000E+00  0.00000000000E+00  0.45593999997E+02  0.45594000000E+02  0.51100000000E-03 0.  1.
         11   -1    0    0    0    0 -0.00000000000E+00 -0.00000000000E+00 -0.45593999997E+02  0.45594000000E+02  0.51100000000E-03 0. -1.
    9900012    2    1    2    0    0  0.41212312033E+02 -0.68166635351E+01 -0.11777170061E+02  0.47787270749E+02  0.19999998655E+02 0.  0.
        -12    1    1    2    0    0 -0.41212312033E+02  0.68166635351E+01  0.11777170061E+02  0.43400729251E+02  0.00000000000E+00 0.  1.
         11    1    3    3    0    0  0.34386371101E+02 -0.10505254241E+02 -0.96329017698E+01  0.37223321734E+02  0.51100000000E-03 0. -1.
        -11    1    3    3    0    0  0.34475775525E+01  0.52622965887E+01 -0.26041754474E+01  0.68087654087E+01  0.51100000000E-03 0.  1.
         12    1    3    3    0    0  0.33783633796E+01 -0.15737058825E+01  0.45990715586E+00  0.37551836069E+01  0.00000000000E+00 0. -1.
</event>
<event>
 7    1  0.2700100E-010  0.4778728E+02  0.7816164E-02  0.1312668E+00
        -11   -1    0    0    0    0  0.00000000000E+00  0.00000000000E+00  0.45593999997E+02  0.45594000000E+02  0.51100000000E-03 0. -1.
         11   -1    0    0    0    0 -0.00000000000E+00 -0.00000000000E+00 -0.45593999997E+02  0.45594000000E+02  0.51100000000E-03 0.  1.
    9900012    2    1    2    0    0  0.34723771452E+02  0.23828394055E+02  0.10492388923E+02  0.47787275439E+02  0.20000020035E+02 0.  0.
        -12    1    1    2    0    0 -0.34723771452E+02 -0.23828394055E+02 -0.10492388923E+02  0.43400724561E+02  0.00000000000E+00 0.  1.
         11    1    3    3    0    0  0.32334168804E+02  0.16415632448E+02  0.66581676446E+01  0.36868721941E+02  0.51100000000E-03 0. -1.
        -11    1    3    3    0    0  0.28584368641E+01  0.79511540573E+01  0.47999737479E+01  0.97175748204E+01  0.51100000000E-03 0.  1.
         12    1    3    3    0    0 -0.46883421567E+00 -0.53839245038E+00 -0.96575246899E+00  0.12009786775E+01  0.00000000000E+00 0. -1.
</event>
<event>
 7    1  0.2700100E-010  0.4778727E+02  0.7816164E-02  0.1312668E+00
        -11   -1    0    0    0    0  0.00000000000E+00  0.00000000000E+00  0.45593999997E+02  0.45594000000E+02  0.51100000000E-03 0.  1.
         11   -1    0    0    0    0 -0.00000000000E+00 -0.00000000000E+00 -0.45593999997E+02  0.45594000000E+02  0.51100000000E-03 0. -1.
    9900012    2    1    2    0    0  0.23383283572E+02 -0.24818936978E+02 -0.26848945063E+02  0.47787269196E+02  0.19999991572E+02 0.  0.
        -12    1    1    2    0    0 -0.23383283572E+02  0.24818936978E+02  0.26848945063E+02  0.43400730804E+02  0.00000000000E+00 0.  1.
         11    1    3    3    0    0 -0.18066125864E+01 -0.71473659179E+01 -0.46954258690E+01  0.87404641154E+01  0.51100000000E-03 0.  1.
        -11    1    3    3    0    0  0.12414486896E+02 -0.67924963919E+01 -0.48906577879E+01  0.14972509008E+02  0.51100000000E-03 0. -1.
         12    1    3    3    0    0  0.12775409262E+02 -0.10879074668E+02 -0.17262861407E+02  0.24074296073E+02  0.00000000000E+00 0. -1.
</event>
<event>
 7    1  0.2700100E-010  0.4778727E+02  0.7816164E-02  0.1312668E+00
        -11   -1    0    0    0    0  0.00000000000E+00  0.00000000000E+00  0.45593999997E+02  0.45594000000E+02  0.51100000000E-03 0. -1.
         11   -1    0    0    0    0 -0.00000000000E+00 -0.00000000000E+00 -0.45593999997E+02  0.45594000000E+02  0.51100000000E-03 0.  1.
    9900012    2    1    2    0    0  0.16285912961E+02 -0.75231866477E+01  0.39519542254E+02  0.47787268229E+02  0.19999987163E+02 0.  0.
        -12    1    1    2    0    0 -0.16285912961E+02  0.75231866477E+01 -0.39519542254E+02  0.43400731771E+02  0.00000000000E+00 0.  1.
         11    1    3    3    0    0  0.41418257000E+01 -0.78581420062E+01  0.31403534312E+02  0.32635671947E+02  0.51100000000E-03 0. -1.
        -11    1    3    3    0    0  0.98581406838E+01 -0.11827433387E+01  0.54520708533E+01  0.11327263412E+02  0.51100000000E-03 0.  1.
         12    1    3    3    0    0  0.22859465769E+01  0.15176986973E+01  0.26639370890E+01  0.38243328702E+01  0.00000000000E+00 0. -1.
</event>
<event>
 7    1  0.2700100E-010  0.4778725E+02  0.7816164E-02  0.1312668E+00
        -11   -1    0    0    0    0  0.00000000000E+00  0.00000000000E+00  0.45593999997E+02  0.45594000000E+02  0.51100000000E-03 0. -1.
         11   -1    0    0    0    0 -0.00000000000E+00 -0.00000000000E+00 -0.45593999997E+02  0.45594000000E+02  0.51100000000E-03 0.  1.
    9900012    2    1    2    0    0 -0.34864836912E+02 -0.88173066648E+01  0.24296574115E+02  0.47787248124E+02  0.19999895494E+02 0.  0.
        -12    1    1    2    0    0  0.34864836912E+02  0.88173066648E+01 -0.24296574115E+02  0.43400751876E+02  0.00000000000E+00 0.  1.
         11    1    3    3    0    0 -0.26898472584E+01  0.27653939816E+01  0.97943091663E+01  0.10526688675E+02  0.51100000000E-03 0. -1.
        -11    1    3    3    0    0 -0.12756621262E+02 -0.61150930742E+01  0.61980471125E+01  0.15444789982E+02  0.51100000000E-03 0.  1.
         12    1    3    3    0    0 -0.19418368391E+02 -0.54676075722E+01  0.83042178362E+01  0.21815769467E+02  0.00000000000E+00 0. -1.
</event>
<event>
 7    1  0.2700100E-010  0.4778727E+02  0.7816164E-02  0.1312668E+00
        -11   -1    0    0    0    0  0.00000000000E+00  0.00000000000E+00  0.45593999997E+02  0.45594000000E+02  0.51100000000E-03 0.  1.
         11   -1    0    0    0    0 -0.00000000000E+00 -0.00000000000E+00 -0.45593999997E+02  0.45594000000E+02  0.51100000000E-03 0. -1.
    9900012    2    1    2    0    0 -0.32525516357E+02 -0.13055035909E+01 -0.28705576198E+02  0.47787266611E+02  0.19999979785E+02 0.  0.
        -12    1    1    2    0    0  0.32525516357E+02  0.13055035909E+01  0.28705576198E+02  0.43400733389E+02  0.00000000000E+00 0.  1.
         11    1    3    3    0    0 -0.18973260451E+02 -0.75722473511E+01 -0.19436204759E+02  0.28197333168E+02  0.51100000000E-03 0. -1.
        -11    1    3    3    0    0 -0.16506593929E+01  0.33979447488E+01  0.65014310535E+00  0.38331959598E+01  0.51100000000E-03 0.  1.
        -12    1    3    3    0    0 -0.11901596513E+02  0.28687990114E+01 -0.99195145444E+01  0.15756737483E+02  0.00000000000E+00 0.  1.
</event>
<event>
 7    1  0.2700100E-010  0.4778729E+02  0.7816164E-02  0.1312668E+00
        -11   -1    0    0    0    0  0.00000000000E+00  0.00000000000E+00  0.45593999997E+02  0.45594000000E+02  0.51100000000E-03 0.  1.
         11   -1    0    0    0    0 -0.00000000000E+00 -0.00000000000E+00 -0.45593999997E+02  0.45594000000E+02  0.51100000000E-03 0. -1.
    9900012    2    1    2    0    0  0.17206934224E+02  0.77960984689E+01 -0.39073831551E+02  0.47787285158E+02  0.20000064349E+02 0.  0.
        -12    1    1    2    0    0 -0.17206934224E+02 -0.77960984689E+01  0.39073831551E+02  0.43400714842E+02  0.00000000000E+00 0.  1.
         11    1    3    3    0    0  0.93545053865E+01 -0.31297953319E+01 -0.52394650993E+01  0.11169350233E+02  0.51100000000E-03 0. -1.
        -11    1    3    3    0    0  0.39283585288E+01  0.79699761330E+01 -0.18648892067E+02  0.20657533635E+02  0.51100000000E-03 0.  1.
         12    1    3    3    0    0  0.39240703090E+01  0.29559176678E+01 -0.15185474384E+02  0.15960401290E+02  0.00000000000E+00 0. -1.
</event>
<event>
 7    1  0.2700100E-010  0.4778727E+02  0.7816164E-02  0.1312668E+00
        -11   -1    0    0    0    0  0.00000000000E+00  0.00000000000E+00  0.45593999997E+02  0.45594000000E+02  0.51100000000E-03 0.  1.
         11   -1    0    0    0    0 -0.00000000000E+00 -0.00000000000E+00 -0.45593999997E+02  0.45594000000E+02  0.51100000000E-03 0. -1.
    9900012    2    1    2    0    0 -0.39368912995E+02 -0.17390436977E+02  0.55933122531E+01  0.47787265552E+02  0.19999974958E+02 0.  0.
        -12    1    1    2    0    0  0.39368912995E+02  0.17390436977E+02 -0.55933122531E+01  0.43400734448E+02  0.00000000000E+00 0.  1.
         11    1    3    3    0    0 -0.60903351717E+01 -0.65145818391E+01 -0.54292962591E+01  0.10440747922E+02  0.51100000000E-03 0. -1.
        -11    1    3    3    0    0 -0.17424206433E+02 -0.42082025680E+01  0.89111858846E+01  0.20018021201E+02  0.51100000000E-03 0.  1.
         12    1    3    3    0    0 -0.15854371390E+02 -0.66676525703E+01  0.21114226275E+01  0.17328496429E+02  0.00000000000E+00 0. -1.
</event>
<event>
 7    1  0.2700100E-010  0.4778727E+02  0.7816164E-02  0.1312668E+00
        -11   -1    0    0    0    0  0.00000000000E+00  0.00000000000E+00  0.45593999997E+02  0.45594000000E+02  0.51100000000E-03 0.  1.
         11   -1    0    0    0    0 -0.00000000000E+00 -0.00000000000E+00 -0.45593999997E+02  0.45594000000E+02  0.51100000000E-03 0. -1.
    9900012    2    1    2    0    0  0.41003972657E+02 -0.10047441135E+02 -0.10067096634E+02  0.47787270955E+02  0.19999999590E+02 0.  0.
        -12    1    1    2    0    0 -0.41003972657E+02  0.10047441135E+02  0.10067096634E+02  0.43400729045E+02  0.00000000000E+00 0.  1.
         11    1    3    3    0    0  0.18258360787E+02 -0.48212914115E+01 -0.51692600517E+01  0.19578913127E+02  0.51100000000E-03 0. -1.
        -11    1    3    3    0    0  0.13088101170E+02 -0.75285560081E+01 -0.88739918300E+01  0.17513574138E+02  0.51100000000E-03 0.  1.
        -12    1    3    3    0    0  0.96575107002E+01  0.23024062847E+01  0.39761552475E+01  0.10694783690E+02  0.00000000000E+00 0.  1.
</event>
<event>
 7    1  0.2700100E-010  0.4778727E+02  0.7816164E-02  0.1312668E+00
        -11   -1    0    0    0    0  0.00000000000E+00  0.00000000000E+00  0.45593999997E+02  0.45594000000E+02  0.51100000000E-03 0.  1.
         11   -1    0    0    0    0 -0.00000000000E+00 -0.00000000000E+00 -0.45593999997E+02  0.45594000000E+02  0.51100000000E-03 0. -1.
    9900012    2    1    2    0    0  0.19501023114E+02 -0.83659706216E+01 -0.37859524689E+02  0.47787274469E+02  0.20000015613E+02 0.  0.
        -12    1    1    2    0    0 -0.19501023114E+02  0.83659706216E+01  0.37859524689E+02  0.43400725531E+02  0.00000000000E+00 0.  1.
         11    1    3    3    0    0  0.13215091675E+02 -0.55670595862E+01 -0.25582230154E+02  0.29327142724E+02  0.51100000000E-03 0. -1.
        -11    1    3    3    0    0  0.28830909098E+01  0.44445854898E+01 -0.25970972707E+01  0.59001243940E+01  0.51100000000E-03 0.  1.
        -12    1    3    3    0    0  0.34028405299E+01 -0.72434965252E+01 -0.96801972643E+01  0.12560007351E+02  0.00000000000E+00 0.  1.
</event>
<event>
 7    1  0.2700100E-010  0.4778727E+02  0.7816164E-02  0.1312668E+00
        -11   -1    0    0    0    0  0.00000000000E+00  0.00000000000E+00  0.45593999997E+02  0.45594000000E+02  0.51100000000E-03 0.  1.
         11   -1    0    0    0    0 -0.00000000000E+00 -0.00000000000E+00 -0.45593999997E+02  0.45594000000E+02  0.51100000000E-03 0. -1.
    9900012    2    1    2    0    0 -0.94558147718E+01  0.39538902182E+02 -0.15194934030E+02  0.47787271447E+02  0.20000001834E+02 0.  0.
        -12    1    1    2    0    0  0.94558147718E+01 -0.39538902182E+02  0.15194934030E+02  0.43400728553E+02  0.00000000000E+00 0.  1.
         11    1    3    3    0    0  0.25962114085E+01  0.23903599080E+02 -0.72812924908E+01  0.25122491581E+02  0.51100000000E-03 0.  1.
        -11    1    3    3    0    0 -0.10290965009E+02  0.14046244291E+02 -0.36580370148E+01  0.17792756239E+02  0.51100000000E-03 0. -1.
        -12    1    3    3    0    0 -0.17610611711E+01  0.15890588115E+01 -0.42556045241E+01  0.48720236268E+01  0.00000000000E+00 0.  1.
</event>
<event>
 7    1  0.3489601E-010  0.4778727E+02  0.7816164E-02  0.1312668E+00
        -11   -1    0    0    0    0  0.00000000000E+00  0.00000000000E+00  0.45593999997E+02  0.45594000000E+02  0.51100000000E-03 0. -1.
         11   -1    0    0    0    0 -0.00000000000E+00 -0.00000000000E+00 -0.45593999997E+02  0.45594000000E+02  0.51100000000E-03 0.  1.
    9900012    2    1    2    0    0 -0.24044468166E+02  0.35996607271E+02 -0.31194735654E+01  0.47787270747E+02  0.19999998642E+02 0.  0.
        -12    1    1    2    0    0  0.24044468166E+02 -0.35996607271E+02  0.31194735654E+01  0.43400729253E+02  0.00000000000E+00 0.  1.
         11    1    3    3    0    0 -0.14649059351E+02  0.19761747462E+02  0.28222041062E+01  0.24760582362E+02  0.51100000000E-03 0. -1.
        -11    1    3    3    0    0 -0.82114096437E+01  0.36119644421E+01 -0.51032523660E+01  0.10320693796E+02  0.51100000000E-03 0.  1.
        -12    1    3    3    0    0 -0.11839991713E+01  0.12622895367E+02 -0.83842530565E+00  0.12705994588E+02  0.00000000000E+00 0.  1.
</event>
<event>
 7    1  0.2700100E-010  0.4778727E+02  0.7816164E-02  0.1312668E+00
        -11   -1    0    0    0    0  0.00000000000E+00  0.00000000000E+00  0.45593999997E+02  0.45594000000E+02  0.51100000000E-03 0. -1.
         11   -1    0    0    0    0 -0.00000000000E+00 -0.00000000000E+00 -0.45593999997E+02  0.45594000000E+02  0.51100000000E-03 0.  1.
    9900012    2    1    2    0    0  0.10498641646E+02  0.41842785950E+02  0.47521681599E+01  0.47787270575E+02  0.19999997858E+02 0.  0.
        -12    1    1    2    0    0 -0.10498641646E+02 -0.41842785950E+02 -0.47521681599E+01  0.43400729425E+02  0.00000000000E+00 0.  1.
         11    1    3    3    0    0  0.91854844514E+01  0.23234368408E+02  0.13876411513E+01  0.25022680675E+02  0.51100000000E-03 0. -1.
        -11    1    3    3    0    0 -0.19651126706E+01 -0.36023199395E+00  0.28844271182E+01  0.35087540465E+01  0.51100000000E-03 0.  1.
        -12    1    3    3    0    0  0.32782698649E+01  0.18968649536E+02  0.48009989035E+00  0.19255835854E+02  0.00000000000E+00 0.  1.
</event>
<event>
 7    1  0.2700100E-010  0.4778727E+02  0.7816164E-02  0.1312668E+00
        -11   -1    0    0    0    0  0.00000000000E+00  0.00000000000E+00  0.45593999997E+02  0.45594000000E+02  0.51100000000E-03 0.  1.
         11   -1    0    0    0    0 -0.00000000000E+00 -0.00000000000E+00 -0.45593999997E+02  0.45594000000E+02  0.51100000000E-03 0. -1.
    9900012    2    1    2    0    0 -0.20429646013E+02  0.37445943413E+02 -0.80033774251E+01  0.47787272304E+02  0.20000005744E+02 0.  0.
        -12    1    1    2    0    0  0.20429646013E+02 -0.37445943413E+02  0.80033774251E+01  0.43400727696E+02  0.00000000000E+00 0.  1.
         11    1    3    3    0    0 -0.33331155778E+01  0.23451060953E+02 -0.65191599132E+01  0.24567485942E+02  0.51100000000E-03 0. -1.
        -11    1    3    3    0    0 -0.26837692506E+01 -0.49793893624E+00 -0.30172945964E+00  0.27461976445E+01  0.51100000000E-03 0.  1.
         12    1    3    3    0    0 -0.14412761185E+02  0.14492821396E+02 -0.11824880522E+01  0.20473588717E+02  0.00000000000E+00 0. -1.
</event>
<event>
 7    1  0.2700100E-010  0.4778728E+02  0.7816164E-02  0.1312668E+00
        -11   -1    0    0    0    0  0.00000000000E+00  0.00000000000E+00  0.45593999997E+02  0.45594000000E+02  0.51100000000E-03 0. -1.
         11   -1    0    0    0    0 -0.00000000000E+00 -0.00000000000E+00 -0.45593999997E+02  0.45594000000E+02  0.51100000000E-03 0.  1.
    9900012    2    1    2    0    0  0.26986736933E+01  0.38780508194E+01  0.43142795332E+02  0.47787275272E+02  0.20000019276E+02 0.  0.
        -12    1    1    2    0    0 -0.26986736933E+01 -0.38780508194E+01 -0.43142795332E+02  0.43400724728E+02  0.00000000000E+00 0.  1.
         11    1    3    3    0    0  0.74592039042E+01  0.65895541488E+01  0.11931560552E+02  0.15537827526E+02  0.51100000000E-03 0. -1.
        -11    1    3    3    0    0 -0.54195346152E+01 -0.37282811085E+01  0.22106675081E+02  0.23064616165E+02  0.51100000000E-03 0.  1.
         12    1    3    3    0    0  0.65900440419E+00  0.10167777791E+01  0.91045596985E+01  0.91848315804E+01  0.00000000000E+00 0. -1.
</event>
<event>
 7    1  0.2700100E-010  0.4778727E+02  0.7816164E-02  0.1312668E+00
        -11   -1    0    0    0    0  0.00000000000E+00  0.00000000000E+00  0.45593999997E+02  0.45594000000E+02  0.51100000000E-03 0. -1.
         11   -1    0    0    0    0 -0.00000000000E+00 -0.00000000000E+00 -0.45593999997E+02  0.45594000000E+02  0.51100000000E-03 0.  1.
    9900012    2    1    2    0    0 -0.66097620687E+01  0.40462732400E+02  0.14237329168E+02  0.47787271783E+02  0.20000003368E+02 0.  0.
        -12    1    1    2    0    0  0.66097620687E+01 -0.40462732400E+02 -0.14237329168E+02  0.43400728217E+02  0.00000000000E+00 0.  1.
         11    1    3    3    0    0  0.50463045575E+01  0.43021691901E+01  0.28439851467E+01  0.72154072099E+01  0.51100000000E-03 0. -1.
        -11    1    3    3    0    0  0.10802652539E+01  0.66151812276E+01  0.11050868919E+01  0.67932917641E+01  0.51100000000E-03 0.  1.
         12    1    3    3    0    0 -0.12736331880E+02  0.29545381983E+02  0.10288257130E+02  0.33778572809E+02  0.00000000000E+00 0. -1.
</event>
<event>
 7    1  0.2700100E-010  0.4778727E+02  0.7816164E-02  0.1312668E+00
        -11   -1    0    0    0    0  0.00000000000E+00  0.00000000000E+00  0.45593999997E+02  0.45594000000E+02  0.51100000000E-03 0.  1.
         11   -1    0    0    0    0 -0.00000000000E+00 -0.00000000000E+00 -0.45593999997E+02  0.45594000000E+02  0.51100000000E-03 0. -1.
    9900012    2    1    2    0    0  0.15359787697E+02  0.40587362655E+02 -0.60531956646E+00  0.47787268472E+02  0.19999988272E+02 0.  0.
        -12    1    1    2    0    0 -0.15359787697E+02 -0.40587362655E+02  0.60531956646E+00  0.43400731528E+02  0.00000000000E+00 0.  1.
         11    1    3    3    0    0  0.21421787919E+01  0.24281848007E+02 -0.61627155368E+01  0.25143113086E+02  0.51100000000E-03 0. -1.
        -11    1    3    3    0    0  0.71233594104E+01  0.60588597413E+01  0.52364313399E+01  0.10717846990E+02  0.51100000000E-03 0.  1.
         12    1    3    3    0    0  0.60942494943E+01  0.10246654907E+02  0.32096463047E+00  0.11926308397E+02  0.00000000000E+00 0. -1.
</event>
<event>
 7    1  0.2700100E-010  0.4778728E+02  0.7816164E-02  0.1312668E+00
        -11   -1    0    0    0    0  0.00000000000E+00  0.00000000000E+00  0.45593999997E+02  0.45594000000E+02  0.51100000000E-03 0. -1.
         11   -1    0    0    0    0 -0.00000000000E+00 -0.00000000000E+00 -0.45593999997E+02  0.45594000000E+02  0.51100000000E-03 0.  1.
    9900012    2    1    2    0    0 -0.40495633424E+02 -0.28761540560E+01  0.15344520169E+02  0.47787275493E+02  0.20000020282E+02 0.  0.
        -12    1    1    2    0    0  0.40495633424E+02  0.28761540560E+01 -0.15344520169E+02  0.43400724507E+02  0.00000000000E+00 0.  1.
         11    1    3    3    0    0 -0.26165207301E+02  0.37348150462E+01  0.59197485433E+01  0.27085242100E+02  0.51100000000E-03 0. -1.
        -11    1    3    3    0    0 -0.56331266425E+01 -0.45226583141E+01 -0.62178698543E+00  0.72507360531E+01  0.51100000000E-03 0.  1.
         12    1    3    3    0    0 -0.86972994796E+01 -0.20883107882E+01  0.10046558611E+02  0.13451297339E+02  0.00000000000E+00 0. -1.
</event>
<event>
 7    1  0.2700100E-010  0.4778727E+02  0.7816164E-02  0.1312668E+00
        -11   -1    0    0    0    0  0.00000000000E+00  0.00000000000E+00  0.45593999997E+02  0.45594000000E+02  0.51100000000E-03 0. -1.
         11   -1    0    0    0    0 -0.00000000000E+00 -0.00000000000E+00 -0.45593999997E+02  0.45594000000E+02  0.51100000000E-03 0.  1.
    9900012    2    1    2    0    0  0.33711849737E+02 -0.42099273753E+01  0.27007613524E+02  0.47787268561E+02  0.19999988677E+02 0.  0.
        -12    1    1    2    0    0 -0.33711849737E+02  0.42099273753E+01 -0.27007613524E+02  0.43400731439E+02  0.00000000000E+00 0.  1.
         11    1    3    3    0    0  0.91515583381E+01 -0.39230576780E+01  0.94682448340E+01  0.13740053204E+02  0.51100000000E-03 0. -1.
        -11    1    3    3    0    0 -0.73983525127E+00 -0.34570165343E+01  0.33330702780E+01  0.48587732255E+01  0.51100000000E-03 0.  1.
        -12    1    3    3    0    0  0.25300126650E+02  0.31701468371E+01  0.14206298412E+02  0.29188442131E+02  0.00000000000E+00 0.  1.
</event>
<event>
 7    1  0.2700100E-010  0.4778727E+02  0.7816164E-02  0.1312668E+00
        -11   -1    0    0    0    0  0.00000000000E+00  0.00000000000E+00  0.45593999997E+02  0.45594000000E+02  0.51100000000E-03 0. -1.
         11   -1    0    0    0    0 -0.00000000000E+00 -0.00000000000E+00 -0.45593999997E+02  0.45594000000E+02  0.51100000000E-03 0.  1.
    9900012    2    1    2    0    0  0.17195907344E+02 -0.28850522545E+02  0.27487660648E+02  0.47787269955E+02  0.19999995035E+02 0.  0.
        -12    1    1    2    0    0 -0.17195907344E+02  0.28850522545E+02 -0.27487660648E+02  0.43400730045E+02  0.00000000000E+00 0.  1.
         11    1    3    3    0    0  0.14489344539E+02 -0.23786198949E+02  0.29706469022E+02  0.40720985593E+02  0.51100000000E-03 0. -1.
        -11    1    3    3    0    0 -0.39572226612E+00 -0.14433580584E+01 -0.17078211061E+01  0.22707998125E+01  0.51100000000E-03 0.  1.
         12    1    3    3    0    0  0.31022850712E+01 -0.36209655373E+01 -0.51098726775E+00  0.47954845504E+01  0.00000000000E+00 0. -1.
</event>
<event>
 7    1  0.2700100E-010  0.4778727E+02  0.7816164E-02  0.1312668E+00
        -11   -1    0    0    0    0  0.00000000000E+00  0.00000000000E+00  0.45593999997E+02  0.45594000000E+02  0.51100000000E-03 0.  1.
         11   -1    0    0    0    0 -0.00000000000E+00 -0.00000000000E+00 -0.45593999997E+02  0.45594000000E+02  0.51100000000E-03 0. -1.
    9900012    2    1    2    0    0  0.15898020684E+02 -0.33869176288E+01 -0.40241834132E+02  0.47787268589E+02  0.19999988803E+02 0.  0.
        -12    1    1    2    0    0 -0.15898020684E+02  0.33869176288E+01  0.40241834132E+02  0.43400731411E+02  0.00000000000E+00 0.  1.
         11    1    3    3    0    0  0.42825056889E+01 -0.15354439431E+01 -0.22566570954E+02  0.23020590087E+02  0.51100000000E-03 0. -1.
        -11    1    3    3    0    0 -0.23726030620E+01  0.39013294723E-02 -0.60002893128E+01  0.64523431875E+01  0.51100000000E-03 0.  1.
        -12    1    3    3    0    0  0.13988118057E+02 -0.18553750152E+01 -0.11674973865E+02  0.18314335314E+02  0.00000000000E+00 0.  1.
</event>
<event>
 7    1  0.2700100E-010  0.4778728E+02  0.7816164E-02  0.1312668E+00
        -11   -1    0    0    0    0  0.00000000000E+00  0.00000000000E+00  0.45593999997E+02  0.45594000000E+02  0.51100000000E-03 0.  1.
         11   -1    0    0    0    0 -0.00000000000E+00 -0.00000000000E+00 -0.45593999997E+02  0.45594000000E+02  0.51100000000E-03 0. -1.
    9900012    2    1    2    0    0  0.23138383862E+02 -0.99885040654E+01 -0.35333664978E+02  0.47787275329E+02  0.20000019536E+02 0.  0.
        -12    1    1    2    0    0 -0.23138383862E+02  0.99885040654E+01  0.35333664978E+02  0.43400724671E+02  0.00000000000E+00 0.  1.
         11    1    3    3    0    0  0.18048526996E+01 -0.11890658160E+01 -0.16451991553E+02  0.16593354005E+02  0.51100000000E-03 0. -1.
        -11    1    3    3    0    0  0.44204411687E+01 -0.60297298765E+01 -0.39106469637E+01  0.84374819968E+01  0.51100000000E-03 0.  1.
         12    1    3    3    0    0  0.16913089994E+02 -0.27697083729E+01 -0.14971026460E+02  0.22756439328E+02  0.00000000000E+00 0. -1.
</event>
<event>
 7    1  0.2700100E-010  0.4778726E+02  0.7816164E-02  0.1312668E+00
        -11   -1    0    0    0    0  0.00000000000E+00  0.00000000000E+00  0.45593999997E+02  0.45594000000E+02  0.51100000000E-03 0.  1.
         11   -1    0    0    0    0 -0.00000000000E+00 -0.00000000000E+00 -0.45593999997E+02  0.45594000000E+02  0.51100000000E-03 0. -1.
    9900012    2    1    2    0    0  0.18347981984E+02 -0.18080277322E+02 -0.34929628738E+02  0.47787264583E+02  0.19999970542E+02 0.  0.
        -12    1    1    2    0    0 -0.18347981984E+02  0.18080277322E+02  0.34929628738E+02  0.43400735417E+02  0.00000000000E+00 0.  1.
         11    1    3    3    0    0  0.32598637600E+01 -0.36126005936E+01 -0.54998822601E+01  0.73434528608E+01  0.51100000000E-03 0. -1.
        -11    1    3    3    0    0  0.95926174470E+01 -0.84708941566E+01 -0.34988609996E+01  0.13267116712E+02  0.51100000000E-03 0.  1.
        -12    1    3    3    0    0  0.54955007771E+01 -0.59967825716E+01 -0.25930885478E+02  0.27176695011E+02  0.00000000000E+00 0.  1.
</event>
<event>
 7    1  0.2700100E-010  0.4778727E+02  0.7816164E-02  0.1312668E+00
        -11   -1    0    0    0    0  0.00000000000E+00  0.00000000000E+00  0.45593999997E+02  0.45594000000E+02  0.51100000000E-03 0.  1.
         11   -1    0    0    0    0 -0.00000000000E+00 -0.00000000000E+00 -0.45593999997E+02  0.45594000000E+02  0.51100000000E-03 0. -1.
    9900012    2    1    2    0    0 -0.91544550473E+01  0.92586428674E+01 -0.41401653278E+02  0.47787269486E+02  0.19999992897E+02 0.  0.
        -12    1    1    2    0    0  0.91544550473E+01 -0.92586428674E+01  0.41401653278E+02  0.43400730514E+02  0.00000000000E+00 0.  1.
         11    1    3    3    0    0  0.50931227241E+00 -0.44227754783E+01 -0.18729286091E+02  0.19251142814E+02  0.51100000000E-03 0. -1.
        -11    1    3    3    0    0 -0.57959886517E+01  0.11365981375E+02 -0.15653439164E+02  0.20194285701E+02  0.51100000000E-03 0.  1.
         12    1    3    3    0    0 -0.38677786681E+01  0.23154369712E+01 -0.70189280234E+01  0.83418409713E+01  0.00000000000E+00 0. -1.
</event>
<event>
 7    1  0.2700100E-010  0.4778727E+02  0.7816164E-02  0.1312668E+00
        -11   -1    0    0    0    0  0.00000000000E+00  0.00000000000E+00  0.45593999997E+02  0.45594000000E+02  0.51100000000E-03 0. -1.
         11   -1    0    0    0    0 -0.00000000000E+00 -0.00000000000E+00 -0.45593999997E+02  0.45594000000E+02  0.51100000000E-03 0.  1.
    9900012    2    1    2    0    0 -0.35584324809E+02 -0.15398493020E+02  0.19500401629E+02  0.47787269325E+02  0.19999992162E+02 0.  0.
        -12    1    1    2    0    0  0.35584324809E+02  0.15398493020E+02 -0.19500401629E+02  0.43400730675E+02  0.00000000000E+00 0.  1.
         11    1    3    3    0    0 -0.10273886944E+02 -0.10029949077E+02  0.21407347425E+01  0.14516727487E+02  0.51100000000E-03 0. -1.
        -11    1    3    3    0    0 -0.65806097990E+01  0.36496242691E+01  0.36026300137E+01  0.83428487885E+01  0.51100000000E-03 0.  1.
        -12    1    3    3    0    0 -0.18729828066E+02 -0.90181682122E+01  0.13757036873E+02  0.24927693050E+02  0.00000000000E+00 0.  1.
</event>
<event>
 7    1  0.2700100E-010  0.4778727E+02  0.7816164E-02  0.1312668E+00
        -11   -1    0    0    0    0  0.00000000000E+00  0.00000000000E+00  0.45593999997E+02  0.45594000000E+02  0.51100000000E-03 0. -1.
         11   -1    0    0    0    0 -0.00000000000E+00 -0.00000000000E+00 -0.45593999997E+02  0.45594000000E+02  0.51100000000E-03 0.  1.
    9900012    2    1    2    0    0 -0.25401075512E+02  0.32275216755E+02  0.14025662827E+02  0.47787268768E+02  0.19999989622E+02 0.  0.
        -12    1    1    2    0    0  0.25401075512E+02 -0.32275216755E+02 -0.14025662827E+02  0.43400731232E+02  0.00000000000E+00 0.  1.
         11    1    3    3    0    0 -0.35226546776E+01  0.10187752724E+02  0.95524683359E+00  0.10821825091E+02  0.51100000000E-03 0. -1.
        -11    1    3    3    0    0 -0.59300631032E+01  0.62358359660E+01 -0.32312003400E+01  0.91919505276E+01  0.51100000000E-03 0.  1.
        -12    1    3    3    0    0 -0.15948357731E+02  0.15851628065E+02  0.16301616333E+02  0.27773493149E+02  0.00000000000E+00 0.  1.
</event>
<event>
 7    1  0.2700100E-010  0.4778727E+02  0.7816164E-02  0.1312668E+00
        -11   -1    0    0    0    0  0.00000000000E+00  0.00000000000E+00  0.45593999997E+02  0.45594000000E+02  0.51100000000E-03 0.  1.
         11   -1    0    0    0    0 -0.00000000000E+00 -0.00000000000E+00 -0.45593999997E+02  0.45594000000E+02  0.51100000000E-03 0. -1.
    9900012    2    1    2    0    0  0.21468404542E+02 -0.29579141381E+02 -0.23405237689E+02  0.47787272475E+02  0.20000006521E+02 0.  0.
        -12    1    1    2    0    0 -0.21468404542E+02  0.29579141381E+02  0.23405237689E+02  0.43400727525E+02  0.00000000000E+00 0.  1.
         11    1    3    3    0    0  0.10453832496E+02 -0.12463103598E+02 -0.75893300850E+01  0.17950194889E+02  0.51100000000E-03 0. -1.
        -11    1    3    3    0    0  0.13676361504E+01 -0.15408458047E+02 -0.89202154025E+01  0.17856686454E+02  0.51100000000E-03 0.  1.
        -12    1    3    3    0    0  0.96469358957E+01 -0.17075797361E+01 -0.68956922019E+01  0.11980391132E+02  0.00000000000E+00 0.  1.
</event>
<event>
 7    1  0.2700100E-010  0.4778727E+02  0.7816164E-02  0.1312668E+00
        -11   -1    0    0    0    0  0.00000000000E+00  0.00000000000E+00  0.45593999997E+02  0.45594000000E+02  0.51100000000E-03 0.  1.
         11   -1    0    0    0    0 -0.00000000000E+00 -0.00000000000E+00 -0.45593999997E+02  0.45594000000E+02  0.51100000000E-03 0. -1.
    9900012    2    1    2    0    0 -0.74540392306E+01  0.31168062979E+02 -0.29267947113E+02  0.47787267531E+02  0.19999983979E+02 0.  0.
        -12    1    1    2    0    0  0.74540392306E+01 -0.31168062979E+02  0.29267947113E+02  0.43400732469E+02  0.00000000000E+00 0.  1.
         11    1    3    3    0    0 -0.99504646650E+01  0.24516185396E+02 -0.29496300273E+02  0.39624321111E+02  0.51100000000E-03 0. -1.
        -11    1    3    3    0    0  0.11964770343E+01  0.59486851857E+01  0.14577973870E+01  0.62404796462E+01  0.51100000000E-03 0.  1.
         12    1    3    3    0    0  0.12999484000E+01  0.70319239659E+00 -0.12294442266E+01  0.19224667736E+01  0.00000000000E+00 0. -1.
</event>
<event>
 7    1  0.2700100E-010  0.4778727E+02  0.7816164E-02  0.1312668E+00
        -11   -1    0    0    0    0  0.00000000000E+00  0.00000000000E+00  0.45593999997E+02  0.45594000000E+02  0.51100000000E-03 0.  1.
         11   -1    0    0    0    0 -0.00000000000E+00 -0.00000000000E+00 -0.45593999997E+02  0.45594000000E+02  0.51100000000E-03 0. -1.
    9900012    2    1    2    0    0  0.34801203512E+02 -0.14304183347E+02 -0.21630762551E+02  0.47787270564E+02  0.19999997808E+02 0.  0.
        -12    1    1    2    0    0 -0.34801203512E+02  0.14304183347E+02  0.21630762551E+02  0.43400729436E+02  0.00000000000E+00 0.  1.
         11    1    3    3    0    0  0.32862382356E+02 -0.12311745832E+02 -0.24761482344E+02  0.42949345370E+02  0.51100000000E-03 0. -1.
        -11    1    3    3    0    0 -0.32445998503E+00 -0.59102382334E-01 -0.18821297256E+00  0.37972589804E+00  0.51100000000E-03 0.  1.
         12    1    3    3    0    0  0.22632811409E+01 -0.19333351326E+01  0.33189327660E+01  0.44581992960E+01  0.00000000000E+00 0. -1.
</event>
<event>
 7    1  0.2700100E-010  0.4778727E+02  0.7816164E-02  0.1312668E+00
        -11   -1    0    0    0    0  0.00000000000E+00  0.00000000000E+00  0.45593999997E+02  0.45594000000E+02  0.51100000000E-03 0.  1.
         11   -1    0    0    0    0 -0.00000000000E+00 -0.00000000000E+00 -0.45593999997E+02  0.45594000000E+02  0.51100000000E-03 0. -1.
    9900012    2    1    2    0    0  0.88120607875E+01 -0.58602842786E+01 -0.42090713811E+02  0.47787268021E+02  0.19999986216E+02 0.  0.
        -12    1    1    2    0    0 -0.88120607875E+01  0.58602842786E+01  0.42090713811E+02  0.43400731979E+02  0.00000000000E+00 0.  1.
         11    1    3    3    0    0  0.54578013564E+01 -0.29253960502E+01 -0.77143848903E+01  0.98922834671E+01  0.51100000000E-03 0. -1.
        -11    1    3    3    0    0  0.11413324985E+00 -0.90245364158E+01 -0.18459159330E+02  0.20547404881E+02  0.51100000000E-03 0.  1.
        -12    1    3    3    0    0  0.32401261813E+01  0.60896481874E+01 -0.15917169591E+02  0.17347579673E+02  0.00000000000E+00 0.  1.
</event>
<event>
 7    1  0.2700100E-010  0.4778727E+02  0.7816164E-02  0.1312668E+00
        -11   -1    0    0    0    0  0.00000000000E+00  0.00000000000E+00  0.45593999997E+02  0.45594000000E+02  0.51100000000E-03 0.  1.
         11   -1    0    0    0    0 -0.00000000000E+00 -0.00000000000E+00 -0.45593999997E+02  0.45594000000E+02  0.51100000000E-03 0. -1.
    9900012    2    1    2    0    0 -0.24369954025E+01 -0.50187104595E+01 -0.43040641249E+02  0.47787271891E+02  0.20000003858E+02 0.  0.
        -12    1    1    2    0    0  0.24369954025E+01  0.50187104595E+01  0.43040641249E+02  0.43400728109E+02  0.00000000000E+00 0.  1.
         11    1    3    3    0    0 -0.68417341439E+01 -0.79381181411E+01 -0.23407707348E+02  0.25646516513E+02  0.51100000000E-03 0.  1.
        -11    1    3    3    0    0  0.68778245278E+01  0.10091993909E+01 -0.15231686728E+02  0.16742975676E+02  0.51100000000E-03 0. -1.
         12    1    3    3    0    0 -0.24730857864E+01  0.19102082907E+01 -0.44012471732E+01  0.53977797010E+01  0.00000000000E+00 0. -1.
</event>
<event>
 7    1  0.2700100E-010  0.4778727E+02  0.7816164E-02  0.1312668E+00
        -11   -1    0    0    0    0  0.00000000000E+00  0.00000000000E+00  0.45593999997E+02  0.45594000000E+02  0.51100000000E-03 0.  1.
         11   -1    0    0    0    0 -0.00000000000E+00 -0.00000000000E+00 -0.45593999997E+02  0.45594000000E+02  0.51100000000E-03 0. -1.
    9900012    2    1    2    0    0  0.31595437792E+02 -0.19980221531E+02 -0.22048635936E+02  0.47787270877E+02  0.19999999239E+02 0.  0.
        -12    1    1    2    0    0 -0.31595437792E+02  0.19980221531E+02  0.22048635936E+02  0.43400729123E+02  0.00000000000E+00 0.  1.
         11    1    3    3    0    0  0.25188383705E+02 -0.14020010436E+02 -0.15802033703E+02  0.32874300535E+02  0.51100000000E-03 0. -1.
        -11    1    3    3    0    0 -0.27154402795E+01 -0.18492056977E+00 -0.91528941696E+00  0.28715094474E+01  0.51100000000E-03 0.  1.
        -12    1    3    3    0    0  0.91224943671E+01 -0.57752905253E+01 -0.53313128163E+01  0.12041460895E+02  0.00000000000E+00 0.  1.
</event>
<event>
 7    1  0.2700100E-010  0.4778727E+02  0.7816164E-02  0.1312668E+00
        -11   -1    0    0    0    0  0.00000000000E+00  0.00000000000E+00  0.45593999997E+02  0.45594000000E+02  0.51100000000E-03 0.  1.
         11   -1    0    0    0    0 -0.00000000000E+00 -0.00000000000E+00 -0.45593999997E+02  0.45594000000E+02  0.51100000000E-03 0. -1.
    9900012    2    1    2    0    0  0.20260504112E+01 -0.36100927603E+02 -0.24005031966E+02  0.47787269433E+02  0.19999992654E+02 0.  0.
        -12    1    1    2    0    0 -0.20260504112E+01  0.36100927603E+02  0.24005031966E+02  0.43400730567E+02  0.00000000000E+00 0.  1.
         11    1    3    3    0    0  0.52300222169E+01 -0.22745261716E+02 -0.72009548328E+01  0.24424451144E+02  0.51100000000E-03 0. -1.
        -11    1    3    3    0    0  0.11609550472E+01  0.60342228131E+00 -0.36291805015E+00  0.13578088391E+01  0.51100000000E-03 0.  1.
         12    1    3    3    0    0 -0.43649268530E+01 -0.13959088169E+02 -0.16441159083E+02  0.22005009451E+02  0.00000000000E+00 0. -1.
</event>
<event>
 7    1  0.2700100E-010  0.4778727E+02  0.7816164E-02  0.1312668E+00
        -11   -1    0    0    0    0  0.00000000000E+00  0.00000000000E+00  0.45593999997E+02  0.45594000000E+02  0.51100000000E-03 0. -1.
         11   -1    0    0    0    0 -0.00000000000E+00 -0.00000000000E+00 -0.45593999997E+02  0.45594000000E+02  0.51100000000E-03 0.  1.
    9900012    2    1    2    0    0  0.18476270611E+01 -0.32053786650E+02  0.29202127174E+02  0.47787271944E+02  0.20000004099E+02 0.  0.
        -12    1    1    2    0    0 -0.18476270611E+01  0.32053786650E+02 -0.29202127174E+02  0.43400728056E+02  0.00000000000E+00 0.  1.
         11    1    3    3    0    0  0.32147529755E+01 -0.34944147375E+01  0.13511678587E+02  0.14321697858E+02  0.51100000000E-03 0. -1.
        -11    1    3    3    0    0  0.23137509873E+01 -0.32927265464E+01  0.20167307593E+01  0.45014103298E+01  0.51100000000E-03 0.  1.
         12    1    3    3    0    0 -0.36808769017E+01 -0.25266645366E+02  0.13673717828E+02  0.28964163756E+02  0.00000000000E+00 0. -1.
</event>
<event>
 7    1  0.2700100E-010  0.4778727E+02  0.7816164E-02  0.1312668E+00
        -11   -1    0    0    0    0  0.00000000000E+00  0.00000000000E+00  0.45593999997E+02  0.45594000000E+02  0.51100000000E-03 0.  1.
         11   -1    0    0    0    0 -0.00000000000E+00 -0.00000000000E+00 -0.45593999997E+02  0.45594000000E+02  0.51100000000E-03 0. -1.
    9900012    2    1    2    0    0 -0.96417239909E+01  0.20656683833E+02 -0.36931859683E+02  0.47787266272E+02  0.19999978240E+02 0.  0.
        -12    1    1    2    0    0  0.96417239909E+01 -0.20656683833E+02  0.36931859683E+02  0.43400733728E+02  0.00000000000E+00 0.  1.
         11    1    3    3    0    0 -0.67542810720E+01  0.10215498195E+02 -0.26496599836E+02  0.29189835890E+02  0.51100000000E-03 0. -1.
        -11    1    3    3    0    0  0.14062362674E-01 -0.66524130509E+00  0.17406576412E+01  0.18635002091E+01  0.51100000000E-03 0.  1.
        -12    1    3    3    0    0 -0.29015052816E+01  0.11106426943E+02 -0.12175917489E+02  0.16733930173E+02  0.00000000000E+00 0.  1.
</event>
<event>
 7    1  0.2700100E-010  0.4778727E+02  0.7816164E-02  0.1312668E+00
        -11   -1    0    0    0    0  0.00000000000E+00  0.00000000000E+00  0.45593999997E+02  0.45594000000E+02  0.51100000000E-03 0.  1.
         11   -1    0    0    0    0 -0.00000000000E+00 -0.00000000000E+00 -0.45593999997E+02  0.45594000000E+02  0.51100000000E-03 0. -1.
    9900012    2    1    2    0    0 -0.43059279206E+02 -0.63404945097E+00 -0.53962513222E+01  0.47787273361E+02  0.20000010562E+02 0.  0.
        -12    1    1    2    0    0  0.43059279206E+02  0.63404945097E+00  0.53962513222E+01  0.43400726639E+02  0.00000000000E+00 0.  1.
         11    1    3    3    0    0 -0.33463986256E+02  0.23456213137E+01 -0.55299288006E+01  0.33998829808E+02  0.51100000000E-03 0. -1.
        -11    1    3    3    0    0 -0.65323145789E+01  0.23642324938E+01 -0.20664514446E+01  0.72478238718E+01  0.51100000000E-03 0.  1.
         12    1    3    3    0    0 -0.30629783711E+01 -0.53439032585E+01  0.22001289230E+01  0.65406196813E+01  0.00000000000E+00 0. -1.
</event>
<event>
 7    1  0.2700100E-010  0.4778728E+02  0.7816164E-02  0.1312668E+00
        -11   -1    0    0    0    0  0.00000000000E+00  0.00000000000E+00  0.45593999997E+02  0.45594000000E+02  0.51100000000E-03 0.  1.
         11   -1    0    0    0    0 -0.00000000000E+00 -0.00000000000E+00 -0.45593999997E+02  0.45594000000E+02  0.51100000000E-03 0. -1.
    9900012    2    1    2    0    0  0.13304791801E+01  0.28616783495E+02 -0.32602644839E+02  0.47787275088E+02  0.20000018434E+02 0.  0.
        -12    1    1    2    0    0 -0.13304791801E+01 -0.28616783495E+02  0.32602644839E+02  0.43400724912E+02  0.00000000000E+00 0.  1.
         11    1    3    3    0    0  0.34391742943E+00  0.95072264127E+01 -0.73156891764E+01  0.12001039190E+02  0.51100000000E-03 0. -1.
        -11    1    3    3    0    0  0.25048834804E+01  0.20298791062E+02 -0.26524848402E+02  0.33494521087E+02  0.51100000000E-03 0.  1.
        -12    1    3    3    0    0 -0.15183217297E+01 -0.11892339804E+01  0.12378927398E+01  0.22917148099E+01  0.00000000000E+00 0.  1.
</event>
<event>
 7    1  0.2700100E-010  0.4778727E+02  0.7816164E-02  0.1312668E+00
        -11   -1    0    0    0    0  0.00000000000E+00  0.00000000000E+00  0.45593999997E+02  0.45594000000E+02  0.51100000000E-03 0.  1.
         11   -1    0    0    0    0 -0.00000000000E+00 -0.00000000000E+00 -0.45593999997E+02  0.45594000000E+02  0.51100000000E-03 0. -1.
    9900012    2    1    2    0    0  0.15130235509E+02 -0.10346505286E+02 -0.39340172340E+02  0.47787270076E+02  0.19999995586E+02 0.  0.
        -12    1    1    2    0    0 -0.15130235509E+02  0.10346505286E+02  0.39340172340E+02  0.43400729924E+02  0.00000000000E+00 0.  1.
         11    1    3    3    0    0 -0.34158107388E+01 -0.13594129440E+01 -0.15268320265E+01  0.39808269058E+01  0.51100000000E-03 0.  1.
        -11    1    3    3    0    0 -0.95242723157E-01  0.40816342486E-03 -0.50736398465E+01  0.50745337614E+01  0.51100000000E-03 0. -1.
         12    1    3    3    0    0  0.18641288971E+02 -0.89875005049E+01 -0.32739700467E+02  0.38731909409E+02  0.00000000000E+00 0. -1.
</event>
<event>
 7    1  0.2700100E-010  0.4778731E+02  0.7816164E-02  0.1312668E+00
        -11   -1    0    0    0    0  0.00000000000E+00  0.00000000000E+00  0.45593999997E+02  0.45594000000E+02  0.51100000000E-03 0.  1.
         11   -1    0    0    0    0 -0.00000000000E+00 -0.00000000000E+00 -0.45593999997E+02  0.45594000000E+02  0.51100000000E-03 0. -1.
    9900012    2    1    2    0    0  0.27780985664E+02 -0.19577656439E+02 -0.26991698148E+02  0.47787313773E+02  0.20000194816E+02 0.  0.
        -12    1    1    2    0    0 -0.27780985664E+02  0.19577656439E+02  0.26991698148E+02  0.43400686227E+02  0.00000000000E+00 0.  1.
         11    1    3    3    0    0  0.62295929522E+01 -0.16026259197E+02 -0.14686272564E+02  0.22612726821E+02  0.51100000000E-03 0. -1.
        -11    1    3    3    0    0  0.12721586240E+02 -0.25772810037E+01 -0.61238375628E+01  0.14352091157E+02  0.51100000000E-03 0.  1.
         12    1    3    3    0    0  0.88298064716E+01 -0.97411623828E+00 -0.61815880203E+01  0.10822495795E+02  0.00000000000E+00 0. -1.
</event>
<event>
 7    1  0.2700100E-010  0.4778726E+02  0.7816164E-02  0.1312668E+00
        -11   -1    0    0    0    0  0.00000000000E+00  0.00000000000E+00  0.45593999997E+02  0.45594000000E+02  0.51100000000E-03 0.  1.
         11   -1    0    0    0    0 -0.00000000000E+00 -0.00000000000E+00 -0.45593999997E+02  0.45594000000E+02  0.51100000000E-03 0. -1.
    9900012    2    1    2    0    0 -0.95676594269E+01  0.42007834538E+02 -0.52370007636E+01  0.47787257536E+02  0.19999938408E+02 0.  0.
        -12    1    1    2    0    0  0.95676594269E+01 -0.42007834538E+02  0.52370007636E+01  0.43400742464E+02  0.00000000000E+00 0.  1.
         11    1    3    3    0    0 -0.11154382347E+02  0.22494763634E+02 -0.43754214284E-01  0.25108495598E+02  0.51100000000E-03 0. -1.
        -11    1    3    3    0    0 -0.13845875098E+01  0.55281383888E+01  0.27451721081E+01  0.63256119690E+01  0.51100000000E-03 0.  1.
         12    1    3    3    0    0  0.29713104300E+01  0.13984932515E+02 -0.79384186575E+01  0.16353149969E+02  0.00000000000E+00 0. -1.
</event>
<event>
 7    1  0.2700100E-010  0.4778727E+02  0.7816164E-02  0.1312668E+00
        -11   -1    0    0    0    0  0.00000000000E+00  0.00000000000E+00  0.45593999997E+02  0.45594000000E+02  0.51100000000E-03 0.  1.
         11   -1    0    0    0    0 -0.00000000000E+00 -0.00000000000E+00 -0.45593999997E+02  0.45594000000E+02  0.51100000000E-03 0. -1.
    9900012    2    1    2    0    0  0.35026343843E+02  0.19081787987E+01 -0.25556549254E+02  0.47787272827E+02  0.20000008128E+02 0.  0.
        -12    1    1    2    0    0 -0.35026343843E+02 -0.19081787987E+01  0.25556549254E+02  0.43400727173E+02  0.00000000000E+00 0.  1.
         11    1    3    3    0    0  0.20340736607E+02  0.70669535330E+01 -0.18260503849E+02  0.28233550946E+02  0.51100000000E-03 0. -1.
        -11    1    3    3    0    0  0.88763220848E+01 -0.35903803177E+01  0.63774402184E+00  0.95961785247E+01  0.51100000000E-03 0.  1.
         12    1    3    3    0    0  0.58092851516E+01 -0.15683944167E+01 -0.79337894278E+01  0.99575433569E+01  0.00000000000E+00 0. -1.
</event>
<event>
 7    1  0.2700100E-010  0.4778727E+02  0.7816164E-02  0.1312668E+00
        -11   -1    0    0    0    0  0.00000000000E+00  0.00000000000E+00  0.45593999997E+02  0.45594000000E+02  0.51100000000E-03 0.  1.
         11   -1    0    0    0    0 -0.00000000000E+00 -0.00000000000E+00 -0.45593999997E+02  0.45594000000E+02  0.51100000000E-03 0. -1.
    9900012    2    1    2    0    0 -0.35747165987E+02  0.19025064862E+02 -0.15614419143E+02  0.47787273575E+02  0.20000011537E+02 0.  0.
        -12    1    1    2    0    0  0.35747165987E+02 -0.19025064862E+02  0.15614419143E+02  0.43400726425E+02  0.00000000000E+00 0.  1.
         11    1    3    3    0    0 -0.19717471172E+02  0.13852146519E+02 -0.15266151752E+02  0.28525708092E+02  0.51100000000E-03 0. -1.
        -11    1    3    3    0    0  0.77899698152E+00  0.15534481565E+01 -0.10903953771E+01  0.20515847074E+01  0.51100000000E-03 0.  1.
         12    1    3    3    0    0 -0.16808691796E+02  0.36194701863E+01  0.74212798649E+00  0.17209980775E+02  0.00000000000E+00 0. -1.
</event>
<event>
 7    1  0.2700100E-010  0.4778727E+02  0.7816164E-02  0.1312668E+00
        -11   -1    0    0    0    0  0.00000000000E+00  0.00000000000E+00  0.45593999997E+02  0.45594000000E+02  0.51100000000E-03 0.  1.
         11   -1    0    0    0    0 -0.00000000000E+00 -0.00000000000E+00 -0.45593999997E+02  0.45594000000E+02  0.51100000000E-03 0. -1.
    9900012    2    1    2    0    0  0.20693580191E+02  0.38148432238E+02 -0.31080080370E+00  0.47787265669E+02  0.19999975490E+02 0.  0.
        -12    1    1    2    0    0 -0.20693580191E+02 -0.38148432238E+02  0.31080080370E+00  0.43400734331E+02  0.00000000000E+00 0.  1.
         11    1    3    3    0    0  0.61721071896E+01  0.27063281247E+02 -0.14956301521E+01  0.27798435367E+02  0.51100000000E-03 0. -1.
        -11    1    3    3    0    0  0.12641805048E+02  0.64175125872E+01 -0.15497429398E+01  0.14261886485E+02  0.51100000000E-03 0.  1.
        -12    1    3    3    0    0  0.18796679539E+01  0.46676384034E+01  0.27345722882E+01  0.57269438168E+01  0.00000000000E+00 0.  1.
</event>
<event>
 7    1  0.2700100E-010  0.4778726E+02  0.7816164E-02  0.1312668E+00
        -11   -1    0    0    0    0  0.00000000000E+00  0.00000000000E+00  0.45593999997E+02  0.45594000000E+02  0.51100000000E-03 0.  1.
         11   -1    0    0    0    0 -0.00000000000E+00 -0.00000000000E+00 -0.45593999997E+02  0.45594000000E+02  0.51100000000E-03 0. -1.
    9900012    2    1    2    0    0 -0.12490597883E+02  0.33921222904E+02 -0.24019979722E+02  0.47787264699E+02  0.19999971069E+02 0.  0.
        -12    1    1    2    0    0  0.12490597883E+02 -0.33921222904E+02  0.24019979722E+02  0.43400735301E+02  0.00000000000E+00 0.  1.
         11    1    3    3    0    0 -0.46711056101E+01  0.11113599973E+02 -0.16218454074E+02  0.20208156392E+02  0.51100000000E-03 0. -1.
        -11    1    3    3    0    0 -0.74586478783E+01  0.15146436016E+02 -0.35183866753E+00  0.16886969618E+02  0.51100000000E-03 0.  1.
        -12    1    3    3    0    0 -0.36084439495E+00  0.76611869149E+01 -0.74496869812E+01  0.10692138689E+02  0.00000000000E+00 0.  1.
</event>
<event>
 7    1  0.2700100E-010  0.4778727E+02  0.7816164E-02  0.1312668E+00
        -11   -1    0    0    0    0  0.00000000000E+00  0.00000000000E+00  0.45593999997E+02  0.45594000000E+02  0.51100000000E-03 0.  1.
         11   -1    0    0    0    0 -0.00000000000E+00 -0.00000000000E+00 -0.45593999997E+02  0.45594000000E+02  0.51100000000E-03 0. -1.
    9900012    2    1    2    0    0 -0.69677295260E+01  0.39593386900E+02 -0.16353521832E+02  0.47787271697E+02  0.20000002975E+02 0.  0.
        -12    1    1    2    0    0  0.69677295260E+01 -0.39593386900E+02  0.16353521832E+02  0.43400728303E+02  0.00000000000E+00 0.  1.
         11    1    3    3    0    0  0.88437322715E+00  0.44930910695E+01 -0.71659565352E+01  0.85041705468E+01  0.51100000000E-03 0.  1.
        -11    1    3    3    0    0 -0.66706579796E+01  0.35642407034E+02 -0.10162306258E+02  0.37658350015E+02  0.51100000000E-03 0. -1.
        -12    1    3    3    0    0 -0.11814447736E+01 -0.54211120412E+00  0.97474096142E+00  0.16247511356E+01  0.00000000000E+00 0.  1.
</event>
<event>
 7    1  0.2700100E-010  0.4778727E+02  0.7816164E-02  0.1312668E+00
        -11   -1    0    0    0    0  0.00000000000E+00  0.00000000000E+00  0.45593999997E+02  0.45594000000E+02  0.51100000000E-03 0.  1.
         11   -1    0    0    0    0 -0.00000000000E+00 -0.00000000000E+00 -0.45593999997E+02  0.45594000000E+02  0.51100000000E-03 0. -1.
    9900012    2    1    2    0    0  0.21313466405E+02  0.35650937854E+02 -0.12584505060E+02  0.47787274342E+02  0.20000015035E+02 0.  0.
        -12    1    1    2    0    0 -0.21313466405E+02 -0.35650937854E+02  0.12584505060E+02  0.43400725658E+02  0.00000000000E+00 0.  1.
         11    1    3    3    0    0  0.16981943309E+01 -0.18590963406E+01  0.67808161116E+00  0.26076614277E+01  0.51100000000E-03 0. -1.
        -11    1    3    3    0    0  0.81107977770E+01  0.22534125990E+02 -0.45316512079E+01  0.24374325378E+02  0.51100000000E-03 0.  1.
         12    1    3    3    0    0  0.11504474297E+02  0.14975908204E+02 -0.87309354636E+01  0.20805287536E+02  0.00000000000E+00 0. -1.
</event>
<event>
 7    1  0.2700100E-010  0.4778727E+02  0.7816164E-02  0.1312668E+00
        -11   -1    0    0    0    0  0.00000000000E+00  0.00000000000E+00  0.45593999997E+02  0.45594000000E+02  0.51100000000E-03 0.  1.
         11   -1    0    0    0    0 -0.00000000000E+00 -0.00000000000E+00 -0.45593999997E+02  0.45594000000E+02  0.51100000000E-03 0. -1.
    9900012    2    1    2    0    0 -0.11334704917E+02 -0.41460263921E+02  0.60161636920E+01  0.47787271371E+02  0.20000001490E+02 0.  0.
        -12    1    1    2    0    0  0.11334704917E+02  0.41460263921E+02 -0.60161636920E+01  0.43400728629E+02  0.00000000000E+00 0.  1.
         11    1    3    3    0    0 -0.85150872938E+01 -0.28016855147E+02  0.87811675162E+01  0.30570570606E+02  0.51100000000E-03 0. -1.
        -11    1    3    3    0    0 -0.20578652895E+01 -0.82161567370E+01  0.33745252191E+01  0.91174262702E+01  0.51100000000E-03 0.  1.
         12    1    3    3    0    0 -0.76175233361E+00 -0.52272520366E+01 -0.61395290434E+01  0.80992744950E+01  0.00000000000E+00 0. -1.
</event>
<event>
 7    1  0.2700100E-010  0.4778728E+02  0.7816164E-02  0.1312668E+00
        -11   -1    0    0    0    0  0.00000000000E+00  0.00000000000E+00  0.45593999997E+02  0.45594000000E+02  0.51100000000E-03 0. -1.
         11   -1    0    0    0    0 -0.00000000000E+00 -0.00000000000E+00 -0.45593999997E+02  0.45594000000E+02  0.51100000000E-03 0.  1.
    9900012    2    1    2    0    0  0.37923595938E+02 -0.21028862138E+02  0.17917787947E+01  0.47787278313E+02  0.20000033141E+02 0.  0.
        -12    1    1    2    0    0 -0.37923595938E+02  0.21028862138E+02 -0.17917787947E+01  0.43400721687E+02  0.00000000000E+00 0.  1.
         11    1    3    3    0    0  0.90806809369E+01  0.76441146563E-01  0.60143777683E+01  0.10892077383E+02  0.51100000000E-03 0. -1.
        -11    1    3    3    0    0  0.22994031680E+02 -0.20133719088E+02 -0.48022534926E+01  0.30937901934E+02  0.51100000000E-03 0.  1.
        -12    1    3    3    0    0  0.58488833220E+01 -0.97158419596E+00  0.57965451896E+00  0.59572989958E+01  0.00000000000E+00 0.  1.
</event>
<event>
 7    1  0.2700100E-010  0.4778727E+02  0.7816164E-02  0.1312668E+00
        -11   -1    0    0    0    0  0.00000000000E+00  0.00000000000E+00  0.45593999997E+02  0.45594000000E+02  0.51100000000E-03 0.  1.
         11   -1    0    0    0    0 -0.00000000000E+00 -0.00000000000E+00 -0.45593999997E+02  0.45594000000E+02  0.51100000000E-03 0. -1.
    9900012    2    1    2    0    0  0.10336499608E+02 -0.33463302508E+02 -0.25631772561E+02  0.47787267247E+02  0.19999982686E+02 0.  0.
        -12    1    1    2    0    0 -0.10336499608E+02  0.33463302508E+02  0.25631772561E+02  0.43400732753E+02  0.00000000000E+00 0.  1.
         11    1    3    3    0    0  0.96485047638E+01 -0.22278809590E+02 -0.13224044760E+02  0.27646235928E+02  0.51100000000E-03 0. -1.
        -11    1    3    3    0    0  0.12158377163E+01 -0.46891122138E+01 -0.12725670449E+02  0.13616487188E+02  0.51100000000E-03 0.  1.
        -12    1    3    3    0    0 -0.52784287212E+00 -0.64953807040E+01  0.31794264786E+00  0.65245441308E+01  0.00000000000E+00 0.  1.
</event>
<event>
 7    1  0.2700100E-010  0.4778732E+02  0.7816164E-02  0.1312668E+00
        -11   -1    0    0    0    0  0.00000000000E+00  0.00000000000E+00  0.45593999997E+02  0.45594000000E+02  0.51100000000E-03 0.  1.
         11   -1    0    0    0    0 -0.00000000000E+00 -0.00000000000E+00 -0.45593999997E+02  0.45594000000E+02  0.51100000000E-03 0. -1.
    9900012    2    1    2    0    0 -0.40593658845E+02 -0.76748357902E+01  0.13299278671E+02  0.47787319637E+02  0.20000221550E+02 0.  0.
        -12    1    1    2    0    0  0.40593658845E+02  0.76748357902E+01 -0.13299278671E+02  0.43400680363E+02  0.00000000000E+00 0.  1.
         11    1    3    3    0    0 -0.21254946607E+02 -0.29941302609E+01  0.15584509926E+02  0.26525733188E+02  0.51100000000E-03 0. -1.
        -11    1    3    3    0    0 -0.56942000201E+01 -0.47591016126E+01 -0.16484606529E+01  0.76019987380E+01  0.51100000000E-03 0.  1.
         12    1    3    3    0    0 -0.13644512218E+02  0.78396083319E-01 -0.63677060242E+00  0.13659587710E+02  0.00000000000E+00 0. -1.
</event>
<event>
 7    1  0.2700100E-010  0.4778733E+02  0.7816164E-02  0.1312667E+00
        -11   -1    0    0    0    0  0.00000000000E+00  0.00000000000E+00  0.45593999997E+02  0.45594000000E+02  0.51100000000E-03 0. -1.
         11   -1    0    0    0    0 -0.00000000000E+00 -0.00000000000E+00 -0.45593999997E+02  0.45594000000E+02  0.51100000000E-03 0.  1.
    9900012    2    1    2    0    0 -0.13507294041E+02 -0.33716258205E+02  0.23756789119E+02  0.47787330778E+02  0.20000272348E+02 0.  0.
        -12    1    1    2    0    0  0.13507294041E+02  0.33716258205E+02 -0.23756789119E+02  0.43400669222E+02  0.00000000000E+00 0.  1.
         11    1    3    3    0    0 -0.42813979072E+01 -0.11723176835E+02 -0.11433925211E+01  0.12532780612E+02  0.51100000000E-03 0. -1.
        -11    1    3    3    0    0 -0.11340752286E+01 -0.81932196571E+01  0.12612456836E+02  0.15082739893E+02  0.51100000000E-03 0.  1.
         12    1    3    3    0    0 -0.80918209049E+01 -0.13799861713E+02  0.12287724803E+02  0.20171810273E+02  0.00000000000E+00 0. -1.
</event>
<event>
 7    1  0.2700100E-010  0.4778724E+02  0.7816164E-02  0.1312668E+00
        -11   -1    0    0    0    0  0.00000000000E+00  0.00000000000E+00  0.45593999997E+02  0.45594000000E+02  0.51100000000E-03 0.  1.
         11   -1    0    0    0    0 -0.00000000000E+00 -0.00000000000E+00 -0.45593999997E+02  0.45594000000E+02  0.51100000000E-03 0. -1.
    9900012    2    1    2    0    0  0.23655405926E+02  0.72899893133E+01 -0.35649739666E+02  0.47787238348E+02  0.19999850921E+02 0.  0.
        -12    1    1    2    0    0 -0.23655405926E+02 -0.72899893133E+01  0.35649739666E+02  0.43400761652E+02  0.00000000000E+00 0.  1.
         11    1    3    3    0    0  0.19016329154E+02  0.84674636624E+01 -0.23918271667E+02  0.31708081544E+02  0.51100000000E-03 0. -1.
        -11    1    3    3    0    0  0.10955417486E+01 -0.53293609486E+01 -0.47923354120E+01  0.72504330081E+01  0.51100000000E-03 0.  1.
        -12    1    3    3    0    0  0.35435350235E+01  0.41518865995E+01 -0.69391325872E+01  0.88287237957E+01  0.00000000000E+00 0.  1.
</event>
<event>
 7    1  0.2700100E-010  0.4778727E+02  0.7816164E-02  0.1312668E+00
        -11   -1    0    0    0    0  0.00000000000E+00  0.00000000000E+00  0.45593999997E+02  0.45594000000E+02  0.51100000000E-03 0. -1.
         11   -1    0    0    0    0 -0.00000000000E+00 -0.00000000000E+00 -0.45593999997E+02  0.45594000000E+02  0.51100000000E-03 0.  1.
    9900012    2    1    2    0    0  0.15582675687E+02 -0.23116251789E+02  0.33263230286E+02  0.47787269967E+02  0.19999995089E+02 0.  0.
        -12    1    1    2    0    0 -0.15582675687E+02  0.23116251789E+02 -0.33263230286E+02  0.43400730033E+02  0.00000000000E+00 0.  1.
         11    1    3    3    0    0  0.87193164629E+00 -0.96893008392E+01  0.19115682137E+02  0.21448825595E+02  0.51100000000E-03 0. -1.
        -11    1    3    3    0    0  0.10278917046E+02 -0.14286648567E+02  0.10204352601E+02  0.20344367161E+02  0.51100000000E-03 0.  1.
        -12    1    3    3    0    0  0.44318269942E+01  0.85969761686E+00  0.39431955473E+01  0.59940772120E+01  0.00000000000E+00 0.  1.
</event>
<event>
 7    1  0.2700100E-010  0.4778727E+02  0.7816164E-02  0.1312668E+00
        -11   -1    0    0    0    0  0.00000000000E+00  0.00000000000E+00  0.45593999997E+02  0.45594000000E+02  0.51100000000E-03 0.  1.
         11   -1    0    0    0    0 -0.00000000000E+00 -0.00000000000E+00 -0.45593999997E+02  0.45594000000E+02  0.51100000000E-03 0. -1.
    9900012    2    1    2    0    0 -0.38388920156E+02  0.12120480857E+02 -0.16217512926E+02  0.47787274517E+02  0.20000015831E+02 0.  0.
        -12    1    1    2    0    0  0.38388920156E+02 -0.12120480857E+02  0.16217512926E+02  0.43400725483E+02  0.00000000000E+00 0.  1.
         11    1    3    3    0    0 -0.31407321286E+02  0.12997158637E+02 -0.96320992097E+01  0.35328788522E+02  0.51100000000E-03 0. -1.
        -11    1    3    3    0    0 -0.23287810838E+01  0.21525730395E+01  0.75011762115E+00  0.32587526346E+01  0.51100000000E-03 0.  1.
         12    1    3    3    0    0 -0.46528177869E+01 -0.30292508197E+01 -0.73355313377E+01  0.91997333599E+01  0.00000000000E+00 0. -1.
</event>
<event>
 7    1  0.2700100E-010  0.4778727E+02  0.7816164E-02  0.1312668E+00
        -11   -1    0    0    0    0  0.00000000000E+00  0.00000000000E+00  0.45593999997E+02  0.45594000000E+02  0.51100000000E-03 0. -1.
         11   -1    0    0    0    0 -0.00000000000E+00 -0.00000000000E+00 -0.45593999997E+02  0.45594000000E+02  0.51100000000E-03 0.  1.
    9900012    2    1    2    0    0  0.22243624945E+02  0.15585113688E+02  0.33851865168E+02  0.47787269653E+02  0.19999993655E+02 0.  0.
        -12    1    1    2    0    0 -0.22243624945E+02 -0.15585113688E+02 -0.33851865168E+02  0.43400730347E+02  0.00000000000E+00 0.  1.
         11    1    3    3    0    0  0.57512119357E+01  0.13718293306E+02  0.18274818997E+02  0.23563467903E+02  0.51100000000E-03 0. -1.
        -11    1    3    3    0    0  0.12453281899E+02 -0.23917549981E+01  0.10534945498E+02  0.16486048615E+02  0.51100000000E-03 0.  1.
        -12    1    3    3    0    0  0.40391311095E+01  0.42585753798E+01  0.50421006723E+01  0.77377531348E+01  0.00000000000E+00 0.  1.
</event>
<event>
 7    1  0.2700100E-010  0.4778727E+02  0.7816164E-02  0.1312668E+00
        -11   -1    0    0    0    0  0.00000000000E+00  0.00000000000E+00  0.45593999997E+02  0.45594000000E+02  0.51100000000E-03 0.  1.
         11   -1    0    0    0    0 -0.00000000000E+00 -0.00000000000E+00 -0.45593999997E+02  0.45594000000E+02  0.51100000000E-03 0. -1.
    9900012    2    1    2    0    0  0.38130210592E+01 -0.27194478812E+02 -0.33608695099E+02  0.47787271968E+02  0.20000004212E+02 0.  0.
        -12    1    1    2    0    0 -0.38130210592E+01  0.27194478812E+02  0.33608695099E+02  0.43400728032E+02  0.00000000000E+00 0.  1.
         11    1    3    3    0    0 -0.47548864244E+01 -0.10542788536E+02 -0.18071061117E+02  0.21455129577E+02  0.51100000000E-03 0. -1.
        -11    1    3    3    0    0  0.81871110692E+01 -0.16571049101E+02 -0.16820729055E+02  0.24991306132E+02  0.51100000000E-03 0.  1.
         12    1    3    3    0    0  0.38079641446E+00 -0.80641174451E-01  0.12830950728E+01  0.13408362593E+01  0.00000000000E+00 0. -1.
</event>
<event>
 7    1  0.2700100E-010  0.4778727E+02  0.7816164E-02  0.1312668E+00
        -11   -1    0    0    0    0  0.00000000000E+00  0.00000000000E+00  0.45593999997E+02  0.45594000000E+02  0.51100000000E-03 0.  1.
         11   -1    0    0    0    0 -0.00000000000E+00 -0.00000000000E+00 -0.45593999997E+02  0.45594000000E+02  0.51100000000E-03 0. -1.
    9900012    2    1    2    0    0 -0.10383822453E+02  0.16238540017E+01 -0.42108937540E+02  0.47787270843E+02  0.19999999084E+02 0.  0.
        -12    1    1    2    0    0  0.10383822453E+02 -0.16238540017E+01  0.42108937540E+02  0.43400729157E+02  0.00000000000E+00 0.  1.
         11    1    3    3    0    0 -0.90771467578E+01 -0.19689481624E+01 -0.20119793819E+02  0.22160267456E+02  0.51100000000E-03 0. -1.
        -11    1    3    3    0    0  0.34971820849E+01  0.66061834222E+01 -0.11877499081E+02  0.14033778059E+02  0.51100000000E-03 0.  1.
        -12    1    3    3    0    0 -0.48038577806E+01 -0.30133812581E+01 -0.10111644640E+02  0.11593225328E+02  0.00000000000E+00 0.  1.
</event>
<event>
 7    1  0.2700100E-010  0.4778727E+02  0.7816164E-02  0.1312668E+00
        -11   -1    0    0    0    0  0.00000000000E+00  0.00000000000E+00  0.45593999997E+02  0.45594000000E+02  0.51100000000E-03 0.  1.
         11   -1    0    0    0    0 -0.00000000000E+00 -0.00000000000E+00 -0.45593999997E+02  0.45594000000E+02  0.51100000000E-03 0. -1.
    9900012    2    1    2    0    0  0.43373587383E+02  0.10611355205E+01  0.11085745758E+01  0.47787273869E+02  0.20000012879E+02 0.  0.
        -12    1    1    2    0    0 -0.43373587383E+02 -0.10611355205E+01 -0.11085745758E+01  0.43400726131E+02  0.00000000000E+00 0.  1.
         11    1    3    3    0    0  0.94933504942E+01  0.26733029708E+01  0.10430077662E+01  0.99175661249E+01  0.51100000000E-03 0. -1.
        -11    1    3    3    0    0  0.94219218420E+01  0.41945218424E+01 -0.61055410608E+01  0.11985168192E+02  0.51100000000E-03 0.  1.
        -12    1    3    3    0    0  0.24458315047E+02 -0.58066892927E+01  0.61711078704E+01  0.25884539552E+02  0.00000000000E+00 0.  1.
</event>
<event>
 7    1  0.2700100E-010  0.4778727E+02  0.7816164E-02  0.1312668E+00
        -11   -1    0    0    0    0  0.00000000000E+00  0.00000000000E+00  0.45593999997E+02  0.45594000000E+02  0.51100000000E-03 0. -1.
         11   -1    0    0    0    0 -0.00000000000E+00 -0.00000000000E+00 -0.45593999997E+02  0.45594000000E+02  0.51100000000E-03 0.  1.
    9900012    2    1    2    0    0 -0.42233037009E+02 -0.97665051120E+01  0.21469172061E+01  0.47787270852E+02  0.19999999121E+02 0.  0.
        -12    1    1    2    0    0  0.42233037009E+02  0.97665051120E+01 -0.21469172061E+01  0.43400729148E+02  0.00000000000E+00 0.  1.
         11    1    3    3    0    0 -0.14214881133E+02 -0.90286783984E+01 -0.13843258549E+00  0.16840399137E+02  0.51100000000E-03 0. -1.
        -11    1    3    3    0    0 -0.59845567608E+01  0.52120877823E+01 -0.51585795091E+00  0.79527912307E+01  0.51100000000E-03 0.  1.
        -12    1    3    3    0    0 -0.22033599115E+02 -0.59499144959E+01  0.28012077425E+01  0.22994080484E+02  0.00000000000E+00 0.  1.
</event>
<event>
 7    1  0.2700100E-010  0.4778728E+02  0.7816164E-02  0.1312668E+00
        -11   -1    0    0    0    0  0.00000000000E+00  0.00000000000E+00  0.45593999997E+02  0.45594000000E+02  0.51100000000E-03 0.  1.
         11   -1    0    0    0    0 -0.00000000000E+00 -0.00000000000E+00 -0.45593999997E+02  0.45594000000E+02  0.51100000000E-03 0. -1.
    9900012    2    1    2    0    0  0.36981916812E+02  0.74837158172E+01 -0.21446555274E+02  0.47787275275E+02  0.20000019288E+02 0.  0.
        -12    1    1    2    0    0 -0.36981916812E+02 -0.74837158172E+01  0.21446555274E+02  0.43400724725E+02  0.00000000000E+00 0.  1.
         11    1    3    3    0    0  0.15629327553E+02  0.83907507543E+01 -0.14233040729E+02  0.22743351262E+02  0.51100000000E-03 0. -1.
        -11    1    3    3    0    0  0.15746471162E+02 -0.55395727562E+01 -0.54637765887E+01  0.17563914007E+02  0.51100000000E-03 0.  1.
        -12    1    3    3    0    0  0.56061180972E+01  0.46325378191E+01 -0.17497379565E+01  0.74800100054E+01  0.00000000000E+00 0.  1.
</event>
<event>
 7    1  0.2700100E-010  0.4778727E+02  0.7816164E-02  0.1312668E+00
        -11   -1    0    0    0    0  0.00000000000E+00  0.00000000000E+00  0.45593999997E+02  0.45594000000E+02  0.51100000000E-03 0.  1.
         11   -1    0    0    0    0 -0.00000000000E+00 -0.00000000000E+00 -0.45593999997E+02  0.45594000000E+02  0.51100000000E-03 0. -1.
    9900012    2    1    2    0    0  0.32863663437E+02  0.19070283972E+02 -0.20974443080E+02  0.47787269962E+02  0.19999995065E+02 0.  0.
        -12    1    1    2    0    0 -0.32863663437E+02 -0.19070283972E+02  0.20974443080E+02  0.43400730038E+02  0.00000000000E+00 0.  1.
         11    1    3    3    0    0  0.12163239585E+02  0.12260417082E+02 -0.16211349764E+02  0.23686918028E+02  0.51100000000E-03 0. -1.
        -11    1    3    3    0    0 -0.34172987805E+00 -0.54797397865E+00  0.89342513922E+00  0.11023899180E+01  0.51100000000E-03 0.  1.
         12    1    3    3    0    0  0.21042153730E+02  0.73578408690E+01 -0.56565184556E+01  0.22997962016E+02  0.00000000000E+00 0. -1.
</event>
<event>
 7    1  0.2700100E-010  0.4778728E+02  0.7816164E-02  0.1312668E+00
        -11   -1    0    0    0    0  0.00000000000E+00  0.00000000000E+00  0.45593999997E+02  0.45594000000E+02  0.51100000000E-03 0. -1.
         11   -1    0    0    0    0 -0.00000000000E+00 -0.00000000000E+00 -0.45593999997E+02  0.45594000000E+02  0.51100000000E-03 0.  1.
    9900012    2    1    2    0    0  0.12361472823E+01 -0.41355305521E+02  0.13108529330E+02  0.47787275398E+02  0.20000019848E+02 0.  0.
        -12    1    1    2    0    0 -0.12361472823E+01  0.41355305521E+02 -0.13108529330E+02  0.43400724602E+02  0.00000000000E+00 0.  1.
         11    1    3    3    0    0 -0.12342902244E+01 -0.98109830826E+01  0.40939126832E+01  0.10702288668E+02  0.51100000000E-03 0. -1.
        -11    1    3    3    0    0  0.39042275080E+01 -0.12743360208E+02  0.12072832023E+02  0.17983033536E+02  0.51100000000E-03 0.  1.
        -12    1    3    3    0    0 -0.14337900013E+01 -0.18800962230E+02 -0.30582153770E+01  0.19101953194E+02  0.00000000000E+00 0.  1.
</event>
<event>
 7    1  0.2700100E-010  0.4778727E+02  0.7816164E-02  0.1312668E+00
        -11   -1    0    0    0    0  0.00000000000E+00  0.00000000000E+00  0.45593999997E+02  0.45594000000E+02  0.51100000000E-03 0.  1.
         11   -1    0    0    0    0 -0.00000000000E+00 -0.00000000000E+00 -0.45593999997E+02  0.45594000000E+02  0.51100000000E-03 0. -1.
    9900012    2    1    2    0    0 -0.19986054433E+02 -0.24772724571E+02 -0.29504122046E+02  0.47787268759E+02  0.19999989582E+02 0.  0.
        -12    1    1    2    0    0  0.19986054433E+02  0.24772724571E+02  0.29504122046E+02  0.43400731241E+02  0.00000000000E+00 0.  1.
         11    1    3    3    0    0 -0.12529259180E+02 -0.28904595244E+01 -0.96512919337E+01  0.16077454031E+02  0.51100000000E-03 0.  1.
        -11    1    3    3    0    0 -0.15979586201E+01 -0.13971264076E+02 -0.75751412545E+01  0.15972866271E+02  0.51100000000E-03 0. -1.
        -12    1    3    3    0    0 -0.58588366335E+01 -0.79110009712E+01 -0.12277688858E+02  0.15736948458E+02  0.00000000000E+00 0.  1.
</event>
<event>
 7    1  0.2700100E-010  0.4778727E+02  0.7816164E-02  0.1312668E+00
        -11   -1    0    0    0    0  0.00000000000E+00  0.00000000000E+00  0.45593999997E+02  0.45594000000E+02  0.51100000000E-03 0. -1.
         11   -1    0    0    0    0 -0.00000000000E+00 -0.00000000000E+00 -0.45593999997E+02  0.45594000000E+02  0.51100000000E-03 0.  1.
    9900012    2    1    2    0    0 -0.32809368648E+02 -0.17914234499E+02  0.22051051222E+02  0.47787270412E+02  0.19999997116E+02 0.  0.
        -12    1    1    2    0    0  0.32809368648E+02  0.17914234499E+02 -0.22051051222E+02  0.43400729588E+02  0.00000000000E+00 0.  1.
         11    1    3    3    0    0 -0.79111176564E+01 -0.44247110639E+01  0.64212383052E+01  0.11108382070E+02  0.51100000000E-03 0. -1.
        -11    1    3    3    0    0 -0.16394705828E+02  0.45243338578E+00  0.10843067048E+02  0.19661209994E+02  0.51100000000E-03 0.  1.
        -12    1    3    3    0    0 -0.85035451640E+01 -0.13941956821E+02  0.47867458685E+01  0.17017678348E+02  0.00000000000E+00 0.  1.
</event>
<event>
 7    1  0.2700100E-010  0.4778727E+02  0.7816164E-02  0.1312668E+00
        -11   -1    0    0    0    0  0.00000000000E+00  0.00000000000E+00  0.45593999997E+02  0.45594000000E+02  0.51100000000E-03 0. -1.
         11   -1    0    0    0    0 -0.00000000000E+00 -0.00000000000E+00 -0.45593999997E+02  0.45594000000E+02  0.51100000000E-03 0.  1.
    9900012    2    1    2    0    0 -0.10969900783E+02  0.22576959967E+02  0.35405722173E+02  0.47787274117E+02  0.20000014009E+02 0.  0.
        -12    1    1    2    0    0  0.10969900783E+02 -0.22576959967E+02 -0.35405722173E+02  0.43400725883E+02  0.00000000000E+00 0.  1.
         11    1    3    3    0    0  0.14676498399E+01  0.10472664912E+02  0.16985868696E+02  0.20008759133E+02  0.51100000000E-03 0. -1.
        -11    1    3    3    0    0 -0.59114922967E+01  0.79743785363E-01  0.10280149728E+02  0.11858902940E+02  0.51100000000E-03 0.  1.
        -12    1    3    3    0    0 -0.65260583263E+01  0.12024551270E+02  0.81397037493E+01  0.15919612044E+02  0.00000000000E+00 0.  1.
</event>
<event>
 7    1  0.2700100E-010  0.4778727E+02  0.7816164E-02  0.1312668E+00
        -11   -1    0    0    0    0  0.00000000000E+00  0.00000000000E+00  0.45593999997E+02  0.45594000000E+02  0.51100000000E-03 0. -1.
         11   -1    0    0    0    0 -0.00000000000E+00 -0.00000000000E+00 -0.45593999997E+02  0.45594000000E+02  0.51100000000E-03 0.  1.
    9900012    2    1    2    0    0  0.30760091268E+02  0.17174350704E+02  0.25347219937E+02  0.47787273100E+02  0.20000009373E+02 0.  0.
        -12    1    1    2    0    0 -0.30760091268E+02 -0.17174350704E+02 -0.25347219937E+02  0.43400726900E+02  0.00000000000E+00 0.  1.
         11    1    3    3    0    0  0.23240810641E+02  0.14655130277E+02  0.15274991317E+02  0.31436181109E+02  0.51100000000E-03 0. -1.
        -11    1    3    3    0    0 -0.75819810082E-03 -0.14056368571E+01  0.72893071245E+01  0.74235984647E+01  0.51100000000E-03 0.  1.
        -12    1    3    3    0    0  0.75200388249E+01  0.39248572838E+01  0.27829214947E+01  0.89274935268E+01  0.00000000000E+00 0.  1.
</event>
<event>
 7    1  0.2700100E-010  0.4778727E+02  0.7816164E-02  0.1312668E+00
        -11   -1    0    0    0    0  0.00000000000E+00  0.00000000000E+00  0.45593999997E+02  0.45594000000E+02  0.51100000000E-03 0. -1.
         11   -1    0    0    0    0 -0.00000000000E+00 -0.00000000000E+00 -0.45593999997E+02  0.45594000000E+02  0.51100000000E-03 0.  1.
    9900012    2    1    2    0    0  0.33065354661E+02 -0.79910590299E+01  0.26952705626E+02  0.47787273694E+02  0.20000012081E+02 0.  0.
        -12    1    1    2    0    0 -0.33065354661E+02  0.79910590299E+01 -0.26952705626E+02  0.43400726306E+02  0.00000000000E+00 0.  1.
         11    1    3    3    0    0  0.20905517845E+02 -0.15536837050E+01  0.24492679034E+02  0.32238888566E+02  0.51100000000E-03 0. -1.
        -11    1    3    3    0    0  0.33613859061E+00 -0.17021426555E+00 -0.15367823959E+01  0.15822965720E+01  0.51100000000E-03 0.  1.
         12    1    3    3    0    0  0.11823698226E+02 -0.62671610594E+01  0.39968089883E+01  0.13966088556E+02  0.00000000000E+00 0. -1.
</event>
<event>
 7    1  0.2700100E-010  0.4778727E+02  0.7816164E-02  0.1312668E+00
        -11   -1    0    0    0    0  0.00000000000E+00  0.00000000000E+00  0.45593999997E+02  0.45594000000E+02  0.51100000000E-03 0.  1.
         11   -1    0    0    0    0 -0.00000000000E+00 -0.00000000000E+00 -0.45593999997E+02  0.45594000000E+02  0.51100000000E-03 0. -1.
    9900012    2    1    2    0    0  0.15290090565E+02  0.32713471889E+02 -0.24076230811E+02  0.47787274170E+02  0.20000014250E+02 0.  0.
        -12    1    1    2    0    0 -0.15290090565E+02 -0.32713471889E+02  0.24076230811E+02  0.43400725830E+02  0.00000000000E+00 0.  1.
         11    1    3    3    0    0  0.12332133087E+02  0.28709322911E+02 -0.27415373731E+02  0.41568130167E+02  0.51100000000E-03 0. -1.
        -11    1    3    3    0    0  0.15106873030E+01  0.31882203667E+01  0.26852330170E+01  0.44336668629E+01  0.51100000000E-03 0.  1.
         12    1    3    3    0    0  0.14472701750E+01  0.81592861075E+00  0.65390990257E+00  0.17854771402E+01  0.00000000000E+00 0. -1.
</event>
<event>
 7    1  0.2700100E-010  0.4778727E+02  0.7816164E-02  0.1312668E+00
        -11   -1    0    0    0    0  0.00000000000E+00  0.00000000000E+00  0.45593999997E+02  0.45594000000E+02  0.51100000000E-03 0.  1.
         11   -1    0    0    0    0 -0.00000000000E+00 -0.00000000000E+00 -0.45593999997E+02  0.45594000000E+02  0.51100000000E-03 0. -1.
    9900012    2    1    2    0    0  0.35150548076E+02 -0.85557833275E+00 -0.25442682562E+02  0.47787272584E+02  0.20000007019E+02 0.  0.
        -12    1    1    2    0    0 -0.35150548076E+02  0.85557833275E+00  0.25442682562E+02  0.43400727416E+02  0.00000000000E+00 0.  1.
         11    1    3    3    0    0  0.18038926590E+02  0.45443198283E+00 -0.22285817357E+02  0.28675198978E+02  0.51100000000E-03 0. -1.
        -11    1    3    3    0    0  0.96599004436E+01 -0.34444310980E+01  0.10212819132E+01  0.10306347519E+02  0.51100000000E-03 0.  1.
         12    1    3    3    0    0  0.74517210426E+01  0.21344207824E+01 -0.41781471184E+01  0.88057260868E+01  0.00000000000E+00 0. -1.
</event>
<event>
 7    1  0.2700100E-010  0.4778727E+02  0.7816164E-02  0.1312668E+00
        -11   -1    0    0    0    0  0.00000000000E+00  0.00000000000E+00  0.45593999997E+02  0.45594000000E+02  0.51100000000E-03 0.  1.
         11   -1    0    0    0    0 -0.00000000000E+00 -0.00000000000E+00 -0.45593999997E+02  0.45594000000E+02  0.51100000000E-03 0. -1.
    9900012    2    1    2    0    0 -0.26746710470E+01 -0.17171452365E+01 -0.43284182904E+02  0.47787274861E+02  0.20000017399E+02 0.  0.
        -12    1    1    2    0    0  0.26746710470E+01  0.17171452365E+01  0.43284182904E+02  0.43400725139E+02  0.00000000000E+00 0.  1.
         11    1    3    3    0    0  0.44194306666E+01 -0.11674511365E+01 -0.11666084103E+02  0.12529637989E+02  0.51100000000E-03 0. -1.
        -11    1    3    3    0    0  0.45415209005E-01  0.59330892951E+01 -0.13010596010E+02  0.14299623069E+02  0.51100000000E-03 0.  1.
        -12    1    3    3    0    0 -0.71395169225E+01 -0.64827833951E+01 -0.18607502791E+02  0.20958013803E+02  0.00000000000E+00 0.  1.
</event>
<event>
 7    1  0.2700100E-010  0.4778728E+02  0.7816164E-02  0.1312668E+00
        -11   -1    0    0    0    0  0.00000000000E+00  0.00000000000E+00  0.45593999997E+02  0.45594000000E+02  0.51100000000E-03 0. -1.
         11   -1    0    0    0    0 -0.00000000000E+00 -0.00000000000E+00 -0.45593999997E+02  0.45594000000E+02  0.51100000000E-03 0.  1.
    9900012    2    1    2    0    0 -0.22942256409E+02  0.36837325733E+02  0.53552688042E+00  0.47787280129E+02  0.20000041419E+02 0.  0.
        -12    1    1    2    0    0  0.22942256409E+02 -0.36837325733E+02 -0.53552688042E+00  0.43400719871E+02  0.00000000000E+00 0.  1.
         11    1    3    3    0    0 -0.18567525524E+02  0.28854380724E+02  0.12129497634E+01  0.34333650235E+02  0.51100000000E-03 0. -1.
        -11    1    3    3    0    0 -0.43236151502E+01 -0.96726341180E+00  0.35106319320E+00  0.44443775832E+01  0.51100000000E-03 0.  1.
         12    1    3    3    0    0 -0.51115735484E-01  0.89502084206E+01 -0.10284860762E+01  0.90092523108E+01  0.00000000000E+00 0. -1.
</event>
<event>
 7    1  0.2700100E-010  0.4778730E+02  0.7816164E-02  0.1312668E+00
        -11   -1    0    0    0    0  0.00000000000E+00  0.00000000000E+00  0.45593999997E+02  0.45594000000E+02  0.51100000000E-03 0. -1.
         11   -1    0    0    0    0 -0.00000000000E+00 -0.00000000000E+00 -0.45593999997E+02  0.45594000000E+02  0.51100000000E-03 0.  1.
    9900012    2    1    2    0    0 -0.37276051770E+00 -0.28831087870E+02  0.32438401436E+02  0.47787303394E+02  0.20000147492E+02 0.  0.
        -12    1    1    2    0    0  0.37276051770E+00  0.28831087870E+02 -0.32438401436E+02  0.43400696606E+02  0.00000000000E+00 0.  1.
         11    1    3    3    0    0  0.61259720152E+01 -0.12306180022E+02  0.16968646808E+02  0.21838144945E+02  0.51100000000E-03 0. -1.
        -11    1    3    3    0    0 -0.83560923030E+01 -0.72213862877E+01  0.61076809843E+01  0.12620478032E+02  0.51100000000E-03 0.  1.
        -12    1    3    3    0    0  0.18573597701E+01 -0.93035215598E+01  0.93620736446E+01  0.13328680417E+02  0.00000000000E+00 0.  1.
</event>
<event>
 7    1  0.2700100E-010  0.4778727E+02  0.7816164E-02  0.1312668E+00
        -11   -1    0    0    0    0  0.00000000000E+00  0.00000000000E+00  0.45593999997E+02  0.45594000000E+02  0.51100000000E-03 0.  1.
         11   -1    0    0    0    0 -0.00000000000E+00 -0.00000000000E+00 -0.45593999997E+02  0.45594000000E+02  0.51100000000E-03 0. -1.
    9900012    2    1    2    0    0 -0.28968133090E+02  0.26758198659E+02 -0.18123715214E+02  0.47787274392E+02  0.20000015262E+02 0.  0.
        -12    1    1    2    0    0  0.28968133090E+02 -0.26758198659E+02  0.18123715214E+02  0.43400725608E+02  0.00000000000E+00 0.  1.
         11    1    3    3    0    0 -0.54390652455E+01  0.13582469199E+02 -0.14397336149E+02  0.20526816332E+02  0.51100000000E-03 0. -1.
        -11    1    3    3    0    0 -0.15683140047E+02  0.94575559200E+01 -0.28395266182E+01  0.18532920908E+02  0.51100000000E-03 0.  1.
         12    1    3    3    0    0 -0.78459277971E+01  0.37181735405E+01 -0.88685244716E+00  0.87275371519E+01  0.00000000000E+00 0. -1.
</event>
<event>
 7    1  0.2700100E-010  0.4778727E+02  0.7816164E-02  0.1312668E+00
        -11   -1    0    0    0    0  0.00000000000E+00  0.00000000000E+00  0.45593999997E+02  0.45594000000E+02  0.51100000000E-03 0.  1.
         11   -1    0    0    0    0 -0.00000000000E+00 -0.00000000000E+00 -0.45593999997E+02  0.45594000000E+02  0.51100000000E-03 0. -1.
    9900012    2    1    2    0    0  0.17378648856E+02  0.13566900912E+02 -0.37383750669E+02  0.47787273618E+02  0.20000011732E+02 0.  0.
        -12    1    1    2    0    0 -0.17378648856E+02 -0.13566900912E+02  0.37383750669E+02  0.43400726382E+02  0.00000000000E+00 0.  1.
         11    1    3    3    0    0  0.22905743583E+01 -0.35340580896E+01 -0.36443917210E+00  0.42271874388E+01  0.51100000000E-03 0.  1.
        -11    1    3    3    0    0  0.10567252876E+02  0.13361907512E+02 -0.26171403524E+02  0.31227388114E+02  0.51100000000E-03 0. -1.
        -12    1    3    3    0    0  0.45208216217E+01  0.37390514893E+01 -0.10847907973E+02  0.12332698065E+02  0.00000000000E+00 0.  1.
</event>
<event>
 7    1  0.2700100E-010  0.4778727E+02  0.7816164E-02  0.1312668E+00
        -11   -1    0    0    0    0  0.00000000000E+00  0.00000000000E+00  0.45593999997E+02  0.45594000000E+02  0.51100000000E-03 0.  1.
         11   -1    0    0    0    0 -0.00000000000E+00 -0.00000000000E+00 -0.45593999997E+02  0.45594000000E+02  0.51100000000E-03 0. -1.
    9900012    2    1    2    0    0 -0.25912285073E+02 -0.31204731270E+02 -0.15441552603E+02  0.47787270535E+02  0.19999997675E+02 0.  0.
        -12    1    1    2    0    0  0.25912285073E+02  0.31204731270E+02  0.15441552603E+02  0.43400729465E+02  0.00000000000E+00 0.  1.
         11    1    3    3    0    0 -0.97162700381E+01 -0.15579530517E+02 -0.88628400754E+01  0.20388173264E+02  0.51100000000E-03 0. -1.
        -11    1    3    3    0    0 -0.17977452045E+02 -0.98437383145E+01 -0.43547084856E+01  0.20953554646E+02  0.51100000000E-03 0.  1.
        -12    1    3    3    0    0  0.17814370099E+01 -0.57814624382E+01 -0.22240040422E+01  0.64455426246E+01  0.00000000000E+00 0.  1.
</event>
<event>
 7    1  0.2700100E-010  0.4778728E+02  0.7816164E-02  0.1312668E+00
        -11   -1    0    0    0    0  0.00000000000E+00  0.00000000000E+00  0.45593999997E+02  0.45594000000E+02  0.51100000000E-03 0.  1.
         11   -1    0    0    0    0 -0.00000000000E+00 -0.00000000000E+00 -0.45593999997E+02  0.45594000000E+02  0.51100000000E-03 0. -1.
    9900012    2    1    2    0    0 -0.25976979006E+02 -0.70943154686E+01 -0.34036589312E+02  0.47787283851E+02  0.20000058389E+02 0.  0.
        -12    1    1    2    0    0  0.25976979006E+02  0.70943154686E+01  0.34036589312E+02  0.43400716149E+02  0.00000000000E+00 0.  1.
         11    1    3    3    0    0 -0.20060432532E+02 -0.61150788319E+01 -0.31787447815E+02  0.38082239710E+02  0.51100000000E-03 0. -1.
        -11    1    3    3    0    0  0.12156715377E+01  0.14137296146E+01 -0.42029623098E-01  0.18650081665E+01  0.51100000000E-03 0.  1.
        -12    1    3    3    0    0 -0.71322180117E+01 -0.23929662513E+01 -0.22071118740E+01  0.78400359738E+01  0.00000000000E+00 0.  1.
</event>
<event>
 7    1  0.2700100E-010  0.4778727E+02  0.7816164E-02  0.1312668E+00
        -11   -1    0    0    0    0  0.00000000000E+00  0.00000000000E+00  0.45593999997E+02  0.45594000000E+02  0.51100000000E-03 0.  1.
         11   -1    0    0    0    0 -0.00000000000E+00 -0.00000000000E+00 -0.45593999997E+02  0.45594000000E+02  0.51100000000E-03 0. -1.
    9900012    2    1    2    0    0 -0.26921282851E+02  0.80122321372E+01 -0.33085821929E+02  0.47787274812E+02  0.20000017176E+02 0.  0.
        -12    1    1    2    0    0  0.26921282851E+02 -0.80122321372E+01  0.33085821929E+02  0.43400725188E+02  0.00000000000E+00 0.  1.
         11    1    3    3    0    0 -0.56897959301E+01 -0.80306099026E+00 -0.49986923129E+01  0.76161413971E+01  0.51100000000E-03 0. -1.
        -11    1    3    3    0    0 -0.22820768871E+02  0.11095602115E+02 -0.22427448119E+02  0.33865768964E+02  0.51100000000E-03 0.  1.
        -12    1    3    3    0    0  0.15892819500E+01 -0.22803089879E+01 -0.56596814975E+01  0.63053644502E+01  0.00000000000E+00 0.  1.
</event>
<event>
 7    1  0.2700100E-010  0.4778727E+02  0.7816164E-02  0.1312668E+00
        -11   -1    0    0    0    0  0.00000000000E+00  0.00000000000E+00  0.45593999997E+02  0.45594000000E+02  0.51100000000E-03 0.  1.
         11   -1    0    0    0    0 -0.00000000000E+00 -0.00000000000E+00 -0.45593999997E+02  0.45594000000E+02  0.51100000000E-03 0. -1.
    9900012    2    1    2    0    0  0.35271680443E+02  0.22791149648E+02 -0.10958786032E+02  0.47787274950E+02  0.20000017807E+02 0.  0.
        -12    1    1    2    0    0 -0.35271680443E+02 -0.22791149648E+02  0.10958786032E+02  0.43400725050E+02  0.00000000000E+00 0.  1.
         11    1    3    3    0    0  0.25415592917E+02  0.89657216499E+01 -0.10549040315E+02  0.28941644388E+02  0.51100000000E-03 0. -1.
        -11    1    3    3    0    0  0.64512168379E+01  0.13004112424E+02  0.19145055737E+01  0.14642078762E+02  0.51100000000E-03 0.  1.
        -12    1    3    3    0    0  0.34048706879E+01  0.82131557449E+00 -0.23242512912E+01  0.42035518004E+01  0.00000000000E+00 0.  1.
</event>
<event>
 7    1  0.2700100E-010  0.4778731E+02  0.7816164E-02  0.1312668E+00
        -11   -1    0    0    0    0  0.00000000000E+00  0.00000000000E+00  0.45593999997E+02  0.45594000000E+02  0.51100000000E-03 0.  1.
         11   -1    0    0    0    0 -0.00000000000E+00 -0.00000000000E+00 -0.45593999997E+02  0.45594000000E+02  0.51100000000E-03 0. -1.
    9900012    2    1    2    0    0  0.29120669437E+01 -0.21669060803E+01 -0.43248633268E+02  0.47787309966E+02  0.20000177458E+02 0.  0.
        -12    1    1    2    0    0 -0.29120669437E+01  0.21669060803E+01  0.43248633268E+02  0.43400690034E+02  0.00000000000E+00 0.  1.
         11    1    3    3    0    0  0.12490618227E+01 -0.99967057633E+01 -0.24088901153E+02  0.26110715053E+02  0.51100000000E-03 0. -1.
        -11    1    3    3    0    0 -0.21394178200E+01  0.46251336230E+01 -0.10960388336E+02  0.12087145336E+02  0.51100000000E-03 0.  1.
         12    1    3    3    0    0  0.38024229409E+01  0.32046660600E+01 -0.81993437791E+01  0.95894495768E+01  0.00000000000E+00 0. -1.
</event>
<event>
 7    1  0.2700100E-010  0.4778727E+02  0.7816164E-02  0.1312668E+00
        -11   -1    0    0    0    0  0.00000000000E+00  0.00000000000E+00  0.45593999997E+02  0.45594000000E+02  0.51100000000E-03 0. -1.
         11   -1    0    0    0    0 -0.00000000000E+00 -0.00000000000E+00 -0.45593999997E+02  0.45594000000E+02  0.51100000000E-03 0.  1.
    9900012    2    1    2    0    0  0.33887752850E+02  0.26848062977E+02 -0.37980645126E+01  0.47787267600E+02  0.19999984295E+02 0.  0.
        -12    1    1    2    0    0 -0.33887752850E+02 -0.26848062977E+02  0.37980645126E+01  0.43400732400E+02  0.00000000000E+00 0.  1.
         11    1    3    3    0    0  0.12084246742E+02  0.10243939367E+02  0.63327139364E+01  0.17060790695E+02  0.51100000000E-03 0. -1.
        -11    1    3    3    0    0  0.26136495668E+01 -0.11102833956E+01 -0.45671123984E+00  0.28761916999E+01  0.51100000000E-03 0.  1.
         12    1    3    3    0    0  0.19189856540E+02  0.17714407006E+02 -0.96740672091E+01  0.27850285205E+02  0.00000000000E+00 0. -1.
</event>
<event>
 7    1  0.2700100E-010  0.4778728E+02  0.7816164E-02  0.1312668E+00
        -11   -1    0    0    0    0  0.00000000000E+00  0.00000000000E+00  0.45593999997E+02  0.45594000000E+02  0.51100000000E-03 0.  1.
         11   -1    0    0    0    0 -0.00000000000E+00 -0.00000000000E+00 -0.45593999997E+02  0.45594000000E+02  0.51100000000E-03 0. -1.
    9900012    2    1    2    0    0 -0.76986493248E+01  0.41518977026E+02 -0.10026373291E+02  0.47787276318E+02  0.20000024044E+02 0.  0.
        -12    1    1    2    0    0  0.76986493248E+01 -0.41518977026E+02  0.10026373291E+02  0.43400723682E+02  0.00000000000E+00 0.  1.
         11    1    3    3    0    0  0.92065931123E+00  0.12804475156E+02 -0.89743727910E+01  0.15663382931E+02  0.51100000000E-03 0. -1.
        -11    1    3    3    0    0 -0.11029629413E+02  0.25290063495E+02  0.66331252902E+00  0.27598551055E+02  0.51100000000E-03 0.  1.
        -12    1    3    3    0    0  0.24103207768E+01  0.34244383757E+01 -0.17153130293E+01  0.45253423322E+01  0.00000000000E+00 0.  1.
</event>
<event>
 7    1  0.2700100E-010  0.4778727E+02  0.7816164E-02  0.1312668E+00
        -11   -1    0    0    0    0  0.00000000000E+00  0.00000000000E+00  0.45593999997E+02  0.45594000000E+02  0.51100000000E-03 0. -1.
         11   -1    0    0    0    0 -0.00000000000E+00 -0.00000000000E+00 -0.45593999997E+02  0.45594000000E+02  0.51100000000E-03 0.  1.
    9900012    2    1    2    0    0 -0.24002524802E+02  0.15509435117E+02  0.32664353619E+02  0.47787265307E+02  0.19999973841E+02 0.  0.
        -12    1    1    2    0    0  0.24002524802E+02 -0.15509435117E+02 -0.32664353619E+02  0.43400734693E+02  0.00000000000E+00 0.  1.
         11    1    3    3    0    0 -0.22009144552E+02  0.11832793354E+02  0.15987534369E+02  0.29665109100E+02  0.51100000000E-03 0. -1.
        -11    1    3    3    0    0 -0.35019128892E+01  0.21082170651E+01  0.14415509648E+02  0.14983821000E+02  0.51100000000E-03 0.  1.
        -12    1    3    3    0    0  0.15085326389E+01  0.15684246979E+01  0.22613096017E+01  0.31383352068E+01  0.00000000000E+00 0.  1.
</event>
<event>
 7    1  0.2700100E-010  0.4778726E+02  0.7816164E-02  0.1312668E+00
        -11   -1    0    0    0    0  0.00000000000E+00  0.00000000000E+00  0.45593999997E+02  0.45594000000E+02  0.51100000000E-03 0.  1.
         11   -1    0    0    0    0 -0.00000000000E+00 -0.00000000000E+00 -0.45593999997E+02  0.45594000000E+02  0.51100000000E-03 0. -1.
    9900012    2    1    2    0    0  0.40750013206E+02  0.14681362293E+02  0.27418829188E+01  0.47787263866E+02  0.19999967269E+02 0.  0.
        -12    1    1    2    0    0 -0.40750013206E+02 -0.14681362293E+02 -0.27418829188E+01  0.43400736134E+02  0.00000000000E+00 0.  1.
         11    1    3    3    0    0  0.20183809564E+02  0.13631786004E+02  0.16790324294E+01  0.24413744250E+02  0.51100000000E-03 0.  1.
        -11    1    3    3    0    0  0.19125561269E+01  0.35387918383E+01  0.20771751748E+01  0.45272039473E+01  0.51100000000E-03 0. -1.
         12    1    3    3    0    0  0.18653647515E+02 -0.24892155498E+01 -0.10143246854E+01  0.18846315668E+02  0.00000000000E+00 0. -1.
</event>
<event>
 7    1  0.2700100E-010  0.4778727E+02  0.7816164E-02  0.1312668E+00
        -11   -1    0    0    0    0  0.00000000000E+00  0.00000000000E+00  0.45593999997E+02  0.45594000000E+02  0.51100000000E-03 0.  1.
         11   -1    0    0    0    0 -0.00000000000E+00 -0.00000000000E+00 -0.45593999997E+02  0.45594000000E+02  0.51100000000E-03 0. -1.
    9900012    2    1    2    0    0 -0.30376522016E+02  0.88044147259E+00 -0.30985725922E+02  0.47787268694E+02  0.19999989285E+02 0.  0.
        -12    1    1    2    0    0  0.30376522016E+02 -0.88044147259E+00  0.30985725922E+02  0.43400731306E+02  0.00000000000E+00 0.  1.
         11    1    3    3    0    0 -0.45087155165E+01 -0.65947616489E+00 -0.56304960600E+01  0.72433355965E+01  0.51100000000E-03 0. -1.
        -11    1    3    3    0    0 -0.18001934699E+02 -0.76215427549E+01 -0.15094397052E+02  0.24698145467E+02  0.51100000000E-03 0.  1.
        -12    1    3    3    0    0 -0.78658718009E+01  0.91614603923E+01 -0.10260832809E+02  0.15845787631E+02  0.00000000000E+00 0.  1.
</event>
<event>
 7    1  0.2700100E-010  0.4778727E+02  0.7816164E-02  0.1312668E+00
        -11   -1    0    0    0    0  0.00000000000E+00  0.00000000000E+00  0.45593999997E+02  0.45594000000E+02  0.51100000000E-03 0.  1.
         11   -1    0    0    0    0 -0.00000000000E+00 -0.00000000000E+00 -0.45593999997E+02  0.45594000000E+02  0.51100000000E-03 0. -1.
    9900012    2    1    2    0    0 -0.30996507550E+02  0.20799273124E+02 -0.22141143395E+02  0.47787268743E+02  0.19999989509E+02 0.  0.
        -12    1    1    2    0    0  0.30996507550E+02 -0.20799273124E+02  0.22141143395E+02  0.43400731257E+02  0.00000000000E+00 0.  1.
         11    1    3    3    0    0 -0.65539657160E+01  0.87276242250E+01 -0.11511986719E+02  0.15863534590E+02  0.51100000000E-03 0. -1.
        -11    1    3    3    0    0 -0.20205263767E+02  0.37666518656E+01 -0.54734088511E+01  0.21269662783E+02  0.51100000000E-03 0.  1.
        -12    1    3    3    0    0 -0.42372780668E+01  0.83049970331E+01 -0.51557478255E+01  0.10654071371E+02  0.00000000000E+00 0.  1.
</event>
<event>
 7    1  0.2700100E-010  0.4778727E+02  0.7816164E-02  0.1312668E+00
        -11   -1    0    0    0    0  0.00000000000E+00  0.00000000000E+00  0.45593999997E+02  0.45594000000E+02  0.51100000000E-03 0.  1.
         11   -1    0    0    0    0 -0.00000000000E+00 -0.00000000000E+00 -0.45593999997E+02  0.45594000000E+02  0.51100000000E-03 0. -1.
    9900012    2    1    2    0    0  0.19291083963E+02  0.18774193831E+02 -0.34044194155E+02  0.47787269244E+02  0.19999991790E+02 0.  0.
        -12    1    1    2    0    0 -0.19291083963E+02 -0.18774193831E+02  0.34044194155E+02  0.43400730756E+02  0.00000000000E+00 0.  1.
         11    1    3    3    0    0 -0.12318031001E+01 -0.25553293062E+01 -0.55899249476E+01  0.62685172028E+01  0.51100000000E-03 0. -1.
        -11    1    3    3    0    0  0.14082950923E+02  0.12936004885E+02 -0.14452902225E+02  0.23969900126E+02  0.51100000000E-03 0.  1.
         12    1    3    3    0    0  0.64399361409E+01  0.83935182523E+01 -0.14001366982E+02  0.17548851915E+02  0.00000000000E+00 0. -1.
</event>
<event>
 7    1  0.2700100E-010  0.4778727E+02  0.7816164E-02  0.1312668E+00
        -11   -1    0    0    0    0  0.00000000000E+00  0.00000000000E+00  0.45593999997E+02  0.45594000000E+02  0.51100000000E-03 0.  1.
         11   -1    0    0    0    0 -0.00000000000E+00 -0.00000000000E+00 -0.45593999997E+02  0.45594000000E+02  0.51100000000E-03 0. -1.
    9900012    2    1    2    0    0  0.26238144053E+02 -0.25897689509E+02 -0.22901814341E+02  0.47787266995E+02  0.19999981537E+02 0.  0.
        -12    1    1    2    0    0 -0.26238144053E+02  0.25897689509E+02  0.22901814341E+02  0.43400733005E+02  0.00000000000E+00 0.  1.
         11    1    3    3    0    0  0.16558845422E+01 -0.69428599962E+01 -0.76447881871E+01  0.10458873994E+02  0.51100000000E-03 0. -1.
        -11    1    3    3    0    0  0.21492311293E+02 -0.15224469024E+02 -0.17866491011E+02  0.31826331914E+02  0.51100000000E-03 0.  1.
        -12    1    3    3    0    0  0.30899482186E+01 -0.37303604883E+01  0.26094648570E+01  0.55020610871E+01  0.00000000000E+00 0.  1.
</event>
<event>
 7    1  0.2700100E-010  0.4778728E+02  0.7816164E-02  0.1312668E+00
        -11   -1    0    0    0    0  0.00000000000E+00  0.00000000000E+00  0.45593999997E+02  0.45594000000E+02  0.51100000000E-03 0.  1.
         11   -1    0    0    0    0 -0.00000000000E+00 -0.00000000000E+00 -0.45593999997E+02  0.45594000000E+02  0.51100000000E-03 0. -1.
    9900012    2    1    2    0    0  0.63406166479E+01  0.42730875677E+02 -0.41823147972E+01  0.47787275206E+02  0.20000018975E+02 0.  0.
        -12    1    1    2    0    0 -0.63406166479E+01 -0.42730875677E+02  0.41823147972E+01  0.43400724794E+02  0.00000000000E+00 0.  1.
         11    1    3    3    0    0 -0.16024651778E+01  0.91446349618E+01 -0.14397726171E+01  0.93949554912E+01  0.51100000000E-03 0. -1.
        -11    1    3    3    0    0 -0.20282555141E+01  0.21874453409E+02 -0.57749588276E+01  0.22714657869E+02  0.51100000000E-03 0.  1.
         12    1    3    3    0    0  0.99713373397E+01  0.11711787306E+02  0.30324166476E+01  0.15677661846E+02  0.00000000000E+00 0. -1.
</event>
<event>
 7    1  0.2700100E-010  0.4778727E+02  0.7816164E-02  0.1312668E+00
        -11   -1    0    0    0    0  0.00000000000E+00  0.00000000000E+00  0.45593999997E+02  0.45594000000E+02  0.51100000000E-03 0. -1.
         11   -1    0    0    0    0 -0.00000000000E+00 -0.00000000000E+00 -0.45593999997E+02  0.45594000000E+02  0.51100000000E-03 0.  1.
    9900012    2    1    2    0    0  0.36662049067E+02 -0.22215670140E+02 -0.67809696744E+01  0.47787269692E+02  0.19999993833E+02 0.  0.
        -12    1    1    2    0    0 -0.36662049067E+02  0.22215670140E+02  0.67809696744E+01  0.43400730308E+02  0.00000000000E+00 0.  1.
         11    1    3    3    0    0  0.36339824048E+02 -0.23433992110E+02 -0.25453020529E+01  0.43315278608E+02  0.51100000000E-03 0. -1.
        -11    1    3    3    0    0 -0.10870247179E+00  0.35624922837E+00 -0.20456845592E+01  0.20793160695E+01  0.51100000000E-03 0.  1.
         12    1    3    3    0    0  0.43092749036E+00  0.86207274110E+00 -0.21899830623E+01  0.23926750147E+01  0.00000000000E+00 0. -1.
</event>
<event>
 7    1  0.2700100E-010  0.4778725E+02  0.7816164E-02  0.1312668E+00
        -11   -1    0    0    0    0  0.00000000000E+00  0.00000000000E+00  0.45593999997E+02  0.45594000000E+02  0.51100000000E-03 0.  1.
         11   -1    0    0    0    0 -0.00000000000E+00 -0.00000000000E+00 -0.45593999997E+02  0.45594000000E+02  0.51100000000E-03 0. -1.
    9900012    2    1    2    0    0 -0.17014657131E+02  0.39627609069E+02 -0.48763852592E+01  0.47787250110E+02  0.19999904551E+02 0.  0.
        -12    1    1    2    0    0  0.17014657131E+02 -0.39627609069E+02  0.48763852592E+01  0.43400749890E+02  0.00000000000E+00 0.  1.
         11    1    3    3    0    0 -0.14528102680E+02  0.16755328080E+02 -0.49569120582E+01  0.22723946928E+02  0.51100000000E-03 0. -1.
        -11    1    3    3    0    0  0.37298071949E+01  0.67602096313E+01 -0.85638372178E+00  0.77682230472E+01  0.51100000000E-03 0.  1.
        -12    1    3    3    0    0 -0.62163616459E+01  0.16112071358E+02  0.93691052080E+00  0.17295080135E+02  0.00000000000E+00 0.  1.
</event>
<event>
 7    1  0.2700100E-010  0.4778727E+02  0.7816164E-02  0.1312668E+00
        -11   -1    0    0    0    0  0.00000000000E+00  0.00000000000E+00  0.45593999997E+02  0.45594000000E+02  0.51100000000E-03 0.  1.
         11   -1    0    0    0    0 -0.00000000000E+00 -0.00000000000E+00 -0.45593999997E+02  0.45594000000E+02  0.51100000000E-03 0. -1.
    9900012    2    1    2    0    0  0.27043488007E+02  0.32453041583E+02 -0.99535512784E+01  0.47787270345E+02  0.19999996810E+02 0.  0.
        -12    1    1    2    0    0 -0.27043488007E+02 -0.32453041583E+02  0.99535512784E+01  0.43400729655E+02  0.00000000000E+00 0.  1.
         11    1    3    3    0    0  0.13111159110E+02  0.22111967849E+02  0.25670390860E+01  0.25834691895E+02  0.51100000000E-03 0. -1.
        -11    1    3    3    0    0  0.41432202223E+01  0.33439483190E+01 -0.67797775899E+01  0.86205364451E+01  0.51100000000E-03 0.  1.
         12    1    3    3    0    0  0.97891086742E+01  0.69971254152E+01 -0.57408127744E+01  0.13332042005E+02  0.00000000000E+00 0. -1.
</event>
<event>
 7    1  0.2700100E-010  0.4778728E+02  0.7816164E-02  0.1312668E+00
        -11   -1    0    0    0    0  0.00000000000E+00  0.00000000000E+00  0.45593999997E+02  0.45594000000E+02  0.51100000000E-03 0. -1.
         11   -1    0    0    0    0 -0.00000000000E+00 -0.00000000000E+00 -0.45593999997E+02  0.45594000000E+02  0.51100000000E-03 0.  1.
    9900012    2    1    2    0    0  0.19412288412E+01  0.39915081372E+02  0.16930466665E+02  0.47787276598E+02  0.20000025321E+02 0.  0.
        -12    1    1    2    0    0 -0.19412288412E+01 -0.39915081372E+02 -0.16930466665E+02  0.43400723402E+02  0.00000000000E+00 0.  1.
         11    1    3    3    0    0 -0.13483003733E+01  0.12070572808E+02  0.83870521755E+01  0.14760057123E+02  0.51100000000E-03 0. -1.
        -11    1    3    3    0    0  0.82778243749E+00  0.28791077443E+02  0.61211482519E+01  0.29446219117E+02  0.51100000000E-03 0.  1.
        -12    1    3    3    0    0  0.24617467770E+01 -0.94656887967E+00  0.24222662378E+01  0.35810003581E+01  0.00000000000E+00 0.  1.
</event>
<event>
 7    1  0.2700100E-010  0.4778727E+02  0.7816164E-02  0.1312668E+00
        -11   -1    0    0    0    0  0.00000000000E+00  0.00000000000E+00  0.45593999997E+02  0.45594000000E+02  0.51100000000E-03 0.  1.
         11   -1    0    0    0    0 -0.00000000000E+00 -0.00000000000E+00 -0.45593999997E+02  0.45594000000E+02  0.51100000000E-03 0. -1.
    9900012    2    1    2    0    0  0.30694280635E+02  0.26468997962E+01 -0.30569235868E+02  0.47787272773E+02  0.20000007883E+02 0.  0.
        -12    1    1    2    0    0 -0.30694280635E+02 -0.26468997962E+01  0.30569235868E+02  0.43400727227E+02  0.00000000000E+00 0.  1.
         11    1    3    3    0    0  0.22829487904E+02 -0.40178070621E+01 -0.19958072234E+02  0.30588444535E+02  0.51100000000E-03 0. -1.
        -11    1    3    3    0    0 -0.34203982907E+00 -0.10381667110E+01 -0.39970958917E+01  0.41438577670E+01  0.51100000000E-03 0.  1.
         12    1    3    3    0    0  0.82068325605E+01  0.77028735693E+01 -0.66140677422E+01  0.13054970471E+02  0.00000000000E+00 0. -1.
</event>
<event>
 7    1  0.2700100E-010  0.4778727E+02  0.7816164E-02  0.1312668E+00
        -11   -1    0    0    0    0  0.00000000000E+00  0.00000000000E+00  0.45593999997E+02  0.45594000000E+02  0.51100000000E-03 0. -1.
         11   -1    0    0    0    0 -0.00000000000E+00 -0.00000000000E+00 -0.45593999997E+02  0.45594000000E+02  0.51100000000E-03 0.  1.
    9900012    2    1    2    0    0  0.68282271696E+01 -0.16044310781E+02  0.39743915990E+02  0.47787268981E+02  0.19999990594E+02 0.  0.
        -12    1    1    2    0    0 -0.68282271696E+01  0.16044310781E+02 -0.39743915990E+02  0.43400731019E+02  0.00000000000E+00 0.  1.
         11    1    3    3    0    0  0.18872785063E+01  0.41078917941E+00  0.12442833467E+02  0.12591849461E+02  0.51100000000E-03 0.  1.
        -11    1    3    3    0    0 -0.24558269653E+01 -0.14297445780E+02  0.17855051396E+02  0.23005453756E+02  0.51100000000E-03 0. -1.
        -12    1    3    3    0    0  0.73967756286E+01 -0.21576541799E+01  0.94460311273E+01  0.12189965764E+02  0.00000000000E+00 0.  1.
</event>
<event>
 7    1  0.3118211E-010  0.4778727E+02  0.7816164E-02  0.1312668E+00
        -11   -1    0    0    0    0  0.00000000000E+00  0.00000000000E+00  0.45593999997E+02  0.45594000000E+02  0.51100000000E-03 0. -1.
         11   -1    0    0    0    0 -0.00000000000E+00 -0.00000000000E+00 -0.45593999997E+02  0.45594000000E+02  0.51100000000E-03 0.  1.
    9900012    2    1    2    0    0  0.94633839390E+01 -0.28663674443E+02  0.31184311534E+02  0.47787272425E+02  0.20000006296E+02 0.  0.
        -12    1    1    2    0    0 -0.94633839390E+01  0.28663674443E+02 -0.31184311534E+02  0.43400727575E+02  0.00000000000E+00 0.  1.
         11    1    3    3    0    0  0.84179658335E+01 -0.23724769502E+02  0.25510094675E+02  0.35839807021E+02  0.51100000000E-03 0. -1.
        -11    1    3    3    0    0 -0.33905214037E+01  0.16109337390E+00  0.49106542212E+00  0.34296839467E+01  0.51100000000E-03 0.  1.
        -12    1    3    3    0    0  0.44359395093E+01 -0.50999983150E+01  0.51831514366E+01  0.85177814575E+01  0.00000000000E+00 0.  1.
</event>
<event>
 7    1  0.2700100E-010  0.4778727E+02  0.7816164E-02  0.1312668E+00
        -11   -1    0    0    0    0  0.00000000000E+00  0.00000000000E+00  0.45593999997E+02  0.45594000000E+02  0.51100000000E-03 0.  1.
         11   -1    0    0    0    0 -0.00000000000E+00 -0.00000000000E+00 -0.45593999997E+02  0.45594000000E+02  0.51100000000E-03 0. -1.
    9900012    2    1    2    0    0 -0.16626217899E+02 -0.24874300369E+02 -0.31439802160E+02  0.47787273044E+02  0.20000009117E+02 0.  0.
        -12    1    1    2    0    0  0.16626217899E+02  0.24874300369E+02  0.31439802160E+02  0.43400726956E+02  0.00000000000E+00 0.  1.
         11    1    3    3    0    0 -0.70137394376E+00 -0.58442196085E+01 -0.30626943701E+00  0.58941182097E+01  0.51100000000E-03 0. -1.
        -11    1    3    3    0    0 -0.85288008905E+01 -0.10775761097E+02 -0.26557580197E+02  0.29902550694E+02  0.51100000000E-03 0.  1.
        -12    1    3    3    0    0 -0.73960430649E+01 -0.82543196635E+01 -0.45759525254E+01  0.11990604140E+02  0.00000000000E+00 0.  1.
</event>
<event>
 7    1  0.2700100E-010  0.4778727E+02  0.7816164E-02  0.1312668E+00
        -11   -1    0    0    0    0  0.00000000000E+00  0.00000000000E+00  0.45593999997E+02  0.45594000000E+02  0.51100000000E-03 0.  1.
         11   -1    0    0    0    0 -0.00000000000E+00 -0.00000000000E+00 -0.45593999997E+02  0.45594000000E+02  0.51100000000E-03 0. -1.
    9900012    2    1    2    0    0 -0.33302328184E+02 -0.15614553978E+02 -0.23038315019E+02  0.47787270544E+02  0.19999997719E+02 0.  0.
        -12    1    1    2    0    0  0.33302328184E+02  0.15614553978E+02  0.23038315019E+02  0.43400729456E+02  0.00000000000E+00 0.  1.
         11    1    3    3    0    0 -0.15140277173E+01 -0.19665969058E+01 -0.46433365770E+01  0.52650126445E+01  0.51100000000E-03 0. -1.
        -11    1    3    3    0    0  0.14305181081E+01 -0.22488743261E+01  0.39022638825E+00  0.26937139209E+01  0.51100000000E-03 0.  1.
        -12    1    3    3    0    0 -0.33218818575E+02 -0.11399082746E+02 -0.18785204830E+02  0.39828543979E+02  0.00000000000E+00 0.  1.
</event>
<event>
 7    1  0.2700100E-010  0.4778727E+02  0.7816164E-02  0.1312668E+00
        -11   -1    0    0    0    0  0.00000000000E+00  0.00000000000E+00  0.45593999997E+02  0.45594000000E+02  0.51100000000E-03 0.  1.
         11   -1    0    0    0    0 -0.00000000000E+00 -0.00000000000E+00 -0.45593999997E+02  0.45594000000E+02  0.51100000000E-03 0. -1.
    9900012    2    1    2    0    0 -0.96557994306E+01 -0.20837933364E+02 -0.36826208003E+02  0.47787268147E+02  0.19999986788E+02 0.  0.
        -12    1    1    2    0    0  0.96557994306E+01  0.20837933364E+02  0.36826208003E+02  0.43400731853E+02  0.00000000000E+00 0.  1.
         11    1    3    3    0    0 -0.34982829727E+01 -0.53123005619E+01 -0.19276606735E+02  0.20298918407E+02  0.51100000000E-03 0. -1.
        -11    1    3    3    0    0 -0.68830550187E+01 -0.17626835786E+02 -0.15424621196E+02  0.24413126091E+02  0.51100000000E-03 0.  1.
        -12    1    3    3    0    0  0.72553856082E+00  0.21012029842E+01 -0.21249800714E+01  0.30752236484E+01  0.00000000000E+00 0.  1.
</event>
<event>
 7    1  0.2700100E-010  0.4778727E+02  0.7816164E-02  0.1312668E+00
        -11   -1    0    0    0    0  0.00000000000E+00  0.00000000000E+00  0.45593999997E+02  0.45594000000E+02  0.51100000000E-03 0.  1.
         11   -1    0    0    0    0 -0.00000000000E+00 -0.00000000000E+00 -0.45593999997E+02  0.45594000000E+02  0.51100000000E-03 0. -1.
    9900012    2    1    2    0    0  0.15601620422E+02  0.40475393599E+02  0.13983234831E+01  0.47787270105E+02  0.19999995718E+02 0.  0.
        -12    1    1    2    0    0 -0.15601620422E+02 -0.40475393599E+02 -0.13983234831E+01  0.43400729895E+02  0.00000000000E+00 0.  1.
         11    1    3    3    0    0 -0.14561858089E+00  0.54429466186E+01  0.39990323897E+01  0.67556741321E+01  0.51100000000E-03 0.  1.
        -11    1    3    3    0    0  0.14450143724E+02  0.16060844125E+02  0.12068704032E+01  0.21638250948E+02  0.51100000000E-03 0. -1.
        -12    1    3    3    0    0  0.12970952792E+01  0.18971602856E+02 -0.38075793098E+01  0.19393345025E+02  0.00000000000E+00 0.  1.
</event>
<event>
 7    1  0.2700100E-010  0.4778727E+02  0.7816164E-02  0.1312668E+00
        -11   -1    0    0    0    0  0.00000000000E+00  0.00000000000E+00  0.45593999997E+02  0.45594000000E+02  0.51100000000E-03 0.  1.
         11   -1    0    0    0    0 -0.00000000000E+00 -0.00000000000E+00 -0.45593999997E+02  0.45594000000E+02  0.51100000000E-03 0. -1.
    9900012    2    1    2    0    0  0.41124926924E+02  0.98650757861E+01 -0.97490520413E+01  0.47787270162E+02  0.19999995975E+02 0.  0.
        -12    1    1    2    0    0 -0.41124926924E+02 -0.98650757861E+01  0.97490520413E+01  0.43400729838E+02  0.00000000000E+00 0.  1.
         11    1    3    3    0    0  0.32167174187E+02  0.66156394475E+01 -0.10351053847E+02  0.34433095946E+02  0.51100000000E-03 0. -1.
        -11    1    3    3    0    0  0.30450413868E+00  0.44976878134E+01  0.93951150132E+00  0.46048453350E+01  0.51100000000E-03 0.  1.
        -12    1    3    3    0    0  0.86532485990E+01 -0.12482514748E+01 -0.33750969603E+00  0.87493288803E+01  0.00000000000E+00 0.  1.
</event>
<event>
 7    1  0.2700100E-010  0.4778727E+02  0.7816164E-02  0.1312668E+00
        -11   -1    0    0    0    0  0.00000000000E+00  0.00000000000E+00  0.45593999997E+02  0.45594000000E+02  0.51100000000E-03 0.  1.
         11   -1    0    0    0    0 -0.00000000000E+00 -0.00000000000E+00 -0.45593999997E+02  0.45594000000E+02  0.51100000000E-03 0. -1.
    9900012    2    1    2    0    0  0.42369178080E+02  0.56863069433E+01 -0.74927953954E+01  0.47787270506E+02  0.19999997544E+02 0.  0.
        -12    1    1    2    0    0 -0.42369178080E+02 -0.56863069433E+01  0.74927953954E+01  0.43400729494E+02  0.00000000000E+00 0.  1.
         11    1    3    3    0    0  0.21347768835E+02  0.50902207280E+00  0.85848871735E+00  0.21371086562E+02  0.51100000000E-03 0. -1.
        -11    1    3    3    0    0 -0.11879098431E+01  0.21980870550E+01 -0.17683270580E+01  0.30609961356E+01  0.51100000000E-03 0.  1.
        -12    1    3    3    0    0  0.22209319088E+02  0.29791978155E+01 -0.65829570547E+01  0.23355187808E+02  0.00000000000E+00 0.  1.
</event>
<event>
 7    1  0.2700100E-010  0.4778727E+02  0.7816164E-02  0.1312668E+00
        -11   -1    0    0    0    0  0.00000000000E+00  0.00000000000E+00  0.45593999997E+02  0.45594000000E+02  0.51100000000E-03 0. -1.
         11   -1    0    0    0    0 -0.00000000000E+00 -0.00000000000E+00 -0.45593999997E+02  0.45594000000E+02  0.51100000000E-03 0.  1.
    9900012    2    1    2    0    0  0.18179990324E+02  0.31922352006E+02  0.23110050921E+02  0.47787273516E+02  0.20000011267E+02 0.  0.
        -12    1    1    2    0    0 -0.18179990324E+02 -0.31922352006E+02 -0.23110050921E+02  0.43400726484E+02  0.00000000000E+00 0.  1.
         11    1    3    3    0    0  0.14472129724E+01  0.51751269540E+01  0.35293536747E+01  0.64290514074E+01  0.51100000000E-03 0. -1.
        -11    1    3    3    0    0  0.28435306966E+01  0.37853771567E+01  0.12845470095E+02  0.13690173456E+02  0.51100000000E-03 0.  1.
        -12    1    3    3    0    0  0.13889246655E+02  0.22961847896E+02  0.67352271518E+01  0.27668048652E+02  0.00000000000E+00 0.  1.
</event>
<event>
 7    1  0.2700100E-010  0.4778726E+02  0.7816164E-02  0.1312668E+00
        -11   -1    0    0    0    0  0.00000000000E+00  0.00000000000E+00  0.45593999997E+02  0.45594000000E+02  0.51100000000E-03 0.  1.
         11   -1    0    0    0    0 -0.00000000000E+00 -0.00000000000E+00 -0.45593999997E+02  0.45594000000E+02  0.51100000000E-03 0. -1.
    9900012    2    1    2    0    0  0.33091641497E+02 -0.25955572350E+02  0.10718019804E+02  0.47787257823E+02  0.19999939720E+02 0.  0.
        -12    1    1    2    0    0 -0.33091641497E+02  0.25955572350E+02 -0.10718019804E+02  0.43400742177E+02  0.00000000000E+00 0.  1.
         11    1    3    3    0    0  0.40481303892E+01 -0.83869318904E+01  0.77982831478E+01  0.12146654128E+02  0.51100000000E-03 0.  1.
        -11    1    3    3    0    0  0.28743950982E+02 -0.17561478880E+02  0.10014012519E+01  0.33699006858E+02  0.51100000000E-03 0. -1.
        -12    1    3    3    0    0  0.29956012529E+00 -0.71615802610E-02  0.19183354042E+01  0.19415968376E+01  0.00000000000E+00 0.  1.
</event>
<event>
 7    1  0.2700100E-010  0.4778727E+02  0.7816164E-02  0.1312668E+00
        -11   -1    0    0    0    0  0.00000000000E+00  0.00000000000E+00  0.45593999997E+02  0.45594000000E+02  0.51100000000E-03 0. -1.
         11   -1    0    0    0    0 -0.00000000000E+00 -0.00000000000E+00 -0.45593999997E+02  0.45594000000E+02  0.51100000000E-03 0.  1.
    9900012    2    1    2    0    0  0.39251019247E+02 -0.15225019036E+02  0.10544169093E+02  0.47787271683E+02  0.20000002912E+02 0.  0.
        -12    1    1    2    0    0 -0.39251019247E+02  0.15225019036E+02 -0.10544169093E+02  0.43400728317E+02  0.00000000000E+00 0.  1.
         11    1    3    3    0    0  0.15982226176E+02 -0.41681240784E+01 -0.14303942461E+01  0.16578625993E+02  0.51100000000E-03 0. -1.
        -11    1    3    3    0    0  0.11719681035E+02 -0.51612433756E+01  0.12940696906E+02  0.18205795599E+02  0.51100000000E-03 0.  1.
        -12    1    3    3    0    0  0.11549112036E+02 -0.58956515820E+01 -0.96613356666E+00  0.13002850090E+02  0.00000000000E+00 0.  1.
</event>
<event>
 7    1  0.2700100E-010  0.4778727E+02  0.7816164E-02  0.1312668E+00
        -11   -1    0    0    0    0  0.00000000000E+00  0.00000000000E+00  0.45593999997E+02  0.45594000000E+02  0.51100000000E-03 0. -1.
         11   -1    0    0    0    0 -0.00000000000E+00 -0.00000000000E+00 -0.45593999997E+02  0.45594000000E+02  0.51100000000E-03 0.  1.
    9900012    2    1    2    0    0  0.34450222528E+01  0.13040916224E+02  0.41251540934E+02  0.47787270701E+02  0.19999998433E+02 0.  0.
        -12    1    1    2    0    0 -0.34450222528E+01 -0.13040916224E+02 -0.41251540934E+02  0.43400729299E+02  0.00000000000E+00 0.  1.
         11    1    3    3    0    0  0.50801006236E+01  0.75322264961E+01  0.32414758316E+02  0.33663903744E+02  0.51100000000E-03 0. -1.
        -11    1    3    3    0    0  0.11688630515E+01  0.51425996438E+01  0.47350823324E+00  0.52949770762E+01  0.51100000000E-03 0.  1.
        -12    1    3    3    0    0 -0.28039414223E+01  0.36609008367E+00  0.83632743850E+01  0.88283898808E+01  0.00000000000E+00 0.  1.
</event>
<event>
 7    1  0.2700100E-010  0.4778727E+02  0.7816164E-02  0.1312668E+00
        -11   -1    0    0    0    0  0.00000000000E+00  0.00000000000E+00  0.45593999997E+02  0.45594000000E+02  0.51100000000E-03 0.  1.
         11   -1    0    0    0    0 -0.00000000000E+00 -0.00000000000E+00 -0.45593999997E+02  0.45594000000E+02  0.51100000000E-03 0. -1.
    9900012    2    1    2    0    0 -0.13373517730E+02  0.18608983205E+02 -0.36857542081E+02  0.47787266819E+02  0.19999980734E+02 0.  0.
        -12    1    1    2    0    0  0.13373517730E+02 -0.18608983205E+02  0.36857542081E+02  0.43400733181E+02  0.00000000000E+00 0.  1.
         11    1    3    3    0    0  0.30652565535E+01  0.76057469243E+01 -0.10510729106E+02  0.13331114380E+02  0.51100000000E-03 0. -1.
        -11    1    3    3    0    0 -0.16925073725E+02  0.98129301478E+01 -0.26720611716E+02  0.33117107504E+02  0.51100000000E-03 0.  1.
        -12    1    3    3    0    0  0.48629944189E+00  0.11903061333E+01  0.37379874109E+00  0.13390449346E+01  0.00000000000E+00 0.  1.
</event>
<event>
 7    1  0.2700100E-010  0.4778727E+02  0.7816164E-02  0.1312668E+00
        -11   -1    0    0    0    0  0.00000000000E+00  0.00000000000E+00  0.45593999997E+02  0.45594000000E+02  0.51100000000E-03 0.  1.
         11   -1    0    0    0    0 -0.00000000000E+00 -0.00000000000E+00 -0.45593999997E+02  0.45594000000E+02  0.51100000000E-03 0. -1.
    9900012    2    1    2    0    0  0.26218341546E+02 -0.46408738595E+01 -0.34273670997E+02  0.47787266513E+02  0.19999979337E+02 0.  0.
        -12    1    1    2    0    0 -0.26218341546E+02  0.46408738595E+01  0.34273670997E+02  0.43400733487E+02  0.00000000000E+00 0.  1.
         11    1    3    3    0    0  0.15599980895E+02 -0.67705150368E+01 -0.24417084333E+02  0.29755558898E+02  0.51100000000E-03 0. -1.
        -11    1    3    3    0    0  0.11242079537E+01  0.25227995261E+01  0.15647287549E+01  0.31743877063E+01  0.51100000000E-03 0.  1.
        -12    1    3    3    0    0  0.94941526979E+01 -0.39315834878E+00 -0.11421315420E+02  0.14857319908E+02  0.00000000000E+00 0.  1.
</event>
<event>
 7    1  0.2700100E-010  0.4778728E+02  0.7816164E-02  0.1312668E+00
        -11   -1    0    0    0    0  0.00000000000E+00  0.00000000000E+00  0.45593999997E+02  0.45594000000E+02  0.51100000000E-03 0.  1.
         11   -1    0    0    0    0 -0.00000000000E+00 -0.00000000000E+00 -0.45593999997E+02  0.45594000000E+02  0.51100000000E-03 0. -1.
    9900012    2    1    2    0    0 -0.71479778340E+00 -0.41418530396E+02  0.12946706963E+02  0.47787276305E+02  0.20000023985E+02 0.  0.
        -12    1    1    2    0    0  0.71479778340E+00  0.41418530396E+02 -0.12946706963E+02  0.43400723695E+02  0.00000000000E+00 0.  1.
         11    1    3    3    0    0  0.25299926690E+01 -0.15698599184E+02  0.97375906341E+01  0.18645845405E+02  0.51100000000E-03 0. -1.
        -11    1    3    3    0    0  0.13128703245E+01 -0.14836541247E+02  0.73853577979E+01  0.16624984052E+02  0.51100000000E-03 0.  1.
        -12    1    3    3    0    0 -0.45576607769E+01 -0.10883389965E+02 -0.41762414688E+01  0.12516446848E+02  0.00000000000E+00 0.  1.
</event>
<event>
 7    1  0.2700100E-010  0.4778728E+02  0.7816164E-02  0.1312668E+00
        -11   -1    0    0    0    0  0.00000000000E+00  0.00000000000E+00  0.45593999997E+02  0.45594000000E+02  0.51100000000E-03 0.  1.
         11   -1    0    0    0    0 -0.00000000000E+00 -0.00000000000E+00 -0.45593999997E+02  0.45594000000E+02  0.51100000000E-03 0. -1.
    9900012    2    1    2    0    0  0.33898303508E+02  0.18649171679E+02 -0.19665612728E+02  0.47787275248E+02  0.20000019168E+02 0.  0.
        -12    1    1    2    0    0 -0.33898303508E+02 -0.18649171679E+02  0.19665612728E+02  0.43400724752E+02  0.00000000000E+00 0.  1.
         11    1    3    3    0    0  0.97876642235E+00  0.33408654838E+01 -0.23747744870E+01  0.42141333648E+01  0.51100000000E-03 0. -1.
        -11    1    3    3    0    0  0.20910201625E+02  0.18426069265E+01 -0.14002521374E+02  0.25232961328E+02  0.51100000000E-03 0.  1.
        -12    1    3    3    0    0  0.12009335460E+02  0.13465699269E+02 -0.32883168661E+01  0.18340180555E+02  0.00000000000E+00 0.  1.
</event>
<event>
 7    1  0.2700100E-010  0.4778727E+02  0.7816164E-02  0.1312668E+00
        -11   -1    0    0    0    0  0.00000000000E+00  0.00000000000E+00  0.45593999997E+02  0.45594000000E+02  0.51100000000E-03 0.  1.
         11   -1    0    0    0    0 -0.00000000000E+00 -0.00000000000E+00 -0.45593999997E+02  0.45594000000E+02  0.51100000000E-03 0. -1.
    9900012    2    1    2    0    0  0.82648636730E+01 -0.20326267631E+02 -0.37445402425E+02  0.47787270858E+02  0.19999999149E+02 0.  0.
        -12    1    1    2    0    0 -0.82648636730E+01  0.20326267631E+02  0.37445402425E+02  0.43400729142E+02  0.00000000000E+00 0.  1.
         11    1    3    3    0    0  0.11278188328E+02 -0.16716106218E+02 -0.32136814500E+02  0.37939433121E+02  0.51100000000E-03 0. -1.
        -11    1    3    3    0    0 -0.41612258933E+01  0.12526159909E+00 -0.38687658248E+01  0.56832069003E+01  0.51100000000E-03 0.  1.
         12    1    3    3    0    0  0.11479012381E+01 -0.37354230112E+01 -0.14398220998E+01  0.41646308365E+01  0.00000000000E+00 0. -1.
</event>
<event>
 7    1  0.2700100E-010  0.4778727E+02  0.7816164E-02  0.1312668E+00
        -11   -1    0    0    0    0  0.00000000000E+00  0.00000000000E+00  0.45593999997E+02  0.45594000000E+02  0.51100000000E-03 0.  1.
         11   -1    0    0    0    0 -0.00000000000E+00 -0.00000000000E+00 -0.45593999997E+02  0.45594000000E+02  0.51100000000E-03 0. -1.
    9900012    2    1    2    0    0  0.21229684409E+02  0.25942627807E+02 -0.27566360413E+02  0.47787266549E+02  0.19999979504E+02 0.  0.
        -12    1    1    2    0    0 -0.21229684409E+02 -0.25942627807E+02  0.27566360413E+02  0.43400733451E+02  0.00000000000E+00 0.  1.
         11    1    3    3    0    0  0.12442327645E+02  0.20740735041E+02 -0.13854824631E+02  0.27873747022E+02  0.51100000000E-03 0. -1.
        -11    1    3    3    0    0 -0.16919345089E+01  0.53316535823E+00 -0.55706977055E+01  0.58463305474E+01  0.51100000000E-03 0.  1.
         12    1    3    3    0    0  0.10479291273E+02  0.46687274083E+01 -0.81408380769E+01  0.14067188979E+02  0.00000000000E+00 0. -1.
</event>
<event>
 7    1  0.2700100E-010  0.4778727E+02  0.7816164E-02  0.1312668E+00
        -11   -1    0    0    0    0  0.00000000000E+00  0.00000000000E+00  0.45593999997E+02  0.45594000000E+02  0.51100000000E-03 0.  1.
         11   -1    0    0    0    0 -0.00000000000E+00 -0.00000000000E+00 -0.45593999997E+02  0.45594000000E+02  0.51100000000E-03 0. -1.
    9900012    2    1    2    0    0 -0.46796181322E+01 -0.28682333983E+02 -0.32234271141E+02  0.47787270231E+02  0.19999996289E+02 0.  0.
        -12    1    1    2    0    0  0.46796181322E+01  0.28682333983E+02  0.32234271141E+02  0.43400729769E+02  0.00000000000E+00 0.  1.
         11    1    3    3    0    0 -0.39958174102E+01 -0.14237506600E+02 -0.25302537739E+02  0.29306851883E+02  0.51100000000E-03 0. -1.
        -11    1    3    3    0    0 -0.26889005061E+01 -0.54892280323E+01  0.11878889922E+01  0.62267881642E+01  0.51100000000E-03 0.  1.
         12    1    3    3    0    0  0.20050997842E+01 -0.89555993499E+01 -0.81196223935E+01  0.12253630183E+02  0.00000000000E+00 0. -1.
</event>
<event>
 7    1  0.2700100E-010  0.4778726E+02  0.7816164E-02  0.1312668E+00
        -11   -1    0    0    0    0  0.00000000000E+00  0.00000000000E+00  0.45593999997E+02  0.45594000000E+02  0.51100000000E-03 0.  1.
         11   -1    0    0    0    0 -0.00000000000E+00 -0.00000000000E+00 -0.45593999997E+02  0.45594000000E+02  0.51100000000E-03 0. -1.
    9900012    2    1    2    0    0  0.64673795283E+01  0.10187953025E+02 -0.41689358387E+02  0.47787262823E+02  0.19999962516E+02 0.  0.
        -12    1    1    2    0    0 -0.64673795283E+01 -0.10187953025E+02  0.41689358387E+02  0.43400737177E+02  0.00000000000E+00 0.  1.
         11    1    3    3    0    0 -0.15585742193E+01 -0.14739018822E+01 -0.22695431855E+02  0.22796582369E+02  0.51100000000E-03 0. -1.
        -11    1    3    3    0    0  0.15196922681E+01  0.90098667541E+01 -0.11936193365E+02  0.15031961809E+02  0.51100000000E-03 0.  1.
         12    1    3    3    0    0  0.65062614795E+01  0.26519881534E+01 -0.70577331670E+01  0.99587186456E+01  0.00000000000E+00 0. -1.
</event>
<event>
 7    1  0.2700100E-010  0.4778727E+02  0.7816164E-02  0.1312668E+00
        -11   -1    0    0    0    0  0.00000000000E+00  0.00000000000E+00  0.45593999997E+02  0.45594000000E+02  0.51100000000E-03 0. -1.
         11   -1    0    0    0    0 -0.00000000000E+00 -0.00000000000E+00 -0.45593999997E+02  0.45594000000E+02  0.51100000000E-03 0.  1.
    9900012    2    1    2    0    0  0.99767375883E+01  0.37649061518E+02 -0.19147746943E+02  0.47787270293E+02  0.19999996576E+02 0.  0.
        -12    1    1    2    0    0 -0.99767375883E+01 -0.37649061518E+02  0.19147746943E+02  0.43400729707E+02  0.00000000000E+00 0.  1.
         11    1    3    3    0    0  0.97887271631E+01  0.22679446740E+02 -0.17225573482E+02  0.30114728389E+02  0.51100000000E-03 0. -1.
        -11    1    3    3    0    0 -0.17257460904E+01 -0.22376765741E+00 -0.15874059758E+01  0.23554467785E+01  0.51100000000E-03 0.  1.
         12    1    3    3    0    0  0.19137565156E+01  0.15193382435E+02 -0.33476748516E+00  0.15317095126E+02  0.00000000000E+00 0. -1.
</event>
<event>
 7    1  0.2700100E-010  0.4778727E+02  0.7816164E-02  0.1312668E+00
        -11   -1    0    0    0    0  0.00000000000E+00  0.00000000000E+00  0.45593999997E+02  0.45594000000E+02  0.51100000000E-03 0. -1.
         11   -1    0    0    0    0 -0.00000000000E+00 -0.00000000000E+00 -0.45593999997E+02  0.45594000000E+02  0.51100000000E-03 0.  1.
    9900012    2    1    2    0    0 -0.37183485639E+02 -0.22149410740E+02 -0.32272479397E+01  0.47787272706E+02  0.20000007575E+02 0.  0.
        -12    1    1    2    0    0  0.37183485639E+02  0.22149410740E+02  0.32272479397E+01  0.43400727294E+02  0.00000000000E+00 0.  1.
         11    1    3    3    0    0 -0.29387001553E+01 -0.34237735803E+01  0.32717427092E+01  0.55733728341E+01  0.51100000000E-03 0. -1.
        -11    1    3    3    0    0 -0.25541783216E+02 -0.67906058487E+01 -0.73072863298E+01  0.27420639151E+02  0.51100000000E-03 0.  1.
        -12    1    3    3    0    0 -0.87030022675E+01 -0.11935031311E+02  0.80829568093E+00  0.14793260721E+02  0.00000000000E+00 0.  1.
</event>
<event>
 7    1  0.2700100E-010  0.4778727E+02  0.7816164E-02  0.1312668E+00
        -11   -1    0    0    0    0  0.00000000000E+00  0.00000000000E+00  0.45593999997E+02  0.45594000000E+02  0.51100000000E-03 0.  1.
         11   -1    0    0    0    0 -0.00000000000E+00 -0.00000000000E+00 -0.45593999997E+02  0.45594000000E+02  0.51100000000E-03 0. -1.
    9900012    2    1    2    0    0  0.31859016723E+01  0.28508568380E+02 -0.32568927196E+02  0.47787268909E+02  0.19999990264E+02 0.  0.
        -12    1    1    2    0    0 -0.31859016723E+01 -0.28508568380E+02  0.32568927196E+02  0.43400731091E+02  0.00000000000E+00 0.  1.
         11    1    3    3    0    0  0.42039439829E+01  0.20080192719E+02 -0.27529402153E+02  0.34333005517E+02  0.51100000000E-03 0. -1.
        -11    1    3    3    0    0 -0.12988568393E-01  0.10241008621E+02 -0.33337638047E+01  0.10769977142E+02  0.51100000000E-03 0.  1.
         12    1    3    3    0    0 -0.10050537422E+01 -0.18126329600E+01 -0.17057612378E+01  0.26842862502E+01  0.00000000000E+00 0. -1.
</event>
<event>
 7    1  0.2700100E-010  0.4778728E+02  0.7816164E-02  0.1312668E+00
        -11   -1    0    0    0    0  0.00000000000E+00  0.00000000000E+00  0.45593999997E+02  0.45594000000E+02  0.51100000000E-03 0.  1.
         11   -1    0    0    0    0 -0.00000000000E+00 -0.00000000000E+00 -0.45593999997E+02  0.45594000000E+02  0.51100000000E-03 0. -1.
    9900012    2    1    2    0    0  0.18050096972E+02 -0.39034935983E+02  0.58387081680E+01  0.47787277184E+02  0.20000027993E+02 0.  0.
        -12    1    1    2    0    0 -0.18050096972E+02  0.39034935983E+02 -0.58387081680E+01  0.43400722816E+02  0.00000000000E+00 0.  1.
         11    1    3    3    0    0  0.37453695750E+01 -0.10601989278E+02 -0.16549587933E+00  0.11245326098E+02  0.51100000000E-03 0. -1.
        -11    1    3    3    0    0  0.57420432522E+01 -0.59252025996E+01 -0.54364475913E+01  0.98809943442E+01  0.51100000000E-03 0.  1.
        -12    1    3    3    0    0  0.85626841453E+01 -0.22507744105E+02  0.11440651639E+02  0.26660956742E+02  0.00000000000E+00 0.  1.
</event>
<event>
 7    1  0.2700100E-010  0.4778727E+02  0.7816164E-02  0.1312668E+00
        -11   -1    0    0    0    0  0.00000000000E+00  0.00000000000E+00  0.45593999997E+02  0.45594000000E+02  0.51100000000E-03 0.  1.
         11   -1    0    0    0    0 -0.00000000000E+00 -0.00000000000E+00 -0.45593999997E+02  0.45594000000E+02  0.51100000000E-03 0. -1.
    9900012    2    1    2    0    0  0.37617544938E+00  0.12891350610E+02 -0.41440254415E+02  0.47787272881E+02  0.20000008373E+02 0.  0.
        -12    1    1    2    0    0 -0.37617544938E+00 -0.12891350610E+02  0.41440254415E+02  0.43400727119E+02  0.00000000000E+00 0.  1.
         11    1    3    3    0    0 -0.42457632264E+01  0.80580922536E+01 -0.34797636742E+02  0.35969916308E+02  0.51100000000E-03 0. -1.
        -11    1    3    3    0    0  0.19142276257E+01  0.62086322344E+01 -0.32519496551E+01  0.72654358745E+01  0.51100000000E-03 0.  1.
        -12    1    3    3    0    0  0.27077110501E+01 -0.13753738785E+01 -0.33906680180E+01  0.45519206984E+01  0.00000000000E+00 0.  1.
</event>
<event>
 7    1  0.2700100E-010  0.4778728E+02  0.7816164E-02  0.1312668E+00
        -11   -1    0    0    0    0  0.00000000000E+00  0.00000000000E+00  0.45593999997E+02  0.45594000000E+02  0.51100000000E-03 0. -1.
         11   -1    0    0    0    0 -0.00000000000E+00 -0.00000000000E+00 -0.45593999997E+02  0.45594000000E+02  0.51100000000E-03 0.  1.
    9900012    2    1    2    0    0  0.35371204850E+02 -0.24872344508E+02  0.37237918082E+01  0.47787282503E+02  0.20000052243E+02 0.  0.
        -12    1    1    2    0    0 -0.35371204850E+02  0.24872344508E+02 -0.37237918082E+01  0.43400717497E+02  0.00000000000E+00 0.  1.
         11    1    3    3    0    0  0.10764793190E+02 -0.86996183770E+01  0.87006469579E+01  0.16348253426E+02  0.51100000000E-03 0. -1.
        -11    1    3    3    0    0  0.85048375523E+00 -0.36672577048E+01  0.10828032094E+01  0.39172139006E+01  0.51100000000E-03 0.  1.
         12    1    3    3    0    0  0.23755927905E+02 -0.12505468426E+02 -0.60596583591E+01  0.27521815176E+02  0.00000000000E+00 0. -1.
</event>
<event>
 7    1  0.2700100E-010  0.4778726E+02  0.7816164E-02  0.1312668E+00
        -11   -1    0    0    0    0  0.00000000000E+00  0.00000000000E+00  0.45593999997E+02  0.45594000000E+02  0.51100000000E-03 0.  1.
         11   -1    0    0    0    0 -0.00000000000E+00 -0.00000000000E+00 -0.45593999997E+02  0.45594000000E+02  0.51100000000E-03 0. -1.
    9900012    2    1    2    0    0  0.26406616007E+02 -0.27757845254E+02 -0.20391584990E+02  0.47787261751E+02  0.19999957629E+02 0.  0.
        -12    1    1    2    0    0 -0.26406616007E+02  0.27757845254E+02  0.20391584990E+02  0.43400738249E+02  0.00000000000E+00 0.  1.
         11    1    3    3    0    0  0.43017081358E+01  0.14048172450E+00  0.23621297466E+01  0.49095911440E+01  0.51100000000E-03 0.  1.
        -11    1    3    3    0    0  0.12822632456E+02 -0.13781588045E+02 -0.15917492639E+02  0.24651950112E+02  0.51100000000E-03 0. -1.
        -12    1    3    3    0    0  0.92822754152E+01 -0.14116738934E+02 -0.68362220981E+01  0.18225720495E+02  0.00000000000E+00 0.  1.
</event>
<event>
 7    1  0.2700100E-010  0.4778727E+02  0.7816164E-02  0.1312668E+00
        -11   -1    0    0    0    0  0.00000000000E+00  0.00000000000E+00  0.45593999997E+02  0.45594000000E+02  0.51100000000E-03 0. -1.
         11   -1    0    0    0    0 -0.00000000000E+00 -0.00000000000E+00 -0.45593999997E+02  0.45594000000E+02  0.51100000000E-03 0.  1.
    9900012    2    1    2    0    0  0.27362444888E+02 -0.33518680503E+02  0.33790257885E+01  0.47787272492E+02  0.20000006602E+02 0.  0.
        -12    1    1    2    0    0 -0.27362444888E+02  0.33518680503E+02 -0.33790257885E+01  0.43400727508E+02  0.00000000000E+00 0.  1.
         11    1    3    3    0    0  0.28623895842E+02 -0.33002515689E+02  0.17195575408E+01  0.43720136475E+02  0.51100000000E-03 0. -1.
        -11    1    3    3    0    0 -0.10396172865E-01  0.13752318994E+01  0.10161129739E+01  0.17099288565E+01  0.51100000000E-03 0.  1.
         12    1    3    3    0    0 -0.12510547809E+01 -0.18913967135E+01  0.64335527392E+00  0.23572071612E+01  0.00000000000E+00 0. -1.
</event>
<event>
 7    1  0.2700100E-010  0.4778727E+02  0.7816164E-02  0.1312668E+00
        -11   -1    0    0    0    0  0.00000000000E+00  0.00000000000E+00  0.45593999997E+02  0.45594000000E+02  0.51100000000E-03 0.  1.
         11   -1    0    0    0    0 -0.00000000000E+00 -0.00000000000E+00 -0.45593999997E+02  0.45594000000E+02  0.51100000000E-03 0. -1.
    9900012    2    1    2    0    0 -0.37489958865E+02 -0.20743998173E+02 -0.69146745380E+01  0.47787271897E+02  0.20000003887E+02 0.  0.
        -12    1    1    2    0    0  0.37489958865E+02  0.20743998173E+02  0.69146745380E+01  0.43400728103E+02  0.00000000000E+00 0.  1.
         11    1    3    3    0    0 -0.34618877399E+02 -0.16503938400E+02 -0.51277580018E-01  0.38351652960E+02  0.51100000000E-03 0.  1.
        -11    1    3    3    0    0 -0.13235697495E+01 -0.46484552643E+01 -0.46736234106E+01  0.67232974998E+01  0.51100000000E-03 0. -1.
        -12    1    3    3    0    0 -0.15475117168E+01  0.40839549182E+00 -0.21897735474E+01  0.27123214375E+01  0.00000000000E+00 0.  1.
</event>
<event>
 7    1  0.2700100E-010  0.4778727E+02  0.7816164E-02  0.1312668E+00
        -11   -1    0    0    0    0  0.00000000000E+00  0.00000000000E+00  0.45593999997E+02  0.45594000000E+02  0.51100000000E-03 0.  1.
         11   -1    0    0    0    0 -0.00000000000E+00 -0.00000000000E+00 -0.45593999997E+02  0.45594000000E+02  0.51100000000E-03 0. -1.
    9900012    2    1    2    0    0 -0.14683745207E+02  0.30609309910E+02 -0.27038505275E+02  0.47787274269E+02  0.20000014702E+02 0.  0.
        -12    1    1    2    0    0  0.14683745207E+02 -0.30609309910E+02  0.27038505275E+02  0.43400725731E+02  0.00000000000E+00 0.  1.
         11    1    3    3    0    0  0.13086721695E+01  0.10237681811E+02 -0.21852673621E+01  0.10549793620E+02  0.51100000000E-03 0.  1.
        -11    1    3    3    0    0 -0.13472395628E+02  0.20874461702E+02 -0.23963574495E+02  0.34518132889E+02  0.51100000000E-03 0. -1.
         12    1    3    3    0    0 -0.25200217480E+01 -0.50283360266E+00 -0.88966341758E+00  0.27193477599E+01  0.00000000000E+00 0. -1.
</event>
<event>
 7    1  0.2700100E-010  0.4778727E+02  0.7816164E-02  0.1312668E+00
        -11   -1    0    0    0    0  0.00000000000E+00  0.00000000000E+00  0.45593999997E+02  0.45594000000E+02  0.51100000000E-03 0. -1.
         11   -1    0    0    0    0 -0.00000000000E+00 -0.00000000000E+00 -0.45593999997E+02  0.45594000000E+02  0.51100000000E-03 0.  1.
    9900012    2    1    2    0    0 -0.22517858349E+02  0.15619320492E+02  0.33654213077E+02  0.47787272183E+02  0.20000005192E+02 0.  0.
        -12    1    1    2    0    0  0.22517858349E+02 -0.15619320492E+02 -0.33654213077E+02  0.43400727817E+02  0.00000000000E+00 0.  1.
         11    1    3    3    0    0 -0.59741768350E+01  0.13926639803E+02  0.10660418534E+02  0.18527995267E+02  0.51100000000E-03 0. -1.
        -11    1    3    3    0    0 -0.75438762683E+01  0.31384243315E+01  0.66062277466E+01  0.10507236637E+02  0.51100000000E-03 0.  1.
         12    1    3    3    0    0 -0.89998052453E+01 -0.14457436424E+01  0.16387566796E+02  0.18752040279E+02  0.00000000000E+00 0. -1.
</event>
<event>
 7    1  0.2700100E-010  0.4778727E+02  0.7816164E-02  0.1312668E+00
        -11   -1    0    0    0    0  0.00000000000E+00  0.00000000000E+00  0.45593999997E+02  0.45594000000E+02  0.51100000000E-03 0.  1.
         11   -1    0    0    0    0 -0.00000000000E+00 -0.00000000000E+00 -0.45593999997E+02  0.45594000000E+02  0.51100000000E-03 0. -1.
    9900012    2    1    2    0    0 -0.19093207733E+02 -0.27279077548E+02 -0.27837468623E+02  0.47787270596E+02  0.19999997957E+02 0.  0.
        -12    1    1    2    0    0  0.19093207733E+02  0.27279077548E+02  0.27837468623E+02  0.43400729404E+02  0.00000000000E+00 0.  1.
         11    1    3    3    0    0 -0.17793239963E+02 -0.23057220315E+02 -0.16837694995E+02  0.33641384782E+02  0.51100000000E-03 0. -1.
        -11    1    3    3    0    0  0.29153218473E+01 -0.20646399578E+01 -0.73331983572E+01  0.81570606248E+01  0.51100000000E-03 0.  1.
        -12    1    3    3    0    0 -0.42152896179E+01 -0.21572172751E+01 -0.36665752710E+01  0.59888251897E+01  0.00000000000E+00 0.  1.
</event>
<event>
 7    1  0.2700100E-010  0.4778727E+02  0.7816164E-02  0.1312668E+00
        -11   -1    0    0    0    0  0.00000000000E+00  0.00000000000E+00  0.45593999997E+02  0.45594000000E+02  0.51100000000E-03 0.  1.
         11   -1    0    0    0    0 -0.00000000000E+00 -0.00000000000E+00 -0.45593999997E+02  0.45594000000E+02  0.51100000000E-03 0. -1.
    9900012    2    1    2    0    0  0.34000901617E+02 -0.95155836375E+01 -0.25239167508E+02  0.47787271675E+02  0.20000002873E+02 0.  0.
        -12    1    1    2    0    0 -0.34000901617E+02  0.95155836375E+01  0.25239167508E+02  0.43400728325E+02  0.00000000000E+00 0.  1.
         11    1    3    3    0    0  0.30191816860E+02 -0.12292552729E+02 -0.20933022744E+02  0.38740729206E+02  0.51100000000E-03 0. -1.
        -11    1    3    3    0    0  0.14617050091E+01  0.21950342102E+00  0.16109520284E+01  0.21863050986E+01  0.51100000000E-03 0.  1.
         12    1    3    3    0    0  0.23473797473E+01  0.25574656708E+01 -0.59170967914E+01  0.68602373701E+01  0.00000000000E+00 0. -1.
</event>
<event>
 7    1  0.2700100E-010  0.4778728E+02  0.7816164E-02  0.1312668E+00
        -11   -1    0    0    0    0  0.00000000000E+00  0.00000000000E+00  0.45593999997E+02  0.45594000000E+02  0.51100000000E-03 0.  1.
         11   -1    0    0    0    0 -0.00000000000E+00 -0.00000000000E+00 -0.45593999997E+02  0.45594000000E+02  0.51100000000E-03 0. -1.
    9900012    2    1    2    0    0  0.88724220350E+01 -0.50614295449E+00 -0.42481132863E+02  0.47787277623E+02  0.20000029996E+02 0.  0.
        -12    1    1    2    0    0 -0.88724220350E+01  0.50614295449E+00  0.42481132863E+02  0.43400722377E+02  0.00000000000E+00 0.  1.
         11    1    3    3    0    0  0.82084042847E+01  0.19890608214E+01 -0.39019079578E+02  0.39922710770E+02  0.51100000000E-03 0. -1.
        -11    1    3    3    0    0 -0.18278724281E+01 -0.38043113696E+01 -0.17435195462E+01  0.45665920859E+01  0.51100000000E-03 0.  1.
        -12    1    3    3    0    0  0.24918901784E+01  0.13091075937E+01 -0.17185337390E+01  0.32979747673E+01  0.00000000000E+00 0.  1.
</event>
<event>
 7    1  0.2700100E-010  0.4778727E+02  0.7816164E-02  0.1312668E+00
        -11   -1    0    0    0    0  0.00000000000E+00  0.00000000000E+00  0.45593999997E+02  0.45594000000E+02  0.51100000000E-03 0.  1.
         11   -1    0    0    0    0 -0.00000000000E+00 -0.00000000000E+00 -0.45593999997E+02  0.45594000000E+02  0.51100000000E-03 0. -1.
    9900012    2    1    2    0    0 -0.32688652416E+02 -0.42501109320E+01 -0.28231400584E+02  0.47787269377E+02  0.19999992398E+02 0.  0.
        -12    1    1    2    0    0  0.32688652416E+02  0.42501109320E+01  0.28231400584E+02  0.43400730623E+02  0.00000000000E+00 0.  1.
         11    1    3    3    0    0 -0.83493153629E+01 -0.12595152307E+01 -0.45348835721E+01  0.95844986786E+01  0.51100000000E-03 0. -1.
        -11    1    3    3    0    0 -0.18446609152E+02 -0.90709986159E+01 -0.12130437290E+02  0.23868554925E+02  0.51100000000E-03 0.  1.
        -12    1    3    3    0    0 -0.58927279005E+01  0.60804029146E+01 -0.11566079721E+02  0.14334215773E+02  0.00000000000E+00 0.  1.
</event>
<event>
 7    1  0.2700100E-010  0.4778727E+02  0.7816164E-02  0.1312668E+00
        -11   -1    0    0    0    0  0.00000000000E+00  0.00000000000E+00  0.45593999997E+02  0.45594000000E+02  0.51100000000E-03 0.  1.
         11   -1    0    0    0    0 -0.00000000000E+00 -0.00000000000E+00 -0.45593999997E+02  0.45594000000E+02  0.51100000000E-03 0. -1.
    9900012    2    1    2    0    0  0.27738674460E+02 -0.47861165674E+01 -0.33034562946E+02  0.47787270494E+02  0.19999997491E+02 0.  0.
        -12    1    1    2    0    0 -0.27738674460E+02  0.47861165674E+01  0.33034562946E+02  0.43400729506E+02  0.00000000000E+00 0.  1.
         11    1    3    3    0    0  0.19101813591E+02 -0.10846969300E+01 -0.11476657057E+02  0.22310748696E+02  0.51100000000E-03 0. -1.
        -11    1    3    3    0    0  0.78190449662E+01 -0.48349737189E+01 -0.90826172688E+01  0.12923171892E+02  0.51100000000E-03 0.  1.
         12    1    3    3    0    0  0.81781590299E+00  0.11335540815E+01 -0.12475288620E+02  0.12553349906E+02  0.00000000000E+00 0. -1.
</event>
<event>
 7    1  0.2700100E-010  0.4778727E+02  0.7816164E-02  0.1312668E+00
        -11   -1    0    0    0    0  0.00000000000E+00  0.00000000000E+00  0.45593999997E+02  0.45594000000E+02  0.51100000000E-03 0.  1.
         11   -1    0    0    0    0 -0.00000000000E+00 -0.00000000000E+00 -0.45593999997E+02  0.45594000000E+02  0.51100000000E-03 0. -1.
    9900012    2    1    2    0    0  0.42856222599E+02  0.43217650966E+01 -0.53187976471E+01  0.47787273308E+02  0.20000010321E+02 0.  0.
        -12    1    1    2    0    0 -0.42856222599E+02 -0.43217650966E+01  0.53187976471E+01  0.43400726692E+02  0.00000000000E+00 0.  1.
         11    1    3    3    0    0  0.78355654860E+01 -0.50391838353E+01  0.22539143723E+01  0.95848625692E+01  0.51100000000E-03 0.  1.
        -11    1    3    3    0    0  0.19732498035E+02  0.80766075182E+01 -0.54753255506E+00  0.21328451886E+02  0.51100000000E-03 0. -1.
        -12    1    3    3    0    0  0.15288159078E+02  0.12843414136E+01 -0.70251794643E+01  0.16873958853E+02  0.00000000000E+00 0.  1.
</event>
<event>
 7    1  0.2700100E-010  0.4778727E+02  0.7816164E-02  0.1312668E+00
        -11   -1    0    0    0    0  0.00000000000E+00  0.00000000000E+00  0.45593999997E+02  0.45594000000E+02  0.51100000000E-03 0. -1.
         11   -1    0    0    0    0 -0.00000000000E+00 -0.00000000000E+00 -0.45593999997E+02  0.45594000000E+02  0.51100000000E-03 0.  1.
    9900012    2    1    2    0    0 -0.40130420799E+02  0.16512536510E+02  0.71327848966E+00  0.47787270724E+02  0.19999998539E+02 0.  0.
        -12    1    1    2    0    0  0.40130420799E+02 -0.16512536510E+02 -0.71327848966E+00  0.43400729276E+02  0.00000000000E+00 0.  1.
         11    1    3    3    0    0 -0.12308468908E+01 -0.31597768988E+01 -0.11115356813E+01  0.35685691741E+01  0.51100000000E-03 0.  1.
        -11    1    3    3    0    0 -0.21816471554E+02  0.13539723529E+02 -0.16858886891E+01  0.25731785116E+02  0.51100000000E-03 0. -1.
        -12    1    3    3    0    0 -0.17083102354E+02  0.61325898797E+01  0.35107028601E+01  0.18486916434E+02  0.00000000000E+00 0.  1.
</event>
<event>
 7    1  0.2700100E-010  0.4778727E+02  0.7816164E-02  0.1312668E+00
        -11   -1    0    0    0    0  0.00000000000E+00  0.00000000000E+00  0.45593999997E+02  0.45594000000E+02  0.51100000000E-03 0.  1.
         11   -1    0    0    0    0 -0.00000000000E+00 -0.00000000000E+00 -0.45593999997E+02  0.45594000000E+02  0.51100000000E-03 0. -1.
    9900012    2    1    2    0    0  0.20946501538E+02  0.23926032807E+02 -0.29536628449E+02  0.47787269675E+02  0.19999993758E+02 0.  0.
        -12    1    1    2    0    0 -0.20946501538E+02 -0.23926032807E+02  0.29536628449E+02  0.43400730325E+02  0.00000000000E+00 0.  1.
         11    1    3    3    0    0  0.20692405611E+01 -0.22821257577E+01 -0.49636133634E+01  0.58418586388E+01  0.51100000000E-03 0. -1.
        -11    1    3    3    0    0  0.16393921851E+02  0.20006348719E+02 -0.13925757460E+02  0.29375863967E+02  0.51100000000E-03 0.  1.
        -12    1    3    3    0    0  0.24833391256E+01  0.62018098459E+01 -0.10647257626E+02  0.12569547070E+02  0.00000000000E+00 0.  1.
</event>
<event>
 7    1  0.2700100E-010  0.4778729E+02  0.7816164E-02  0.1312668E+00
        -11   -1    0    0    0    0  0.00000000000E+00  0.00000000000E+00  0.45593999997E+02  0.45594000000E+02  0.51100000000E-03 0.  1.
         11   -1    0    0    0    0 -0.00000000000E+00 -0.00000000000E+00 -0.45593999997E+02  0.45594000000E+02  0.51100000000E-03 0. -1.
    9900012    2    1    2    0    0  0.20671569369E+01 -0.31193476459E+02 -0.30105071089E+02  0.47787292440E+02  0.20000097553E+02 0.  0.
        -12    1    1    2    0    0 -0.20671569369E+01  0.31193476459E+02  0.30105071089E+02  0.43400707560E+02  0.00000000000E+00 0.  1.
         11    1    3    3    0    0 -0.50774800630E+00 -0.64245924456E+01 -0.11838026789E+02  0.13478578362E+02  0.51100000000E-03 0. -1.
        -11    1    3    3    0    0  0.15111795183E+01 -0.58697851127E+01  0.21834009168E+01  0.64424592067E+01  0.51100000000E-03 0.  1.
        -12    1    3    3    0    0  0.10637254249E+01 -0.18899098901E+02 -0.20450445216E+02  0.27866254872E+02  0.00000000000E+00 0.  1.
</event>
<event>
 7    1  0.2700100E-010  0.4778727E+02  0.7816164E-02  0.1312668E+00
        -11   -1    0    0    0    0  0.00000000000E+00  0.00000000000E+00  0.45593999997E+02  0.45594000000E+02  0.51100000000E-03 0. -1.
         11   -1    0    0    0    0 -0.00000000000E+00 -0.00000000000E+00 -0.45593999997E+02  0.45594000000E+02  0.51100000000E-03 0.  1.
    9900012    2    1    2    0    0  0.32332103345E+02 -0.30408132437E+01  0.28792574427E+02  0.47787265052E+02  0.19999972678E+02 0.  0.
        -12    1    1    2    0    0 -0.32332103345E+02  0.30408132437E+01 -0.28792574427E+02  0.43400734948E+02  0.00000000000E+00 0.  1.
         11    1    3    3    0    0  0.23491147617E+02 -0.49679715808E+01  0.25549389934E+02  0.35061176310E+02  0.51100000000E-03 0. -1.
        -11    1    3    3    0    0  0.20234385825E+00 -0.22966428721E+01 -0.58102552753E+00  0.23776253792E+01  0.51100000000E-03 0.  1.
         12    1    3    3    0    0  0.86386118695E+01  0.42238012092E+01  0.38242100212E+01  0.10348463363E+02  0.00000000000E+00 0. -1.
</event>
<event>
 7    1  0.2700100E-010  0.4778727E+02  0.7816164E-02  0.1312668E+00
        -11   -1    0    0    0    0  0.00000000000E+00  0.00000000000E+00  0.45593999997E+02  0.45594000000E+02  0.51100000000E-03 0.  1.
         11   -1    0    0    0    0 -0.00000000000E+00 -0.00000000000E+00 -0.45593999997E+02  0.45594000000E+02  0.51100000000E-03 0. -1.
    9900012    2    1    2    0    0 -0.44134239613E+01  0.38566602666E+02  0.19410370089E+02  0.47787267065E+02  0.19999981856E+02 0.  0.
        -12    1    1    2    0    0  0.44134239613E+01 -0.38566602666E+02 -0.19410370089E+02  0.43400732935E+02  0.00000000000E+00 0.  1.
         11    1    3    3    0    0 -0.79230021480E+01  0.20860855907E+02  0.10137355449E+02  0.24509493017E+02  0.51100000000E-03 0. -1.
        -11    1    3    3    0    0  0.44119582691E+01  0.16892184368E+01  0.45401605733E+01  0.65522433554E+01  0.51100000000E-03 0.  1.
         12    1    3    3    0    0 -0.90238008246E+00  0.16016528323E+02  0.47328540670E+01  0.16725530692E+02  0.00000000000E+00 0. -1.
</event>
<event>
 7    1  0.2700100E-010  0.4778727E+02  0.7816164E-02  0.1312668E+00
        -11   -1    0    0    0    0  0.00000000000E+00  0.00000000000E+00  0.45593999997E+02  0.45594000000E+02  0.51100000000E-03 0.  1.
         11   -1    0    0    0    0 -0.00000000000E+00 -0.00000000000E+00 -0.45593999997E+02  0.45594000000E+02  0.51100000000E-03 0. -1.
    9900012    2    1    2    0    0 -0.71940931023E+00 -0.41529204146E+02 -0.12586934724E+02  0.47787271061E+02  0.20000000073E+02 0.  0.
        -12    1    1    2    0    0  0.71940931023E+00  0.41529204146E+02  0.12586934724E+02  0.43400728939E+02  0.00000000000E+00 0.  1.
         11    1    3    3    0    0  0.25734380783E+01 -0.78166383264E+01 -0.10181754921E+02  0.13091621435E+02  0.51100000000E-03 0. -1.
        -11    1    3    3    0    0  0.18501865640E+01 -0.53121347243E+01  0.69232079106E+00  0.56675633203E+01  0.51100000000E-03 0.  1.
         12    1    3    3    0    0 -0.51430339525E+01 -0.28400431095E+02 -0.30975005942E+01  0.29028086305E+02  0.00000000000E+00 0. -1.
</event>
<event>
 7    1  0.2700100E-010  0.4778727E+02  0.7816164E-02  0.1312668E+00
        -11   -1    0    0    0    0  0.00000000000E+00  0.00000000000E+00  0.45593999997E+02  0.45594000000E+02  0.51100000000E-03 0. -1.
         11   -1    0    0    0    0 -0.00000000000E+00 -0.00000000000E+00 -0.45593999997E+02  0.45594000000E+02  0.51100000000E-03 0.  1.
    9900012    2    1    2    0    0  0.58087421582E+01  0.19033762684E+02  0.38569393061E+02  0.47787266268E+02  0.19999978223E+02 0.  0.
        -12    1    1    2    0    0 -0.58087421582E+01 -0.19033762684E+02 -0.38569393061E+02  0.43400733732E+02  0.00000000000E+00 0.  1.
         11    1    3    3    0    0 -0.10908492423E+01  0.22423324124E+01  0.21628859760E+02  0.21772128548E+02  0.51100000000E-03 0. -1.
        -11    1    3    3    0    0  0.70285366099E+01  0.15619578576E+02  0.17685883434E+02  0.24620358139E+02  0.51100000000E-03 0.  1.
        -12    1    3    3    0    0 -0.12894520942E+00  0.11718516949E+01 -0.74535013250E+00  0.13947795818E+01  0.00000000000E+00 0.  1.
</event>
<event>
 7    1  0.2700100E-010  0.4778727E+02  0.7816164E-02  0.1312668E+00
        -11   -1    0    0    0    0  0.00000000000E+00  0.00000000000E+00  0.45593999997E+02  0.45594000000E+02  0.51100000000E-03 0.  1.
         11   -1    0    0    0    0 -0.00000000000E+00 -0.00000000000E+00 -0.45593999997E+02  0.45594000000E+02  0.51100000000E-03 0. -1.
    9900012    2    1    2    0    0 -0.77321295535E+01 -0.78368917508E+01 -0.41981192033E+02  0.47787272077E+02  0.20000004706E+02 0.  0.
        -12    1    1    2    0    0  0.77321295535E+01  0.78368917508E+01  0.41981192033E+02  0.43400727923E+02  0.00000000000E+00 0.  1.
         11    1    3    3    0    0 -0.44225830988E+01 -0.13570203364E+01 -0.39008750073E+02  0.39282099333E+02  0.51100000000E-03 0. -1.
        -11    1    3    3    0    0 -0.18396966140E+01 -0.33921200719E+01  0.16755575504E+00  0.38625169780E+01  0.51100000000E-03 0.  1.
         12    1    3    3    0    0 -0.14698498408E+01 -0.30877513425E+01 -0.31399977150E+01  0.46426557656E+01  0.00000000000E+00 0. -1.
</event>
<event>
 7    1  0.2700100E-010  0.4778727E+02  0.7816164E-02  0.1312668E+00
        -11   -1    0    0    0    0  0.00000000000E+00  0.00000000000E+00  0.45593999997E+02  0.45594000000E+02  0.51100000000E-03 0. -1.
         11   -1    0    0    0    0 -0.00000000000E+00 -0.00000000000E+00 -0.45593999997E+02  0.45594000000E+02  0.51100000000E-03 0.  1.
    9900012    2    1    2    0    0  0.22075810331E+02  0.79201151882E+01  0.36517853950E+02  0.47787270934E+02  0.19999999498E+02 0.  0.
        -12    1    1    2    0    0 -0.22075810331E+02 -0.79201151882E+01 -0.36517853950E+02  0.43400729066E+02  0.00000000000E+00 0.  1.
         11    1    3    3    0    0  0.81809126394E+00 -0.52096524612E+01  0.36351386162E+01  0.64049968855E+01  0.51100000000E-03 0.  1.
        -11    1    3    3    0    0  0.14190412864E+02  0.10049659438E+02  0.21898069200E+02  0.27962276499E+02  0.51100000000E-03 0. -1.
        -12    1    3    3    0    0  0.70673062026E+01  0.30801082110E+01  0.10984646133E+02  0.13419997549E+02  0.00000000000E+00 0.  1.
</event>
<event>
 7    1  0.2700100E-010  0.4778727E+02  0.7816164E-02  0.1312668E+00
        -11   -1    0    0    0    0  0.00000000000E+00  0.00000000000E+00  0.45593999997E+02  0.45594000000E+02  0.51100000000E-03 0.  1.
         11   -1    0    0    0    0 -0.00000000000E+00 -0.00000000000E+00 -0.45593999997E+02  0.45594000000E+02  0.51100000000E-03 0. -1.
    9900012    2    1    2    0    0  0.12634670917E+02  0.33480489066E+02 -0.24556978085E+02  0.47787271551E+02  0.20000002310E+02 0.  0.
        -12    1    1    2    0    0 -0.12634670917E+02 -0.33480489066E+02  0.24556978085E+02  0.43400728449E+02  0.00000000000E+00 0.  1.
         11    1    3    3    0    0  0.92928373886E+00  0.55906559514E+01 -0.12588053834E+02  0.13805002783E+02  0.51100000000E-03 0. -1.
        -11    1    3    3    0    0  0.96787664142E+01  0.20672399253E+02 -0.42428004430E+01  0.23216975816E+02  0.51100000000E-03 0.  1.
         12    1    3    3    0    0  0.20266207637E+01  0.72174338609E+01 -0.77261238073E+01  0.10765292952E+02  0.00000000000E+00 0. -1.
</event>
<event>
 7    1  0.2700100E-010  0.4778727E+02  0.7816164E-02  0.1312668E+00
        -11   -1    0    0    0    0  0.00000000000E+00  0.00000000000E+00  0.45593999997E+02  0.45594000000E+02  0.51100000000E-03 0. -1.
         11   -1    0    0    0    0 -0.00000000000E+00 -0.00000000000E+00 -0.45593999997E+02  0.45594000000E+02  0.51100000000E-03 0.  1.
    9900012    2    1    2    0    0 -0.32756235481E+02  0.14497978527E+02  0.24504303317E+02  0.47787271604E+02  0.20000002550E+02 0.  0.
        -12    1    1    2    0    0  0.32756235481E+02 -0.14497978527E+02 -0.24504303317E+02  0.43400728396E+02  0.00000000000E+00 0.  1.
         11    1    3    3    0    0 -0.42452810536E+01 -0.25269689416E+01  0.88099766934E+01  0.10100676851E+02  0.51100000000E-03 0. -1.
        -11    1    3    3    0    0 -0.95277314866E+01  0.75008021196E+01  0.16817475660E+01  0.12242057623E+02  0.51100000000E-03 0.  1.
         12    1    3    3    0    0 -0.18983222941E+02  0.95241453495E+01  0.14012579058E+02  0.25444537129E+02  0.00000000000E+00 0. -1.
</event>
<event>
 7    1  0.2700100E-010  0.4778727E+02  0.7816164E-02  0.1312668E+00
        -11   -1    0    0    0    0  0.00000000000E+00  0.00000000000E+00  0.45593999997E+02  0.45594000000E+02  0.51100000000E-03 0.  1.
         11   -1    0    0    0    0 -0.00000000000E+00 -0.00000000000E+00 -0.45593999997E+02  0.45594000000E+02  0.51100000000E-03 0. -1.
    9900012    2    1    2    0    0  0.19583899341E+02  0.34283720185E+00 -0.38729531781E+02  0.47787270942E+02  0.19999999534E+02 0.  0.
        -12    1    1    2    0    0 -0.19583899341E+02 -0.34283720185E+00  0.38729531781E+02  0.43400729058E+02  0.00000000000E+00 0.  1.
         11    1    3    3    0    0 -0.73635819343E+00  0.59114795754E+01 -0.49792440952E+01  0.77640637672E+01  0.51100000000E-03 0. -1.
        -11    1    3    3    0    0  0.10612038894E+02 -0.51425176574E+01 -0.18789841724E+02  0.22183755535E+02  0.51100000000E-03 0.  1.
         12    1    3    3    0    0  0.97082186408E+01 -0.42612471620E+00 -0.14960445961E+02  0.17839451640E+02  0.00000000000E+00 0. -1.
</event>
<event>
 7    1  0.2700100E-010  0.4778727E+02  0.7816164E-02  0.1312668E+00
        -11   -1    0    0    0    0  0.00000000000E+00  0.00000000000E+00  0.45593999997E+02  0.45594000000E+02  0.51100000000E-03 0. -1.
         11   -1    0    0    0    0 -0.00000000000E+00 -0.00000000000E+00 -0.45593999997E+02  0.45594000000E+02  0.51100000000E-03 0.  1.
    9900012    2    1    2    0    0  0.34545950242E+02  0.23299537078E+02  0.12138051827E+02  0.47787269495E+02  0.19999992936E+02 0.  0.
        -12    1    1    2    0    0 -0.34545950242E+02 -0.23299537078E+02 -0.12138051827E+02  0.43400730505E+02  0.00000000000E+00 0.  1.
         11    1    3    3    0    0  0.90386116489E+01  0.70179627442E+01 -0.52326603070E+00  0.11455221919E+02  0.51100000000E-03 0. -1.
        -11    1    3    3    0    0  0.10037034862E+02 -0.16261232997E+01  0.19369853767E+01  0.10350761248E+02  0.51100000000E-03 0.  1.
        -12    1    3    3    0    0  0.15470303731E+02  0.17907697634E+02  0.10724332481E+02  0.25981286328E+02  0.00000000000E+00 0.  1.
</event>
<event>
 7    1  0.2700100E-010  0.4778727E+02  0.7816164E-02  0.1312668E+00
        -11   -1    0    0    0    0  0.00000000000E+00  0.00000000000E+00  0.45593999997E+02  0.45594000000E+02  0.51100000000E-03 0. -1.
         11   -1    0    0    0    0 -0.00000000000E+00 -0.00000000000E+00 -0.45593999997E+02  0.45594000000E+02  0.51100000000E-03 0.  1.
    9900012    2    1    2    0    0  0.37216487552E+01  0.43160461416E+02  0.26357119198E+01  0.47787273319E+02  0.20000010371E+02 0.  0.
        -12    1    1    2    0    0 -0.37216487552E+01 -0.43160461416E+02 -0.26357119198E+01  0.43400726681E+02  0.00000000000E+00 0.  1.
         11    1    3    3    0    0  0.93415960113E+01  0.23255869294E+02 -0.44298089687E+01  0.25450423974E+02  0.51100000000E-03 0. -1.
        -11    1    3    3    0    0 -0.58804754464E+01  0.14258008357E+02  0.61807715878E+01  0.16615436541E+02  0.51100000000E-03 0.  1.
        -12    1    3    3    0    0  0.26052819028E+00  0.56465837650E+01  0.88474930076E+00  0.57214128043E+01  0.00000000000E+00 0.  1.
</event>
<event>
 7    1  0.2700100E-010  0.4778727E+02  0.7816164E-02  0.1312668E+00
        -11   -1    0    0    0    0  0.00000000000E+00  0.00000000000E+00  0.45593999997E+02  0.45594000000E+02  0.51100000000E-03 0. -1.
         11   -1    0    0    0    0 -0.00000000000E+00 -0.00000000000E+00 -0.45593999997E+02  0.45594000000E+02  0.51100000000E-03 0.  1.
    9900012    2    1    2    0    0  0.41482599259E+02 -0.12729213809E+02  0.88554131725E+00  0.47787272945E+02  0.20000008664E+02 0.  0.
        -12    1    1    2    0    0 -0.41482599259E+02  0.12729213809E+02 -0.88554131725E+00  0.43400727055E+02  0.00000000000E+00 0.  1.
         11    1    3    3    0    0  0.25769553464E+01  0.37174655036E+01  0.21169897063E+01  0.49941860504E+01  0.51100000000E-03 0. -1.
        -11    1    3    3    0    0  0.37466923282E-01  0.34406768403E+00  0.25057908520E+00  0.42728969165E+00  0.51100000000E-03 0.  1.
         12    1    3    3    0    0  0.38868176990E+02 -0.16790746996E+02 -0.14820274743E+01  0.42365797203E+02  0.00000000000E+00 0. -1.
</event>
<event>
 7    1  0.2700100E-010  0.4778727E+02  0.7816164E-02  0.1312668E+00
        -11   -1    0    0    0    0  0.00000000000E+00  0.00000000000E+00  0.45593999997E+02  0.45594000000E+02  0.51100000000E-03 0. -1.
         11   -1    0    0    0    0 -0.00000000000E+00 -0.00000000000E+00 -0.45593999997E+02  0.45594000000E+02  0.51100000000E-03 0.  1.
    9900012    2    1    2    0    0 -0.17898020050E+02  0.21174685389E+02  0.33390366999E+02  0.47787273838E+02  0.20000012739E+02 0.  0.
        -12    1    1    2    0    0  0.17898020050E+02 -0.21174685389E+02 -0.33390366999E+02  0.43400726162E+02  0.00000000000E+00 0.  1.
         11    1    3    3    0    0 -0.18046492970E+02  0.12664886185E+02  0.21090595345E+02  0.30510464809E+02  0.51100000000E-03 0. -1.
        -11    1    3    3    0    0 -0.44342545511E+00  0.98418401797E+01  0.78575955075E+01  0.12601597188E+02  0.51100000000E-03 0.  1.
        -12    1    3    3    0    0  0.59189837503E+00 -0.13320409760E+01  0.44421761468E+01  0.46752118420E+01  0.00000000000E+00 0.  1.
</event>
<event>
 7    1  0.2700100E-010  0.4778727E+02  0.7816164E-02  0.1312668E+00
        -11   -1    0    0    0    0  0.00000000000E+00  0.00000000000E+00  0.45593999997E+02  0.45594000000E+02  0.51100000000E-03 0. -1.
         11   -1    0    0    0    0 -0.00000000000E+00 -0.00000000000E+00 -0.45593999997E+02  0.45594000000E+02  0.51100000000E-03 0.  1.
    9900012    2    1    2    0    0 -0.75527079947E+01  0.40567569918E+02  0.13448127391E+02  0.47787271234E+02  0.20000000865E+02 0.  0.
        -12    1    1    2    0    0  0.75527079947E+01 -0.40567569918E+02 -0.13448127391E+02  0.43400728766E+02  0.00000000000E+00 0.  1.
         11    1    3    3    0    0  0.37555329182E+01  0.53273391261E+01 -0.13656281650E+01  0.66595427929E+01  0.51100000000E-03 0. -1.
        -11    1    3    3    0    0 -0.87015348354E+01  0.15436758150E+02  0.10806293474E+02  0.20755389410E+02  0.51100000000E-03 0.  1.
        -12    1    3    3    0    0 -0.26067060775E+01  0.19803472642E+02  0.40074620820E+01  0.20372339031E+02  0.00000000000E+00 0.  1.
</event>
<event>
 7    1  0.2700100E-010  0.4778727E+02  0.7816164E-02  0.1312668E+00
        -11   -1    0    0    0    0  0.00000000000E+00  0.00000000000E+00  0.45593999997E+02  0.45594000000E+02  0.51100000000E-03 0.  1.
         11   -1    0    0    0    0 -0.00000000000E+00 -0.00000000000E+00 -0.45593999997E+02  0.45594000000E+02  0.51100000000E-03 0. -1.
    9900012    2    1    2    0    0 -0.92034823632E+01  0.20740409745E+02 -0.36996683932E+02  0.47787270675E+02  0.19999998314E+02 0.  0.
        -12    1    1    2    0    0  0.92034823632E+01 -0.20740409745E+02  0.36996683932E+02  0.43400729325E+02  0.00000000000E+00 0.  1.
         11    1    3    3    0    0 -0.15119255436E+01  0.14830914276E+02 -0.10710119817E+02  0.18356159834E+02  0.51100000000E-03 0. -1.
        -11    1    3    3    0    0 -0.47326081335E+01 -0.75752434088E+00 -0.16765610752E+02  0.17437233927E+02  0.51100000000E-03 0.  1.
         12    1    3    3    0    0 -0.29589486861E+01  0.66670198103E+01 -0.95209533628E+01  0.11993876913E+02  0.00000000000E+00 0. -1.
</event>
<event>
 7    1  0.2700100E-010  0.4778727E+02  0.7816164E-02  0.1312668E+00
        -11   -1    0    0    0    0  0.00000000000E+00  0.00000000000E+00  0.45593999997E+02  0.45594000000E+02  0.51100000000E-03 0.  1.
         11   -1    0    0    0    0 -0.00000000000E+00 -0.00000000000E+00 -0.45593999997E+02  0.45594000000E+02  0.51100000000E-03 0. -1.
    9900012    2    1    2    0    0  0.33789343598E+02 -0.16641250317E+02 -0.21563214428E+02  0.47787272248E+02  0.20000005489E+02 0.  0.
        -12    1    1    2    0    0 -0.33789343598E+02  0.16641250317E+02  0.21563214428E+02  0.43400727752E+02  0.00000000000E+00 0.  1.
         11    1    3    3    0    0  0.22573696020E+02 -0.10394574003E+02 -0.10495485682E+02  0.26977289350E+02  0.51100000000E-03 0. -1.
        -11    1    3    3    0    0  0.23903468940E+01 -0.78780667671E+01 -0.30630215116E+01  0.87840648508E+01  0.51100000000E-03 0.  1.
        -12    1    3    3    0    0  0.88253006840E+01  0.16313904528E+01 -0.80047072353E+01  0.12025918048E+02  0.00000000000E+00 0.  1.
</event>
<event>
 7    1  0.2700100E-010  0.4778727E+02  0.7816164E-02  0.1312668E+00
        -11   -1    0    0    0    0  0.00000000000E+00  0.00000000000E+00  0.45593999997E+02  0.45594000000E+02  0.51100000000E-03 0.  1.
         11   -1    0    0    0    0 -0.00000000000E+00 -0.00000000000E+00 -0.45593999997E+02  0.45594000000E+02  0.51100000000E-03 0. -1.
    9900012    2    1    2    0    0  0.35327294907E+02  0.20992264612E+02  0.13961741968E+02  0.47787272152E+02  0.20000005048E+02 0.  0.
        -12    1    1    2    0    0 -0.35327294907E+02 -0.20992264612E+02 -0.13961741968E+02  0.43400727848E+02  0.00000000000E+00 0.  1.
         11    1    3    3    0    0  0.12588590596E+02  0.12116170587E+02  0.18335210567E+01  0.17568039236E+02  0.51100000000E-03 0. -1.
        -11    1    3    3    0    0  0.21758675313E+02  0.34815687140E+01  0.83678389234E+01  0.23570787017E+02  0.51100000000E-03 0.  1.
        -12    1    3    3    0    0  0.98002899848E+00  0.53945253111E+01  0.37603819876E+01  0.66484458983E+01  0.00000000000E+00 0.  1.
</event>
<event>
 7    1  0.2700100E-010  0.4778727E+02  0.7816164E-02  0.1312668E+00
        -11   -1    0    0    0    0  0.00000000000E+00  0.00000000000E+00  0.45593999997E+02  0.45594000000E+02  0.51100000000E-03 0. -1.
         11   -1    0    0    0    0 -0.00000000000E+00 -0.00000000000E+00 -0.45593999997E+02  0.45594000000E+02  0.51100000000E-03 0.  1.
    9900012    2    1    2    0    0  0.33218713379E+02  0.23830361621E+02  0.14568963088E+02  0.47787265686E+02  0.19999975569E+02 0.  0.
        -12    1    1    2    0    0 -0.33218713379E+02 -0.23830361621E+02 -0.14568963088E+02  0.43400734314E+02  0.00000000000E+00 0.  1.
         11    1    3    3    0    0  0.29839869741E+02  0.24608570456E+02  0.98893801557E+01  0.39922417338E+02  0.51100000000E-03 0. -1.
        -11    1    3    3    0    0  0.45275774654E+01  0.50881346727E+00  0.29861743685E+01  0.54474844167E+01  0.51100000000E-03 0.  1.
         12    1    3    3    0    0 -0.11487338270E+01 -0.12870223022E+01  0.16934085634E+01  0.24173639308E+01  0.00000000000E+00 0. -1.
</event>
<event>
 7    1  0.2700100E-010  0.4778727E+02  0.7816164E-02  0.1312668E+00
        -11   -1    0    0    0    0  0.00000000000E+00  0.00000000000E+00  0.45593999997E+02  0.45594000000E+02  0.51100000000E-03 0. -1.
         11   -1    0    0    0    0 -0.00000000000E+00 -0.00000000000E+00 -0.45593999997E+02  0.45594000000E+02  0.51100000000E-03 0.  1.
    9900012    2    1    2    0    0  0.14933379609E+02 -0.31185461458E+02  0.26231371639E+02  0.47787266240E+02  0.19999978092E+02 0.  0.
        -12    1    1    2    0    0 -0.14933379609E+02  0.31185461458E+02 -0.26231371639E+02  0.43400733760E+02  0.00000000000E+00 0.  1.
         11    1    3    3    0    0  0.14377578459E+01 -0.31323118112E+00 -0.25881712629E+01  0.29772289371E+01  0.51100000000E-03 0.  1.
        -11    1    3    3    0    0  0.14157657271E+02 -0.30160975245E+02  0.27713245857E+02  0.43337601265E+02  0.51100000000E-03 0. -1.
         12    1    3    3    0    0 -0.66203550862E+00 -0.71125503160E+00  0.11062970447E+01  0.14724360379E+01  0.00000000000E+00 0. -1.
</event>
<event>
 7    1  0.2700100E-010  0.4778727E+02  0.7816164E-02  0.1312668E+00
        -11   -1    0    0    0    0  0.00000000000E+00  0.00000000000E+00  0.45593999997E+02  0.45594000000E+02  0.51100000000E-03 0. -1.
         11   -1    0    0    0    0 -0.00000000000E+00 -0.00000000000E+00 -0.45593999997E+02  0.45594000000E+02  0.51100000000E-03 0.  1.
    9900012    2    1    2    0    0 -0.41340899176E+02  0.22440352250E+01  0.13019895255E+02  0.47787270614E+02  0.19999998037E+02 0.  0.
        -12    1    1    2    0    0  0.41340899176E+02 -0.22440352250E+01 -0.13019895255E+02  0.43400729386E+02  0.00000000000E+00 0.  1.
         11    1    3    3    0    0 -0.17692693193E+02 -0.14251981817E+01  0.15538609673E+02  0.23590484800E+02  0.51100000000E-03 0. -1.
        -11    1    3    3    0    0 -0.17631965644E+02  0.20451129071E+01 -0.27444701107E+01  0.17961091718E+02  0.51100000000E-03 0.  1.
         12    1    3    3    0    0 -0.60162403396E+01  0.16241204996E+01  0.22575569279E+00  0.62356940956E+01  0.00000000000E+00 0. -1.
</event>
<event>
 7    1  0.2700100E-010  0.4778728E+02  0.7816164E-02  0.1312668E+00
        -11   -1    0    0    0    0  0.00000000000E+00  0.00000000000E+00  0.45593999997E+02  0.45594000000E+02  0.51100000000E-03 0. -1.
         11   -1    0    0    0    0 -0.00000000000E+00 -0.00000000000E+00 -0.45593999997E+02  0.45594000000E+02  0.51100000000E-03 0.  1.
    9900012    2    1    2    0    0 -0.15430703416E+02  0.18810593953E+02  0.35939919575E+02  0.47787275676E+02  0.20000021118E+02 0.  0.
        -12    1    1    2    0    0  0.15430703416E+02 -0.18810593953E+02 -0.35939919575E+02  0.43400724324E+02  0.00000000000E+00 0.  1.
         11    1    3    3    0    0 -0.21691556637E+01  0.12091985995E+02  0.15670038129E+02  0.19911591017E+02  0.51100000000E-03 0. -1.
        -11    1    3    3    0    0 -0.14614484023E+02  0.53154075620E+01  0.20689052441E+02  0.25881916312E+02  0.51100000000E-03 0.  1.
        -12    1    3    3    0    0  0.13529362700E+01  0.14032003955E+01 -0.41917099486E+00  0.19937683475E+01  0.00000000000E+00 0.  1.
</event>
<event>
 7    1  0.2700100E-010  0.4778727E+02  0.7816164E-02  0.1312668E+00
        -11   -1    0    0    0    0  0.00000000000E+00  0.00000000000E+00  0.45593999997E+02  0.45594000000E+02  0.51100000000E-03 0.  1.
         11   -1    0    0    0    0 -0.00000000000E+00 -0.00000000000E+00 -0.45593999997E+02  0.45594000000E+02  0.51100000000E-03 0. -1.
    9900012    2    1    2    0    0 -0.25516610096E+02  0.75302600276E+01 -0.34290248547E+02  0.47787270141E+02  0.19999995879E+02 0.  0.
        -12    1    1    2    0    0  0.25516610096E+02 -0.75302600276E+01  0.34290248547E+02  0.43400729859E+02  0.00000000000E+00 0.  1.
         11    1    3    3    0    0 -0.12546303944E+02  0.92231811945E+01 -0.13839861623E+02  0.20833112682E+02  0.51100000000E-03 0. -1.
        -11    1    3    3    0    0 -0.38408032686E+00 -0.33060489658E+01 -0.58105033753E+00  0.33786235685E+01  0.51100000000E-03 0.  1.
         12    1    3    3    0    0 -0.12586225826E+02  0.16131277989E+01 -0.19869336587E+02  0.23575533891E+02  0.00000000000E+00 0. -1.
</event>
<event>
 7    1  0.2700100E-010  0.4778727E+02  0.7816164E-02  0.1312668E+00
        -11   -1    0    0    0    0  0.00000000000E+00  0.00000000000E+00  0.45593999997E+02  0.45594000000E+02  0.51100000000E-03 0.  1.
         11   -1    0    0    0    0 -0.00000000000E+00 -0.00000000000E+00 -0.45593999997E+02  0.45594000000E+02  0.51100000000E-03 0. -1.
    9900012    2    1    2    0    0  0.16527570757E+02 -0.39944440072E+02 -0.38606497961E+01  0.47787268386E+02  0.19999987878E+02 0.  0.
        -12    1    1    2    0    0 -0.16527570757E+02  0.39944440072E+02  0.38606497961E+01  0.43400731614E+02  0.00000000000E+00 0.  1.
         11    1    3    3    0    0  0.43430954749E+01 -0.15658570118E+02  0.12242998185E+01  0.16295772665E+02  0.51100000000E-03 0. -1.
        -11    1    3    3    0    0  0.11708749178E+02 -0.26416019785E+02 -0.47913418352E+01  0.29289210735E+02  0.51100000000E-03 0.  1.
        -12    1    3    3    0    0  0.47572610393E+00  0.21301498314E+01 -0.29360777943E+00  0.22022849857E+01  0.00000000000E+00 0.  1.
</event>
<event>
 7    1  0.2700100E-010  0.4778727E+02  0.7816164E-02  0.1312668E+00
        -11   -1    0    0    0    0  0.00000000000E+00  0.00000000000E+00  0.45593999997E+02  0.45594000000E+02  0.51100000000E-03 0. -1.
         11   -1    0    0    0    0 -0.00000000000E+00 -0.00000000000E+00 -0.45593999997E+02  0.45594000000E+02  0.51100000000E-03 0.  1.
    9900012    2    1    2    0    0 -0.77503008923E+01  0.35182044089E+02  0.24202889652E+02  0.47787271231E+02  0.20000000849E+02 0.  0.
        -12    1    1    2    0    0  0.77503008923E+01 -0.35182044089E+02 -0.24202889652E+02  0.43400728769E+02  0.00000000000E+00 0.  1.
         11    1    3    3    0    0  0.85310288330E+00  0.76550557326E+01 -0.54134970567E+00  0.77214456265E+01  0.51100000000E-03 0. -1.
        -11    1    3    3    0    0 -0.36719012999E+00  0.15204298773E+02  0.64474628934E+01  0.16518937853E+02  0.51100000000E-03 0.  1.
         12    1    3    3    0    0 -0.82362136456E+01  0.12322689584E+02  0.18296776464E+02  0.23546887751E+02  0.00000000000E+00 0. -1.
</event>
<event>
 7    1  0.2700100E-010  0.4778727E+02  0.7816164E-02  0.1312668E+00
        -11   -1    0    0    0    0  0.00000000000E+00  0.00000000000E+00  0.45593999997E+02  0.45594000000E+02  0.51100000000E-03 0. -1.
         11   -1    0    0    0    0 -0.00000000000E+00 -0.00000000000E+00 -0.45593999997E+02  0.45594000000E+02  0.51100000000E-03 0.  1.
    9900012    2    1    2    0    0  0.96718227348E+00  0.12161682633E+02  0.41650712050E+02  0.47787265210E+02  0.19999973398E+02 0.  0.
        -12    1    1    2    0    0 -0.96718227348E+00 -0.12161682633E+02 -0.41650712050E+02  0.43400734790E+02  0.00000000000E+00 0.  1.
         11    1    3    3    0    0  0.73156567628E+01  0.11127583764E+02  0.22331356336E+02  0.26000604423E+02  0.51100000000E-03 0. -1.
        -11    1    3    3    0    0 -0.76018080057E+01  0.21660963890E+01  0.17946813022E+02  0.19610394092E+02  0.51100000000E-03 0.  1.
         12    1    3    3    0    0  0.12533335164E+01 -0.11319975194E+01  0.13725426919E+01  0.21762666951E+01  0.00000000000E+00 0. -1.
</event>
<event>
 7    1  0.2700100E-010  0.4778727E+02  0.7816164E-02  0.1312668E+00
        -11   -1    0    0    0    0  0.00000000000E+00  0.00000000000E+00  0.45593999997E+02  0.45594000000E+02  0.51100000000E-03 0.  1.
         11   -1    0    0    0    0 -0.00000000000E+00 -0.00000000000E+00 -0.45593999997E+02  0.45594000000E+02  0.51100000000E-03 0. -1.
    9900012    2    1    2    0    0  0.30976948477E+02 -0.23527806133E+02  0.19248229347E+02  0.47787270381E+02  0.19999996977E+02 0.  0.
        -12    1    1    2    0    0 -0.30976948477E+02  0.23527806133E+02 -0.19248229347E+02  0.43400729619E+02  0.00000000000E+00 0.  1.
         11    1    3    3    0    0  0.59839014842E+01 -0.17316165566E+01 -0.87349020068E+00  0.62903543829E+01  0.51100000000E-03 0. -1.
        -11    1    3    3    0    0  0.19154180281E+02 -0.23131940311E+02  0.14786006594E+02  0.33475293517E+02  0.51100000000E-03 0.  1.
        -12    1    3    3    0    0  0.58388667126E+01  0.13357507345E+01  0.53357129539E+01  0.80216224817E+01  0.00000000000E+00 0.  1.
</event>
<event>
 7    1  0.2700100E-010  0.4778728E+02  0.7816164E-02  0.1312668E+00
        -11   -1    0    0    0    0  0.00000000000E+00  0.00000000000E+00  0.45593999997E+02  0.45594000000E+02  0.51100000000E-03 0.  1.
         11   -1    0    0    0    0 -0.00000000000E+00 -0.00000000000E+00 -0.45593999997E+02  0.45594000000E+02  0.51100000000E-03 0. -1.
    9900012    2    1    2    0    0  0.17690455211E+02  0.33671906940E+02 -0.20901500347E+02  0.47787282963E+02  0.20000054343E+02 0.  0.
        -12    1    1    2    0    0 -0.17690455211E+02 -0.33671906940E+02  0.20901500347E+02  0.43400717037E+02  0.00000000000E+00 0.  1.
         11    1    3    3    0    0  0.98434790163E+01  0.27876918889E+02 -0.11479726857E+02  0.31714362911E+02  0.51100000000E-03 0. -1.
        -11    1    3    3    0    0  0.28954344485E+01 -0.21479270283E+01 -0.33107779779E+01  0.48947300482E+01  0.51100000000E-03 0.  1.
        -12    1    3    3    0    0  0.49515417459E+01  0.79429150795E+01 -0.61109955116E+01  0.11178190004E+02  0.00000000000E+00 0.  1.
</event>
<event>
 7    1  0.2700100E-010  0.4778728E+02  0.7816164E-02  0.1312668E+00
        -11   -1    0    0    0    0  0.00000000000E+00  0.00000000000E+00  0.45593999997E+02  0.45594000000E+02  0.51100000000E-03 0. -1.
         11   -1    0    0    0    0 -0.00000000000E+00 -0.00000000000E+00 -0.45593999997E+02  0.45594000000E+02  0.51100000000E-03 0.  1.
    9900012    2    1    2    0    0 -0.30687779008E+02  0.28877189272E+02 -0.10391875854E+02  0.47787275069E+02  0.20000018351E+02 0.  0.
        -12    1    1    2    0    0  0.30687779008E+02 -0.28877189272E+02  0.10391875854E+02  0.43400724931E+02  0.00000000000E+00 0.  1.
         11    1    3    3    0    0 -0.20060812190E+02  0.26029521012E+02 -0.29760941132E+01  0.32997413327E+02  0.51100000000E-03 0. -1.
        -11    1    3    3    0    0  0.51642918151E+00  0.84115072787E+00  0.36408441169E+00  0.10520415232E+01  0.51100000000E-03 0.  1.
         12    1    3    3    0    0 -0.11143396000E+02  0.20065175323E+01 -0.77798661528E+01  0.13737820219E+02  0.00000000000E+00 0. -1.
</event>
<event>
 7    1  0.2700100E-010  0.4778726E+02  0.7816164E-02  0.1312668E+00
        -11   -1    0    0    0    0  0.00000000000E+00  0.00000000000E+00  0.45593999997E+02  0.45594000000E+02  0.51100000000E-03 0. -1.
         11   -1    0    0    0    0 -0.00000000000E+00 -0.00000000000E+00 -0.45593999997E+02  0.45594000000E+02  0.51100000000E-03 0.  1.
    9900012    2    1    2    0    0 -0.18115777362E+02 -0.98355067934E+00  0.39426839422E+02  0.47787257746E+02  0.19999939369E+02 0.  0.
        -12    1    1    2    0    0  0.18115777362E+02  0.98355067934E+00 -0.39426839422E+02  0.43400742254E+02  0.00000000000E+00 0.  1.
         11    1    3    3    0    0 -0.17665266410E+02  0.26871481713E+01  0.36591324457E+02  0.40721093164E+02  0.51100000000E-03 0. -1.
        -11    1    3    3    0    0 -0.15044080498E+01 -0.54771800838E+00 -0.10926866560E+01  0.19383505840E+01  0.51100000000E-03 0.  1.
         12    1    3    3    0    0  0.10538970981E+01 -0.31229808423E+01  0.39282016205E+01  0.51278139987E+01  0.00000000000E+00 0. -1.
</event>
<event>
 7    1  0.2700100E-010  0.4778727E+02  0.7816164E-02  0.1312668E+00
        -11   -1    0    0    0    0  0.00000000000E+00  0.00000000000E+00  0.45593999997E+02  0.45594000000E+02  0.51100000000E-03 0. -1.
         11   -1    0    0    0    0 -0.00000000000E+00 -0.00000000000E+00 -0.45593999997E+02  0.45594000000E+02  0.51100000000E-03 0.  1.
    9900012    2    1    2    0    0  0.21059370693E+02  0.37601882904E+02 -0.51210056997E+01  0.47787269692E+02  0.19999993834E+02 0.  0.
        -12    1    1    2    0    0 -0.21059370693E+02 -0.37601882904E+02  0.51210056997E+01  0.43400730308E+02  0.00000000000E+00 0.  1.
         11    1    3    3    0    0 -0.30882713516E+01  0.14399452217E+01 -0.11518113618E+01  0.35968780709E+01  0.51100000000E-03 0. -1.
        -11    1    3    3    0    0  0.24549446731E+01  0.14795106844E+01 -0.14318084403E+01  0.32040257309E+01  0.51100000000E-03 0.  1.
         12    1    3    3    0    0  0.21692697372E+02  0.34682426997E+02 -0.25373858976E+01  0.40986365890E+02  0.00000000000E+00 0. -1.
</event>
<event>
 7    1  0.2700100E-010  0.4778726E+02  0.7816164E-02  0.1312668E+00
        -11   -1    0    0    0    0  0.00000000000E+00  0.00000000000E+00  0.45593999997E+02  0.45594000000E+02  0.51100000000E-03 0.  1.
         11   -1    0    0    0    0 -0.00000000000E+00 -0.00000000000E+00 -0.45593999997E+02  0.45594000000E+02  0.51100000000E-03 0. -1.
    9900012    2    1    2    0    0 -0.91255558457E+01  0.90379781393E+01 -0.41456763723E+02  0.47787261796E+02  0.19999957831E+02 0.  0.
        -12    1    1    2    0    0  0.91255558457E+01 -0.90379781393E+01  0.41456763723E+02  0.43400738204E+02  0.00000000000E+00 0.  1.
         11    1    3    3    0    0  0.63388714714E+00  0.13088918371E+01 -0.48237218561E+01  0.50381845503E+01  0.51100000000E-03 0. -1.
        -11    1    3    3    0    0 -0.54072664209E+00  0.11024553735E+02 -0.26261129806E+02  0.28486489943E+02  0.51100000000E-03 0.  1.
        -12    1    3    3    0    0 -0.92187163507E+01 -0.32954674324E+01 -0.10371912061E+02  0.14262587302E+02  0.00000000000E+00 0.  1.
</event>
<event>
 7    1  0.2700100E-010  0.4778727E+02  0.7816164E-02  0.1312668E+00
        -11   -1    0    0    0    0  0.00000000000E+00  0.00000000000E+00  0.45593999997E+02  0.45594000000E+02  0.51100000000E-03 0. -1.
         11   -1    0    0    0    0 -0.00000000000E+00 -0.00000000000E+00 -0.45593999997E+02  0.45594000000E+02  0.51100000000E-03 0.  1.
    9900012    2    1    2    0    0 -0.26346335628E+02  0.33718419939E+02  0.72499912774E+01  0.47787267083E+02  0.19999981938E+02 0.  0.
        -12    1    1    2    0    0  0.26346335628E+02 -0.33718419939E+02 -0.72499912774E+01  0.43400732917E+02  0.00000000000E+00 0.  1.
         11    1    3    3    0    0 -0.17815277080E+02  0.27979555089E+02 -0.29120681882E+01  0.33297443472E+02  0.51100000000E-03 0. -1.
        -11    1    3    3    0    0 -0.49638511041E+01  0.38795530588E+01  0.59554467712E+01  0.86693769226E+01  0.51100000000E-03 0.  1.
         12    1    3    3    0    0 -0.35672074438E+01  0.18593117916E+01  0.42066126944E+01  0.58204466879E+01  0.00000000000E+00 0. -1.
</event>
<event>
 7    1  0.2700100E-010  0.4778721E+02  0.7816164E-02  0.1312668E+00
        -11   -1    0    0    0    0  0.00000000000E+00  0.00000000000E+00  0.45593999997E+02  0.45594000000E+02  0.51100000000E-03 0.  1.
         11   -1    0    0    0    0 -0.00000000000E+00 -0.00000000000E+00 -0.45593999997E+02  0.45594000000E+02  0.51100000000E-03 0. -1.
    9900012    2    1    2    0    0  0.10137509208E+02 -0.26092742399E+02 -0.33166670764E+02  0.47787212583E+02  0.19999733447E+02 0.  0.
        -12    1    1    2    0    0 -0.10137509208E+02  0.26092742399E+02  0.33166670764E+02  0.43400787417E+02  0.00000000000E+00 0.  1.
         11    1    3    3    0    0  0.10535851928E+02 -0.20251281270E+02 -0.12355089717E+02  0.25957018532E+02  0.51100000000E-03 0. -1.
        -11    1    3    3    0    0 -0.10747828342E+01 -0.79840380633E+00 -0.66196241135E+01  0.67536679252E+01  0.51100000000E-03 0.  1.
         12    1    3    3    0    0  0.67644011480E+00 -0.50430573230E+01 -0.14191956934E+02  0.15076526125E+02  0.00000000000E+00 0. -1.
</event>
<event>
 7    1  0.2700100E-010  0.4778727E+02  0.7816164E-02  0.1312668E+00
        -11   -1    0    0    0    0  0.00000000000E+00  0.00000000000E+00  0.45593999997E+02  0.45594000000E+02  0.51100000000E-03 0.  1.
         11   -1    0    0    0    0 -0.00000000000E+00 -0.00000000000E+00 -0.45593999997E+02  0.45594000000E+02  0.51100000000E-03 0. -1.
    9900012    2    1    2    0    0  0.63195831946E+01 -0.22565055690E+02 -0.36530866669E+02  0.47787273167E+02  0.20000009679E+02 0.  0.
        -12    1    1    2    0    0 -0.63195831946E+01  0.22565055690E+02  0.36530866669E+02  0.43400726833E+02  0.00000000000E+00 0.  1.
         11    1    3    3    0    0 -0.33406183958E+00 -0.64608719319E+01 -0.30108371741E+01  0.71357973754E+01  0.51100000000E-03 0. -1.
        -11    1    3    3    0    0  0.65853492673E+01 -0.17269283808E+01 -0.42086730516E+01  0.80038762935E+01  0.51100000000E-03 0.  1.
        -12    1    3    3    0    0  0.68295766832E-01 -0.14377255377E+02 -0.29311356443E+02  0.32647599498E+02  0.00000000000E+00 0.  1.
</event>
<event>
 7    1  0.2700100E-010  0.4778727E+02  0.7816164E-02  0.1312668E+00
        -11   -1    0    0    0    0  0.00000000000E+00  0.00000000000E+00  0.45593999997E+02  0.45594000000E+02  0.51100000000E-03 0.  1.
         11   -1    0    0    0    0 -0.00000000000E+00 -0.00000000000E+00 -0.45593999997E+02  0.45594000000E+02  0.51100000000E-03 0. -1.
    9900012    2    1    2    0    0 -0.93342443615E+01 -0.31441321824E+02 -0.28424256815E+02  0.47787271765E+02  0.20000003284E+02 0.  0.
        -12    1    1    2    0    0  0.93342443615E+01  0.31441321824E+02  0.28424256815E+02  0.43400728235E+02  0.00000000000E+00 0.  1.
         11    1    3    3    0    0 -0.89421869496E+00 -0.99100456974E+00 -0.21219135206E+01  0.25068375260E+01  0.51100000000E-03 0. -1.
        -11    1    3    3    0    0 -0.12125211061E+02 -0.30830467037E+02 -0.24135500266E+02  0.40988544916E+02  0.51100000000E-03 0.  1.
        -12    1    3    3    0    0  0.36851853945E+01  0.38014978229E+00 -0.21668430286E+01  0.42918893229E+01  0.00000000000E+00 0.  1.
</event>
<event>
 7    1  0.2700100E-010  0.4778727E+02  0.7816164E-02  0.1312668E+00
        -11   -1    0    0    0    0  0.00000000000E+00  0.00000000000E+00  0.45593999997E+02  0.45594000000E+02  0.51100000000E-03 0. -1.
         11   -1    0    0    0    0 -0.00000000000E+00 -0.00000000000E+00 -0.45593999997E+02  0.45594000000E+02  0.51100000000E-03 0.  1.
    9900012    2    1    2    0    0 -0.15644027747E+02  0.32115667971E+02 -0.24646939118E+02  0.47787270268E+02  0.19999996461E+02 0.  0.
        -12    1    1    2    0    0  0.15644027747E+02 -0.32115667971E+02  0.24646939118E+02  0.43400729732E+02  0.00000000000E+00 0.  1.
         11    1    3    3    0    0 -0.12203962471E+02  0.69537436141E+01 -0.12097948698E+02  0.18537842733E+02  0.51100000000E-03 0. -1.
        -11    1    3    3    0    0  0.33386945106E-01  0.11038789259E+02 -0.18470166850E+01  0.11192294397E+02  0.51100000000E-03 0.  1.
        -12    1    3    3    0    0 -0.34734522217E+01  0.14123135098E+02 -0.10701973735E+02  0.18057133138E+02  0.00000000000E+00 0.  1.
</event>
<event>
 7    1  0.2700100E-010  0.4778727E+02  0.7816164E-02  0.1312668E+00
        -11   -1    0    0    0    0  0.00000000000E+00  0.00000000000E+00  0.45593999997E+02  0.45594000000E+02  0.51100000000E-03 0. -1.
         11   -1    0    0    0    0 -0.00000000000E+00 -0.00000000000E+00 -0.45593999997E+02  0.45594000000E+02  0.51100000000E-03 0.  1.
    9900012    2    1    2    0    0  0.36163609361E+02 -0.23803759781E+02 -0.30327718830E+01  0.47787270432E+02  0.19999997207E+02 0.  0.
        -12    1    1    2    0    0 -0.36163609361E+02  0.23803759781E+02  0.30327718830E+01  0.43400729568E+02  0.00000000000E+00 0.  1.
         11    1    3    3    0    0  0.86876806471E+01 -0.68288666782E+01  0.55274722090E+01  0.12355653136E+02  0.51100000000E-03 0. -1.
        -11    1    3    3    0    0  0.24137990597E+02 -0.13792933263E+02 -0.11364915426E+02  0.30034128936E+02  0.51100000000E-03 0.  1.
        -12    1    3    3    0    0  0.33379381169E+01 -0.31819598402E+01  0.28046713342E+01  0.53974883594E+01  0.00000000000E+00 0.  1.
</event>
<event>
 7    1  0.2700100E-010  0.4778727E+02  0.7816164E-02  0.1312668E+00
        -11   -1    0    0    0    0  0.00000000000E+00  0.00000000000E+00  0.45593999997E+02  0.45594000000E+02  0.51100000000E-03 0.  1.
         11   -1    0    0    0    0 -0.00000000000E+00 -0.00000000000E+00 -0.45593999997E+02  0.45594000000E+02  0.51100000000E-03 0. -1.
    9900012    2    1    2    0    0  0.19076487042E+02 -0.20535146812E+02 -0.33136370585E+02  0.47787266504E+02  0.19999979299E+02 0.  0.
        -12    1    1    2    0    0 -0.19076487042E+02  0.20535146812E+02  0.33136370585E+02  0.43400733496E+02  0.00000000000E+00 0.  1.
         11    1    3    3    0    0  0.13081870789E+02 -0.16864601318E+02 -0.17000850423E+02  0.27286975581E+02  0.51100000000E-03 0. -1.
        -11    1    3    3    0    0  0.16774110616E+01 -0.70058604895E+00 -0.15036716643E+02  0.15146200063E+02  0.51100000000E-03 0.  1.
        -12    1    3    3    0    0  0.43172051920E+01 -0.29699594447E+01 -0.10988035186E+01  0.53540908608E+01  0.00000000000E+00 0.  1.
</event>
<event>
 7    1  0.2700100E-010  0.4778728E+02  0.7816164E-02  0.1312668E+00
        -11   -1    0    0    0    0  0.00000000000E+00  0.00000000000E+00  0.45593999997E+02  0.45594000000E+02  0.51100000000E-03 0. -1.
         11   -1    0    0    0    0 -0.00000000000E+00 -0.00000000000E+00 -0.45593999997E+02  0.45594000000E+02  0.51100000000E-03 0.  1.
    9900012    2    1    2    0    0 -0.62975223024E+01 -0.42841111137E+02  0.29331047336E+01  0.47787277725E+02  0.20000030461E+02 0.  0.
        -12    1    1    2    0    0  0.62975223024E+01  0.42841111137E+02 -0.29331047336E+01  0.43400722275E+02  0.00000000000E+00 0.  1.
         11    1    3    3    0    0 -0.73452846133E+00 -0.26551851136E+02 -0.70120471682E+01  0.27471970016E+02  0.51100000000E-03 0. -1.
        -11    1    3    3    0    0  0.60914994489E+00 -0.27706437403E+01  0.19250917124E+01  0.34283390663E+01  0.51100000000E-03 0.  1.
         12    1    3    3    0    0 -0.61721437860E+01 -0.13518616261E+02  0.80200601894E+01  0.16886968643E+02  0.00000000000E+00 0. -1.
</event>
<event>
 7    1  0.2700100E-010  0.4778727E+02  0.7816164E-02  0.1312668E+00
        -11   -1    0    0    0    0  0.00000000000E+00  0.00000000000E+00  0.45593999997E+02  0.45594000000E+02  0.51100000000E-03 0.  1.
         11   -1    0    0    0    0 -0.00000000000E+00 -0.00000000000E+00 -0.45593999997E+02  0.45594000000E+02  0.51100000000E-03 0. -1.
    9900012    2    1    2    0    0  0.38719939940E+02 -0.18774730042E+02 -0.56479217392E+01  0.47787271238E+02  0.20000000882E+02 0.  0.
        -12    1    1    2    0    0 -0.38719939940E+02  0.18774730042E+02  0.56479217392E+01  0.43400728762E+02  0.00000000000E+00 0.  1.
         11    1    3    3    0    0  0.29072085141E+02 -0.17614775683E+02 -0.45152331099E+00  0.33995151572E+02  0.51100000000E-03 0. -1.
        -11    1    3    3    0    0 -0.80611434447E+00  0.12423261567E+00 -0.28994923819E+01  0.30120276249E+01  0.51100000000E-03 0.  1.
        -12    1    3    3    0    0  0.10453969143E+02 -0.12841869744E+01 -0.22969060463E+01  0.10780092041E+02  0.00000000000E+00 0.  1.
</event>
<event>
 7    1  0.2700100E-010  0.4778727E+02  0.7816164E-02  0.1312668E+00
        -11   -1    0    0    0    0  0.00000000000E+00  0.00000000000E+00  0.45593999997E+02  0.45594000000E+02  0.51100000000E-03 0. -1.
         11   -1    0    0    0    0 -0.00000000000E+00 -0.00000000000E+00 -0.45593999997E+02  0.45594000000E+02  0.51100000000E-03 0.  1.
    9900012    2    1    2    0    0  0.42411555881E+01  0.33739720766E+02  0.26967889055E+02  0.47787271917E+02  0.20000003977E+02 0.  0.
        -12    1    1    2    0    0 -0.42411555881E+01 -0.33739720766E+02 -0.26967889055E+02  0.43400728083E+02  0.00000000000E+00 0.  1.
         11    1    3    3    0    0  0.37021857253E+01  0.31503106396E+01  0.19244345511E+01  0.52282009213E+01  0.51100000000E-03 0.  1.
        -11    1    3    3    0    0  0.41403655062E+01  0.25996209851E+02  0.13408253951E+02  0.29541950298E+02  0.51100000000E-03 0. -1.
        -12    1    3    3    0    0 -0.36013956433E+01  0.45932002755E+01  0.11635200553E+02  0.13017120697E+02  0.00000000000E+00 0.  1.
</event>
<event>
 7    1  0.2700100E-010  0.4778727E+02  0.7816164E-02  0.1312668E+00
        -11   -1    0    0    0    0  0.00000000000E+00  0.00000000000E+00  0.45593999997E+02  0.45594000000E+02  0.51100000000E-03 0. -1.
         11   -1    0    0    0    0 -0.00000000000E+00 -0.00000000000E+00 -0.45593999997E+02  0.45594000000E+02  0.51100000000E-03 0.  1.
    9900012    2    1    2    0    0  0.44378942576E+01 -0.13105576880E+02  0.41136025697E+02  0.47787266586E+02  0.19999979671E+02 0.  0.
        -12    1    1    2    0    0 -0.44378942576E+01  0.13105576880E+02 -0.41136025697E+02  0.43400733414E+02  0.00000000000E+00 0.  1.
         11    1    3    3    0    0 -0.47723422449E+01 -0.22428908726E+01  0.14600164957E+01  0.54715133553E+01  0.51100000000E-03 0. -1.
        -11    1    3    3    0    0  0.69481031138E+01 -0.57462019826E+01  0.26830031225E+02  0.28304514656E+02  0.51100000000E-03 0.  1.
         12    1    3    3    0    0  0.22621333887E+01 -0.51164840244E+01  0.12845977976E+02  0.14011238575E+02  0.00000000000E+00 0. -1.
</event>
<event>
 7    1  0.2700100E-010  0.4778727E+02  0.7816164E-02  0.1312668E+00
        -11   -1    0    0    0    0  0.00000000000E+00  0.00000000000E+00  0.45593999997E+02  0.45594000000E+02  0.51100000000E-03 0.  1.
         11   -1    0    0    0    0 -0.00000000000E+00 -0.00000000000E+00 -0.45593999997E+02  0.45594000000E+02  0.51100000000E-03 0. -1.
    9900012    2    1    2    0    0 -0.97828165947E+01  0.55975161400E+01 -0.41911661999E+02  0.47787273059E+02  0.20000009186E+02 0.  0.
        -12    1    1    2    0    0  0.97828165947E+01 -0.55975161400E+01  0.41911661999E+02  0.43400726941E+02  0.00000000000E+00 0.  1.
         11    1    3    3    0    0 -0.36968299748E+01  0.17979650655E+01 -0.10515196261E+02  0.11290198533E+02  0.51100000000E-03 0. -1.
        -11    1    3    3    0    0 -0.10584493379E+02 -0.26572621169E-01 -0.27381166211E+02  0.29355757009E+02  0.51100000000E-03 0.  1.
        -12    1    3    3    0    0  0.44985067593E+01  0.38261236958E+01 -0.40152995263E+01  0.71413175174E+01  0.00000000000E+00 0.  1.
</event>
<event>
 7    1  0.2700100E-010  0.4778727E+02  0.7816164E-02  0.1312668E+00
        -11   -1    0    0    0    0  0.00000000000E+00  0.00000000000E+00  0.45593999997E+02  0.45594000000E+02  0.51100000000E-03 0. -1.
         11   -1    0    0    0    0 -0.00000000000E+00 -0.00000000000E+00 -0.45593999997E+02  0.45594000000E+02  0.51100000000E-03 0.  1.
    9900012    2    1    2    0    0  0.58384855239E+01 -0.14125732758E+02  0.40620181972E+02  0.47787269330E+02  0.19999992185E+02 0.  0.
        -12    1    1    2    0    0 -0.58384855239E+01  0.14125732758E+02 -0.40620181972E+02  0.43400730670E+02  0.00000000000E+00 0.  1.
         11    1    3    3    0    0 -0.35600542464E+01 -0.42898812448E+01  0.35476865971E+01  0.66078096057E+01  0.51100000000E-03 0.  1.
        -11    1    3    3    0    0  0.50799740227E+01 -0.98681682565E+01  0.34291214651E+02  0.36042673087E+02  0.51100000000E-03 0. -1.
        -12    1    3    3    0    0  0.43185657476E+01  0.32316742779E-01  0.27812807246E+01  0.51367866373E+01  0.00000000000E+00 0.  1.
</event>
<event>
 7    1  0.2700100E-010  0.4778727E+02  0.7816164E-02  0.1312668E+00
        -11   -1    0    0    0    0  0.00000000000E+00  0.00000000000E+00  0.45593999997E+02  0.45594000000E+02  0.51100000000E-03 0.  1.
         11   -1    0    0    0    0 -0.00000000000E+00 -0.00000000000E+00 -0.45593999997E+02  0.45594000000E+02  0.51100000000E-03 0. -1.
    9900012    2    1    2    0    0 -0.30163415874E+02 -0.20946769425E+02 -0.23130589859E+02  0.47787274272E+02  0.20000014714E+02 0.  0.
        -12    1    1    2    0    0  0.30163415874E+02  0.20946769425E+02  0.23130589859E+02  0.43400725728E+02  0.00000000000E+00 0.  1.
         11    1    3    3    0    0 -0.49196663877E+01 -0.41473467485E+01 -0.82237603856E+01  0.10441926908E+02  0.51100000000E-03 0. -1.
        -11    1    3    3    0    0 -0.30721783221E+00  0.20055785875E+01  0.10371749691E+01  0.22786970937E+01  0.51100000000E-03 0.  1.
        -12    1    3    3    0    0 -0.24936531654E+02 -0.18805001264E+02 -0.15944004442E+02  0.35066650270E+02  0.00000000000E+00 0.  1.
</event>
<event>
 7    1  0.2700100E-010  0.4778727E+02  0.7816164E-02  0.1312668E+00
        -11   -1    0    0    0    0  0.00000000000E+00  0.00000000000E+00  0.45593999997E+02  0.45594000000E+02  0.51100000000E-03 0.  1.
         11   -1    0    0    0    0 -0.00000000000E+00 -0.00000000000E+00 -0.45593999997E+02  0.45594000000E+02  0.51100000000E-03 0. -1.
    9900012    2    1    2    0    0  0.24614770132E+02 -0.33843735190E+02  0.11503823845E+02  0.47787270936E+02  0.19999999504E+02 0.  0.
        -12    1    1    2    0    0 -0.24614770132E+02  0.33843735190E+02 -0.11503823845E+02  0.43400729064E+02  0.00000000000E+00 0.  1.
         11    1    3    3    0    0  0.33941461069E+01 -0.14991427655E+02 -0.32494467465E+01  0.15710570816E+02  0.51100000000E-03 0. -1.
        -11    1    3    3    0    0  0.12467021202E+02 -0.12587853540E+02  0.93434701723E+01  0.20029505973E+02  0.51100000000E-03 0.  1.
         12    1    3    3    0    0  0.87536028229E+01 -0.62644539944E+01  0.54098004195E+01  0.12047194147E+02  0.00000000000E+00 0. -1.
</event>
<event>
 7    1  0.2700100E-010  0.4778730E+02  0.7816164E-02  0.1312668E+00
        -11   -1    0    0    0    0  0.00000000000E+00  0.00000000000E+00  0.45593999997E+02  0.45594000000E+02  0.51100000000E-03 0.  1.
         11   -1    0    0    0    0 -0.00000000000E+00 -0.00000000000E+00 -0.45593999997E+02  0.45594000000E+02  0.51100000000E-03 0. -1.
    9900012    2    1    2    0    0  0.15242214351E+02 -0.14007022946E+01 -0.40611994534E+02  0.47787295337E+02  0.20000110757E+02 0.  0.
        -12    1    1    2    0    0 -0.15242214351E+02  0.14007022946E+01  0.40611994534E+02  0.43400704663E+02  0.00000000000E+00 0.  1.
         11    1    3    3    0    0  0.28830713622E+01 -0.96591901570E+00 -0.18042053635E+01  0.35355702905E+01  0.51100000000E-03 0. -1.
        -11    1    3    3    0    0  0.87180988253E+01  0.81011674108E+01 -0.19845469765E+02  0.23140372318E+02  0.51100000000E-03 0.  1.
        -12    1    3    3    0    0  0.36410441637E+01 -0.85359506897E+01 -0.18962319406E+02  0.21111352728E+02  0.00000000000E+00 0.  1.
</event>
<event>
 7    1  0.2700100E-010  0.4778724E+02  0.7816164E-02  0.1312668E+00
        -11   -1    0    0    0    0  0.00000000000E+00  0.00000000000E+00  0.45593999997E+02  0.45594000000E+02  0.51100000000E-03 0.  1.
         11   -1    0    0    0    0 -0.00000000000E+00 -0.00000000000E+00 -0.45593999997E+02  0.45594000000E+02  0.51100000000E-03 0. -1.
    9900012    2    1    2    0    0  0.41557223715E+02 -0.67306531479E+01 -0.10550876946E+02  0.47787244949E+02  0.19999881018E+02 0.  0.
        -12    1    1    2    0    0 -0.41557223715E+02  0.67306531479E+01  0.10550876946E+02  0.43400755051E+02  0.00000000000E+00 0.  1.
         11    1    3    3    0    0  0.32028941664E+02 -0.82830280751E+01 -0.92745215705E+01  0.34358090879E+02  0.51100000000E-03 0. -1.
        -11    1    3    3    0    0 -0.10591024333E+01 -0.34336568610E+00 -0.23694402504E+01  0.26179849732E+01  0.51100000000E-03 0.  1.
        -12    1    3    3    0    0  0.10587384484E+02  0.18957406134E+01  0.10930848752E+01  0.10811169096E+02  0.00000000000E+00 0.  1.
</event>
<event>
 7    1  0.2700100E-010  0.4778727E+02  0.7816164E-02  0.1312668E+00
        -11   -1    0    0    0    0  0.00000000000E+00  0.00000000000E+00  0.45593999997E+02  0.45594000000E+02  0.51100000000E-03 0.  1.
         11   -1    0    0    0    0 -0.00000000000E+00 -0.00000000000E+00 -0.45593999997E+02  0.45594000000E+02  0.51100000000E-03 0. -1.
    9900012    2    1    2    0    0  0.21114853919E+02 -0.30174496640E+02 -0.22962711049E+02  0.47787269566E+02  0.19999993259E+02 0.  0.
        -12    1    1    2    0    0 -0.21114853919E+02  0.30174496640E+02  0.22962711049E+02  0.43400730434E+02  0.00000000000E+00 0.  1.
         11    1    3    3    0    0  0.14357117697E+02 -0.67996022726E+01 -0.11557834452E+02  0.19645481850E+02  0.51100000000E-03 0. -1.
        -11    1    3    3    0    0  0.27996822751E+00 -0.10985505068E+02 -0.16925917677E+01  0.11118658685E+02  0.51100000000E-03 0.  1.
        -12    1    3    3    0    0  0.64777679946E+01 -0.12389389299E+02 -0.97122848297E+01  0.17023129031E+02  0.00000000000E+00 0.  1.
</event>
<event>
 7    1  0.2700100E-010  0.4778727E+02  0.7816164E-02  0.1312668E+00
        -11   -1    0    0    0    0  0.00000000000E+00  0.00000000000E+00  0.45593999997E+02  0.45594000000E+02  0.51100000000E-03 0.  1.
         11   -1    0    0    0    0 -0.00000000000E+00 -0.00000000000E+00 -0.45593999997E+02  0.45594000000E+02  0.51100000000E-03 0. -1.
    9900012    2    1    2    0    0 -0.76560686041E+01  0.41931760427E+02 -0.81691573648E+01  0.47787273612E+02  0.20000011706E+02 0.  0.
        -12    1    1    2    0    0  0.76560686041E+01 -0.41931760427E+02  0.81691573648E+01  0.43400726388E+02  0.00000000000E+00 0.  1.
         11    1    3    3    0    0 -0.44384180856E+01  0.14522781260E+02  0.58329259162E+01  0.16267567601E+02  0.51100000000E-03 0. -1.
        -11    1    3    3    0    0  0.11450374520E+01  0.81690564089E+01 -0.22260024609E+01  0.85439850535E+01  0.51100000000E-03 0.  1.
         12    1    3    3    0    0 -0.43626879706E+01  0.19239922758E+02 -0.11776080820E+02  0.22975720958E+02  0.00000000000E+00 0. -1.
</event>
<event>
 7    1  0.2700100E-010  0.4778727E+02  0.7816164E-02  0.1312668E+00
        -11   -1    0    0    0    0  0.00000000000E+00  0.00000000000E+00  0.45593999997E+02  0.45594000000E+02  0.51100000000E-03 0.  1.
         11   -1    0    0    0    0 -0.00000000000E+00 -0.00000000000E+00 -0.45593999997E+02  0.45594000000E+02  0.51100000000E-03 0. -1.
    9900012    2    1    2    0    0 -0.67305809271E+01  0.23619355886E+02 -0.35783358353E+02  0.47787269279E+02  0.19999991952E+02 0.  0.
        -12    1    1    2    0    0  0.67305809271E+01 -0.23619355886E+02  0.35783358353E+02  0.43400730721E+02  0.00000000000E+00 0.  1.
         11    1    3    3    0    0 -0.10218134734E+02  0.14463415912E+02 -0.25289261674E+02  0.30873085909E+02  0.51100000000E-03 0. -1.
        -11    1    3    3    0    0  0.16808438083E+01  0.55849485411E+01 -0.16261472334E+00  0.58346662222E+01  0.51100000000E-03 0.  1.
        -12    1    3    3    0    0  0.18067099981E+01  0.35709914327E+01 -0.10331481956E+02  0.11079517148E+02  0.00000000000E+00 0.  1.
</event>
<event>
 7    1  0.2700100E-010  0.4778727E+02  0.7816164E-02  0.1312668E+00
        -11   -1    0    0    0    0  0.00000000000E+00  0.00000000000E+00  0.45593999997E+02  0.45594000000E+02  0.51100000000E-03 0. -1.
         11   -1    0    0    0    0 -0.00000000000E+00 -0.00000000000E+00 -0.45593999997E+02  0.45594000000E+02  0.51100000000E-03 0.  1.
    9900012    2    1    2    0    0 -0.33098576327E+02 -0.28033441950E+02 -0.14945662506E+01  0.47787270159E+02  0.19999995964E+02 0.  0.
        -12    1    1    2    0    0  0.33098576327E+02  0.28033441950E+02  0.14945662506E+01  0.43400729841E+02  0.00000000000E+00 0.  1.
         11    1    3    3    0    0 -0.13563157723E+02 -0.44485644238E+01 -0.46386989388E+01  0.15008880737E+02  0.51100000000E-03 0. -1.
        -11    1    3    3    0    0 -0.24243927114E+01 -0.98240364908E+01  0.38051474620E+01  0.10810574474E+02  0.51100000000E-03 0.  1.
        -12    1    3    3    0    0 -0.17111025892E+02 -0.13760841035E+02 -0.66101477386E+00  0.21967814949E+02  0.00000000000E+00 0.  1.
</event>
<event>
 7    1  0.2700100E-010  0.4778727E+02  0.7816164E-02  0.1312668E+00
        -11   -1    0    0    0    0  0.00000000000E+00  0.00000000000E+00  0.45593999997E+02  0.45594000000E+02  0.51100000000E-03 0.  1.
         11   -1    0    0    0    0 -0.00000000000E+00 -0.00000000000E+00 -0.45593999997E+02  0.45594000000E+02  0.51100000000E-03 0. -1.
    9900012    2    1    2    0    0  0.18449401194E+01 -0.24986684301E+02 -0.35438468074E+02  0.47787271713E+02  0.20000003048E+02 0.  0.
        -12    1    1    2    0    0 -0.18449401194E+01  0.24986684301E+02  0.35438468074E+02  0.43400728287E+02  0.00000000000E+00 0.  1.
         11    1    3    3    0    0 -0.32291722278E+01 -0.98198270882E+01 -0.26722298763E+02  0.28652012299E+02  0.51100000000E-03 0. -1.
        -11    1    3    3    0    0  0.21530148822E+01 -0.64078985465E+01 -0.50448759202E+00  0.67787273774E+01  0.51100000000E-03 0.  1.
         12    1    3    3    0    0  0.29210974649E+01 -0.87589586666E+01 -0.82116817187E+01  0.12356532037E+02  0.00000000000E+00 0. -1.
</event>
<event>
 7    1  0.2700100E-010  0.4778726E+02  0.7816164E-02  0.1312668E+00
        -11   -1    0    0    0    0  0.00000000000E+00  0.00000000000E+00  0.45593999997E+02  0.45594000000E+02  0.51100000000E-03 0.  1.
         11   -1    0    0    0    0 -0.00000000000E+00 -0.00000000000E+00 -0.45593999997E+02  0.45594000000E+02  0.51100000000E-03 0. -1.
    9900012    2    1    2    0    0  0.19399271496E+02  0.35914781586E+02 -0.14745198200E+02  0.47787261056E+02  0.19999954459E+02 0.  0.
        -12    1    1    2    0    0 -0.19399271496E+02 -0.35914781586E+02  0.14745198200E+02  0.43400738944E+02  0.00000000000E+00 0.  1.
         11    1    3    3    0    0  0.40280322333E+01  0.22641995615E+02 -0.10332566161E+02  0.25212039442E+02  0.51100000000E-03 0. -1.
        -11    1    3    3    0    0  0.15830973827E+02  0.13866422316E+02 -0.49893260601E+01  0.21628471397E+02  0.51100000000E-03 0.  1.
        -12    1    3    3    0    0 -0.45973456482E+00 -0.59363634456E+00  0.57669402145E+00  0.94675021734E+00  0.00000000000E+00 0.  1.
</event>
<event>
 7    1  0.2700100E-010  0.4778727E+02  0.7816164E-02  0.1312668E+00
        -11   -1    0    0    0    0  0.00000000000E+00  0.00000000000E+00  0.45593999997E+02  0.45594000000E+02  0.51100000000E-03 0.  1.
         11   -1    0    0    0    0 -0.00000000000E+00 -0.00000000000E+00 -0.45593999997E+02  0.45594000000E+02  0.51100000000E-03 0. -1.
    9900012    2    1    2    0    0  0.10409194527E+02 -0.15476641582E+02 -0.39188591819E+02  0.47787268507E+02  0.19999988430E+02 0.  0.
        -12    1    1    2    0    0 -0.10409194527E+02  0.15476641582E+02  0.39188591819E+02  0.43400731493E+02  0.00000000000E+00 0.  1.
         11    1    3    3    0    0  0.94800449553E+01 -0.39403671550E+00 -0.13907947120E+02  0.16836196442E+02  0.51100000000E-03 0. -1.
        -11    1    3    3    0    0 -0.24360567142E+01 -0.69027070223E+01 -0.18213557687E+02  0.19629452881E+02  0.51100000000E-03 0.  1.
         12    1    3    3    0    0  0.33652062863E+01 -0.81798978444E+01 -0.70670870124E+01  0.11321619183E+02  0.00000000000E+00 0. -1.
</event>
<event>
 7    1  0.2700100E-010  0.4778727E+02  0.7816164E-02  0.1312668E+00
        -11   -1    0    0    0    0  0.00000000000E+00  0.00000000000E+00  0.45593999997E+02  0.45594000000E+02  0.51100000000E-03 0.  1.
         11   -1    0    0    0    0 -0.00000000000E+00 -0.00000000000E+00 -0.45593999997E+02  0.45594000000E+02  0.51100000000E-03 0. -1.
    9900012    2    1    2    0    0  0.27876291195E+02  0.29861101432E+02  0.14657774226E+02  0.47787270343E+02  0.19999996801E+02 0.  0.
        -12    1    1    2    0    0 -0.27876291195E+02 -0.29861101432E+02 -0.14657774226E+02  0.43400729657E+02  0.00000000000E+00 0.  1.
         11    1    3    3    0    0  0.20264596980E+02  0.25684288871E+02  0.12096036557E+02  0.34880520155E+02  0.51100000000E-03 0. -1.
        -11    1    3    3    0    0  0.97740471624E+01  0.35037875583E+01  0.20102605963E+01  0.10575900582E+02  0.51100000000E-03 0.  1.
         12    1    3    3    0    0 -0.21623529481E+01  0.67302500233E+00  0.55147707313E+00  0.23308496065E+01  0.00000000000E+00 0. -1.
</event>
<event>
 7    1  0.2700100E-010  0.4778727E+02  0.7816164E-02  0.1312668E+00
        -11   -1    0    0    0    0  0.00000000000E+00  0.00000000000E+00  0.45593999997E+02  0.45594000000E+02  0.51100000000E-03 0.  1.
         11   -1    0    0    0    0 -0.00000000000E+00 -0.00000000000E+00 -0.45593999997E+02  0.45594000000E+02  0.51100000000E-03 0. -1.
    9900012    2    1    2    0    0 -0.16909577579E+02 -0.39398381105E+02 -0.67421765325E+01  0.47787271988E+02  0.20000004301E+02 0.  0.
        -12    1    1    2    0    0  0.16909577579E+02  0.39398381105E+02  0.67421765325E+01  0.43400728012E+02  0.00000000000E+00 0.  1.
         11    1    3    3    0    0 -0.13957922613E+02 -0.15924622716E+02 -0.76562990157E+01  0.22517462716E+02  0.51100000000E-03 0. -1.
        -11    1    3    3    0    0  0.29692508119E+01 -0.95109975753E+01  0.15835814449E+01  0.10088768791E+02  0.51100000000E-03 0.  1.
        -12    1    3    3    0    0 -0.59209057781E+01 -0.13962760814E+02 -0.66945896176E+00  0.15181040481E+02  0.00000000000E+00 0.  1.
</event>
<event>
 7    1  0.2700100E-010  0.4778728E+02  0.7816164E-02  0.1312668E+00
        -11   -1    0    0    0    0  0.00000000000E+00  0.00000000000E+00  0.45593999997E+02  0.45594000000E+02  0.51100000000E-03 0. -1.
         11   -1    0    0    0    0 -0.00000000000E+00 -0.00000000000E+00 -0.45593999997E+02  0.45594000000E+02  0.51100000000E-03 0.  1.
    9900012    2    1    2    0    0 -0.11430838764E+02 -0.19846700997E+02  0.36865521057E+02  0.47787282746E+02  0.20000053353E+02 0.  0.
        -12    1    1    2    0    0  0.11430838764E+02  0.19846700997E+02 -0.36865521057E+02  0.43400717254E+02  0.00000000000E+00 0.  1.
         11    1    3    3    0    0 -0.12678351076E+01  0.23418398764E+01  0.47265566189E+01  0.54251228189E+01  0.51100000000E-03 0. -1.
        -11    1    3    3    0    0 -0.12448821018E+02 -0.16450752139E+02  0.19954081569E+02  0.28701319868E+02  0.51100000000E-03 0.  1.
        -12    1    3    3    0    0  0.22858173613E+01 -0.57377887348E+01  0.12184882869E+02  0.13660840059E+02  0.00000000000E+00 0.  1.
</event>
<event>
 7    1  0.2700100E-010  0.4778727E+02  0.7816164E-02  0.1312668E+00
        -11   -1    0    0    0    0  0.00000000000E+00  0.00000000000E+00  0.45593999997E+02  0.45594000000E+02  0.51100000000E-03 0.  1.
         11   -1    0    0    0    0 -0.00000000000E+00 -0.00000000000E+00 -0.45593999997E+02  0.45594000000E+02  0.51100000000E-03 0. -1.
    9900012    2    1    2    0    0  0.38436302693E+02 -0.14252634138E+02 -0.14252590629E+02  0.47787270926E+02  0.19999999458E+02 0.  0.
        -12    1    1    2    0    0 -0.38436302693E+02  0.14252634138E+02  0.14252590629E+02  0.43400729074E+02  0.00000000000E+00 0.  1.
         11    1    3    3    0    0  0.19503110622E+02 -0.32886871963E+01  0.85950750509E+00  0.19797109405E+02  0.51100000000E-03 0.  1.
        -11    1    3    3    0    0  0.98108796613E+01 -0.32342655734E+01 -0.25353805697E+01  0.10636822290E+02  0.51100000000E-03 0. -1.
         12    1    3    3    0    0  0.91223124099E+01 -0.77296813679E+01 -0.12576717565E+02  0.17353339231E+02  0.00000000000E+00 0. -1.
</event>
<event>
 7    1  0.2700100E-010  0.4778727E+02  0.7816164E-02  0.1312668E+00
        -11   -1    0    0    0    0  0.00000000000E+00  0.00000000000E+00  0.45593999997E+02  0.45594000000E+02  0.51100000000E-03 0. -1.
         11   -1    0    0    0    0 -0.00000000000E+00 -0.00000000000E+00 -0.45593999997E+02  0.45594000000E+02  0.51100000000E-03 0.  1.
    9900012    2    1    2    0    0 -0.11066590826E+02 -0.40163912318E+02 -0.12166093507E+02  0.47787272858E+02  0.20000008270E+02 0.  0.
        -12    1    1    2    0    0  0.11066590826E+02  0.40163912318E+02  0.12166093507E+02  0.43400727142E+02  0.00000000000E+00 0.  1.
         11    1    3    3    0    0  0.23243445673E+01 -0.18073818577E+02 -0.18749872175E+01  0.18318872043E+02  0.51100000000E-03 0. -1.
        -11    1    3    3    0    0 -0.98582210950E+01 -0.18863369910E+02 -0.11944046936E+02  0.24406382464E+02  0.51100000000E-03 0.  1.
         12    1    3    3    0    0 -0.35327142987E+01 -0.32267238317E+01  0.16529406471E+01  0.50620183509E+01  0.00000000000E+00 0. -1.
</event>
<event>
 7    1  0.2700100E-010  0.4778727E+02  0.7816164E-02  0.1312668E+00
        -11   -1    0    0    0    0  0.00000000000E+00  0.00000000000E+00  0.45593999997E+02  0.45594000000E+02  0.51100000000E-03 0. -1.
         11   -1    0    0    0    0 -0.00000000000E+00 -0.00000000000E+00 -0.45593999997E+02  0.45594000000E+02  0.51100000000E-03 0.  1.
    9900012    2    1    2    0    0 -0.24926873084E+02 -0.16919632175E+02  0.31241000966E+02  0.47787273094E+02  0.20000009343E+02 0.  0.
        -12    1    1    2    0    0  0.24926873084E+02  0.16919632175E+02 -0.31241000966E+02  0.43400726906E+02  0.00000000000E+00 0.  1.
         11    1    3    3    0    0 -0.13764094970E+02 -0.11639050634E+02  0.13378973692E+02  0.22448045512E+02  0.51100000000E-03 0. -1.
        -11    1    3    3    0    0 -0.19355905227E+01  0.25932600028E+01 -0.55820900567E+00  0.32837639484E+01  0.51100000000E-03 0.  1.
        -12    1    3    3    0    0 -0.92271875917E+01 -0.78738415438E+01  0.18420236279E+02  0.22055463633E+02  0.00000000000E+00 0.  1.
</event>
<event>
 7    1  0.2700100E-010  0.4778727E+02  0.7816164E-02  0.1312668E+00
        -11   -1    0    0    0    0  0.00000000000E+00  0.00000000000E+00  0.45593999997E+02  0.45594000000E+02  0.51100000000E-03 0. -1.
         11   -1    0    0    0    0 -0.00000000000E+00 -0.00000000000E+00 -0.45593999997E+02  0.45594000000E+02  0.51100000000E-03 0.  1.
    9900012    2    1    2    0    0  0.27707329710E+02  0.17595455809E+02  0.28395897108E+02  0.47787272387E+02  0.20000006122E+02 0.  0.
        -12    1    1    2    0    0 -0.27707329710E+02 -0.17595455809E+02 -0.28395897108E+02  0.43400727613E+02  0.00000000000E+00 0.  1.
         11    1    3    3    0    0 -0.12046562864E+01 -0.24132725378E+01  0.74243729417E+00  0.27975515199E+01  0.51100000000E-03 0.  1.
        -11    1    3    3    0    0  0.27993068372E+02  0.20058372139E+02  0.26207117898E+02  0.43275434123E+02  0.51100000000E-03 0. -1.
         12    1    3    3    0    0  0.91891762386E+00 -0.49643792100E-01  0.14463419154E+01  0.17142867443E+01  0.00000000000E+00 0. -1.
</event>
<event>
 7    1  0.2700100E-010  0.4778727E+02  0.7816164E-02  0.1312668E+00
        -11   -1    0    0    0    0  0.00000000000E+00  0.00000000000E+00  0.45593999997E+02  0.45594000000E+02  0.51100000000E-03 0.  1.
         11   -1    0    0    0    0 -0.00000000000E+00 -0.00000000000E+00 -0.45593999997E+02  0.45594000000E+02  0.51100000000E-03 0. -1.
    9900012    2    1    2    0    0  0.37167922290E+02 -0.13432358233E+01 -0.22368835382E+02  0.47787268138E+02  0.19999986749E+02 0.  0.
        -12    1    1    2    0    0 -0.37167922290E+02  0.13432358233E+01  0.22368835382E+02  0.43400731862E+02  0.00000000000E+00 0.  1.
         11    1    3    3    0    0  0.23293549874E+02 -0.55179122977E+00 -0.91193765032E+01  0.25021130418E+02  0.51100000000E-03 0. -1.
        -11    1    3    3    0    0  0.70354709732E+01 -0.42888106624E+01 -0.12603303971E+02  0.15057722934E+02  0.51100000000E-03 0.  1.
        -12    1    3    3    0    0  0.68389014422E+01  0.34973660689E+01 -0.64615490743E+00  0.77084147865E+01  0.00000000000E+00 0.  1.
</event>
<event>
 7    1  0.2700100E-010  0.4778723E+02  0.7816164E-02  0.1312668E+00
        -11   -1    0    0    0    0  0.00000000000E+00  0.00000000000E+00  0.45593999997E+02  0.45594000000E+02  0.51100000000E-03 0.  1.
         11   -1    0    0    0    0 -0.00000000000E+00 -0.00000000000E+00 -0.45593999997E+02  0.45594000000E+02  0.51100000000E-03 0. -1.
    9900012    2    1    2    0    0 -0.35257504106E+02  0.16469861799E+02 -0.19216626603E+02  0.47787231788E+02  0.19999821011E+02 0.  0.
        -12    1    1    2    0    0  0.35257504106E+02 -0.16469861799E+02  0.19216626603E+02  0.43400768212E+02  0.00000000000E+00 0.  1.
         11    1    3    3    0    0 -0.19489810110E+02  0.82189808512E+01 -0.43813365835E+01  0.21600936435E+02  0.51100000000E-03 0. -1.
        -11    1    3    3    0    0 -0.10091421048E+02  0.80525553515E+01 -0.15822545072E+02  0.20421394646E+02  0.51100000000E-03 0.  1.
        -12    1    3    3    0    0 -0.56762729476E+01  0.19832559638E+00  0.98725505292E+00  0.57649007066E+01  0.00000000000E+00 0.  1.
</event>
<event>
 7    1  0.3223590E-010  0.4778727E+02  0.7816164E-02  0.1312668E+00
        -11   -1    0    0    0    0  0.00000000000E+00  0.00000000000E+00  0.45593999997E+02  0.45594000000E+02  0.51100000000E-03 0. -1.
         11   -1    0    0    0    0 -0.00000000000E+00 -0.00000000000E+00 -0.45593999997E+02  0.45594000000E+02  0.51100000000E-03 0.  1.
    9900012    2    1    2    0    0  0.23567676246E+02 -0.35773920841E+02  0.69580644119E+01  0.47787269173E+02  0.19999991467E+02 0.  0.
        -12    1    1    2    0    0 -0.23567676246E+02  0.35773920841E+02 -0.69580644119E+01  0.43400730827E+02  0.00000000000E+00 0.  1.
         11    1    3    3    0    0  0.65610796173E+01 -0.14969443589E+02  0.97582522060E+01  0.19035637459E+02  0.51100000000E-03 0. -1.
        -11    1    3    3    0    0  0.22649090000E+00  0.93536773859E+00  0.51187722108E+00  0.10900593951E+01  0.51100000000E-03 0.  1.
         12    1    3    3    0    0  0.16780105729E+02 -0.21739844990E+02 -0.33120650151E+01  0.27661572319E+02  0.00000000000E+00 0. -1.
</event>
<event>
 7    1  0.2700100E-010  0.4778727E+02  0.7816164E-02  0.1312668E+00
        -11   -1    0    0    0    0  0.00000000000E+00  0.00000000000E+00  0.45593999997E+02  0.45594000000E+02  0.51100000000E-03 0.  1.
         11   -1    0    0    0    0 -0.00000000000E+00 -0.00000000000E+00 -0.45593999997E+02  0.45594000000E+02  0.51100000000E-03 0. -1.
    9900012    2    1    2    0    0  0.29593692469E+02 -0.30911797929E+02 -0.72316788527E+01  0.47787273460E+02  0.20000011015E+02 0.  0.
        -12    1    1    2    0    0 -0.29593692469E+02  0.30911797929E+02  0.72316788527E+01  0.43400726540E+02  0.00000000000E+00 0.  1.
         11    1    3    3    0    0  0.30569623602E+02 -0.25861805852E+02 -0.24305828332E+01  0.40115366411E+02  0.51100000000E-03 0. -1.
        -11    1    3    3    0    0 -0.58263108249E+00 -0.36101177365E+01 -0.13260043495E+01  0.38898196418E+01  0.51100000000E-03 0.  1.
         12    1    3    3    0    0 -0.39330005065E+00 -0.14398743402E+01 -0.34750916700E+01  0.37820874078E+01  0.00000000000E+00 0. -1.
</event>
<event>
 7    1  0.2700100E-010  0.4778727E+02  0.7816164E-02  0.1312668E+00
        -11   -1    0    0    0    0  0.00000000000E+00  0.00000000000E+00  0.45593999997E+02  0.45594000000E+02  0.51100000000E-03 0.  1.
         11   -1    0    0    0    0 -0.00000000000E+00 -0.00000000000E+00 -0.45593999997E+02  0.45594000000E+02  0.51100000000E-03 0. -1.
    9900012    2    1    2    0    0  0.27507067471E+02 -0.17965581441E+02 -0.28358819827E+02  0.47787267986E+02  0.19999986055E+02 0.  0.
        -12    1    1    2    0    0 -0.27507067471E+02  0.17965581441E+02  0.28358819827E+02  0.43400732014E+02  0.00000000000E+00 0.  1.
         11    1    3    3    0    0  0.13347286074E+02 -0.85373950667E+01 -0.22724836224E+02  0.27702984347E+02  0.51100000000E-03 0. -1.
        -11    1    3    3    0    0  0.13943851581E+02 -0.73757143612E+01 -0.19940069392E+01  0.15899944125E+02  0.51100000000E-03 0.  1.
         12    1    3    3    0    0  0.21592981567E+00 -0.20524720133E+01 -0.36399766636E+01  0.41843395133E+01  0.00000000000E+00 0. -1.
</event>
<event>
 7    1  0.2700100E-010  0.4778727E+02  0.7816164E-02  0.1312668E+00
        -11   -1    0    0    0    0  0.00000000000E+00  0.00000000000E+00  0.45593999997E+02  0.45594000000E+02  0.51100000000E-03 0.  1.
         11   -1    0    0    0    0 -0.00000000000E+00 -0.00000000000E+00 -0.45593999997E+02  0.45594000000E+02  0.51100000000E-03 0. -1.
    9900012    2    1    2    0    0  0.71919815745E+01 -0.39044755293E+02 -0.17532991740E+02  0.47787270580E+02  0.19999997881E+02 0.  0.
        -12    1    1    2    0    0 -0.71919815745E+01  0.39044755293E+02  0.17532991740E+02  0.43400729420E+02  0.00000000000E+00 0.  1.
         11    1    3    3    0    0  0.23958716208E+01 -0.23958741563E+02 -0.17463931644E+02  0.29744754274E+02  0.51100000000E-03 0. -1.
        -11    1    3    3    0    0 -0.10767247946E+01 -0.14588782959E+00  0.15665036897E+01  0.19064505273E+01  0.51100000000E-03 0.  1.
         12    1    3    3    0    0  0.58728347484E+01 -0.14940125900E+02 -0.16355637861E+01  0.16136065778E+02  0.00000000000E+00 0. -1.
</event>
<event>
 7    1  0.2700100E-010  0.4778727E+02  0.7816164E-02  0.1312668E+00
        -11   -1    0    0    0    0  0.00000000000E+00  0.00000000000E+00  0.45593999997E+02  0.45594000000E+02  0.51100000000E-03 0. -1.
         11   -1    0    0    0    0 -0.00000000000E+00 -0.00000000000E+00 -0.45593999997E+02  0.45594000000E+02  0.51100000000E-03 0.  1.
    9900012    2    1    2    0    0  0.16546987799E+02 -0.20794739216E+02  0.34313253856E+02  0.47787269886E+02  0.19999994717E+02 0.  0.
        -12    1    1    2    0    0 -0.16546987799E+02  0.20794739216E+02 -0.34313253856E+02  0.43400730114E+02  0.00000000000E+00 0.  1.
         11    1    3    3    0    0  0.10071826806E+02 -0.18393847749E+02  0.34260747370E+02  0.40169318401E+02  0.51100000000E-03 0. -1.
        -11    1    3    3    0    0  0.29051350979E+01  0.53163845065E+00 -0.37991116089E+00  0.29777142459E+01  0.51100000000E-03 0.  1.
         12    1    3    3    0    0  0.35700258950E+01 -0.29325299173E+01  0.43241764690E+00  0.46402372383E+01  0.00000000000E+00 0. -1.
</event>
<event>
 7    1  0.2700100E-010  0.4778729E+02  0.7816164E-02  0.1312668E+00
        -11   -1    0    0    0    0  0.00000000000E+00  0.00000000000E+00  0.45593999997E+02  0.45594000000E+02  0.51100000000E-03 0.  1.
         11   -1    0    0    0    0 -0.00000000000E+00 -0.00000000000E+00 -0.45593999997E+02  0.45594000000E+02  0.51100000000E-03 0. -1.
    9900012    2    1    2    0    0 -0.80733047327E+01 -0.25744808483E+02 -0.33994825211E+02  0.47787290856E+02  0.20000090327E+02 0.  0.
        -12    1    1    2    0    0  0.80733047327E+01  0.25744808483E+02  0.33994825211E+02  0.43400709144E+02  0.00000000000E+00 0.  1.
         11    1    3    3    0    0 -0.10708333713E+02 -0.21943238129E+02 -0.32938862698E+02  0.41001741263E+02  0.51100000000E-03 0. -1.
        -11    1    3    3    0    0  0.20204874467E+01 -0.37454967503E+01  0.12202243778E+01  0.44271958644E+01  0.51100000000E-03 0.  1.
         12    1    3    3    0    0  0.61454153336E+00 -0.56073602992E-01 -0.22761868908E+01  0.23583537282E+01  0.00000000000E+00 0. -1.
</event>
<event>
 7    1  0.2700100E-010  0.4778727E+02  0.7816164E-02  0.1312668E+00
        -11   -1    0    0    0    0  0.00000000000E+00  0.00000000000E+00  0.45593999997E+02  0.45594000000E+02  0.51100000000E-03 0. -1.
         11   -1    0    0    0    0 -0.00000000000E+00 -0.00000000000E+00 -0.45593999997E+02  0.45594000000E+02  0.51100000000E-03 0.  1.
    9900012    2    1    2    0    0 -0.64867025802E+01 -0.41365885613E+02  0.11419718344E+02  0.47787265329E+02  0.19999973940E+02 0.  0.
        -12    1    1    2    0    0  0.64867025802E+01  0.41365885613E+02 -0.11419718344E+02  0.43400734671E+02  0.00000000000E+00 0.  1.
         11    1    3    3    0    0 -0.92581766286E+01 -0.94423007302E+01  0.18379915377E+01  0.13350995870E+02  0.51100000000E-03 0. -1.
        -11    1    3    3    0    0 -0.31959207992E+00 -0.27839217523E+02  0.91044664059E+01  0.29291901273E+02  0.51100000000E-03 0.  1.
         12    1    3    3    0    0  0.30910661283E+01 -0.40843673607E+01  0.47726039994E+00  0.51443681863E+01  0.00000000000E+00 0. -1.
</event>
<event>
 7    1  0.2700100E-010  0.4778727E+02  0.7816164E-02  0.1312668E+00
        -11   -1    0    0    0    0  0.00000000000E+00  0.00000000000E+00  0.45593999997E+02  0.45594000000E+02  0.51100000000E-03 0.  1.
         11   -1    0    0    0    0 -0.00000000000E+00 -0.00000000000E+00 -0.45593999997E+02  0.45594000000E+02  0.51100000000E-03 0. -1.
    9900012    2    1    2    0    0  0.14945248848E+02 -0.66638116327E+01 -0.40197715505E+02  0.47787272121E+02  0.20000004908E+02 0.  0.
        -12    1    1    2    0    0 -0.14945248848E+02  0.66638116327E+01  0.40197715505E+02  0.43400727879E+02  0.00000000000E+00 0.  1.
         11    1    3    3    0    0  0.24280620690E+01  0.10422695755E+01 -0.44219943072E+00  0.26790580204E+01  0.51100000000E-03 0. -1.
        -11    1    3    3    0    0  0.50190072429E+01  0.44680899329E+01 -0.94100548254E+01  0.11563018353E+02  0.51100000000E-03 0.  1.
        -12    1    3    3    0    0  0.74981795364E+01 -0.12174171141E+02 -0.30345461249E+02  0.33545195748E+02  0.00000000000E+00 0.  1.
</event>
<event>
 7    1  0.2700100E-010  0.4778727E+02  0.7816164E-02  0.1312668E+00
        -11   -1    0    0    0    0  0.00000000000E+00  0.00000000000E+00  0.45593999997E+02  0.45594000000E+02  0.51100000000E-03 0. -1.
         11   -1    0    0    0    0 -0.00000000000E+00 -0.00000000000E+00 -0.45593999997E+02  0.45594000000E+02  0.51100000000E-03 0.  1.
    9900012    2    1    2    0    0 -0.31821302856E+02 -0.25076354136E+02  0.15562909291E+02  0.47787274225E+02  0.20000014499E+02 0.  0.
        -12    1    1    2    0    0  0.31821302856E+02  0.25076354136E+02 -0.15562909291E+02  0.43400725775E+02  0.00000000000E+00 0.  1.
         11    1    3    3    0    0 -0.42233766861E+01 -0.79172596560E+01  0.44054981773E+01  0.99964156348E+01  0.51100000000E-03 0. -1.
        -11    1    3    3    0    0 -0.12185293353E+02  0.57766133382E+00  0.11573071500E+01  0.12253751540E+02  0.51100000000E-03 0.  1.
        -12    1    3    3    0    0 -0.15412632818E+02 -0.17736755814E+02  0.10000103963E+02  0.25537107050E+02  0.00000000000E+00 0.  1.
</event>
<event>
 7    1  0.2700100E-010  0.4778727E+02  0.7816164E-02  0.1312668E+00
        -11   -1    0    0    0    0  0.00000000000E+00  0.00000000000E+00  0.45593999997E+02  0.45594000000E+02  0.51100000000E-03 0.  1.
         11   -1    0    0    0    0 -0.00000000000E+00 -0.00000000000E+00 -0.45593999997E+02  0.45594000000E+02  0.51100000000E-03 0. -1.
    9900012    2    1    2    0    0 -0.97945303464E+01 -0.40642938912E+02 -0.11655134985E+02  0.47787268674E+02  0.19999989193E+02 0.  0.
        -12    1    1    2    0    0  0.97945303464E+01  0.40642938912E+02  0.11655134985E+02  0.43400731326E+02  0.00000000000E+00 0.  1.
         11    1    3    3    0    0 -0.99546593077E+01 -0.21607939745E+02 -0.68319233738E+01  0.24752241903E+02  0.51100000000E-03 0. -1.
        -11    1    3    3    0    0  0.15796145845E+00  0.15849928962E+01 -0.14243222265E+01  0.21367845866E+01  0.51100000000E-03 0.  1.
        -12    1    3    3    0    0  0.21675028436E-02 -0.20619992063E+02 -0.33988893844E+01  0.20898242185E+02  0.00000000000E+00 0.  1.
</event>
<event>
 7    1  0.2700100E-010  0.4778727E+02  0.7816164E-02  0.1312668E+00
        -11   -1    0    0    0    0  0.00000000000E+00  0.00000000000E+00  0.45593999997E+02  0.45594000000E+02  0.51100000000E-03 0. -1.
         11   -1    0    0    0    0 -0.00000000000E+00 -0.00000000000E+00 -0.45593999997E+02  0.45594000000E+02  0.51100000000E-03 0.  1.
    9900012    2    1    2    0    0 -0.24430816076E+02 -0.96383243783E+01  0.34552298284E+02  0.47787269733E+02  0.19999994023E+02 0.  0.
        -12    1    1    2    0    0  0.24430816076E+02  0.96383243783E+01 -0.34552298284E+02  0.43400730267E+02  0.00000000000E+00 0.  1.
         11    1    3    3    0    0 -0.96552352872E+01 -0.79250988280E+01  0.26035385432E+02  0.28876842881E+02  0.51100000000E-03 0. -1.
        -11    1    3    3    0    0 -0.49741442762E+01 -0.27417530313E+01 -0.29884072749E+00  0.56875853406E+01  0.51100000000E-03 0.  1.
         12    1    3    3    0    0 -0.98014365122E+01  0.10285274809E+01  0.88157535794E+01  0.13222841512E+02  0.00000000000E+00 0. -1.
</event>
<event>
 7    1  0.2700100E-010  0.4778727E+02  0.7816164E-02  0.1312668E+00
        -11   -1    0    0    0    0  0.00000000000E+00  0.00000000000E+00  0.45593999997E+02  0.45594000000E+02  0.51100000000E-03 0.  1.
         11   -1    0    0    0    0 -0.00000000000E+00 -0.00000000000E+00 -0.45593999997E+02  0.45594000000E+02  0.51100000000E-03 0. -1.
    9900012    2    1    2    0    0  0.12197583207E+01 -0.26052188180E+02 -0.34690329681E+02  0.47787270828E+02  0.19999999012E+02 0.  0.
        -12    1    1    2    0    0 -0.12197583207E+01  0.26052188180E+02  0.34690329681E+02  0.43400729172E+02  0.00000000000E+00 0.  1.
         11    1    3    3    0    0  0.66274535791E+01 -0.13494127056E+02 -0.20611201276E+02  0.25511492004E+02  0.51100000000E-03 0. -1.
        -11    1    3    3    0    0 -0.63419580632E+01 -0.13611702928E+02 -0.10211244774E+02  0.18159526667E+02  0.51100000000E-03 0.  1.
         12    1    3    3    0    0  0.93426280480E+00  0.10536418041E+01 -0.38678836303E+01  0.41162521567E+01  0.00000000000E+00 0. -1.
</event>
<event>
 7    1  0.2700100E-010  0.4778729E+02  0.7816164E-02  0.1312668E+00
        -11   -1    0    0    0    0  0.00000000000E+00  0.00000000000E+00  0.45593999997E+02  0.45594000000E+02  0.51100000000E-03 0. -1.
         11   -1    0    0    0    0 -0.00000000000E+00 -0.00000000000E+00 -0.45593999997E+02  0.45594000000E+02  0.51100000000E-03 0.  1.
    9900012    2    1    2    0    0 -0.39129080964E+02 -0.18236335030E+02  0.44690523447E+01  0.47787293540E+02  0.20000102564E+02 0.  0.
        -12    1    1    2    0    0  0.39129080964E+02  0.18236335030E+02 -0.44690523447E+01  0.43400706460E+02  0.00000000000E+00 0.  1.
         11    1    3    3    0    0 -0.14610361345E+02 -0.16571367108E+02 -0.31669407242E+00  0.22094641021E+02  0.51100000000E-03 0. -1.
        -11    1    3    3    0    0 -0.12504455848E+02 -0.51810621746E+00 -0.48150088166E+00  0.12524443839E+02  0.51100000000E-03 0.  1.
         12    1    3    3    0    0 -0.12014263771E+02 -0.11468617048E+01  0.52672472988E+01  0.13168208680E+02  0.00000000000E+00 0. -1.
</event>
<event>
 7    1  0.2700100E-010  0.4778727E+02  0.7816164E-02  0.1312668E+00
        -11   -1    0    0    0    0  0.00000000000E+00  0.00000000000E+00  0.45593999997E+02  0.45594000000E+02  0.51100000000E-03 0.  1.
         11   -1    0    0    0    0 -0.00000000000E+00 -0.00000000000E+00 -0.45593999997E+02  0.45594000000E+02  0.51100000000E-03 0. -1.
    9900012    2    1    2    0    0 -0.34955606910E+02  0.18767533628E+02 -0.17592863407E+02  0.47787267106E+02  0.19999982041E+02 0.  0.
        -12    1    1    2    0    0  0.34955606910E+02 -0.18767533628E+02  0.17592863407E+02  0.43400732894E+02  0.00000000000E+00 0.  1.
         11    1    3    3    0    0 -0.82224560706E+01  0.10607697755E+02 -0.10260838719E+02  0.16894284447E+02  0.51100000000E-03 0. -1.
        -11    1    3    3    0    0 -0.22357956383E+01  0.12168630726E+01 -0.46354250734E+01  0.52883554859E+01  0.51100000000E-03 0.  1.
         12    1    3    3    0    0 -0.24497355201E+02  0.69429727997E+01 -0.26965996145E+01  0.25604627172E+02  0.00000000000E+00 0. -1.
</event>
<event>
 7    1  0.2700100E-010  0.4778728E+02  0.7816164E-02  0.1312668E+00
        -11   -1    0    0    0    0  0.00000000000E+00  0.00000000000E+00  0.45593999997E+02  0.45594000000E+02  0.51100000000E-03 0.  1.
         11   -1    0    0    0    0 -0.00000000000E+00 -0.00000000000E+00 -0.45593999997E+02  0.45594000000E+02  0.51100000000E-03 0. -1.
    9900012    2    1    2    0    0  0.37201724783E+01 -0.42881217953E+02  0.55663342375E+01  0.47787278655E+02  0.20000034701E+02 0.  0.
        -12    1    1    2    0    0 -0.37201724783E+01  0.42881217953E+02 -0.55663342375E+01  0.43400721345E+02  0.00000000000E+00 0.  1.
         11    1    3    3    0    0  0.12532529178E+01 -0.22290468832E+02  0.58609103620E+01  0.23082155752E+02  0.51100000000E-03 0.  1.
        -11    1    3    3    0    0  0.35782139548E+01 -0.14510852638E+02 -0.61778929757E+01  0.16172038253E+02  0.51100000000E-03 0. -1.
        -12    1    3    3    0    0 -0.11112943942E+01 -0.60798964832E+01  0.58833168511E+01  0.85330846502E+01  0.00000000000E+00 0.  1.
</event>
<event>
 7    1  0.2700100E-010  0.4778727E+02  0.7816164E-02  0.1312668E+00
        -11   -1    0    0    0    0  0.00000000000E+00  0.00000000000E+00  0.45593999997E+02  0.45594000000E+02  0.51100000000E-03 0. -1.
         11   -1    0    0    0    0 -0.00000000000E+00 -0.00000000000E+00 -0.45593999997E+02  0.45594000000E+02  0.51100000000E-03 0.  1.
    9900012    2    1    2    0    0 -0.21389480432E+02  0.94478501802E+01  0.36562981365E+02  0.47787270139E+02  0.19999995874E+02 0.  0.
        -12    1    1    2    0    0  0.21389480432E+02 -0.94478501802E+01 -0.36562981365E+02  0.43400729861E+02  0.00000000000E+00 0.  1.
         11    1    3    3    0    0 -0.17161386338E+02  0.81122075310E+01  0.29685297293E+02  0.35235464630E+02  0.51100000000E-03 0. -1.
        -11    1    3    3    0    0 -0.12233471040E+01 -0.27930286058E+00 -0.23773122582E+01  0.26881596044E+01  0.51100000000E-03 0.  1.
        -12    1    3    3    0    0 -0.30047469894E+01  0.16149455098E+01  0.92549963298E+01  0.98636459048E+01  0.00000000000E+00 0.  1.
</event>
<event>
 7    1  0.2700100E-010  0.4778728E+02  0.7816164E-02  0.1312668E+00
        -11   -1    0    0    0    0  0.00000000000E+00  0.00000000000E+00  0.45593999997E+02  0.45594000000E+02  0.51100000000E-03 0.  1.
         11   -1    0    0    0    0 -0.00000000000E+00 -0.00000000000E+00 -0.45593999997E+02  0.45594000000E+02  0.51100000000E-03 0. -1.
    9900012    2    1    2    0    0  0.36883061561E+02  0.16749652930E+02 -0.15579207574E+02  0.47787276366E+02  0.20000024261E+02 0.  0.
        -12    1    1    2    0    0 -0.36883061561E+02 -0.16749652930E+02  0.15579207574E+02  0.43400723634E+02  0.00000000000E+00 0.  1.
         11    1    3    3    0    0  0.15136224166E+02  0.31361954023E+01 -0.11679346591E+02  0.19373903599E+02  0.51100000000E-03 0. -1.
        -11    1    3    3    0    0  0.19108768852E+02  0.15096452447E+02 -0.55348335865E+01  0.24973632227E+02  0.51100000000E-03 0.  1.
        -12    1    3    3    0    0  0.26380685424E+01 -0.14829949190E+01  0.16349726038E+01  0.34397405396E+01  0.00000000000E+00 0.  1.
</event>
<event>
 7    1  0.2700100E-010  0.4778728E+02  0.7816164E-02  0.1312668E+00
        -11   -1    0    0    0    0  0.00000000000E+00  0.00000000000E+00  0.45593999997E+02  0.45594000000E+02  0.51100000000E-03 0.  1.
         11   -1    0    0    0    0 -0.00000000000E+00 -0.00000000000E+00 -0.45593999997E+02  0.45594000000E+02  0.51100000000E-03 0. -1.
    9900012    2    1    2    0    0  0.37602916097E+02  0.19120748784E+02 -0.10200005929E+02  0.47787280490E+02  0.20000043064E+02 0.  0.
        -12    1    1    2    0    0 -0.37602916097E+02 -0.19120748784E+02  0.10200005929E+02  0.43400719510E+02  0.00000000000E+00 0.  1.
         11    1    3    3    0    0  0.11202471998E+02  0.51428236929E+01  0.13702617008E+01  0.12402484904E+02  0.51100000000E-03 0. -1.
        -11    1    3    3    0    0  0.18251393994E+01  0.40198635246E+01  0.27971827525E+01  0.52263436737E+01  0.51100000000E-03 0.  1.
         12    1    3    3    0    0  0.24575304700E+02  0.99580615666E+01 -0.14367450382E+02  0.30158451912E+02  0.00000000000E+00 0. -1.
</event>
<event>
 7    1  0.2700100E-010  0.4778727E+02  0.7816164E-02  0.1312668E+00
        -11   -1    0    0    0    0  0.00000000000E+00  0.00000000000E+00  0.45593999997E+02  0.45594000000E+02  0.51100000000E-03 0.  1.
         11   -1    0    0    0    0 -0.00000000000E+00 -0.00000000000E+00 -0.45593999997E+02  0.45594000000E+02  0.51100000000E-03 0. -1.
    9900012    2    1    2    0    0  0.19506115399E+02 -0.28476888933E+02 -0.26309723767E+02  0.47787270674E+02  0.19999998313E+02 0.  0.
        -12    1    1    2    0    0 -0.19506115399E+02  0.28476888933E+02  0.26309723767E+02  0.43400729326E+02  0.00000000000E+00 0.  1.
         11    1    3    3    0    0  0.16775069140E+02 -0.10857222567E+02 -0.76171681517E+01  0.21384655187E+02  0.51100000000E-03 0. -1.
        -11    1    3    3    0    0 -0.10900953037E+01 -0.62011131331E+01 -0.42368498263E+01  0.75890057697E+01  0.51100000000E-03 0.  1.
         12    1    3    3    0    0  0.38211415631E+01 -0.11418553232E+02 -0.14455705789E+02  0.18813609718E+02  0.00000000000E+00 0. -1.
</event>
<event>
 7    1  0.2700100E-010  0.4778727E+02  0.7816164E-02  0.1312668E+00
        -11   -1    0    0    0    0  0.00000000000E+00  0.00000000000E+00  0.45593999997E+02  0.45594000000E+02  0.51100000000E-03 0. -1.
         11   -1    0    0    0    0 -0.00000000000E+00 -0.00000000000E+00 -0.45593999997E+02  0.45594000000E+02  0.51100000000E-03 0.  1.
    9900012    2    1    2    0    0  0.32153224087E+02 -0.36172024494E+01  0.28925926800E+02  0.47787271734E+02  0.20000003145E+02 0.  0.
        -12    1    1    2    0    0 -0.32153224087E+02  0.36172024494E+01 -0.28925926800E+02  0.43400728266E+02  0.00000000000E+00 0.  1.
         11    1    3    3    0    0  0.48116077216E+01 -0.53311960673E+01  0.64072984115E+01  0.96242762621E+01  0.51100000000E-03 0. -1.
        -11    1    3    3    0    0  0.16419307257E+02  0.17819998202E+01  0.45430936103E+01  0.17129181941E+02  0.51100000000E-03 0.  1.
        -12    1    3    3    0    0  0.10922309109E+02 -0.68006202223E-01  0.17975534778E+02  0.21033813531E+02  0.00000000000E+00 0.  1.
</event>
<event>
 7    1  0.2700100E-010  0.4778727E+02  0.7816164E-02  0.1312668E+00
        -11   -1    0    0    0    0  0.00000000000E+00  0.00000000000E+00  0.45593999997E+02  0.45594000000E+02  0.51100000000E-03 0.  1.
         11   -1    0    0    0    0 -0.00000000000E+00 -0.00000000000E+00 -0.45593999997E+02  0.45594000000E+02  0.51100000000E-03 0. -1.
    9900012    2    1    2    0    0 -0.34150428662E+02 -0.94666436935E+01 -0.25055025059E+02  0.47787269576E+02  0.19999993305E+02 0.  0.
        -12    1    1    2    0    0  0.34150428662E+02  0.94666436935E+01  0.25055025059E+02  0.43400730424E+02  0.00000000000E+00 0.  1.
         11    1    3    3    0    0 -0.82573889798E+01 -0.28975428971E+01 -0.46803667535E+01  0.99240143497E+01  0.51100000000E-03 0. -1.
        -11    1    3    3    0    0 -0.14571831402E+02 -0.12383498967E+02 -0.13398176849E+02  0.23349528051E+02  0.51100000000E-03 0.  1.
        -12    1    3    3    0    0 -0.11321208280E+02  0.58143981704E+01 -0.69764814564E+01  0.14513727175E+02  0.00000000000E+00 0.  1.
</event>
<event>
 7    1  0.2700100E-010  0.4778727E+02  0.7816164E-02  0.1312668E+00
        -11   -1    0    0    0    0  0.00000000000E+00  0.00000000000E+00  0.45593999997E+02  0.45594000000E+02  0.51100000000E-03 0.  1.
         11   -1    0    0    0    0 -0.00000000000E+00 -0.00000000000E+00 -0.45593999997E+02  0.45594000000E+02  0.51100000000E-03 0. -1.
    9900012    2    1    2    0    0 -0.33842421425E+02 -0.79153412722E+01 -0.25993482930E+02  0.47787271087E+02  0.20000000194E+02 0.  0.
        -12    1    1    2    0    0  0.33842421425E+02  0.79153412722E+01  0.25993482930E+02  0.43400728913E+02  0.00000000000E+00 0.  1.
         11    1    3    3    0    0 -0.15941026915E+00 -0.67377165633E+00 -0.56969163090E+01  0.57388357331E+01  0.51100000000E-03 0.  1.
        -11    1    3    3    0    0 -0.28029668028E+02 -0.66627017708E+01 -0.21847692554E+02  0.36157648635E+02  0.51100000000E-03 0. -1.
        -12    1    3    3    0    0 -0.56533431277E+01 -0.57886784509E+00  0.15511259332E+01  0.58907867184E+01  0.00000000000E+00 0.  1.
</event>
<event>
 7    1  0.2700100E-010  0.4778727E+02  0.7816164E-02  0.1312668E+00
        -11   -1    0    0    0    0  0.00000000000E+00  0.00000000000E+00  0.45593999997E+02  0.45594000000E+02  0.51100000000E-03 0. -1.
         11   -1    0    0    0    0 -0.00000000000E+00 -0.00000000000E+00 -0.45593999997E+02  0.45594000000E+02  0.51100000000E-03 0.  1.
    9900012    2    1    2    0    0 -0.14297720204E+01 -0.39569251488E+02 -0.17772276148E+02  0.47787266010E+02  0.19999977045E+02 0.  0.
        -12    1    1    2    0    0  0.14297720204E+01  0.39569251488E+02  0.17772276148E+02  0.43400733990E+02  0.00000000000E+00 0.  1.
         11    1    3    3    0    0 -0.29362126647E+01 -0.28139388926E+02 -0.11160535633E+02  0.30413880216E+02  0.51100000000E-03 0. -1.
        -11    1    3    3    0    0 -0.36648567501E+01 -0.15172448348E+01 -0.44940777618E+01  0.59941589968E+01  0.51100000000E-03 0.  1.
        -12    1    3    3    0    0  0.51712973945E+01 -0.99126177281E+01 -0.21176627540E+01  0.11379226797E+02  0.00000000000E+00 0.  1.
</event>
<event>
 7    1  0.2700100E-010  0.4778727E+02  0.7816164E-02  0.1312668E+00
        -11   -1    0    0    0    0  0.00000000000E+00  0.00000000000E+00  0.45593999997E+02  0.45594000000E+02  0.51100000000E-03 0.  1.
         11   -1    0    0    0    0 -0.00000000000E+00 -0.00000000000E+00 -0.45593999997E+02  0.45594000000E+02  0.51100000000E-03 0. -1.
    9900012    2    1    2    0    0  0.23797749633E+02 -0.16386501480E+02 -0.32384769067E+02  0.47787267450E+02  0.19999983610E+02 0.  0.
        -12    1    1    2    0    0 -0.23797749633E+02  0.16386501480E+02  0.32384769067E+02  0.43400732550E+02  0.00000000000E+00 0.  1.
         11    1    3    3    0    0  0.11877072186E+02 -0.16080340292E+02 -0.21634622244E+02  0.29456732126E+02  0.51100000000E-03 0. -1.
        -11    1    3    3    0    0  0.13034261053E+01 -0.25547320931E+01  0.24868896015E+00  0.28787883110E+01  0.51100000000E-03 0.  1.
         12    1    3    3    0    0  0.10617251342E+02  0.22485709044E+01 -0.10998835783E+02  0.15451747013E+02  0.00000000000E+00 0. -1.
</event>
<event>
 7    1  0.2700100E-010  0.4778727E+02  0.7816164E-02  0.1312668E+00
        -11   -1    0    0    0    0  0.00000000000E+00  0.00000000000E+00  0.45593999997E+02  0.45594000000E+02  0.51100000000E-03 0. -1.
         11   -1    0    0    0    0 -0.00000000000E+00 -0.00000000000E+00 -0.45593999997E+02  0.45594000000E+02  0.51100000000E-03 0.  1.
    9900012    2    1    2    0    0 -0.33922068424E+02 -0.23029084916E+02  0.14232982077E+02  0.47787271239E+02  0.20000000885E+02 0.  0.
        -12    1    1    2    0    0  0.33922068424E+02  0.23029084916E+02 -0.14232982077E+02  0.43400728761E+02  0.00000000000E+00 0.  1.
         11    1    3    3    0    0 -0.21285500471E+02 -0.92914815881E+01  0.11782394548E+01  0.23254943751E+02  0.51100000000E-03 0. -1.
        -11    1    3    3    0    0  0.62192735615E+00 -0.38488779983E+01  0.43499802802E+01  0.58414881821E+01  0.51100000000E-03 0.  1.
         12    1    3    3    0    0 -0.13258495310E+02 -0.98887253291E+01  0.87047623415E+01  0.18690839305E+02  0.00000000000E+00 0. -1.
</event>
<event>
 7    1  0.2700100E-010  0.4778727E+02  0.7816164E-02  0.1312668E+00
        -11   -1    0    0    0    0  0.00000000000E+00  0.00000000000E+00  0.45593999997E+02  0.45594000000E+02  0.51100000000E-03 0.  1.
         11   -1    0    0    0    0 -0.00000000000E+00 -0.00000000000E+00 -0.45593999997E+02  0.45594000000E+02  0.51100000000E-03 0. -1.
    9900012    2    1    2    0    0  0.30434596153E+01  0.37231992479E+02 -0.22093880214E+02  0.47787268977E+02  0.19999990575E+02 0.  0.
        -12    1    1    2    0    0 -0.30434596153E+01 -0.37231992479E+02  0.22093880214E+02  0.43400731023E+02  0.00000000000E+00 0.  1.
         11    1    3    3    0    0 -0.46657311237E+01  0.96813548724E+01 -0.10587754649E+02  0.15086358999E+02  0.51100000000E-03 0. -1.
        -11    1    3    3    0    0  0.82152609553E+01  0.24381874374E+02 -0.13364522408E+02  0.28992702013E+02  0.51100000000E-03 0.  1.
        -12    1    3    3    0    0 -0.50607021628E+00  0.31687632325E+01  0.18583968427E+01  0.37082079651E+01  0.00000000000E+00 0.  1.
</event>
<event>
 7    1  0.2700100E-010  0.4778728E+02  0.7816164E-02  0.1312668E+00
        -11   -1    0    0    0    0  0.00000000000E+00  0.00000000000E+00  0.45593999997E+02  0.45594000000E+02  0.51100000000E-03 0.  1.
         11   -1    0    0    0    0 -0.00000000000E+00 -0.00000000000E+00 -0.45593999997E+02  0.45594000000E+02  0.51100000000E-03 0. -1.
    9900012    2    1    2    0    0  0.29208564344E+02  0.19146967017E+02 -0.25765797040E+02  0.47787275650E+02  0.20000020999E+02 0.  0.
        -12    1    1    2    0    0 -0.29208564344E+02 -0.19146967017E+02  0.25765797040E+02  0.43400724350E+02  0.00000000000E+00 0.  1.
         11    1    3    3    0    0  0.10248995999E+02  0.19581562957E+01 -0.85957095500E+01  0.13518968821E+02  0.51100000000E-03 0. -1.
        -11    1    3    3    0    0  0.21265928961E+02  0.15355914068E+02 -0.17117681163E+02  0.31321858822E+02  0.51100000000E-03 0.  1.
        -12    1    3    3    0    0 -0.23063606159E+01  0.18328966536E+01 -0.52406327371E-01  0.29464480067E+01  0.00000000000E+00 0.  1.
</event>
<event>
 7    1  0.2700100E-010  0.4778727E+02  0.7816164E-02  0.1312668E+00
        -11   -1    0    0    0    0  0.00000000000E+00  0.00000000000E+00  0.45593999997E+02  0.45594000000E+02  0.51100000000E-03 0. -1.
         11   -1    0    0    0    0 -0.00000000000E+00 -0.00000000000E+00 -0.45593999997E+02  0.45594000000E+02  0.51100000000E-03 0.  1.
    9900012    2    1    2    0    0  0.45363881500E+01  0.27102906218E+02  0.33592813041E+02  0.47787269235E+02  0.19999991750E+02 0.  0.
        -12    1    1    2    0    0 -0.45363881500E+01 -0.27102906218E+02 -0.33592813041E+02  0.43400730765E+02  0.00000000000E+00 0.  1.
         11    1    3    3    0    0 -0.30398128674E+01  0.77376088741E+01  0.15142998063E+02  0.17274878985E+02  0.51100000000E-03 0.  1.
        -11    1    3    3    0    0  0.33059733280E+01  0.12377521930E+02  0.32034194722E+01  0.13205847392E+02  0.51100000000E-03 0. -1.
         12    1    3    3    0    0  0.42702276895E+01  0.69877754140E+01  0.15246395506E+02  0.17306542858E+02  0.00000000000E+00 0. -1.
</event>
<event>
 7    1  0.2700100E-010  0.4778727E+02  0.7816164E-02  0.1312668E+00
        -11   -1    0    0    0    0  0.00000000000E+00  0.00000000000E+00  0.45593999997E+02  0.45594000000E+02  0.51100000000E-03 0.  1.
         11   -1    0    0    0    0 -0.00000000000E+00 -0.00000000000E+00 -0.45593999997E+02  0.45594000000E+02  0.51100000000E-03 0. -1.
    9900012    2    1    2    0    0  0.34233636369E+02 -0.14573329250E+02 -0.22345004577E+02  0.47787274039E+02  0.20000013652E+02 0.  0.
        -12    1    1    2    0    0 -0.34233636369E+02  0.14573329250E+02  0.22345004577E+02  0.43400725961E+02  0.00000000000E+00 0.  1.
         11    1    3    3    0    0  0.16716235083E+02  0.72803801460E+00 -0.11515892353E+02  0.20312024312E+02  0.51100000000E-03 0. -1.
        -11    1    3    3    0    0  0.12973534096E+02 -0.14948122472E+02 -0.56650740573E+01  0.20587666617E+02  0.51100000000E-03 0.  1.
        -12    1    3    3    0    0  0.45438671898E+01 -0.35324479267E+00 -0.51640381660E+01  0.68875831104E+01  0.00000000000E+00 0.  1.
</event>
<event>
 7    1  0.2700100E-010  0.4778727E+02  0.7816164E-02  0.1312668E+00
        -11   -1    0    0    0    0  0.00000000000E+00  0.00000000000E+00  0.45593999997E+02  0.45594000000E+02  0.51100000000E-03 0.  1.
         11   -1    0    0    0    0 -0.00000000000E+00 -0.00000000000E+00 -0.45593999997E+02  0.45594000000E+02  0.51100000000E-03 0. -1.
    9900012    2    1    2    0    0  0.38332390671E+02  0.65159713189E+01 -0.19281940550E+02  0.47787270880E+02  0.19999999249E+02 0.  0.
        -12    1    1    2    0    0 -0.38332390671E+02 -0.65159713189E+01  0.19281940550E+02  0.43400729120E+02  0.00000000000E+00 0.  1.
         11    1    3    3    0    0  0.19266287303E+02  0.82409093403E+01 -0.18135265678E+02  0.27712637455E+02  0.51100000000E-03 0. -1.
        -11    1    3    3    0    0  0.80642598161E+01 -0.34367783287E+01 -0.16886713158E+01  0.89272248060E+01  0.51100000000E-03 0.  1.
         12    1    3    3    0    0  0.11001843552E+02  0.17118403073E+01  0.54199644446E+00  0.11147408619E+02  0.00000000000E+00 0. -1.
</event>
<event>
 7    1  0.2700100E-010  0.4778727E+02  0.7816164E-02  0.1312668E+00
        -11   -1    0    0    0    0  0.00000000000E+00  0.00000000000E+00  0.45593999997E+02  0.45594000000E+02  0.51100000000E-03 0.  1.
         11   -1    0    0    0    0 -0.00000000000E+00 -0.00000000000E+00 -0.45593999997E+02  0.45594000000E+02  0.51100000000E-03 0. -1.
    9900012    2    1    2    0    0  0.32291429477E+02 -0.26228958305E+02  0.12366433484E+02  0.47787270184E+02  0.19999996077E+02 0.  0.
        -12    1    1    2    0    0 -0.32291429477E+02  0.26228958305E+02 -0.12366433484E+02  0.43400729816E+02  0.00000000000E+00 0.  1.
         11    1    3    3    0    0  0.13252029203E+02 -0.65018792003E+01 -0.25051277595E+01  0.14972186764E+02  0.51100000000E-03 0. -1.
        -11    1    3    3    0    0  0.70690150483E+01 -0.14324560914E+02  0.97774828820E+01  0.18728672962E+02  0.51100000000E-03 0.  1.
         12    1    3    3    0    0  0.11970385225E+02 -0.54025181908E+01  0.50940783618E+01  0.14086410458E+02  0.00000000000E+00 0. -1.
</event>
<event>
 7    1  0.2700100E-010  0.4778726E+02  0.7816164E-02  0.1312668E+00
        -11   -1    0    0    0    0  0.00000000000E+00  0.00000000000E+00  0.45593999997E+02  0.45594000000E+02  0.51100000000E-03 0.  1.
         11   -1    0    0    0    0 -0.00000000000E+00 -0.00000000000E+00 -0.45593999997E+02  0.45594000000E+02  0.51100000000E-03 0. -1.
    9900012    2    1    2    0    0 -0.20612780579E+02  0.12412942664E+02 -0.36120025806E+02  0.47787261147E+02  0.19999954875E+02 0.  0.
        -12    1    1    2    0    0  0.20612780579E+02 -0.12412942664E+02  0.36120025806E+02  0.43400738853E+02  0.00000000000E+00 0.  1.
         11    1    3    3    0    0 -0.17974915248E+02 -0.30788371075E+00 -0.19948686094E+02  0.26854095548E+02  0.51100000000E-03 0. -1.
        -11    1    3    3    0    0 -0.60140812883E+00  0.89658222304E+01 -0.10239712979E+02  0.13623486417E+02  0.51100000000E-03 0.  1.
         12    1    3    3    0    0 -0.20364572020E+01  0.37550041439E+01 -0.59316267323E+01  0.73096791822E+01  0.00000000000E+00 0. -1.
</event>
<event>
 7    1  0.2700100E-010  0.4778727E+02  0.7816164E-02  0.1312668E+00
        -11   -1    0    0    0    0  0.00000000000E+00  0.00000000000E+00  0.45593999997E+02  0.45594000000E+02  0.51100000000E-03 0.  1.
         11   -1    0    0    0    0 -0.00000000000E+00 -0.00000000000E+00 -0.45593999997E+02  0.45594000000E+02  0.51100000000E-03 0. -1.
    9900012    2    1    2    0    0 -0.29124287933E+01 -0.25030333588E+02 -0.35335862844E+02  0.47787273694E+02  0.20000012078E+02 0.  0.
        -12    1    1    2    0    0  0.29124287933E+01  0.25030333588E+02  0.35335862844E+02  0.43400726306E+02  0.00000000000E+00 0.  1.
         11    1    3    3    0    0 -0.15377630212E+01 -0.70418370350E+01 -0.44898984179E+01  0.84918414964E+01  0.51100000000E-03 0. -1.
        -11    1    3    3    0    0 -0.88728549575E+01 -0.10423744522E+02 -0.17725554691E+02  0.22395921377E+02  0.51100000000E-03 0.  1.
        -12    1    3    3    0    0  0.74981891853E+01 -0.75647520309E+01 -0.13120409735E+02  0.16899510820E+02  0.00000000000E+00 0.  1.
</event>
<event>
 7    1  0.2700100E-010  0.4778727E+02  0.7816164E-02  0.1312668E+00
        -11   -1    0    0    0    0  0.00000000000E+00  0.00000000000E+00  0.45593999997E+02  0.45594000000E+02  0.51100000000E-03 0.  1.
         11   -1    0    0    0    0 -0.00000000000E+00 -0.00000000000E+00 -0.45593999997E+02  0.45594000000E+02  0.51100000000E-03 0. -1.
    9900012    2    1    2    0    0 -0.13811024374E+02 -0.38001897226E+02 -0.15771320230E+02  0.47787272716E+02  0.20000007620E+02 0.  0.
        -12    1    1    2    0    0  0.13811024374E+02  0.38001897226E+02  0.15771320230E+02  0.43400727284E+02  0.00000000000E+00 0.  1.
         11    1    3    3    0    0  0.33170102537E+00 -0.15331358914E+02 -0.13945563521E+02  0.20727743097E+02  0.51100000000E-03 0. -1.
        -11    1    3    3    0    0 -0.75025901756E+01 -0.14502709107E+02 -0.24664839731E+01  0.16513660231E+02  0.51100000000E-03 0.  1.
         12    1    3    3    0    0 -0.66401352236E+01 -0.81678292049E+01  0.64072726405E+00  0.10545869387E+02  0.00000000000E+00 0. -1.
</event>
<event>
 7    1  0.2700100E-010  0.4778728E+02  0.7816164E-02  0.1312668E+00
        -11   -1    0    0    0    0  0.00000000000E+00  0.00000000000E+00  0.45593999997E+02  0.45594000000E+02  0.51100000000E-03 0.  1.
         11   -1    0    0    0    0 -0.00000000000E+00 -0.00000000000E+00 -0.45593999997E+02  0.45594000000E+02  0.51100000000E-03 0. -1.
    9900012    2    1    2    0    0 -0.23732833299E+02 -0.29004329717E+01 -0.36221024445E+02  0.47787279964E+02  0.20000040667E+02 0.  0.
        -12    1    1    2    0    0  0.23732833299E+02  0.29004329717E+01  0.36221024445E+02  0.43400720036E+02  0.00000000000E+00 0.  1.
         11    1    3    3    0    0 -0.10206358194E+02 -0.20503674115E+01 -0.31512882385E+02  0.33187881984E+02  0.51100000000E-03 0. -1.
        -11    1    3    3    0    0 -0.10065847510E+02 -0.11790958303E+01 -0.45781159759E+01  0.11120732855E+02  0.51100000000E-03 0.  1.
         12    1    3    3    0    0 -0.34606275948E+01  0.32903027009E+00 -0.13002608360E+00  0.34786651248E+01  0.00000000000E+00 0. -1.
</event>
<event>
 7    1  0.2700100E-010  0.4778727E+02  0.7816164E-02  0.1312668E+00
        -11   -1    0    0    0    0  0.00000000000E+00  0.00000000000E+00  0.45593999997E+02  0.45594000000E+02  0.51100000000E-03 0.  1.
         11   -1    0    0    0    0 -0.00000000000E+00 -0.00000000000E+00 -0.45593999997E+02  0.45594000000E+02  0.51100000000E-03 0. -1.
    9900012    2    1    2    0    0  0.38484015873E+01 -0.41135483801E+02  0.13292285884E+02  0.47787273205E+02  0.20000009852E+02 0.  0.
        -12    1    1    2    0    0 -0.38484015873E+01  0.41135483801E+02 -0.13292285884E+02  0.43400726795E+02  0.00000000000E+00 0.  1.
         11    1    3    3    0    0  0.97708470658E+01 -0.13311594238E+02  0.25064761699E+01  0.16701808782E+02  0.51100000000E-03 0. -1.
        -11    1    3    3    0    0 -0.42147793190E+01 -0.18104049986E+02  0.10191765019E+02  0.21198893015E+02  0.51100000000E-03 0.  1.
        -12    1    3    3    0    0 -0.17076661594E+01 -0.97198395769E+01  0.59404469522E+00  0.98865714083E+01  0.00000000000E+00 0.  1.
</event>
<event>
 7    1  0.2700100E-010  0.4778727E+02  0.7816164E-02  0.1312668E+00
        -11   -1    0    0    0    0  0.00000000000E+00  0.00000000000E+00  0.45593999997E+02  0.45594000000E+02  0.51100000000E-03 0.  1.
         11   -1    0    0    0    0 -0.00000000000E+00 -0.00000000000E+00 -0.45593999997E+02  0.45594000000E+02  0.51100000000E-03 0. -1.
    9900012    2    1    2    0    0 -0.34981144026E+02 -0.23550536743E+02 -0.10262320108E+02  0.47787269220E+02  0.19999991683E+02 0.  0.
        -12    1    1    2    0    0  0.34981144026E+02  0.23550536743E+02  0.10262320108E+02  0.43400730780E+02  0.00000000000E+00 0.  1.
         11    1    3    3    0    0  0.13137792582E+01 -0.17440837585E+01  0.26594943420E+01  0.34410397429E+01  0.51100000000E-03 0. -1.
        -11    1    3    3    0    0 -0.24521991684E+02 -0.15217457431E+02 -0.99888082640E+01  0.30539734406E+02  0.51100000000E-03 0.  1.
         12    1    3    3    0    0 -0.11772931600E+02 -0.65889955534E+01 -0.29330061857E+01  0.13806495071E+02  0.00000000000E+00 0. -1.
</event>
<event>
 7    1  0.2700100E-010  0.4778727E+02  0.7816164E-02  0.1312668E+00
        -11   -1    0    0    0    0  0.00000000000E+00  0.00000000000E+00  0.45593999997E+02  0.45594000000E+02  0.51100000000E-03 0. -1.
         11   -1    0    0    0    0 -0.00000000000E+00 -0.00000000000E+00 -0.45593999997E+02  0.45594000000E+02  0.51100000000E-03 0.  1.
    9900012    2    1    2    0    0  0.38672066746E+02 -0.46955782404E+01  0.19132329998E+02  0.47787271290E+02  0.20000001120E+02 0.  0.
        -12    1    1    2    0    0 -0.38672066746E+02  0.46955782404E+01 -0.19132329998E+02  0.43400728710E+02  0.00000000000E+00 0.  1.
         11    1    3    3    0    0  0.30737340937E+02 -0.88744747170E+01  0.17272938555E+02  0.36357871720E+02  0.51100000000E-03 0. -1.
        -11    1    3    3    0    0  0.20047137636E+01  0.47722575859E+01  0.17655127158E+01  0.54690360349E+01  0.51100000000E-03 0.  1.
        -12    1    3    3    0    0  0.59300120451E+01 -0.59336110935E+00  0.93878727095E-01  0.59603635356E+01  0.00000000000E+00 0.  1.
</event>
<event>
 7    1  0.2700100E-010  0.4778727E+02  0.7816164E-02  0.1312668E+00
        -11   -1    0    0    0    0  0.00000000000E+00  0.00000000000E+00  0.45593999997E+02  0.45594000000E+02  0.51100000000E-03 0.  1.
         11   -1    0    0    0    0 -0.00000000000E+00 -0.00000000000E+00 -0.45593999997E+02  0.45594000000E+02  0.51100000000E-03 0. -1.
    9900012    2    1    2    0    0  0.10990418342E+02 -0.32429901893E+02 -0.26667120185E+02  0.47787272690E+02  0.20000007501E+02 0.  0.
        -12    1    1    2    0    0 -0.10990418342E+02  0.32429901893E+02  0.26667120185E+02  0.43400727310E+02  0.00000000000E+00 0.  1.
         11    1    3    3    0    0  0.27288764075E+01 -0.20535028134E+02 -0.23804984725E+02  0.31556480237E+02  0.51100000000E-03 0. -1.
        -11    1    3    3    0    0  0.28088119193E+01 -0.44824661814E+01 -0.44256144940E+01  0.68969552250E+01  0.51100000000E-03 0.  1.
         12    1    3    3    0    0  0.54527300152E+01 -0.74124075768E+01  0.15634790340E+01  0.93338372277E+01  0.00000000000E+00 0. -1.
</event>
<event>
 7    1  0.2700100E-010  0.4778727E+02  0.7816164E-02  0.1312668E+00
        -11   -1    0    0    0    0  0.00000000000E+00  0.00000000000E+00  0.45593999997E+02  0.45594000000E+02  0.51100000000E-03 0.  1.
         11   -1    0    0    0    0 -0.00000000000E+00 -0.00000000000E+00 -0.45593999997E+02  0.45594000000E+02  0.51100000000E-03 0. -1.
    9900012    2    1    2    0    0 -0.40632949572E+02 -0.18575202846E+01 -0.15137263236E+02  0.47787266010E+02  0.19999977048E+02 0.  0.
        -12    1    1    2    0    0  0.40632949572E+02  0.18575202846E+01  0.15137263236E+02  0.43400733990E+02  0.00000000000E+00 0.  1.
         11    1    3    3    0    0 -0.79018346700E+01  0.43349699959E+01 -0.74766020923E+01  0.11710274767E+02  0.51100000000E-03 0. -1.
        -11    1    3    3    0    0 -0.33354284612E+02 -0.48179031041E+01 -0.69537545063E+01  0.34410393695E+02  0.51100000000E-03 0.  1.
        -12    1    3    3    0    0  0.62316970918E+00 -0.13745871765E+01 -0.70690663766E+00  0.16665975478E+01  0.00000000000E+00 0.  1.
</event>
<event>
 7    1  0.2700100E-010  0.4778727E+02  0.7816164E-02  0.1312668E+00
        -11   -1    0    0    0    0  0.00000000000E+00  0.00000000000E+00  0.45593999997E+02  0.45594000000E+02  0.51100000000E-03 0. -1.
         11   -1    0    0    0    0 -0.00000000000E+00 -0.00000000000E+00 -0.45593999997E+02  0.45594000000E+02  0.51100000000E-03 0.  1.
    9900012    2    1    2    0    0  0.40969512503E+02 -0.36526225482E+01  0.13848487003E+02  0.47787271913E+02  0.20000003960E+02 0.  0.
        -12    1    1    2    0    0 -0.40969512503E+02  0.36526225482E+01 -0.13848487003E+02  0.43400728087E+02  0.00000000000E+00 0.  1.
         11    1    3    3    0    0  0.21882848263E+02  0.16584712174E+01  0.61055088479E+01  0.22779087195E+02  0.51100000000E-03 0. -1.
        -11    1    3    3    0    0  0.23396797506E+01 -0.65312545466E+01  0.15311332568E+01  0.71046292372E+01  0.51100000000E-03 0.  1.
        -12    1    3    3    0    0  0.16746984490E+02  0.12201607809E+01  0.62118448981E+01  0.17903555481E+02  0.00000000000E+00 0.  1.
</event>
<event>
 7    1  0.2700100E-010  0.4778727E+02  0.7816164E-02  0.1312668E+00
        -11   -1    0    0    0    0  0.00000000000E+00  0.00000000000E+00  0.45593999997E+02  0.45594000000E+02  0.51100000000E-03 0.  1.
         11   -1    0    0    0    0 -0.00000000000E+00 -0.00000000000E+00 -0.45593999997E+02  0.45594000000E+02  0.51100000000E-03 0. -1.
    9900012    2    1    2    0    0  0.20888310739E+02  0.15251721297E+02 -0.34852357852E+02  0.47787269869E+02  0.19999994639E+02 0.  0.
        -12    1    1    2    0    0 -0.20888310739E+02 -0.15251721297E+02  0.34852357852E+02  0.43400730131E+02  0.00000000000E+00 0.  1.
         11    1    3    3    0    0  0.21323767380E+01  0.48817031458E+01 -0.62488436112E+01  0.82113398964E+01  0.51100000000E-03 0. -1.
        -11    1    3    3    0    0  0.37962781833E+00  0.24227563292E+01  0.18907054499E+01  0.30965517710E+01  0.51100000000E-03 0.  1.
        -12    1    3    3    0    0  0.18376306183E+02  0.79472618225E+01 -0.30494219691E+02  0.36479378201E+02  0.00000000000E+00 0.  1.
</event>
<event>
 7    1  0.2700100E-010  0.4778727E+02  0.7816164E-02  0.1312668E+00
        -11   -1    0    0    0    0  0.00000000000E+00  0.00000000000E+00  0.45593999997E+02  0.45594000000E+02  0.51100000000E-03 0. -1.
         11   -1    0    0    0    0 -0.00000000000E+00 -0.00000000000E+00 -0.45593999997E+02  0.45594000000E+02  0.51100000000E-03 0.  1.
    9900012    2    1    2    0    0  0.65784710189E+01  0.31445721261E-01  0.42899254846E+02  0.47787270327E+02  0.19999996731E+02 0.  0.
        -12    1    1    2    0    0 -0.65784710189E+01 -0.31445721261E-01 -0.42899254846E+02  0.43400729673E+02  0.00000000000E+00 0.  1.
         11    1    3    3    0    0 -0.31140750001E+01 -0.10001461581E+01  0.30674061701E+02  0.30847946722E+02  0.51100000000E-03 0. -1.
        -11    1    3    3    0    0  0.79829280920E+01 -0.11188484144E+01  0.57386424129E+01  0.98949977110E+01  0.51100000000E-03 0.  1.
        -12    1    3    3    0    0  0.17096179270E+01  0.21504402938E+01  0.64865507315E+01  0.70443258944E+01  0.00000000000E+00 0.  1.
</event>
<event>
 7    1  0.2700100E-010  0.4778727E+02  0.7816164E-02  0.1312668E+00
        -11   -1    0    0    0    0  0.00000000000E+00  0.00000000000E+00  0.45593999997E+02  0.45594000000E+02  0.51100000000E-03 0.  1.
         11   -1    0    0    0    0 -0.00000000000E+00 -0.00000000000E+00 -0.45593999997E+02  0.45594000000E+02  0.51100000000E-03 0. -1.
    9900012    2    1    2    0    0 -0.27337051543E+02  0.25378209806E+02 -0.22186831121E+02  0.47787269646E+02  0.19999993625E+02 0.  0.
        -12    1    1    2    0    0  0.27337051543E+02 -0.25378209806E+02  0.22186831121E+02  0.43400730354E+02  0.00000000000E+00 0.  1.
         11    1    3    3    0    0 -0.23747357184E+02  0.20105006235E+02 -0.22506773587E+02  0.38401863321E+02  0.51100000000E-03 0. -1.
        -11    1    3    3    0    0  0.18537791336E+01  0.15499148863E+01  0.12576708234E+01  0.27240538526E+01  0.51100000000E-03 0.  1.
        -12    1    3    3    0    0 -0.54434734928E+01  0.37232886847E+01 -0.93772835780E+00  0.66613524730E+01  0.00000000000E+00 0.  1.
</event>
<event>
 7    1  0.2700100E-010  0.4778727E+02  0.7816164E-02  0.1312668E+00
        -11   -1    0    0    0    0  0.00000000000E+00  0.00000000000E+00  0.45593999997E+02  0.45594000000E+02  0.51100000000E-03 0. -1.
         11   -1    0    0    0    0 -0.00000000000E+00 -0.00000000000E+00 -0.45593999997E+02  0.45594000000E+02  0.51100000000E-03 0.  1.
    9900012    2    1    2    0    0 -0.34281387072E+02  0.25601266992E+02 -0.72790567154E+01  0.47787273763E+02  0.20000012397E+02 0.  0.
        -12    1    1    2    0    0  0.34281387072E+02 -0.25601266992E+02  0.72790567154E+01  0.43400726237E+02  0.00000000000E+00 0.  1.
         11    1    3    3    0    0 -0.10953066922E+02  0.10941944045E+02 -0.22798017815E+00  0.15483791192E+02  0.51100000000E-03 0. -1.
        -11    1    3    3    0    0 -0.14754122012E+02  0.11171977828E+02 -0.11751152476E+02  0.21922289791E+02  0.51100000000E-03 0.  1.
        -12    1    3    3    0    0 -0.85741981391E+01  0.34873451188E+01  0.47000759383E+01  0.10381192780E+02  0.00000000000E+00 0.  1.
</event>
<event>
 7    1  0.2700100E-010  0.4778727E+02  0.7816164E-02  0.1312668E+00
        -11   -1    0    0    0    0  0.00000000000E+00  0.00000000000E+00  0.45593999997E+02  0.45594000000E+02  0.51100000000E-03 0.  1.
         11   -1    0    0    0    0 -0.00000000000E+00 -0.00000000000E+00 -0.45593999997E+02  0.45594000000E+02  0.51100000000E-03 0. -1.
    9900012    2    1    2    0    0 -0.49578876279E+01  0.36060882949E+02 -0.23635891967E+02  0.47787270538E+02  0.19999997691E+02 0.  0.
        -12    1    1    2    0    0  0.49578876279E+01 -0.36060882949E+02  0.23635891967E+02  0.43400729462E+02  0.00000000000E+00 0.  1.
         11    1    3    3    0    0 -0.25875131582E+01  0.10048838942E+01 -0.13631688849E+01  0.30924497821E+01  0.51100000000E-03 0. -1.
        -11    1    3    3    0    0  0.89196949530E+00  0.74904079399E+01  0.20187357310E+01  0.78087844701E+01  0.51100000000E-03 0.  1.
        -12    1    3    3    0    0 -0.32623439650E+01  0.27565591114E+02 -0.24291458813E+02  0.36886036286E+02  0.00000000000E+00 0.  1.
</event>
<event>
 7    1  0.2700100E-010  0.4778728E+02  0.7816164E-02  0.1312668E+00
        -11   -1    0    0    0    0  0.00000000000E+00  0.00000000000E+00  0.45593999997E+02  0.45594000000E+02  0.51100000000E-03 0.  1.
         11   -1    0    0    0    0 -0.00000000000E+00 -0.00000000000E+00 -0.45593999997E+02  0.45594000000E+02  0.51100000000E-03 0. -1.
    9900012    2    1    2    0    0 -0.42217872087E+02  0.52476828235E+01  0.85869679924E+01  0.47787275146E+02  0.20000018699E+02 0.  0.
        -12    1    1    2    0    0  0.42217872087E+02 -0.52476828235E+01 -0.85869679924E+01  0.43400724854E+02  0.00000000000E+00 0.  1.
         11    1    3    3    0    0 -0.40114797506E+01  0.79193317169E+00 -0.14997711795E+01  0.43552774641E+01  0.51100000000E-03 0. -1.
        -11    1    3    3    0    0 -0.13673835209E+02 -0.52735192025E+01 -0.12500118089E+01  0.14708715236E+02  0.51100000000E-03 0.  1.
        -12    1    3    3    0    0 -0.24532557127E+02  0.97292688543E+01  0.11336750981E+02  0.28723282445E+02  0.00000000000E+00 0.  1.
</event>
<event>
 7    1  0.2700100E-010  0.4778727E+02  0.7816164E-02  0.1312668E+00
        -11   -1    0    0    0    0  0.00000000000E+00  0.00000000000E+00  0.45593999997E+02  0.45594000000E+02  0.51100000000E-03 0. -1.
         11   -1    0    0    0    0 -0.00000000000E+00 -0.00000000000E+00 -0.45593999997E+02  0.45594000000E+02  0.51100000000E-03 0.  1.
    9900012    2    1    2    0    0  0.27199404244E+02  0.24705193404E+02  0.23096944545E+02  0.47787273973E+02  0.20000013351E+02 0.  0.
        -12    1    1    2    0    0 -0.27199404244E+02 -0.24705193404E+02 -0.23096944545E+02  0.43400726027E+02  0.00000000000E+00 0.  1.
         11    1    3    3    0    0  0.24803977769E+01  0.70786781952E+01  0.94903585258E+01  0.12096568246E+02  0.51100000000E-03 0. -1.
        -11    1    3    3    0    0  0.21551905527E+02  0.14073646003E+02  0.55475067356E+01  0.26331102804E+02  0.51100000000E-03 0.  1.
        -12    1    3    3    0    0  0.31671009409E+01  0.35528692059E+01  0.80590792835E+01  0.93596029223E+01  0.00000000000E+00 0.  1.
</event>
<event>
 7    1  0.2700100E-010  0.4778727E+02  0.7816164E-02  0.1312668E+00
        -11   -1    0    0    0    0  0.00000000000E+00  0.00000000000E+00  0.45593999997E+02  0.45594000000E+02  0.51100000000E-03 0. -1.
         11   -1    0    0    0    0 -0.00000000000E+00 -0.00000000000E+00 -0.45593999997E+02  0.45594000000E+02  0.51100000000E-03 0.  1.
    9900012    2    1    2    0    0  0.41558118023E+02  0.10341172914E+02 -0.70431726866E+01  0.47787270601E+02  0.19999997979E+02 0.  0.
        -12    1    1    2    0    0 -0.41558118023E+02 -0.10341172914E+02  0.70431726866E+01  0.43400729399E+02  0.00000000000E+00 0.  1.
         11    1    3    3    0    0  0.66216829239E+01  0.34927218083E+00 -0.76421384146E+01  0.10117853310E+02  0.51100000000E-03 0. -1.
        -11    1    3    3    0    0  0.23940989058E+01  0.32323608025E+01  0.18089192334E+01  0.44104483879E+01  0.51100000000E-03 0.  1.
         12    1    3    3    0    0  0.32542336193E+02  0.67595399306E+01 -0.12099535055E+01  0.33258968903E+02  0.00000000000E+00 0. -1.
</event>
<event>
 7    1  0.2700100E-010  0.4778727E+02  0.7816164E-02  0.1312668E+00
        -11   -1    0    0    0    0  0.00000000000E+00  0.00000000000E+00  0.45593999997E+02  0.45594000000E+02  0.51100000000E-03 0. -1.
         11   -1    0    0    0    0 -0.00000000000E+00 -0.00000000000E+00 -0.45593999997E+02  0.45594000000E+02  0.51100000000E-03 0.  1.
    9900012    2    1    2    0    0  0.32369418800E+01  0.78089707368E+01  0.42569537325E+02  0.47787270458E+02  0.19999997326E+02 0.  0.
        -12    1    1    2    0    0 -0.32369418800E+01 -0.78089707368E+01 -0.42569537325E+02  0.43400729542E+02  0.00000000000E+00 0.  1.
         11    1    3    3    0    0 -0.18739063435E+01  0.34056879984E+01  0.87661048872E+01  0.95893081545E+01  0.51100000000E-03 0. -1.
        -11    1    3    3    0    0  0.54000834810E+01 -0.41325670930E+00  0.16173668172E+01  0.56522171218E+01  0.51100000000E-03 0.  1.
        -12    1    3    3    0    0 -0.28923525751E+00  0.48165394477E+01  0.32186065621E+02  0.32545745182E+02  0.00000000000E+00 0.  1.
</event>
<event>
 7    1  0.2700100E-010  0.4778727E+02  0.7816164E-02  0.1312668E+00
        -11   -1    0    0    0    0  0.00000000000E+00  0.00000000000E+00  0.45593999997E+02  0.45594000000E+02  0.51100000000E-03 0. -1.
         11   -1    0    0    0    0 -0.00000000000E+00 -0.00000000000E+00 -0.45593999997E+02  0.45594000000E+02  0.51100000000E-03 0.  1.
    9900012    2    1    2    0    0 -0.17885012260E+02 -0.31409590807E+02  0.24024720542E+02  0.47787271258E+02  0.20000000974E+02 0.  0.
        -12    1    1    2    0    0  0.17885012260E+02  0.31409590807E+02 -0.24024720542E+02  0.43400728742E+02  0.00000000000E+00 0.  1.
         11    1    3    3    0    0 -0.77451873504E+01 -0.68209658318E+01  0.51407918580E+01  0.11530014881E+02  0.51100000000E-03 0. -1.
        -11    1    3    3    0    0 -0.34639584859E+01 -0.68175893100E+01  0.15062967047E+02  0.16892942577E+02  0.51100000000E-03 0.  1.
        -12    1    3    3    0    0 -0.66758664242E+01 -0.17771035665E+02  0.38209616376E+01  0.19364313800E+02  0.00000000000E+00 0.  1.
</event>
<event>
 7    1  0.2700100E-010  0.4778727E+02  0.7816164E-02  0.1312668E+00
        -11   -1    0    0    0    0  0.00000000000E+00  0.00000000000E+00  0.45593999997E+02  0.45594000000E+02  0.51100000000E-03 0. -1.
         11   -1    0    0    0    0 -0.00000000000E+00 -0.00000000000E+00 -0.45593999997E+02  0.45594000000E+02  0.51100000000E-03 0.  1.
    9900012    2    1    2    0    0  0.81314567971E+01 -0.34291473447E+02  0.25329775164E+02  0.47787271312E+02  0.20000001219E+02 0.  0.
        -12    1    1    2    0    0 -0.81314567971E+01  0.34291473447E+02 -0.25329775164E+02  0.43400728688E+02  0.00000000000E+00 0.  1.
         11    1    3    3    0    0  0.18094974623E-01 -0.65741577683E+00  0.82639284489E+01  0.82900564896E+01  0.51100000000E-03 0. -1.
        -11    1    3    3    0    0  0.36334079398E+01 -0.25058459011E+02  0.89081259128E+01  0.26841809343E+02  0.51100000000E-03 0.  1.
         12    1    3    3    0    0  0.44799538827E+01 -0.85755986591E+01  0.81577208019E+01  0.12655405479E+02  0.00000000000E+00 0. -1.
</event>
<event>
 7    1  0.2700100E-010  0.4778727E+02  0.7816164E-02  0.1312668E+00
        -11   -1    0    0    0    0  0.00000000000E+00  0.00000000000E+00  0.45593999997E+02  0.45594000000E+02  0.51100000000E-03 0. -1.
         11   -1    0    0    0    0 -0.00000000000E+00 -0.00000000000E+00 -0.45593999997E+02  0.45594000000E+02  0.51100000000E-03 0.  1.
    9900012    2    1    2    0    0 -0.45651997505E+01 -0.39523185060E+02  0.17340698400E+02  0.47787273887E+02  0.20000012963E+02 0.  0.
        -12    1    1    2    0    0  0.45651997505E+01  0.39523185060E+02 -0.17340698400E+02  0.43400726113E+02  0.00000000000E+00 0.  1.
         11    1    3    3    0    0 -0.17656340872E+01 -0.26024793153E+02  0.18886971696E+02  0.32204425511E+02  0.51100000000E-03 0. -1.
        -11    1    3    3    0    0 -0.46083211921E+01 -0.11933091171E+02 -0.24523891396E+01  0.13024956885E+02  0.51100000000E-03 0.  1.
        -12    1    3    3    0    0  0.18087555288E+01 -0.15653007360E+01  0.90611584368E+00  0.25578914909E+01  0.00000000000E+00 0.  1.
</event>
<event>
 7    1  0.2700100E-010  0.4778727E+02  0.7816164E-02  0.1312668E+00
        -11   -1    0    0    0    0  0.00000000000E+00  0.00000000000E+00  0.45593999997E+02  0.45594000000E+02  0.51100000000E-03 0.  1.
         11   -1    0    0    0    0 -0.00000000000E+00 -0.00000000000E+00 -0.45593999997E+02  0.45594000000E+02  0.51100000000E-03 0. -1.
    9900012    2    1    2    0    0 -0.29105193424E+02 -0.27935458495E+02 -0.16003783818E+02  0.47787271641E+02  0.20000002721E+02 0.  0.
        -12    1    1    2    0    0  0.29105193424E+02  0.27935458495E+02  0.16003783818E+02  0.43400728359E+02  0.00000000000E+00 0.  1.
         11    1    3    3    0    0 -0.44965649629E+01 -0.87708567940E+01  0.33143112029E+01  0.10398638583E+02  0.51100000000E-03 0. -1.
        -11    1    3    3    0    0 -0.14212639216E+01 -0.24129611054E+01  0.12132808072E+00  0.28030506944E+01  0.51100000000E-03 0.  1.
         12    1    3    3    0    0 -0.23187364539E+02 -0.16751640596E+02 -0.19439423102E+02  0.34585582364E+02  0.00000000000E+00 0. -1.
</event>
<event>
 7    1  0.2700100E-010  0.4778727E+02  0.7816164E-02  0.1312668E+00
        -11   -1    0    0    0    0  0.00000000000E+00  0.00000000000E+00  0.45593999997E+02  0.45594000000E+02  0.51100000000E-03 0.  1.
         11   -1    0    0    0    0 -0.00000000000E+00 -0.00000000000E+00 -0.45593999997E+02  0.45594000000E+02  0.51100000000E-03 0. -1.
    9900012    2    1    2    0    0 -0.21883913821E+02 -0.68663385716E+01 -0.36845229347E+02  0.47787271721E+02  0.20000003086E+02 0.  0.
        -12    1    1    2    0    0  0.21883913821E+02  0.68663385716E+01  0.36845229347E+02  0.43400728279E+02  0.00000000000E+00 0.  1.
         11    1    3    3    0    0 -0.12306748580E+02 -0.33354518603E+01 -0.10342952705E+02  0.16418220691E+02  0.51100000000E-03 0. -1.
        -11    1    3    3    0    0 -0.17472446641E+01 -0.22162688163E+01 -0.22122169659E+02  0.22301459640E+02  0.51100000000E-03 0.  1.
        -12    1    3    3    0    0 -0.78299205766E+01 -0.13146178950E+01 -0.43801069819E+01  0.90675913901E+01  0.00000000000E+00 0.  1.
</event>
<event>
 7    1  0.2700100E-010  0.4778727E+02  0.7816164E-02  0.1312668E+00
        -11   -1    0    0    0    0  0.00000000000E+00  0.00000000000E+00  0.45593999997E+02  0.45594000000E+02  0.51100000000E-03 0.  1.
         11   -1    0    0    0    0 -0.00000000000E+00 -0.00000000000E+00 -0.45593999997E+02  0.45594000000E+02  0.51100000000E-03 0. -1.
    9900012    2    1    2    0    0  0.22725550512E+02  0.35266356819E+02 -0.11111105072E+02  0.47787271604E+02  0.20000002550E+02 0.  0.
        -12    1    1    2    0    0 -0.22725550512E+02 -0.35266356819E+02  0.11111105072E+02  0.43400728396E+02  0.00000000000E+00 0.  1.
         11    1    3    3    0    0  0.59484484715E+01  0.47816070702E+01  0.12239366317E+01  0.77295424529E+01  0.51100000000E-03 0. -1.
        -11    1    3    3    0    0  0.10524320827E+02  0.10773594205E+02  0.15636124752E+01  0.15141880504E+02  0.51100000000E-03 0.  1.
        -12    1    3    3    0    0  0.62527812136E+01  0.19711155544E+02 -0.13898654179E+02  0.24915848647E+02  0.00000000000E+00 0.  1.
</event>
<event>
 7    1  0.2700100E-010  0.4778727E+02  0.7816164E-02  0.1312668E+00
        -11   -1    0    0    0    0  0.00000000000E+00  0.00000000000E+00  0.45593999997E+02  0.45594000000E+02  0.51100000000E-03 0. -1.
         11   -1    0    0    0    0 -0.00000000000E+00 -0.00000000000E+00 -0.45593999997E+02  0.45594000000E+02  0.51100000000E-03 0.  1.
    9900012    2    1    2    0    0  0.37093327607E+01 -0.29731178922E+02  0.31399383906E+02  0.47787268908E+02  0.19999990261E+02 0.  0.
        -12    1    1    2    0    0 -0.37093327607E+01  0.29731178922E+02 -0.31399383906E+02  0.43400731092E+02  0.00000000000E+00 0.  1.
         11    1    3    3    0    0  0.14064015781E+01 -0.27833248804E+02  0.27065229908E+02  0.38848350990E+02  0.51100000000E-03 0. -1.
        -11    1    3    3    0    0  0.44169143145E+01 -0.19064262795E+01  0.47763468026E+01  0.67791653071E+01  0.51100000000E-03 0.  1.
         12    1    3    3    0    0 -0.21139831319E+01  0.84961614000E-02 -0.44219280488E+00  0.21597526117E+01  0.00000000000E+00 0. -1.
</event>
<event>
 7    1  0.2700100E-010  0.4778727E+02  0.7816164E-02  0.1312668E+00
        -11   -1    0    0    0    0  0.00000000000E+00  0.00000000000E+00  0.45593999997E+02  0.45594000000E+02  0.51100000000E-03 0.  1.
         11   -1    0    0    0    0 -0.00000000000E+00 -0.00000000000E+00 -0.45593999997E+02  0.45594000000E+02  0.51100000000E-03 0. -1.
    9900012    2    1    2    0    0 -0.10948646746E+02 -0.57346282892E+01 -0.41603656146E+02  0.47787273832E+02  0.20000012708E+02 0.  0.
        -12    1    1    2    0    0  0.10948646746E+02  0.57346282892E+01  0.41603656146E+02  0.43400726168E+02  0.00000000000E+00 0.  1.
         11    1    3    3    0    0 -0.18230833246E+01  0.87293123724E+00 -0.10900052138E+02  0.11085881951E+02  0.51100000000E-03 0. -1.
        -11    1    3    3    0    0 -0.75614024043E+01  0.45340741383E+01 -0.14634182043E+02  0.17084844715E+02  0.51100000000E-03 0.  1.
        -12    1    3    3    0    0 -0.15641610176E+01 -0.11141633665E+02 -0.16069421966E+02  0.19616547166E+02  0.00000000000E+00 0.  1.
</event>
<event>
 7    1  0.2700100E-010  0.4778727E+02  0.7816164E-02  0.1312668E+00
        -11   -1    0    0    0    0  0.00000000000E+00  0.00000000000E+00  0.45593999997E+02  0.45594000000E+02  0.51100000000E-03 0.  1.
         11   -1    0    0    0    0 -0.00000000000E+00 -0.00000000000E+00 -0.45593999997E+02  0.45594000000E+02  0.51100000000E-03 0. -1.
    9900012    2    1    2    0    0  0.34791666320E+02 -0.93991248053E+01 -0.24183043582E+02  0.47787272019E+02  0.20000004442E+02 0.  0.
        -12    1    1    2    0    0 -0.34791666320E+02  0.93991248053E+01  0.24183043582E+02  0.43400727981E+02  0.00000000000E+00 0.  1.
         11    1    3    3    0    0  0.21529878550E+02 -0.78289590291E+01 -0.53762358229E+01  0.23531514651E+02  0.51100000000E-03 0. -1.
        -11    1    3    3    0    0  0.40768907935E-01  0.10515477460E+01 -0.44118860727E+01  0.45356536183E+01  0.51100000000E-03 0.  1.
         12    1    3    3    0    0  0.13221018862E+02 -0.26217135222E+01 -0.14394921686E+02  0.19720103750E+02  0.00000000000E+00 0. -1.
</event>
<event>
 7    1  0.2700100E-010  0.4778727E+02  0.7816164E-02  0.1312668E+00
        -11   -1    0    0    0    0  0.00000000000E+00  0.00000000000E+00  0.45593999997E+02  0.45594000000E+02  0.51100000000E-03 0.  1.
         11   -1    0    0    0    0 -0.00000000000E+00 -0.00000000000E+00 -0.45593999997E+02  0.45594000000E+02  0.51100000000E-03 0. -1.
    9900012    2    1    2    0    0 -0.17070110590E+02  0.34406958453E+02 -0.20208816590E+02  0.47787265750E+02  0.19999975859E+02 0.  0.
        -12    1    1    2    0    0  0.17070110590E+02 -0.34406958453E+02  0.20208816590E+02  0.43400734250E+02  0.00000000000E+00 0.  1.
         11    1    3    3    0    0 -0.60262982180E+01  0.19943816565E+02 -0.11142760211E+02  0.23626959068E+02  0.51100000000E-03 0. -1.
        -11    1    3    3    0    0 -0.11283462366E+02  0.42046035946E+01 -0.38010658553E+01  0.12627086610E+02  0.51100000000E-03 0.  1.
        -12    1    3    3    0    0  0.23964999431E+00  0.10258538293E+02 -0.52649905231E+01  0.11533220072E+02  0.00000000000E+00 0.  1.
</event>
<event>
 7    1  0.2700100E-010  0.4778727E+02  0.7816164E-02  0.1312668E+00
        -11   -1    0    0    0    0  0.00000000000E+00  0.00000000000E+00  0.45593999997E+02  0.45594000000E+02  0.51100000000E-03 0.  1.
         11   -1    0    0    0    0 -0.00000000000E+00 -0.00000000000E+00 -0.45593999997E+02  0.45594000000E+02  0.51100000000E-03 0. -1.
    9900012    2    1    2    0    0 -0.62339581574E+00 -0.35060462754E+02 -0.25573396192E+02  0.47787271162E+02  0.20000000537E+02 0.  0.
        -12    1    1    2    0    0  0.62339581574E+00  0.35060462754E+02  0.25573396192E+02  0.43400728838E+02  0.00000000000E+00 0.  1.
         11    1    3    3    0    0 -0.78233475126E+01 -0.23753360363E+02 -0.20919585376E+02  0.32604538754E+02  0.51100000000E-03 0. -1.
        -11    1    3    3    0    0  0.47784887567E+01 -0.47564835398E+01 -0.46651381980E+01  0.81988782849E+01  0.51100000000E-03 0.  1.
         12    1    3    3    0    0  0.24214629401E+01 -0.65506188511E+01  0.11327381816E-01  0.69838541230E+01  0.00000000000E+00 0. -1.
</event>
<event>
 7    1  0.2700100E-010  0.4778726E+02  0.7816164E-02  0.1312668E+00
        -11   -1    0    0    0    0  0.00000000000E+00  0.00000000000E+00  0.45593999997E+02  0.45594000000E+02  0.51100000000E-03 0.  1.
         11   -1    0    0    0    0 -0.00000000000E+00 -0.00000000000E+00 -0.45593999997E+02  0.45594000000E+02  0.51100000000E-03 0. -1.
    9900012    2    1    2    0    0 -0.12406263912E+02  0.32320192467E+02 -0.26174679940E+02  0.47787261581E+02  0.19999956853E+02 0.  0.
        -12    1    1    2    0    0  0.12406263912E+02 -0.32320192467E+02  0.26174679940E+02  0.43400738419E+02  0.00000000000E+00 0.  1.
         11    1    3    3    0    0 -0.11730101344E+02  0.60984340130E+01 -0.62703668939E+01  0.14632281989E+02  0.51100000000E-03 0. -1.
        -11    1    3    3    0    0  0.12494505929E+01  0.18661262952E+02 -0.13615293650E+02  0.23133959522E+02  0.51100000000E-03 0.  1.
         12    1    3    3    0    0 -0.19256131606E+01  0.75604955023E+01 -0.62890193960E+01  0.10021020070E+02  0.00000000000E+00 0. -1.
</event>
<event>
 7    1  0.2700100E-010  0.4778727E+02  0.7816164E-02  0.1312668E+00
        -11   -1    0    0    0    0  0.00000000000E+00  0.00000000000E+00  0.45593999997E+02  0.45594000000E+02  0.51100000000E-03 0.  1.
         11   -1    0    0    0    0 -0.00000000000E+00 -0.00000000000E+00 -0.45593999997E+02  0.45594000000E+02  0.51100000000E-03 0. -1.
    9900012    2    1    2    0    0  0.41701592100E+02  0.11649973183E+02  0.29796640884E+01  0.47787273544E+02  0.20000011398E+02 0.  0.
        -12    1    1    2    0    0 -0.41701592100E+02 -0.11649973183E+02 -0.29796640884E+01  0.43400726456E+02  0.00000000000E+00 0.  1.
         11    1    3    3    0    0  0.16223558325E+02  0.13974340669E+02  0.33056088722E+01  0.21665943140E+02  0.51100000000E-03 0. -1.
        -11    1    3    3    0    0  0.21246394313E+02 -0.51848255671E+00 -0.16974268103E+01  0.21320397593E+02  0.51100000000E-03 0.  1.
         12    1    3    3    0    0  0.42316394616E+01 -0.18058849303E+01  0.13714820265E+01  0.48009328118E+01  0.00000000000E+00 0. -1.
</event>
<event>
 7    1  0.2700100E-010  0.4778727E+02  0.7816164E-02  0.1312668E+00
        -11   -1    0    0    0    0  0.00000000000E+00  0.00000000000E+00  0.45593999997E+02  0.45594000000E+02  0.51100000000E-03 0. -1.
         11   -1    0    0    0    0 -0.00000000000E+00 -0.00000000000E+00 -0.45593999997E+02  0.45594000000E+02  0.51100000000E-03 0.  1.
    9900012    2    1    2    0    0  0.97790291117E+00 -0.95335963507E+01  0.42329391287E+02  0.47787272815E+02  0.20000008073E+02 0.  0.
        -12    1    1    2    0    0 -0.97790291117E+00  0.95335963507E+01 -0.42329391287E+02  0.43400727185E+02  0.00000000000E+00 0.  1.
         11    1    3    3    0    0 -0.22549108704E+01  0.36494657422E+01  0.20152812743E+02  0.20604346264E+02  0.51100000000E-03 0. -1.
        -11    1    3    3    0    0 -0.15106295829E+01 -0.53444917142E+01  0.13357120669E+02  0.14465761862E+02  0.51100000000E-03 0.  1.
         12    1    3    3    0    0  0.47434433645E+01 -0.78385703787E+01  0.88194578738E+01  0.12717164689E+02  0.00000000000E+00 0. -1.
</event>
<event>
 7    1  0.2700100E-010  0.4778725E+02  0.7816164E-02  0.1312668E+00
        -11   -1    0    0    0    0  0.00000000000E+00  0.00000000000E+00  0.45593999997E+02  0.45594000000E+02  0.51100000000E-03 0.  1.
         11   -1    0    0    0    0 -0.00000000000E+00 -0.00000000000E+00 -0.45593999997E+02  0.45594000000E+02  0.51100000000E-03 0. -1.
    9900012    2    1    2    0    0 -0.34863226999E+02 -0.11061318503E+02 -0.23362955440E+02  0.47787250575E+02  0.19999906669E+02 0.  0.
        -12    1    1    2    0    0  0.34863226999E+02  0.11061318503E+02  0.23362955440E+02  0.43400749425E+02  0.00000000000E+00 0.  1.
         11    1    3    3    0    0 -0.24324549654E+02 -0.62373407336E+01 -0.25479254873E+02  0.35774020803E+02  0.51100000000E-03 0. -1.
        -11    1    3    3    0    0 -0.73433728243E+01 -0.23482178774E+01  0.20198430384E+01  0.79698819187E+01  0.51100000000E-03 0.  1.
         12    1    3    3    0    0 -0.31953045203E+01 -0.24757598921E+01  0.96456394158E-01  0.40433478525E+01  0.00000000000E+00 0. -1.
</event>
<event>
 7    1  0.2700100E-010  0.4778727E+02  0.7816164E-02  0.1312668E+00
        -11   -1    0    0    0    0  0.00000000000E+00  0.00000000000E+00  0.45593999997E+02  0.45594000000E+02  0.51100000000E-03 0.  1.
         11   -1    0    0    0    0 -0.00000000000E+00 -0.00000000000E+00 -0.45593999997E+02  0.45594000000E+02  0.51100000000E-03 0. -1.
    9900012    2    1    2    0    0  0.39193834303E+02  0.17697063962E+02 -0.58549588246E+01  0.47787271169E+02  0.20000000567E+02 0.  0.
        -12    1    1    2    0    0 -0.39193834303E+02 -0.17697063962E+02  0.58549588246E+01  0.43400728831E+02  0.00000000000E+00 0.  1.
         11    1    3    3    0    0  0.67672844042E+01  0.39902146820E+01 -0.24186466686E+01  0.82199637094E+01  0.51100000000E-03 0. -1.
        -11    1    3    3    0    0  0.24002142793E+02  0.17467180831E+02  0.10537739521E+00  0.29685288772E+02  0.51100000000E-03 0.  1.
        -12    1    3    3    0    0  0.84244071059E+01 -0.37603315508E+01 -0.35416895512E+01  0.98820186873E+01  0.00000000000E+00 0.  1.
</event>
<event>
 7    1  0.2700100E-010  0.4778727E+02  0.7816164E-02  0.1312668E+00
        -11   -1    0    0    0    0  0.00000000000E+00  0.00000000000E+00  0.45593999997E+02  0.45594000000E+02  0.51100000000E-03 0.  1.
         11   -1    0    0    0    0 -0.00000000000E+00 -0.00000000000E+00 -0.45593999997E+02  0.45594000000E+02  0.51100000000E-03 0. -1.
    9900012    2    1    2    0    0 -0.22482731664E+02 -0.32925435327E+02 -0.17148353711E+02  0.47787267868E+02  0.19999985518E+02 0.  0.
        -12    1    1    2    0    0  0.22482731664E+02  0.32925435327E+02  0.17148353711E+02  0.43400732132E+02  0.00000000000E+00 0.  1.
         11    1    3    3    0    0 -0.52344735386E+01 -0.15821457286E+01 -0.50605879266E+01  0.74506676719E+01  0.51100000000E-03 0. -1.
        -11    1    3    3    0    0 -0.64054344082E+01 -0.24059469022E+02 -0.47240109568E+01  0.25341742627E+02  0.51100000000E-03 0.  1.
        -12    1    3    3    0    0 -0.10842823718E+02 -0.72838205763E+01 -0.73637548275E+01  0.14994857569E+02  0.00000000000E+00 0.  1.
</event>
<event>
 7    1  0.2700100E-010  0.4778728E+02  0.7816164E-02  0.1312668E+00
        -11   -1    0    0    0    0  0.00000000000E+00  0.00000000000E+00  0.45593999997E+02  0.45594000000E+02  0.51100000000E-03 0.  1.
         11   -1    0    0    0    0 -0.00000000000E+00 -0.00000000000E+00 -0.45593999997E+02  0.45594000000E+02  0.51100000000E-03 0. -1.
    9900012    2    1    2    0    0  0.46747102807E+01  0.41595405096E+02 -0.11471368168E+02  0.47787275018E+02  0.20000018116E+02 0.  0.
        -12    1    1    2    0    0 -0.46747102807E+01 -0.41595405096E+02  0.11471368168E+02  0.43400724982E+02  0.00000000000E+00 0.  1.
         11    1    3    3    0    0  0.57132831340E+01  0.82602288515E+01 -0.90134304191E+01  0.13494995851E+02  0.51100000000E-03 0. -1.
        -11    1    3    3    0    0 -0.35861970971E+01  0.26863237367E+02 -0.66554314024E+00  0.27109726657E+02  0.51100000000E-03 0.  1.
         12    1    3    3    0    0  0.25476242438E+01  0.64719388773E+01 -0.17923946085E+01  0.71825525095E+01  0.00000000000E+00 0. -1.
</event>
<event>
 7    1  0.2700100E-010  0.4778727E+02  0.7816164E-02  0.1312668E+00
        -11   -1    0    0    0    0  0.00000000000E+00  0.00000000000E+00  0.45593999997E+02  0.45594000000E+02  0.51100000000E-03 0.  1.
         11   -1    0    0    0    0 -0.00000000000E+00 -0.00000000000E+00 -0.45593999997E+02  0.45594000000E+02  0.51100000000E-03 0. -1.
    9900012    2    1    2    0    0  0.53261942341E+00 -0.29103970244E+02 -0.32191590693E+02  0.47787270988E+02  0.19999999742E+02 0.  0.
        -12    1    1    2    0    0 -0.53261942341E+00  0.29103970244E+02  0.32191590693E+02  0.43400729012E+02  0.00000000000E+00 0.  1.
         11    1    3    3    0    0 -0.78506072704E+01 -0.12464742147E+02 -0.68679132739E+01  0.16253309334E+02  0.51100000000E-03 0. -1.
        -11    1    3    3    0    0  0.81365075781E+01 -0.14960842634E+02 -0.23712274144E+02  0.29194203418E+02  0.51100000000E-03 0.  1.
         12    1    3    3    0    0  0.24671911573E+00 -0.16783854637E+01 -0.16114032756E+01  0.23397582361E+01  0.00000000000E+00 0. -1.
</event>
<event>
 7    1  0.2700100E-010  0.4778727E+02  0.7816164E-02  0.1312668E+00
        -11   -1    0    0    0    0  0.00000000000E+00  0.00000000000E+00  0.45593999997E+02  0.45594000000E+02  0.51100000000E-03 0. -1.
         11   -1    0    0    0    0 -0.00000000000E+00 -0.00000000000E+00 -0.45593999997E+02  0.45594000000E+02  0.51100000000E-03 0.  1.
    9900012    2    1    2    0    0  0.24832934368E+02  0.34774822874E+02 -0.75934576407E+01  0.47787268045E+02  0.19999986324E+02 0.  0.
        -12    1    1    2    0    0 -0.24832934368E+02 -0.34774822874E+02  0.75934576407E+01  0.43400731955E+02  0.00000000000E+00 0.  1.
         11    1    3    3    0    0  0.16826352343E+02  0.15098915670E+02  0.29800609822E+01  0.22803160993E+02  0.51100000000E-03 0. -1.
        -11    1    3    3    0    0 -0.48729305817E+00  0.25649949428E+01 -0.40096470412E+01  0.47847594754E+01  0.51100000000E-03 0.  1.
         12    1    3    3    0    0  0.84938750838E+01  0.17110912262E+02 -0.65638715817E+01  0.20199347576E+02  0.00000000000E+00 0. -1.
</event>
<event>
 7    1  0.2700100E-010  0.4778727E+02  0.7816164E-02  0.1312668E+00
        -11   -1    0    0    0    0  0.00000000000E+00  0.00000000000E+00  0.45593999997E+02  0.45594000000E+02  0.51100000000E-03 0. -1.
         11   -1    0    0    0    0 -0.00000000000E+00 -0.00000000000E+00 -0.45593999997E+02  0.45594000000E+02  0.51100000000E-03 0.  1.
    9900012    2    1    2    0    0  0.75078992905E+01  0.39998010039E+02 -0.15080252565E+02  0.47787269864E+02  0.19999994620E+02 0.  0.
        -12    1    1    2    0    0 -0.75078992905E+01 -0.39998010039E+02  0.15080252565E+02  0.43400730136E+02  0.00000000000E+00 0.  1.
         11    1    3    3    0    0 -0.17829454306E+01  0.12807515999E+02  0.10934447001E+01  0.12977171573E+02  0.51100000000E-03 0. -1.
        -11    1    3    3    0    0  0.98242567642E+01  0.28091370727E+02 -0.15399544694E+02  0.33508015569E+02  0.51100000000E-03 0.  1.
        -12    1    3    3    0    0 -0.53341204313E+00 -0.90087668671E+00 -0.77415257138E+00  0.13020827225E+01  0.00000000000E+00 0.  1.
</event>
<event>
 7    1  0.2700100E-010  0.4778727E+02  0.7816164E-02  0.1312668E+00
        -11   -1    0    0    0    0  0.00000000000E+00  0.00000000000E+00  0.45593999997E+02  0.45594000000E+02  0.51100000000E-03 0. -1.
         11   -1    0    0    0    0 -0.00000000000E+00 -0.00000000000E+00 -0.45593999997E+02  0.45594000000E+02  0.51100000000E-03 0.  1.
    9900012    2    1    2    0    0  0.98621446705E+01 -0.32359792022E+02  0.27188326723E+02  0.47787272503E+02  0.20000006652E+02 0.  0.
        -12    1    1    2    0    0 -0.98621446705E+01  0.32359792022E+02 -0.27188326723E+02  0.43400727497E+02  0.00000000000E+00 0.  1.
         11    1    3    3    0    0  0.11910908106E+02 -0.12414871926E+02  0.16201804435E+02  0.23632546288E+02  0.51100000000E-03 0. -1.
        -11    1    3    3    0    0 -0.48903097427E+01 -0.11640291900E+02  0.52795953518E+01  0.13685234826E+02  0.51100000000E-03 0.  1.
        -12    1    3    3    0    0  0.28415463068E+01 -0.83046281967E+01  0.57069269362E+01  0.10469491389E+02  0.00000000000E+00 0.  1.
</event>
<event>
 7    1  0.2700100E-010  0.4778727E+02  0.7816164E-02  0.1312668E+00
        -11   -1    0    0    0    0  0.00000000000E+00  0.00000000000E+00  0.45593999997E+02  0.45594000000E+02  0.51100000000E-03 0. -1.
         11   -1    0    0    0    0 -0.00000000000E+00 -0.00000000000E+00 -0.45593999997E+02  0.45594000000E+02  0.51100000000E-03 0.  1.
    9900012    2    1    2    0    0  0.38673329601E+02  0.66974974468E+01 -0.18524044085E+02  0.47787273004E+02  0.20000008936E+02 0.  0.
        -12    1    1    2    0    0 -0.38673329601E+02 -0.66974974468E+01  0.18524044085E+02  0.43400726996E+02  0.00000000000E+00 0.  1.
         11    1    3    3    0    0  0.78006055588E+01  0.14190898594E+01  0.33799844611E+01  0.86190230497E+01  0.51100000000E-03 0. -1.
        -11    1    3    3    0    0  0.26726480858E+02  0.18597102380E+01 -0.16091609830E+02  0.31252251253E+02  0.51100000000E-03 0.  1.
         12    1    3    3    0    0  0.41462431844E+01  0.34186973494E+01 -0.58124187158E+01  0.79159987013E+01  0.00000000000E+00 0. -1.
</event>
<event>
 7    1  0.2700100E-010  0.4778727E+02  0.7816164E-02  0.1312668E+00
        -11   -1    0    0    0    0  0.00000000000E+00  0.00000000000E+00  0.45593999997E+02  0.45594000000E+02  0.51100000000E-03 0.  1.
         11   -1    0    0    0    0 -0.00000000000E+00 -0.00000000000E+00 -0.45593999997E+02  0.45594000000E+02  0.51100000000E-03 0. -1.
    9900012    2    1    2    0    0  0.15703047673E+02  0.15649749518E+02 -0.37311168376E+02  0.47787266691E+02  0.19999980151E+02 0.  0.
        -12    1    1    2    0    0 -0.15703047673E+02 -0.15649749518E+02  0.37311168376E+02  0.43400733309E+02  0.00000000000E+00 0.  1.
         11    1    3    3    0    0  0.82464075788E+01  0.12019473731E+01 -0.17472777007E+02  0.19358353547E+02  0.51100000000E-03 0. -1.
        -11    1    3    3    0    0  0.62818558644E+00  0.21252296579E+01  0.16298461811E+01  0.27509302181E+01  0.51100000000E-03 0.  1.
        -12    1    3    3    0    0  0.68284545075E+01  0.12322572487E+02 -0.21468237550E+02  0.25677982926E+02  0.00000000000E+00 0.  1.
</event>
<event>
 7    1  0.2700100E-010  0.4778728E+02  0.7816164E-02  0.1312668E+00
        -11   -1    0    0    0    0  0.00000000000E+00  0.00000000000E+00  0.45593999997E+02  0.45594000000E+02  0.51100000000E-03 0. -1.
         11   -1    0    0    0    0 -0.00000000000E+00 -0.00000000000E+00 -0.45593999997E+02  0.45594000000E+02  0.51100000000E-03 0.  1.
    9900012    2    1    2    0    0 -0.24199991339E+01  0.37320465630E+02  0.22021566183E+02  0.47787275031E+02  0.20000018178E+02 0.  0.
        -12    1    1    2    0    0  0.24199991339E+01 -0.37320465630E+02 -0.22021566183E+02  0.43400724969E+02  0.00000000000E+00 0.  1.
         11    1    3    3    0    0  0.53429893546E+01  0.60976825034E+01  0.36535628731E+01  0.88925693185E+01  0.51100000000E-03 0. -1.
        -11    1    3    3    0    0  0.21193807794E+01  0.13180329121E+01  0.12833612360E+00  0.24990910482E+01  0.51100000000E-03 0.  1.
         12    1    3    3    0    0 -0.98823692680E+01  0.29904750215E+02  0.18239667186E+02  0.36395614665E+02  0.00000000000E+00 0. -1.
</event>
<event>
 7    1  0.2700100E-010  0.4778727E+02  0.7816164E-02  0.1312668E+00
        -11   -1    0    0    0    0  0.00000000000E+00  0.00000000000E+00  0.45593999997E+02  0.45594000000E+02  0.51100000000E-03 0.  1.
         11   -1    0    0    0    0 -0.00000000000E+00 -0.00000000000E+00 -0.45593999997E+02  0.45594000000E+02  0.51100000000E-03 0. -1.
    9900012    2    1    2    0    0  0.27893745197E+02 -0.25296089478E+02 -0.21579394505E+02  0.47787269231E+02  0.19999991734E+02 0.  0.
        -12    1    1    2    0    0 -0.27893745197E+02  0.25296089478E+02  0.21579394505E+02  0.43400730769E+02  0.00000000000E+00 0.  1.
         11    1    3    3    0    0  0.21088170138E+02 -0.19762678439E+02 -0.24219615758E+02  0.37707614173E+02  0.51100000000E-03 0. -1.
        -11    1    3    3    0    0  0.67107693139E+01 -0.51567411860E+01  0.11516412916E+01  0.85412342416E+01  0.51100000000E-03 0.  1.
         12    1    3    3    0    0  0.94805745640E-01 -0.37666985324E+00  0.14885799617E+01  0.15384208170E+01  0.00000000000E+00 0. -1.
</event>
<event>
 7    1  0.2700100E-010  0.4778727E+02  0.7816164E-02  0.1312668E+00
        -11   -1    0    0    0    0  0.00000000000E+00  0.00000000000E+00  0.45593999997E+02  0.45594000000E+02  0.51100000000E-03 0.  1.
         11   -1    0    0    0    0 -0.00000000000E+00 -0.00000000000E+00 -0.45593999997E+02  0.45594000000E+02  0.51100000000E-03 0. -1.
    9900012    2    1    2    0    0 -0.18411180971E+02  0.30008009271E+02 -0.25380521559E+02  0.47787273281E+02  0.20000010196E+02 0.  0.
        -12    1    1    2    0    0  0.18411180971E+02 -0.30008009271E+02  0.25380521559E+02  0.43400726719E+02  0.00000000000E+00 0.  1.
         11    1    3    3    0    0 -0.13598856063E+02  0.22096547457E+02 -0.11858723644E+02  0.28527453838E+02  0.51100000000E-03 0. -1.
        -11    1    3    3    0    0 -0.29575615949E+01 -0.96598204144E+00 -0.81393314578E+01  0.87137253074E+01  0.51100000000E-03 0.  1.
        -12    1    3    3    0    0 -0.18547633135E+01  0.88774438558E+01 -0.53824664566E+01  0.10546094136E+02  0.00000000000E+00 0.  1.
</event>
<event>
 7    1  0.2700100E-010  0.4778727E+02  0.7816164E-02  0.1312668E+00
        -11   -1    0    0    0    0  0.00000000000E+00  0.00000000000E+00  0.45593999997E+02  0.45594000000E+02  0.51100000000E-03 0.  1.
         11   -1    0    0    0    0 -0.00000000000E+00 -0.00000000000E+00 -0.45593999997E+02  0.45594000000E+02  0.51100000000E-03 0. -1.
    9900012    2    1    2    0    0  0.33328438906E+02  0.17242530347E+02 -0.21806730740E+02  0.47787271916E+02  0.20000003974E+02 0.  0.
        -12    1    1    2    0    0 -0.33328438906E+02 -0.17242530347E+02  0.21806730740E+02  0.43400728084E+02  0.00000000000E+00 0.  1.
         11    1    3    3    0    0  0.10083074722E+02  0.55414256084E+01 -0.44128810602E+01  0.12322715331E+02  0.51100000000E-03 0. -1.
        -11    1    3    3    0    0  0.57232175326E+01  0.11815799113E+02 -0.97194882275E+01  0.16335139402E+02  0.51100000000E-03 0.  1.
        -12    1    3    3    0    0  0.17522146651E+02 -0.11469437437E+00 -0.76743614523E+01  0.19129417183E+02  0.00000000000E+00 0.  1.
</event>
<event>
 7    1  0.2700100E-010  0.4778727E+02  0.7816164E-02  0.1312668E+00
        -11   -1    0    0    0    0  0.00000000000E+00  0.00000000000E+00  0.45593999997E+02  0.45594000000E+02  0.51100000000E-03 0.  1.
         11   -1    0    0    0    0 -0.00000000000E+00 -0.00000000000E+00 -0.45593999997E+02  0.45594000000E+02  0.51100000000E-03 0. -1.
    9900012    2    1    2    0    0  0.15308566151E+02 -0.20818149430E+02 -0.34869411747E+02  0.47787269374E+02  0.19999992382E+02 0.  0.
        -12    1    1    2    0    0 -0.15308566151E+02  0.20818149430E+02  0.34869411747E+02  0.43400730626E+02  0.00000000000E+00 0.  1.
         11    1    3    3    0    0 -0.19006321076E+00  0.23474456475E+01 -0.10504744815E+02  0.10765513874E+02  0.51100000000E-03 0. -1.
        -11    1    3    3    0    0  0.10688358830E+02 -0.16179331580E+02 -0.16799469815E+02  0.25656070845E+02  0.51100000000E-03 0.  1.
         12    1    3    3    0    0  0.48102705319E+01 -0.69862634974E+01 -0.75651971171E+01  0.11365684655E+02  0.00000000000E+00 0. -1.
</event>
<event>
 7    1  0.2700100E-010  0.4778727E+02  0.7816164E-02  0.1312668E+00
        -11   -1    0    0    0    0  0.00000000000E+00  0.00000000000E+00  0.45593999997E+02  0.45594000000E+02  0.51100000000E-03 0. -1.
         11   -1    0    0    0    0 -0.00000000000E+00 -0.00000000000E+00 -0.45593999997E+02  0.45594000000E+02  0.51100000000E-03 0.  1.
    9900012    2    1    2    0    0 -0.33140403538E+02 -0.15387486503E+02  0.23421405914E+02  0.47787270254E+02  0.19999996394E+02 0.  0.
        -12    1    1    2    0    0  0.33140403538E+02  0.15387486503E+02 -0.23421405914E+02  0.43400729746E+02  0.00000000000E+00 0.  1.
         11    1    3    3    0    0 -0.71351561765E+01 -0.85218267499E+01  0.16002139577E+02  0.19483337910E+02  0.51100000000E-03 0. -1.
        -11    1    3    3    0    0 -0.17448354560E+02 -0.68747642092E+01  0.53034714226E+01  0.19489337320E+02  0.51100000000E-03 0.  1.
         12    1    3    3    0    0 -0.85568928008E+01  0.91044559620E-02  0.21157949144E+01  0.88145950228E+01  0.00000000000E+00 0. -1.
</event>
<event>
 7    1  0.2700100E-010  0.4778727E+02  0.7816164E-02  0.1312668E+00
        -11   -1    0    0    0    0  0.00000000000E+00  0.00000000000E+00  0.45593999997E+02  0.45594000000E+02  0.51100000000E-03 0.  1.
         11   -1    0    0    0    0 -0.00000000000E+00 -0.00000000000E+00 -0.45593999997E+02  0.45594000000E+02  0.51100000000E-03 0. -1.
    9900012    2    1    2    0    0 -0.15892441245E+02 -0.16025420145E+02 -0.37070732156E+02  0.47787274636E+02  0.20000016376E+02 0.  0.
        -12    1    1    2    0    0  0.15892441245E+02  0.16025420145E+02  0.37070732156E+02  0.43400725364E+02  0.00000000000E+00 0.  1.
         11    1    3    3    0    0 -0.48849206654E+01 -0.14006103552E+02 -0.30873397369E+02  0.34252007999E+02  0.51100000000E-03 0. -1.
        -11    1    3    3    0    0 -0.97244829833E+01 -0.79004617988E+00 -0.65128437297E+01  0.11730595721E+02  0.51100000000E-03 0.  1.
         12    1    3    3    0    0 -0.12830375962E+01 -0.12292704138E+01  0.31550894268E+00  0.18046709164E+01  0.00000000000E+00 0. -1.
</event>
<event>
 7    1  0.2700100E-010  0.4778727E+02  0.7816164E-02  0.1312668E+00
        -11   -1    0    0    0    0  0.00000000000E+00  0.00000000000E+00  0.45593999997E+02  0.45594000000E+02  0.51100000000E-03 0.  1.
         11   -1    0    0    0    0 -0.00000000000E+00 -0.00000000000E+00 -0.45593999997E+02  0.45594000000E+02  0.51100000000E-03 0. -1.
    9900012    2    1    2    0    0  0.27276407924E+01 -0.17142695921E+02 -0.39778273501E+02  0.47787273158E+02  0.20000009636E+02 0.  0.
        -12    1    1    2    0    0 -0.27276407924E+01  0.17142695921E+02  0.39778273501E+02  0.43400726842E+02  0.00000000000E+00 0.  1.
         11    1    3    3    0    0 -0.62839688791E+00 -0.58480048454E+01 -0.46449359953E+01  0.74946296761E+01  0.51100000000E-03 0. -1.
        -11    1    3    3    0    0 -0.41198955234E+01 -0.11242424064E+02 -0.24791754204E+02  0.27531740133E+02  0.51100000000E-03 0.  1.
        -12    1    3    3    0    0  0.74759332037E+01 -0.52267011425E-01 -0.10341583301E+02  0.12760903349E+02  0.00000000000E+00 0.  1.
</event>
<event>
 7    1  0.2700100E-010  0.4778727E+02  0.7816164E-02  0.1312668E+00
        -11   -1    0    0    0    0  0.00000000000E+00  0.00000000000E+00  0.45593999997E+02  0.45594000000E+02  0.51100000000E-03 0. -1.
         11   -1    0    0    0    0 -0.00000000000E+00 -0.00000000000E+00 -0.45593999997E+02  0.45594000000E+02  0.51100000000E-03 0.  1.
    9900012    2    1    2    0    0 -0.11774209403E+02  0.35843790845E+02  0.21452595781E+02  0.47787271723E+02  0.20000003093E+02 0.  0.
        -12    1    1    2    0    0  0.11774209403E+02 -0.35843790845E+02 -0.21452595781E+02  0.43400728277E+02  0.00000000000E+00 0.  1.
         11    1    3    3    0    0 -0.18940295609E+01  0.30904377924E+02  0.13946339471E+02  0.33958331934E+02  0.51100000000E-03 0. -1.
        -11    1    3    3    0    0 -0.75690616281E+01  0.43509417782E+01  0.73950109097E+01  0.11441484821E+02  0.51100000000E-03 0.  1.
         12    1    3    3    0    0 -0.23111182140E+01  0.58847114370E+00  0.11124540050E+00  0.23874549682E+01  0.00000000000E+00 0. -1.
</event>
<event>
 7    1  0.2700100E-010  0.4778728E+02  0.7816164E-02  0.1312668E+00
        -11   -1    0    0    0    0  0.00000000000E+00  0.00000000000E+00  0.45593999997E+02  0.45594000000E+02  0.51100000000E-03 0. -1.
         11   -1    0    0    0    0 -0.00000000000E+00 -0.00000000000E+00 -0.45593999997E+02  0.45594000000E+02  0.51100000000E-03 0.  1.
    9900012    2    1    2    0    0  0.30083888694E+02 -0.31223626787E+02 -0.19150626469E+01  0.47787277729E+02  0.20000030477E+02 0.  0.
        -12    1    1    2    0    0 -0.30083888694E+02  0.31223626787E+02  0.19150626469E+01  0.43400722271E+02  0.00000000000E+00 0.  1.
         11    1    3    3    0    0 -0.27102681743E-01 -0.87961462605E+00 -0.12927165273E+01  0.15638327042E+01  0.51100000000E-03 0. -1.
        -11    1    3    3    0    0  0.15156425283E+02 -0.26492389707E+02  0.18801535769E+01  0.30579387134E+02  0.51100000000E-03 0.  1.
        -12    1    3    3    0    0  0.14954566093E+02 -0.38516224541E+01 -0.25024996965E+01  0.15644057891E+02  0.00000000000E+00 0.  1.
</event>
<event>
 7    1  0.2700100E-010  0.4778727E+02  0.7816164E-02  0.1312668E+00
        -11   -1    0    0    0    0  0.00000000000E+00  0.00000000000E+00  0.45593999997E+02  0.45594000000E+02  0.51100000000E-03 0.  1.
         11   -1    0    0    0    0 -0.00000000000E+00 -0.00000000000E+00 -0.45593999997E+02  0.45594000000E+02  0.51100000000E-03 0. -1.
    9900012    2    1    2    0    0 -0.21552178517E+02  0.19154804103E+02 -0.32437945896E+02  0.47787271285E+02  0.20000001097E+02 0.  0.
        -12    1    1    2    0    0  0.21552178517E+02 -0.19154804103E+02  0.32437945896E+02  0.43400728715E+02  0.00000000000E+00 0.  1.
         11    1    3    3    0    0  0.30345167115E+01  0.68377534086E+01 -0.69499543132E+01  0.10211024854E+02  0.51100000000E-03 0. -1.
        -11    1    3    3    0    0 -0.18094474392E+02  0.78177232139E+01 -0.18292270588E+02  0.26891150278E+02  0.51100000000E-03 0.  1.
        -12    1    3    3    0    0 -0.64922208361E+01  0.44993274805E+01 -0.71957209952E+01  0.10685096153E+02  0.00000000000E+00 0.  1.
</event>
<event>
 7    1  0.2700100E-010  0.4778727E+02  0.7816164E-02  0.1312668E+00
        -11   -1    0    0    0    0  0.00000000000E+00  0.00000000000E+00  0.45593999997E+02  0.45594000000E+02  0.51100000000E-03 0.  1.
         11   -1    0    0    0    0 -0.00000000000E+00 -0.00000000000E+00 -0.45593999997E+02  0.45594000000E+02  0.51100000000E-03 0. -1.
    9900012    2    1    2    0    0 -0.31976987395E+02  0.12596659261E+02 -0.26503205705E+02  0.47787268900E+02  0.19999990221E+02 0.  0.
        -12    1    1    2    0    0  0.31976987395E+02 -0.12596659261E+02  0.26503205705E+02  0.43400731100E+02  0.00000000000E+00 0.  1.
         11    1    3    3    0    0 -0.64879727393E+01  0.16381250805E+01  0.22023448750E+01  0.70446836164E+01  0.51100000000E-03 0. -1.
        -11    1    3    3    0    0 -0.42469441674E+01 -0.80583976880E-01 -0.15016859914E+01  0.45053401221E+01  0.51100000000E-03 0.  1.
         12    1    3    3    0    0 -0.21242070488E+02  0.11039118157E+02 -0.27203864588E+02  0.36237245161E+02  0.00000000000E+00 0. -1.
</event>
<event>
 7    1  0.2700100E-010  0.4778726E+02  0.7816164E-02  0.1312668E+00
        -11   -1    0    0    0    0  0.00000000000E+00  0.00000000000E+00  0.45593999997E+02  0.45594000000E+02  0.51100000000E-03 0. -1.
         11   -1    0    0    0    0 -0.00000000000E+00 -0.00000000000E+00 -0.45593999997E+02  0.45594000000E+02  0.51100000000E-03 0.  1.
    9900012    2    1    2    0    0 -0.30235301240E+02 -0.29596967542E+02 -0.96679825873E+01  0.47787264799E+02  0.19999971523E+02 0.  0.
        -12    1    1    2    0    0  0.30235301240E+02  0.29596967542E+02  0.96679825873E+01  0.43400735201E+02  0.00000000000E+00 0.  1.
         11    1    3    3    0    0 -0.18407707977E+02 -0.25723044197E+02 -0.11377293101E+02  0.33614900182E+02  0.51100000000E-03 0. -1.
        -11    1    3    3    0    0 -0.83829542664E+01  0.40383073218E+00 -0.89191835368E-01  0.83931494051E+01  0.51100000000E-03 0.  1.
        -12    1    3    3    0    0 -0.34446389963E+01 -0.42777540770E+01  0.17985023486E+01  0.57792152110E+01  0.00000000000E+00 0.  1.
</event>
<event>
 7    1  0.2700100E-010  0.4778727E+02  0.7816164E-02  0.1312668E+00
        -11   -1    0    0    0    0  0.00000000000E+00  0.00000000000E+00  0.45593999997E+02  0.45594000000E+02  0.51100000000E-03 0.  1.
         11   -1    0    0    0    0 -0.00000000000E+00 -0.00000000000E+00 -0.45593999997E+02  0.45594000000E+02  0.51100000000E-03 0. -1.
    9900012    2    1    2    0    0 -0.26187068558E+02  0.27738343784E+02 -0.20698912831E+02  0.47787271113E+02  0.20000000312E+02 0.  0.
        -12    1    1    2    0    0  0.26187068558E+02 -0.27738343784E+02  0.20698912831E+02  0.43400728887E+02  0.00000000000E+00 0.  1.
         11    1    3    3    0    0 -0.16695869720E+02  0.10679089147E+02 -0.16146709857E+02  0.25563866104E+02  0.51100000000E-03 0. -1.
        -11    1    3    3    0    0 -0.87641917933E+01  0.18041411683E+02 -0.30517736762E+01  0.20288344342E+02  0.51100000000E-03 0.  1.
         12    1    3    3    0    0 -0.72700704420E+00 -0.98215704613E+00 -0.15004292985E+01  0.19350606671E+01  0.00000000000E+00 0. -1.
</event>
<event>
 7    1  0.2700100E-010  0.4778727E+02  0.7816164E-02  0.1312668E+00
        -11   -1    0    0    0    0  0.00000000000E+00  0.00000000000E+00  0.45593999997E+02  0.45594000000E+02  0.51100000000E-03 0. -1.
         11   -1    0    0    0    0 -0.00000000000E+00 -0.00000000000E+00 -0.45593999997E+02  0.45594000000E+02  0.51100000000E-03 0.  1.
    9900012    2    1    2    0    0  0.43391939949E+02 -0.37111018762E-01 -0.87243072915E+00  0.47787274602E+02  0.20000016219E+02 0.  0.
        -12    1    1    2    0    0 -0.43391939949E+02  0.37111018762E-01  0.87243072915E+00  0.43400725398E+02  0.00000000000E+00 0.  1.
         11    1    3    3    0    0  0.78781435631E+01  0.39537451716E+01 -0.44321507373E+01  0.98661647717E+01  0.51100000000E-03 0. -1.
        -11    1    3    3    0    0  0.11802009371E+02 -0.14366548196E+01  0.70437057406E+01  0.13819015634E+02  0.51100000000E-03 0.  1.
        -12    1    3    3    0    0  0.23711787014E+02 -0.25542013707E+01 -0.34839857324E+01  0.24102094196E+02  0.00000000000E+00 0.  1.
</event>
<event>
 7    1  0.2700100E-010  0.4778727E+02  0.7816164E-02  0.1312668E+00
        -11   -1    0    0    0    0  0.00000000000E+00  0.00000000000E+00  0.45593999997E+02  0.45594000000E+02  0.51100000000E-03 0.  1.
         11   -1    0    0    0    0 -0.00000000000E+00 -0.00000000000E+00 -0.45593999997E+02  0.45594000000E+02  0.51100000000E-03 0. -1.
    9900012    2    1    2    0    0  0.75905424129E+01  0.30131173929E+02 -0.30300481153E+02  0.47787272650E+02  0.20000007319E+02 0.  0.
        -12    1    1    2    0    0 -0.75905424129E+01 -0.30131173929E+02  0.30300481153E+02  0.43400727350E+02  0.00000000000E+00 0.  1.
         11    1    3    3    0    0 -0.23970382095E+01  0.12534095745E+02 -0.16673229665E+02  0.20996331490E+02  0.51100000000E-03 0. -1.
        -11    1    3    3    0    0  0.97343855713E+01  0.59360579855E+01 -0.68582758868E+01  0.13305299518E+02  0.51100000000E-03 0.  1.
        -12    1    3    3    0    0  0.25319505120E+00  0.11661020199E+02 -0.67689756008E+01  0.13485641642E+02  0.00000000000E+00 0.  1.
</event>
<event>
 7    1  0.2700100E-010  0.4778727E+02  0.7816164E-02  0.1312668E+00
        -11   -1    0    0    0    0  0.00000000000E+00  0.00000000000E+00  0.45593999997E+02  0.45594000000E+02  0.51100000000E-03 0.  1.
         11   -1    0    0    0    0 -0.00000000000E+00 -0.00000000000E+00 -0.45593999997E+02  0.45594000000E+02  0.51100000000E-03 0. -1.
    9900012    2    1    2    0    0 -0.40782776153E+02  0.58785872388E+01  0.13631974677E+02  0.47787270141E+02  0.19999995881E+02 0.  0.
        -12    1    1    2    0    0  0.40782776153E+02 -0.58785872388E+01 -0.13631974677E+02  0.43400729859E+02  0.00000000000E+00 0.  1.
         11    1    3    3    0    0 -0.99296700901E+01  0.43122261747E+01 -0.45617572936E+01  0.11747479413E+02  0.51100000000E-03 0. -1.
        -11    1    3    3    0    0 -0.18293976117E+02  0.22401560537E+01  0.12238601762E+02  0.22123996806E+02  0.51100000000E-03 0.  1.
         12    1    3    3    0    0 -0.12559129946E+02 -0.67379498954E+00  0.59551302088E+01  0.13915793923E+02  0.00000000000E+00 0. -1.
</event>
<event>
 7    1  0.2700100E-010  0.4778727E+02  0.7816164E-02  0.1312668E+00
        -11   -1    0    0    0    0  0.00000000000E+00  0.00000000000E+00  0.45593999997E+02  0.45594000000E+02  0.51100000000E-03 0.  1.
         11   -1    0    0    0    0 -0.00000000000E+00 -0.00000000000E+00 -0.45593999997E+02  0.45594000000E+02  0.51100000000E-03 0. -1.
    9900012    2    1    2    0    0 -0.15684489784E+01  0.43073945205E+02  0.50792088525E+01  0.47787272468E+02  0.20000006490E+02 0.  0.
        -12    1    1    2    0    0  0.15684489784E+01 -0.43073945205E+02 -0.50792088525E+01  0.43400727532E+02  0.00000000000E+00 0.  1.
         11    1    3    3    0    0 -0.12922086271E+01  0.13395739620E+02  0.63072319129E+01  0.14862597948E+02  0.51100000000E-03 0. -1.
        -11    1    3    3    0    0 -0.18219097864E+01  0.10072942364E+02 -0.70331331783E+01  0.12419681385E+02  0.51100000000E-03 0.  1.
        -12    1    3    3    0    0  0.15456694350E+01  0.19605263221E+02  0.58051101180E+01  0.20504993134E+02  0.00000000000E+00 0.  1.
</event>
<event>
 7    1  0.2700100E-010  0.4778727E+02  0.7816164E-02  0.1312668E+00
        -11   -1    0    0    0    0  0.00000000000E+00  0.00000000000E+00  0.45593999997E+02  0.45594000000E+02  0.51100000000E-03 0.  1.
         11   -1    0    0    0    0 -0.00000000000E+00 -0.00000000000E+00 -0.45593999997E+02  0.45594000000E+02  0.51100000000E-03 0. -1.
    9900012    2    1    2    0    0 -0.30601549097E+02 -0.56101787073E+01 -0.30260440956E+02  0.47787271906E+02  0.20000003928E+02 0.  0.
        -12    1    1    2    0    0  0.30601549097E+02  0.56101787073E+01  0.30260440956E+02  0.43400728094E+02  0.00000000000E+00 0.  1.
         11    1    3    3    0    0 -0.15121906276E+02 -0.32778619082E+01 -0.14604797525E+02  0.21277136535E+02  0.51100000000E-03 0. -1.
        -11    1    3    3    0    0 -0.59029855478E+01  0.59456527459E+01 -0.39256698943E+01  0.92524001930E+01  0.51100000000E-03 0.  1.
        -12    1    3    3    0    0 -0.95766572735E+01 -0.82779695450E+01 -0.11729973536E+02  0.17257735178E+02  0.00000000000E+00 0.  1.
</event>
<event>
 7    1  0.2700100E-010  0.4778727E+02  0.7816164E-02  0.1312668E+00
        -11   -1    0    0    0    0  0.00000000000E+00  0.00000000000E+00  0.45593999997E+02  0.45594000000E+02  0.51100000000E-03 0. -1.
         11   -1    0    0    0    0 -0.00000000000E+00 -0.00000000000E+00 -0.45593999997E+02  0.45594000000E+02  0.51100000000E-03 0.  1.
    9900012    2    1    2    0    0  0.37038216031E+02  0.12280603623E+02  0.18999492011E+02  0.47787269951E+02  0.19999995016E+02 0.  0.
        -12    1    1    2    0    0 -0.37038216031E+02 -0.12280603623E+02 -0.18999492011E+02  0.43400730049E+02  0.00000000000E+00 0.  1.
         11    1    3    3    0    0  0.67127349367E+01  0.30253663081E+01  0.10445923315E+01  0.74367213897E+01  0.51100000000E-03 0.  1.
        -11    1    3    3    0    0  0.27747829978E+02  0.52407912866E+01  0.80609003525E+01  0.29366410686E+02  0.51100000000E-03 0. -1.
        -12    1    3    3    0    0  0.25776511157E+01  0.40144460281E+01  0.98939993274E+01  0.10984137876E+02  0.00000000000E+00 0.  1.
</event>
<event>
 7    1  0.2700100E-010  0.4778727E+02  0.7816164E-02  0.1312668E+00
        -11   -1    0    0    0    0  0.00000000000E+00  0.00000000000E+00  0.45593999997E+02  0.45594000000E+02  0.51100000000E-03 0.  1.
         11   -1    0    0    0    0 -0.00000000000E+00 -0.00000000000E+00 -0.45593999997E+02  0.45594000000E+02  0.51100000000E-03 0. -1.
    9900012    2    1    2    0    0  0.16698343533E+02 -0.15324359458E+02 -0.37012872485E+02  0.47787269601E+02  0.19999993420E+02 0.  0.
        -12    1    1    2    0    0 -0.16698343533E+02  0.15324359458E+02  0.37012872485E+02  0.43400730399E+02  0.00000000000E+00 0.  1.
         11    1    3    3    0    0  0.16517022771E+02 -0.81356580775E+01 -0.28413087090E+02  0.33857118776E+02  0.51100000000E-03 0. -1.
        -11    1    3    3    0    0 -0.24726766114E+01 -0.72913682629E+01 -0.81934671343E+01  0.11243268418E+02  0.51100000000E-03 0.  1.
        -12    1    3    3    0    0  0.26539973725E+01  0.10266688206E+00 -0.40631826122E+00  0.26868824075E+01  0.00000000000E+00 0.  1.
</event>
<event>
 7    1  0.2700100E-010  0.4778727E+02  0.7816164E-02  0.1312668E+00
        -11   -1    0    0    0    0  0.00000000000E+00  0.00000000000E+00  0.45593999997E+02  0.45594000000E+02  0.51100000000E-03 0. -1.
         11   -1    0    0    0    0 -0.00000000000E+00 -0.00000000000E+00 -0.45593999997E+02  0.45594000000E+02  0.51100000000E-03 0.  1.
    9900012    2    1    2    0    0 -0.39784658032E+02  0.97280382676E+01  0.14358601585E+02  0.47787272094E+02  0.20000004785E+02 0.  0.
        -12    1    1    2    0    0  0.39784658032E+02 -0.97280382676E+01 -0.14358601585E+02  0.43400727906E+02  0.00000000000E+00 0.  1.
         11    1    3    3    0    0 -0.19797468635E+02  0.64210425588E+01  0.87588923853E+01  0.22580694143E+02  0.51100000000E-03 0. -1.
        -11    1    3    3    0    0  0.20999734944E+01  0.17116992104E+00  0.13340329939E+01  0.24937586308E+01  0.51100000000E-03 0.  1.
        -12    1    3    3    0    0 -0.22087162892E+02  0.31358257877E+01  0.42656762063E+01  0.22712819320E+02  0.00000000000E+00 0.  1.
</event>
<event>
 7    1  0.2700100E-010  0.4778726E+02  0.7816164E-02  0.1312668E+00
        -11   -1    0    0    0    0  0.00000000000E+00  0.00000000000E+00  0.45593999997E+02  0.45594000000E+02  0.51100000000E-03 0.  1.
         11   -1    0    0    0    0 -0.00000000000E+00 -0.00000000000E+00 -0.45593999997E+02  0.45594000000E+02  0.51100000000E-03 0. -1.
    9900012    2    1    2    0    0 -0.61559550699E+00  0.38092269861E+02 -0.20789996527E+02  0.47787263410E+02  0.19999965190E+02 0.  0.
        -12    1    1    2    0    0  0.61559550699E+00 -0.38092269861E+02  0.20789996527E+02  0.43400736590E+02  0.00000000000E+00 0.  1.
         11    1    3    3    0    0  0.75341064698E+00  0.57087316148E+00 -0.23694106034E+01  0.25510058091E+01  0.51100000000E-03 0. -1.
        -11    1    3    3    0    0 -0.93131578879E+01  0.21615715473E+02 -0.10480712048E+02  0.25764692712E+02  0.51100000000E-03 0.  1.
        -12    1    3    3    0    0  0.79441517339E+01  0.15905681226E+02 -0.79398738757E+01  0.19471564889E+02  0.00000000000E+00 0.  1.
</event>
<event>
 7    1  0.2700100E-010  0.4778727E+02  0.7816164E-02  0.1312668E+00
        -11   -1    0    0    0    0  0.00000000000E+00  0.00000000000E+00  0.45593999997E+02  0.45594000000E+02  0.51100000000E-03 0.  1.
         11   -1    0    0    0    0 -0.00000000000E+00 -0.00000000000E+00 -0.45593999997E+02  0.45594000000E+02  0.51100000000E-03 0. -1.
    9900012    2    1    2    0    0  0.32393304363E+02  0.13784209046E+02 -0.25382922705E+02  0.47787270149E+02  0.19999995917E+02 0.  0.
        -12    1    1    2    0    0 -0.32393304363E+02 -0.13784209046E+02  0.25382922705E+02  0.43400729851E+02  0.00000000000E+00 0.  1.
         11    1    3    3    0    0  0.52670360391E+01 -0.41048004952E+01 -0.39390542961E+01  0.77528836410E+01  0.51100000000E-03 0. -1.
        -11    1    3    3    0    0  0.65069253212E+01  0.78717972052E+01 -0.30956621548E+01  0.10671850487E+02  0.51100000000E-03 0.  1.
         12    1    3    3    0    0  0.20619343003E+02  0.10017212336E+02 -0.18348206254E+02  0.29362536021E+02  0.00000000000E+00 0. -1.
</event>
<event>
 7    1  0.2700100E-010  0.4778728E+02  0.7816164E-02  0.1312668E+00
        -11   -1    0    0    0    0  0.00000000000E+00  0.00000000000E+00  0.45593999997E+02  0.45594000000E+02  0.51100000000E-03 0.  1.
         11   -1    0    0    0    0 -0.00000000000E+00 -0.00000000000E+00 -0.45593999997E+02  0.45594000000E+02  0.51100000000E-03 0. -1.
    9900012    2    1    2    0    0 -0.23655449958E+02 -0.45564845763E+01 -0.36100982068E+02  0.47787276841E+02  0.20000026429E+02 0.  0.
        -12    1    1    2    0    0  0.23655449958E+02  0.45564845763E+01  0.36100982068E+02  0.43400723159E+02  0.00000000000E+00 0.  1.
         11    1    3    3    0    0 -0.11600451097E+02  0.31865758428E+01 -0.19601863008E+02  0.22999081827E+02  0.51100000000E-03 0. -1.
        -11    1    3    3    0    0 -0.20328192332E+01 -0.63524728697E+01 -0.17386573429E+01  0.68926914345E+01  0.51100000000E-03 0.  1.
        -12    1    3    3    0    0 -0.10022179628E+02 -0.13905875494E+01 -0.14760461718E+02  0.17895503580E+02  0.00000000000E+00 0.  1.
</event>
<event>
 7    1  0.2700100E-010  0.4778727E+02  0.7816164E-02  0.1312668E+00
        -11   -1    0    0    0    0  0.00000000000E+00  0.00000000000E+00  0.45593999997E+02  0.45594000000E+02  0.51100000000E-03 0.  1.
         11   -1    0    0    0    0 -0.00000000000E+00 -0.00000000000E+00 -0.45593999997E+02  0.45594000000E+02  0.51100000000E-03 0. -1.
    9900012    2    1    2    0    0  0.68092308678E+01 -0.96843959249E+01 -0.41754882787E+02  0.47787269753E+02  0.19999994111E+02 0.  0.
        -12    1    1    2    0    0 -0.68092308678E+01  0.96843959249E+01  0.41754882787E+02  0.43400730247E+02  0.00000000000E+00 0.  1.
         11    1    3    3    0    0  0.45481202162E+01  0.53560448061E+01 -0.10471551192E+02  0.12610551062E+02  0.51100000000E-03 0. -1.
        -11    1    3    3    0    0  0.89335918391E+00 -0.18953386912E+01 -0.14529536034E+01  0.25497987804E+01  0.51100000000E-03 0.  1.
         12    1    3    3    0    0  0.13677514677E+01 -0.13145102040E+02 -0.29830377991E+02  0.32626919910E+02  0.00000000000E+00 0. -1.
</event>
<event>
 7    1  0.2700100E-010  0.4778727E+02  0.7816164E-02  0.1312668E+00
        -11   -1    0    0    0    0  0.00000000000E+00  0.00000000000E+00  0.45593999997E+02  0.45594000000E+02  0.51100000000E-03 0.  1.
         11   -1    0    0    0    0 -0.00000000000E+00 -0.00000000000E+00 -0.45593999997E+02  0.45594000000E+02  0.51100000000E-03 0. -1.
    9900012    2    1    2    0    0 -0.35924263624E+02  0.17957944541E+02 -0.16449415413E+02  0.47787265484E+02  0.19999974649E+02 0.  0.
        -12    1    1    2    0    0  0.35924263624E+02 -0.17957944541E+02  0.16449415413E+02  0.43400734516E+02  0.00000000000E+00 0.  1.
         11    1    3    3    0    0 -0.15253084409E+02 -0.20143108408E+00 -0.78257648073E+01  0.17144671288E+02  0.51100000000E-03 0. -1.
        -11    1    3    3    0    0 -0.21300638852E+02  0.18864600445E+02 -0.82400036586E+01  0.29622424377E+02  0.51100000000E-03 0.  1.
        -12    1    3    3    0    0  0.62945963662E+00 -0.70522481978E+00 -0.38364694706E+00  0.10201698195E+01  0.00000000000E+00 0.  1.
</event>
<event>
 7    1  0.2700100E-010  0.4778727E+02  0.7816164E-02  0.1312668E+00
        -11   -1    0    0    0    0  0.00000000000E+00  0.00000000000E+00  0.45593999997E+02  0.45594000000E+02  0.51100000000E-03 0. -1.
         11   -1    0    0    0    0 -0.00000000000E+00 -0.00000000000E+00 -0.45593999997E+02  0.45594000000E+02  0.51100000000E-03 0.  1.
    9900012    2    1    2    0    0 -0.39458678162E+02  0.17773675249E+02 -0.32760112165E+01  0.47787273467E+02  0.20000011044E+02 0.  0.
        -12    1    1    2    0    0  0.39458678162E+02 -0.17773675249E+02  0.32760112165E+01  0.43400726533E+02  0.00000000000E+00 0.  1.
         11    1    3    3    0    0 -0.14560754021E+02  0.52640767037E+01 -0.89993416123E+01  0.17908495496E+02  0.51100000000E-03 0. -1.
        -11    1    3    3    0    0 -0.91136133815E+01  0.38086228672E+01  0.65237957460E+01  0.11837375900E+02  0.51100000000E-03 0.  1.
         12    1    3    3    0    0 -0.15784310759E+02  0.87009756778E+01 -0.80046535022E+00  0.18041402071E+02  0.00000000000E+00 0. -1.
</event>
<event>
 7    1  0.2700100E-010  0.4778728E+02  0.7816164E-02  0.1312668E+00
        -11   -1    0    0    0    0  0.00000000000E+00  0.00000000000E+00  0.45593999997E+02  0.45594000000E+02  0.51100000000E-03 0.  1.
         11   -1    0    0    0    0 -0.00000000000E+00 -0.00000000000E+00 -0.45593999997E+02  0.45594000000E+02  0.51100000000E-03 0. -1.
    9900012    2    1    2    0    0 -0.10707153320E+02  0.13683665049E+02 -0.39771054160E+02  0.47787279149E+02  0.20000036951E+02 0.  0.
        -12    1    1    2    0    0  0.10707153320E+02 -0.13683665049E+02  0.39771054160E+02  0.43400720851E+02  0.00000000000E+00 0.  1.
         11    1    3    3    0    0 -0.97673064620E+01  0.35237049502E+01 -0.21402984176E+02  0.23788747424E+02  0.51100000000E-03 0. -1.
        -11    1    3    3    0    0 -0.40856523419E-01  0.73080061652E+01 -0.23101433442E+01  0.76645538616E+01  0.51100000000E-03 0.  1.
        -12    1    3    3    0    0 -0.89899033444E+00  0.28519539337E+01 -0.16057926640E+02  0.16333977863E+02  0.00000000000E+00 0.  1.
</event>
<event>
 7    1  0.2700100E-010  0.4778727E+02  0.7816164E-02  0.1312668E+00
        -11   -1    0    0    0    0  0.00000000000E+00  0.00000000000E+00  0.45593999997E+02  0.45594000000E+02  0.51100000000E-03 0.  1.
         11   -1    0    0    0    0 -0.00000000000E+00 -0.00000000000E+00 -0.45593999997E+02  0.45594000000E+02  0.51100000000E-03 0. -1.
    9900012    2    1    2    0    0  0.24874182609E+02 -0.26045990970E+02 -0.24217859630E+02  0.47787270385E+02  0.19999996993E+02 0.  0.
        -12    1    1    2    0    0 -0.24874182609E+02  0.26045990970E+02  0.24217859630E+02  0.43400729615E+02  0.00000000000E+00 0.  1.
         11    1    3    3    0    0  0.39505087040E+01 -0.12946268892E+01  0.14637301949E+01  0.44073897203E+01  0.51100000000E-03 0.  1.
        -11    1    3    3    0    0  0.21459131102E+02 -0.18890144275E+02 -0.23805122248E+02  0.37202361536E+02  0.51100000000E-03 0. -1.
         12    1    3    3    0    0 -0.53545719692E+00 -0.58612198050E+01 -0.18764675775E+01  0.61775191284E+01  0.00000000000E+00 0. -1.
</event>
<event>
 7    1  0.2700100E-010  0.4778727E+02  0.7816164E-02  0.1312668E+00
        -11   -1    0    0    0    0  0.00000000000E+00  0.00000000000E+00  0.45593999997E+02  0.45594000000E+02  0.51100000000E-03 0.  1.
         11   -1    0    0    0    0 -0.00000000000E+00 -0.00000000000E+00 -0.45593999997E+02  0.45594000000E+02  0.51100000000E-03 0. -1.
    9900012    2    1    2    0    0 -0.27526571428E+02 -0.30517234684E+01 -0.33415544810E+02  0.47787265148E+02  0.19999973116E+02 0.  0.
        -12    1    1    2    0    0  0.27526571428E+02  0.30517234684E+01  0.33415544810E+02  0.43400734852E+02  0.00000000000E+00 0.  1.
         11    1    3    3    0    0  0.27008820324E+01  0.10665031716E+01 -0.45761722111E+01  0.54197366297E+01  0.51100000000E-03 0. -1.
        -11    1    3    3    0    0 -0.15371772436E+02 -0.44400960697E+01 -0.17208787097E+02  0.23497833826E+02  0.51100000000E-03 0.  1.
        -12    1    3    3    0    0 -0.14855681025E+02  0.32186942958E+00 -0.11630585502E+02  0.18869694692E+02  0.00000000000E+00 0.  1.
</event>
<event>
 7    1 -0.2700100E-010  0.4778727E+02  0.7816164E-02  0.1312668E+00
        -11   -1    0    0    0    0  0.00000000000E+00  0.00000000000E+00  0.45593999997E+02  0.45594000000E+02  0.51100000000E-03 0.  1.
         11   -1    0    0    0    0 -0.00000000000E+00 -0.00000000000E+00 -0.45593999997E+02  0.45594000000E+02  0.51100000000E-03 0. -1.
    9900012    2    1    2    0    0  0.34611176250E+02 -0.23599180314E+02 -0.11347616166E+02  0.47787271601E+02  0.20000002537E+02 0.  0.
        -12    1    1    2    0    0 -0.34611176250E+02  0.23599180314E+02  0.11347616166E+02  0.43400728399E+02  0.00000000000E+00 0.  1.
         11    1    3    3    0    0  0.58581053106E+01 -0.10688910895E+02  0.21260481369E+01  0.12372966293E+02  0.51100000000E-03 0. -1.
        -11    1    3    3    0    0  0.10396381374E+02 -0.10593506531E+01 -0.16786178608E+01  0.10584173452E+02  0.51100000000E-03 0.  1.
         12    1    3    3    0    0  0.18356689566E+02 -0.11850918767E+02 -0.11795046442E+02  0.24830131856E+02  0.00000000000E+00 0. -1.
</event>
<event>
 7    1  0.2700100E-010  0.4778727E+02  0.7816164E-02  0.1312668E+00
        -11   -1    0    0    0    0  0.00000000000E+00  0.00000000000E+00  0.45593999997E+02  0.45594000000E+02  0.51100000000E-03 0.  1.
         11   -1    0    0    0    0 -0.00000000000E+00 -0.00000000000E+00 -0.45593999997E+02  0.45594000000E+02  0.51100000000E-03 0. -1.
    9900012    2    1    2    0    0 -0.53969638195E+01 -0.10412069437E+02 -0.41786179499E+02  0.47787271832E+02  0.20000003589E+02 0.  0.
        -12    1    1    2    0    0  0.53969638195E+01  0.10412069437E+02  0.41786179499E+02  0.43400728168E+02  0.00000000000E+00 0.  1.
         11    1    3    3    0    0  0.22042130248E+01 -0.13847448105E+02 -0.24233849840E+02  0.27998033009E+02  0.51100000000E-03 0. -1.
        -11    1    3    3    0    0 -0.66646843400E+01  0.33310620018E+01 -0.11766032909E+02  0.13926719718E+02  0.51100000000E-03 0.  1.
         12    1    3    3    0    0 -0.93649250427E+00  0.10431666572E+00 -0.57862967498E+01  0.58625191048E+01  0.00000000000E+00 0. -1.
</event>
<event>
 7    1  0.3562523E-010  0.4778727E+02  0.7816164E-02  0.1312668E+00
        -11   -1    0    0    0    0  0.00000000000E+00  0.00000000000E+00  0.45593999997E+02  0.45594000000E+02  0.51100000000E-03 0.  1.
         11   -1    0    0    0    0 -0.00000000000E+00 -0.00000000000E+00 -0.45593999997E+02  0.45594000000E+02  0.51100000000E-03 0. -1.
    9900012    2    1    2    0    0  0.16497275635E+02 -0.37292042812E+02 -0.14858218464E+02  0.47787271706E+02  0.20000003018E+02 0.  0.
        -12    1    1    2    0    0 -0.16497275635E+02  0.37292042812E+02  0.14858218464E+02  0.43400728294E+02  0.00000000000E+00 0.  1.
         11    1    3    3    0    0  0.11020068371E+02 -0.21098405892E+02 -0.81876077779E+01  0.25171840606E+02  0.51100000000E-03 0. -1.
        -11    1    3    3    0    0 -0.13467884581E+01 -0.88068144188E+01  0.22320199971E+01  0.91845377068E+01  0.51100000000E-03 0.  1.
        -12    1    3    3    0    0  0.68239957217E+01 -0.73868225012E+01 -0.89026306834E+01  0.13430893394E+02  0.00000000000E+00 0.  1.
</event>
<event>
 7    1  0.2700100E-010  0.4778727E+02  0.7816164E-02  0.1312668E+00
        -11   -1    0    0    0    0  0.00000000000E+00  0.00000000000E+00  0.45593999997E+02  0.45594000000E+02  0.51100000000E-03 0.  1.
         11   -1    0    0    0    0 -0.00000000000E+00 -0.00000000000E+00 -0.45593999997E+02  0.45594000000E+02  0.51100000000E-03 0. -1.
    9900012    2    1    2    0    0  0.12239635801E+02  0.35248346591E+02 -0.22166845675E+02  0.47787266491E+02  0.19999979239E+02 0.  0.
        -12    1    1    2    0    0 -0.12239635801E+02 -0.35248346591E+02  0.22166845675E+02  0.43400733509E+02  0.00000000000E+00 0.  1.
         11    1    3    3    0    0  0.10570231389E+02  0.10657886118E+02 -0.12175297337E+02  0.19327653598E+02  0.51100000000E-03 0. -1.
        -11    1    3    3    0    0 -0.42118170863E+01  0.10417446424E+02 -0.52207818603E+01  0.12390284769E+02  0.51100000000E-03 0.  1.
        -12    1    3    3    0    0  0.58812214981E+01  0.14173014050E+02 -0.47707664782E+01  0.16069328124E+02  0.00000000000E+00 0.  1.
</event>
<event>
 7    1  0.2700100E-010  0.4778727E+02  0.7816164E-02  0.1312668E+00
        -11   -1    0    0    0    0  0.00000000000E+00  0.00000000000E+00  0.45593999997E+02  0.45594000000E+02  0.51100000000E-03 0. -1.
         11   -1    0    0    0    0 -0.00000000000E+00 -0.00000000000E+00 -0.45593999997E+02  0.45594000000E+02  0.51100000000E-03 0.  1.
    9900012    2    1    2    0    0 -0.98077542405E+01 -0.42268522111E+02  0.89612386682E+00  0.47787273708E+02  0.20000012144E+02 0.  0.
        -12    1    1    2    0    0  0.98077542405E+01  0.42268522111E+02 -0.89612386682E+00  0.43400726292E+02  0.00000000000E+00 0.  1.
         11    1    3    3    0    0 -0.41667477100E+01 -0.40056685683E+02 -0.15316685414E+01  0.40301933740E+02  0.51100000000E-03 0. -1.
        -11    1    3    3    0    0 -0.40160448168E+01 -0.27201381983E+00  0.68816849432E-01  0.40258345108E+01  0.51100000000E-03 0.  1.
         12    1    3    3    0    0 -0.16249617137E+01 -0.19398226078E+01  0.23589755588E+01  0.34595054571E+01  0.00000000000E+00 0. -1.
</event>
<event>
 7    1  0.2700100E-010  0.4778732E+02  0.7816164E-02  0.1312668E+00
        -11   -1    0    0    0    0  0.00000000000E+00  0.00000000000E+00  0.45593999997E+02  0.45594000000E+02  0.51100000000E-03 0.  1.
         11   -1    0    0    0    0 -0.00000000000E+00 -0.00000000000E+00 -0.45593999997E+02  0.45594000000E+02  0.51100000000E-03 0. -1.
    9900012    2    1    2    0    0 -0.31142481474E+02  0.25981981219E+02 -0.15449975516E+02  0.47787317472E+02  0.20000211681E+02 0.  0.
        -12    1    1    2    0    0  0.31142481474E+02 -0.25981981219E+02  0.15449975516E+02  0.43400682528E+02  0.00000000000E+00 0.  1.
         11    1    3    3    0    0 -0.11030720535E+02  0.65277088503E+00 -0.85064472022E+01  0.13944982955E+02  0.51100000000E-03 0. -1.
        -11    1    3    3    0    0 -0.72354841843E+01  0.14720038414E+02 -0.42338041996E+01  0.16939801077E+02  0.51100000000E-03 0.  1.
         12    1    3    3    0    0 -0.12876276755E+02  0.10609171921E+02 -0.27097241144E+01  0.16902533440E+02  0.00000000000E+00 0. -1.
</event>
<event>
 7    1  0.2700100E-010  0.4778726E+02  0.7816164E-02  0.1312668E+00
        -11   -1    0    0    0    0  0.00000000000E+00  0.00000000000E+00  0.45593999997E+02  0.45594000000E+02  0.51100000000E-03 0.  1.
         11   -1    0    0    0    0 -0.00000000000E+00 -0.00000000000E+00 -0.45593999997E+02  0.45594000000E+02  0.51100000000E-03 0. -1.
    9900012    2    1    2    0    0 -0.20781240373E+02 -0.26799026974E+02 -0.27084616622E+02  0.47787259733E+02  0.19999948424E+02 0.  0.
        -12    1    1    2    0    0  0.20781240373E+02  0.26799026974E+02  0.27084616622E+02  0.43400740267E+02  0.00000000000E+00 0.  1.
         11    1    3    3    0    0 -0.22385973258E+02 -0.22973760950E+02 -0.25699650661E+02  0.41102281387E+02  0.51100000000E-03 0. -1.
        -11    1    3    3    0    0  0.22814973277E+01 -0.84797295765E+00 -0.24478776265E+01  0.34520129386E+01  0.51100000000E-03 0.  1.
         12    1    3    3    0    0 -0.67676444249E+00 -0.29772930665E+01  0.10629116646E+01  0.32329654068E+01  0.00000000000E+00 0. -1.
</event>
<event>
 7    1  0.2700100E-010  0.4778726E+02  0.7816164E-02  0.1312668E+00
        -11   -1    0    0    0    0  0.00000000000E+00  0.00000000000E+00  0.45593999997E+02  0.45594000000E+02  0.51100000000E-03 0.  1.
         11   -1    0    0    0    0 -0.00000000000E+00 -0.00000000000E+00 -0.45593999997E+02  0.45594000000E+02  0.51100000000E-03 0. -1.
    9900012    2    1    2    0    0 -0.37053301389E+02  0.13631087803E+02 -0.18024154125E+02  0.47787264633E+02  0.19999970766E+02 0.  0.
        -12    1    1    2    0    0  0.37053301389E+02 -0.13631087803E+02  0.18024154125E+02  0.43400735367E+02  0.00000000000E+00 0.  1.
         11    1    3    3    0    0 -0.60899958026E+01  0.10515713756E+02 -0.21759134181E+01  0.12345156303E+02  0.51100000000E-03 0. -1.
        -11    1    3    3    0    0 -0.17053146931E+02  0.12065839443E+01 -0.53587283069E+01  0.17915960326E+02  0.51100000000E-03 0.  1.
         12    1    3    3    0    0 -0.13910158655E+02  0.19087901024E+01 -0.10489512400E+02  0.17526148004E+02  0.00000000000E+00 0. -1.
</event>
<event>
 7    1  0.2700100E-010  0.4778725E+02  0.7816164E-02  0.1312668E+00
        -11   -1    0    0    0    0  0.00000000000E+00  0.00000000000E+00  0.45593999997E+02  0.45594000000E+02  0.51100000000E-03 0.  1.
         11   -1    0    0    0    0 -0.00000000000E+00 -0.00000000000E+00 -0.45593999997E+02  0.45594000000E+02  0.51100000000E-03 0. -1.
    9900012    2    1    2    0    0  0.20720700163E+02 -0.14384276007E+02 -0.35318123785E+02  0.47787254854E+02  0.19999926183E+02 0.  0.
        -12    1    1    2    0    0 -0.20720700163E+02  0.14384276007E+02  0.35318123785E+02  0.43400745146E+02  0.00000000000E+00 0.  1.
         11    1    3    3    0    0  0.87092949387E+01 -0.13402716325E+02 -0.11899633825E+02  0.19927014544E+02  0.51100000000E-03 0. -1.
        -11    1    3    3    0    0  0.52687803259E+01 -0.25360070075E+01 -0.35956071949E+01  0.68643840966E+01  0.51100000000E-03 0.  1.
         12    1    3    3    0    0  0.67426248983E+01  0.15544473252E+01 -0.19822882766E+02  0.20995856214E+02  0.00000000000E+00 0. -1.
</event>
<event>
 7    1  0.2700100E-010  0.4778727E+02  0.7816164E-02  0.1312668E+00
        -11   -1    0    0    0    0  0.00000000000E+00  0.00000000000E+00  0.45593999997E+02  0.45594000000E+02  0.51100000000E-03 0.  1.
         11   -1    0    0    0    0 -0.00000000000E+00 -0.00000000000E+00 -0.45593999997E+02  0.45594000000E+02  0.51100000000E-03 0. -1.
    9900012    2    1    2    0    0 -0.28741426640E+02 -0.23253883572E+01 -0.32436804253E+02  0.47787270669E+02  0.19999998288E+02 0.  0.
        -12    1    1    2    0    0  0.28741426640E+02  0.23253883572E+01  0.32436804253E+02  0.43400729331E+02  0.00000000000E+00 0.  1.
         11    1    3    3    0    0 -0.23407634804E+02 -0.23842869661E+01 -0.26011759180E+02  0.35074403878E+02  0.51100000000E-03 0. -1.
        -11    1    3    3    0    0 -0.14774883404E+01 -0.25277151800E+01  0.16772951325E+01  0.33742606672E+01  0.51100000000E-03 0.  1.
         12    1    3    3    0    0 -0.38563034953E+01  0.25866137888E+01 -0.81023402051E+01  0.93386061241E+01  0.00000000000E+00 0. -1.
</event>
<event>
 7    1  0.2700100E-010  0.4778727E+02  0.7816164E-02  0.1312668E+00
        -11   -1    0    0    0    0  0.00000000000E+00  0.00000000000E+00  0.45593999997E+02  0.45594000000E+02  0.51100000000E-03 0.  1.
         11   -1    0    0    0    0 -0.00000000000E+00 -0.00000000000E+00 -0.45593999997E+02  0.45594000000E+02  0.51100000000E-03 0. -1.
    9900012    2    1    2    0    0 -0.49840029189E+01  0.16313821594E+02 -0.39907921930E+02  0.47787270825E+02  0.19999999002E+02 0.  0.
        -12    1    1    2    0    0  0.49840029189E+01 -0.16313821594E+02  0.39907921930E+02  0.43400729175E+02  0.00000000000E+00 0.  1.
         11    1    3    3    0    0 -0.85174194720E+01  0.48573875305E+01 -0.30422269668E+02  0.31963340565E+02  0.51100000000E-03 0. -1.
        -11    1    3    3    0    0  0.37172487170E-01  0.63026385545E+01 -0.36179450345E+01  0.72673352115E+01  0.51100000000E-03 0.  1.
         12    1    3    3    0    0  0.34962440659E+01  0.51537955091E+01 -0.58677072278E+01  0.85565950487E+01  0.00000000000E+00 0. -1.
</event>
<event>
 7    1  0.2700100E-010  0.4778727E+02  0.7816164E-02  0.1312668E+00
        -11   -1    0    0    0    0  0.00000000000E+00  0.00000000000E+00  0.45593999997E+02  0.45594000000E+02  0.51100000000E-03 0.  1.
         11   -1    0    0    0    0 -0.00000000000E+00 -0.00000000000E+00 -0.45593999997E+02  0.45594000000E+02  0.51100000000E-03 0. -1.
    9900012    2    1    2    0    0  0.36454908066E+02  0.22872210849E+02  0.56147066027E+01  0.47787270957E+02  0.19999999600E+02 0.  0.
        -12    1    1    2    0    0 -0.36454908066E+02 -0.22872210849E+02 -0.56147066027E+01  0.43400729043E+02  0.00000000000E+00 0.  1.
         11    1    3    3    0    0  0.24094665850E+02  0.10190038330E+02  0.11427239800E+02  0.28547707671E+02  0.51100000000E-03 0. -1.
        -11    1    3    3    0    0  0.92091899164E+01  0.11550616400E+02 -0.35327638332E+01  0.15189020334E+02  0.51100000000E-03 0.  1.
         12    1    3    3    0    0  0.31510523004E+01  0.11315561188E+01 -0.22797693641E+01  0.40505429517E+01  0.00000000000E+00 0. -1.
</event>
<event>
 7    1  0.2700100E-010  0.4778727E+02  0.7816164E-02  0.1312668E+00
        -11   -1    0    0    0    0  0.00000000000E+00  0.00000000000E+00  0.45593999997E+02  0.45594000000E+02  0.51100000000E-03 0. -1.
         11   -1    0    0    0    0 -0.00000000000E+00 -0.00000000000E+00 -0.45593999997E+02  0.45594000000E+02  0.51100000000E-03 0.  1.
    9900012    2    1    2    0    0  0.20236193174E+02 -0.91632665497E+01  0.37284776878E+02  0.47787267807E+02  0.19999985239E+02 0.  0.
        -12    1    1    2    0    0 -0.20236193174E+02  0.91632665497E+01 -0.37284776878E+02  0.43400732193E+02  0.00000000000E+00 0.  1.
         11    1    3    3    0    0  0.35839695182E+01  0.20886903012E+01  0.38660429881E+01  0.56704279670E+01  0.51100000000E-03 0. -1.
        -11    1    3    3    0    0  0.14017427301E+02 -0.11077210161E+02  0.34813740676E+02  0.39130415193E+02  0.51100000000E-03 0.  1.
        -12    1    3    3    0    0  0.26347963552E+01 -0.17474668980E+00 -0.13950067859E+01  0.29864246469E+01  0.00000000000E+00 0.  1.
</event>
<event>
 7    1  0.2700100E-010  0.4778727E+02  0.7816164E-02  0.1312668E+00
        -11   -1    0    0    0    0  0.00000000000E+00  0.00000000000E+00  0.45593999997E+02  0.45594000000E+02  0.51100000000E-03 0.  1.
         11   -1    0    0    0    0 -0.00000000000E+00 -0.00000000000E+00 -0.45593999997E+02  0.45594000000E+02  0.51100000000E-03 0. -1.
    9900012    2    1    2    0    0 -0.10927891580E+02 -0.28366399676E+02 -0.30976635484E+02  0.47787269697E+02  0.19999993854E+02 0.  0.
        -12    1    1    2    0    0  0.10927891580E+02  0.28366399676E+02  0.30976635484E+02  0.43400730303E+02  0.00000000000E+00 0.  1.
         11    1    3    3    0    0 -0.77419359568E+01 -0.34578641267E+01 -0.85555401214E+01  0.12045400106E+02  0.51100000000E-03 0. -1.
        -11    1    3    3    0    0 -0.14564835461E+00 -0.21626295087E+02 -0.12798525489E+02  0.25130063820E+02  0.51100000000E-03 0.  1.
        -12    1    3    3    0    0 -0.30403072685E+01 -0.32822404617E+01 -0.96225698740E+01  0.10611805771E+02  0.00000000000E+00 0.  1.
</event>
<event>
 7    1  0.2700100E-010  0.4778727E+02  0.7816164E-02  0.1312668E+00
        -11   -1    0    0    0    0  0.00000000000E+00  0.00000000000E+00  0.45593999997E+02  0.45594000000E+02  0.51100000000E-03 0.  1.
         11   -1    0    0    0    0 -0.00000000000E+00 -0.00000000000E+00 -0.45593999997E+02  0.45594000000E+02  0.51100000000E-03 0. -1.
    9900012    2    1    2    0    0  0.43242004068E+02 -0.21913680736E+00 -0.37019059206E+01  0.47787273690E+02  0.20000012063E+02 0.  0.
        -12    1    1    2    0    0 -0.43242004068E+02  0.21913680736E+00  0.37019059206E+01  0.43400726310E+02  0.00000000000E+00 0.  1.
         11    1    3    3    0    0  0.11243477032E+02  0.36217326414E+01 -0.38645412922E+01  0.12428491572E+02  0.51100000000E-03 0. -1.
        -11    1    3    3    0    0  0.90810977151E+01 -0.77803282988E+01  0.15794105888E+01  0.12062105215E+02  0.51100000000E-03 0.  1.
        -12    1    3    3    0    0  0.22917429321E+02  0.39394588501E+01 -0.14167752172E+01  0.23296676903E+02  0.00000000000E+00 0.  1.
</event>
<event>
 7    1  0.2700100E-010  0.4778726E+02  0.7816164E-02  0.1312668E+00
        -11   -1    0    0    0    0  0.00000000000E+00  0.00000000000E+00  0.45593999997E+02  0.45594000000E+02  0.51100000000E-03 0. -1.
         11   -1    0    0    0    0 -0.00000000000E+00 -0.00000000000E+00 -0.45593999997E+02  0.45594000000E+02  0.51100000000E-03 0.  1.
    9900012    2    1    2    0    0 -0.13704046965E+02 -0.40997282498E+02 -0.38788838151E+01  0.47787264810E+02  0.19999971573E+02 0.  0.
        -12    1    1    2    0    0  0.13704046965E+02  0.40997282498E+02  0.38788838151E+01  0.43400735190E+02  0.00000000000E+00 0.  1.
         11    1    3    3    0    0 -0.55910316175E+01 -0.89018870687E+01 -0.63005252189E+01  0.12255604686E+02  0.51100000000E-03 0.  1.
        -11    1    3    3    0    0 -0.13806495328E+01 -0.15784951244E+02  0.69687162633E+01  0.17309936035E+02  0.51100000000E-03 0. -1.
         12    1    3    3    0    0 -0.67323658148E+01 -0.16310444185E+02 -0.45470748595E+01  0.18221724088E+02  0.00000000000E+00 0. -1.
</event>
<event>
 7    1  0.2700100E-010  0.4778727E+02  0.7816164E-02  0.1312668E+00
        -11   -1    0    0    0    0  0.00000000000E+00  0.00000000000E+00  0.45593999997E+02  0.45594000000E+02  0.51100000000E-03 0.  1.
         11   -1    0    0    0    0 -0.00000000000E+00 -0.00000000000E+00 -0.45593999997E+02  0.45594000000E+02  0.51100000000E-03 0. -1.
    9900012    2    1    2    0    0 -0.42037357609E+02 -0.64961833282E+01  0.86187874805E+01  0.47787270395E+02  0.19999997038E+02 0.  0.
        -12    1    1    2    0    0  0.42037357609E+02  0.64961833282E+01 -0.86187874805E+01  0.43400729605E+02  0.00000000000E+00 0.  1.
         11    1    3    3    0    0 -0.10228842748E+02 -0.85833815734E+01  0.15516238876E+01  0.13442886600E+02  0.51100000000E-03 0. -1.
        -11    1    3    3    0    0 -0.21712839546E+02 -0.11074544649E+00  0.95462112673E+01  0.23718975853E+02  0.51100000000E-03 0.  1.
         12    1    3    3    0    0 -0.10095675316E+02  0.21979436917E+01 -0.24790476744E+01  0.10625407942E+02  0.00000000000E+00 0. -1.
</event>
<event>
 7    1  0.2700100E-010  0.4778727E+02  0.7816164E-02  0.1312668E+00
        -11   -1    0    0    0    0  0.00000000000E+00  0.00000000000E+00  0.45593999997E+02  0.45594000000E+02  0.51100000000E-03 0. -1.
         11   -1    0    0    0    0 -0.00000000000E+00 -0.00000000000E+00 -0.45593999997E+02  0.45594000000E+02  0.51100000000E-03 0.  1.
    9900012    2    1    2    0    0 -0.48794501710E+01 -0.41985703941E+02 -0.98496070137E+01  0.47787272728E+02  0.20000007677E+02 0.  0.
        -12    1    1    2    0    0  0.48794501710E+01  0.41985703941E+02  0.98496070137E+01  0.43400727272E+02  0.00000000000E+00 0.  1.
         11    1    3    3    0    0 -0.29692475937E+01 -0.59169943773E+01  0.47259396411E+01  0.81339879202E+01  0.51100000000E-03 0. -1.
        -11    1    3    3    0    0  0.21648510386E+01 -0.24456833693E+02 -0.91113524103E+01  0.26188547827E+02  0.51100000000E-03 0.  1.
         12    1    3    3    0    0 -0.40750536159E+01 -0.11611875871E+02 -0.54641942446E+01  0.13464736981E+02  0.00000000000E+00 0. -1.
</event>
<event>
 7    1  0.2700100E-010  0.4778727E+02  0.7816164E-02  0.1312668E+00
        -11   -1    0    0    0    0  0.00000000000E+00  0.00000000000E+00  0.45593999997E+02  0.45594000000E+02  0.51100000000E-03 0. -1.
         11   -1    0    0    0    0 -0.00000000000E+00 -0.00000000000E+00 -0.45593999997E+02  0.45594000000E+02  0.51100000000E-03 0.  1.
    9900012    2    1    2    0    0 -0.12179258038E+01 -0.19928646556E+02  0.38535553075E+02  0.47787272499E+02  0.20000006632E+02 0.  0.
        -12    1    1    2    0    0  0.12179258038E+01  0.19928646556E+02 -0.38535553075E+02  0.43400727501E+02  0.00000000000E+00 0.  1.
         11    1    3    3    0    0  0.40058888196E+01 -0.17832130864E+02  0.27134510104E+02  0.32715648781E+02  0.51100000000E-03 0. -1.
        -11    1    3    3    0    0 -0.30199553103E+01 -0.31456316371E+01  0.11163511742E+01  0.45012630092E+01  0.51100000000E-03 0.  1.
         12    1    3    3    0    0 -0.22038593131E+01  0.10491159450E+01  0.10284691797E+02  0.10570360708E+02  0.00000000000E+00 0. -1.
</event>
<event>
 7    1  0.2700100E-010  0.4778728E+02  0.7816164E-02  0.1312668E+00
        -11   -1    0    0    0    0  0.00000000000E+00  0.00000000000E+00  0.45593999997E+02  0.45594000000E+02  0.51100000000E-03 0. -1.
         11   -1    0    0    0    0 -0.00000000000E+00 -0.00000000000E+00 -0.45593999997E+02  0.45594000000E+02  0.51100000000E-03 0.  1.
    9900012    2    1    2    0    0  0.35097275371E+02  0.17654058134E+02  0.18442825623E+02  0.47787281987E+02  0.20000049890E+02 0.  0.
        -12    1    1    2    0    0 -0.35097275371E+02 -0.17654058134E+02 -0.18442825623E+02  0.43400718013E+02  0.00000000000E+00 0.  1.
         11    1    3    3    0    0  0.10774748548E+02  0.10967435589E+01  0.13113238346E+02  0.17007500489E+02  0.51100000000E-03 0. -1.
        -11    1    3    3    0    0  0.14778143339E+02  0.12492701011E+02  0.55249804543E+00  0.19358883063E+02  0.51100000000E-03 0.  1.
        -12    1    3    3    0    0  0.95443834842E+01  0.40646135639E+01  0.47770892322E+01  0.11420898434E+02  0.00000000000E+00 0.  1.
</event>
<event>
 7    1  0.2700100E-010  0.4778726E+02  0.7816164E-02  0.1312668E+00
        -11   -1    0    0    0    0  0.00000000000E+00  0.00000000000E+00  0.45593999997E+02  0.45594000000E+02  0.51100000000E-03 0.  1.
         11   -1    0    0    0    0 -0.00000000000E+00 -0.00000000000E+00 -0.45593999997E+02  0.45594000000E+02  0.51100000000E-03 0. -1.
    9900012    2    1    2    0    0  0.22181061071E+02 -0.34546594424E+02 -0.14076855995E+02  0.47787256559E+02  0.19999933957E+02 0.  0.
        -12    1    1    2    0    0 -0.22181061071E+02  0.34546594424E+02  0.14076855995E+02  0.43400743441E+02  0.00000000000E+00 0.  1.
         11    1    3    3    0    0  0.12439222393E+02 -0.26159485464E+02 -0.14132392516E+02  0.32230070617E+02  0.51100000000E-03 0. -1.
        -11    1    3    3    0    0  0.30404946240E+01  0.10016030472E+01 -0.20917555107E+01  0.38240368199E+01  0.51100000000E-03 0.  1.
         12    1    3    3    0    0  0.67013440531E+01 -0.93887120064E+01  0.21472920312E+01  0.11733149122E+02  0.00000000000E+00 0. -1.
</event>
<event>
 7    1  0.2700100E-010  0.4778727E+02  0.7816164E-02  0.1312668E+00
        -11   -1    0    0    0    0  0.00000000000E+00  0.00000000000E+00  0.45593999997E+02  0.45594000000E+02  0.51100000000E-03 0.  1.
         11   -1    0    0    0    0 -0.00000000000E+00 -0.00000000000E+00 -0.45593999997E+02  0.45594000000E+02  0.51100000000E-03 0. -1.
    9900012    2    1    2    0    0  0.17947310530E+02 -0.38645426510E+02  0.82491470963E+01  0.47787269900E+02  0.19999994781E+02 0.  0.
        -12    1    1    2    0    0 -0.17947310530E+02  0.38645426510E+02 -0.82491470963E+01  0.43400730100E+02  0.00000000000E+00 0.  1.
         11    1    3    3    0    0  0.25524398648E+01 -0.38956007756E+00  0.70207381119E+00  0.26757455437E+01  0.51100000000E-03 0. -1.
        -11    1    3    3    0    0  0.88358069554E+01 -0.12511307858E+02 -0.44662062568E+01  0.15954664128E+02  0.51100000000E-03 0.  1.
        -12    1    3    3    0    0  0.65590637094E+01 -0.25744558575E+02  0.12013279542E+02  0.29156860228E+02  0.00000000000E+00 0.  1.
</event>
<event>
 7    1  0.2700100E-010  0.4778728E+02  0.7816164E-02  0.1312668E+00
        -11   -1    0    0    0    0  0.00000000000E+00  0.00000000000E+00  0.45593999997E+02  0.45594000000E+02  0.51100000000E-03 0. -1.
         11   -1    0    0    0    0 -0.00000000000E+00 -0.00000000000E+00 -0.45593999997E+02  0.45594000000E+02  0.51100000000E-03 0.  1.
    9900012    2    1    2    0    0  0.12795685057E+02  0.37195894171E+02  0.18340080966E+02  0.47787278012E+02  0.20000031766E+02 0.  0.
        -12    1    1    2    0    0 -0.12795685057E+02 -0.37195894171E+02 -0.18340080966E+02  0.43400721988E+02  0.00000000000E+00 0.  1.
         11    1    3    3    0    0  0.11025348510E+02  0.15672014935E+02  0.11177640538E+02  0.22183552694E+02  0.51100000000E-03 0. -1.
        -11    1    3    3    0    0 -0.23680572142E+01  0.21307079418E+01 -0.19980376123E+01  0.37602880028E+01  0.51100000000E-03 0.  1.
        -12    1    3    3    0    0  0.41383937607E+01  0.19393171294E+02  0.91604780407E+01  0.21843437314E+02  0.00000000000E+00 0.  1.
</event>
<event>
 7    1  0.2700100E-010  0.4778727E+02  0.7816164E-02  0.1312668E+00
        -11   -1    0    0    0    0  0.00000000000E+00  0.00000000000E+00  0.45593999997E+02  0.45594000000E+02  0.51100000000E-03 0. -1.
         11   -1    0    0    0    0 -0.00000000000E+00 -0.00000000000E+00 -0.45593999997E+02  0.45594000000E+02  0.51100000000E-03 0.  1.
    9900012    2    1    2    0    0 -0.17996466437E+02 -0.21075044602E+02  0.33400493606E+02  0.47787270947E+02  0.19999999557E+02 0.  0.
        -12    1    1    2    0    0  0.17996466437E+02  0.21075044602E+02 -0.33400493606E+02  0.43400729053E+02  0.00000000000E+00 0.  1.
         11    1    3    3    0    0 -0.44647937298E+01  0.19196203696E+01  0.96067424836E+01  0.10766096174E+02  0.51100000000E-03 0. -1.
        -11    1    3    3    0    0 -0.35778551479E+01 -0.62855025692E+00  0.15701951065E+01  0.39574784672E+01  0.51100000000E-03 0.  1.
         12    1    3    3    0    0 -0.99538175588E+01 -0.22366114715E+02  0.22223556016E+02  0.33063696306E+02  0.00000000000E+00 0. -1.
</event>
<event>
 7    1  0.2700100E-010  0.4778727E+02  0.7816164E-02  0.1312668E+00
        -11   -1    0    0    0    0  0.00000000000E+00  0.00000000000E+00  0.45593999997E+02  0.45594000000E+02  0.51100000000E-03 0.  1.
         11   -1    0    0    0    0 -0.00000000000E+00 -0.00000000000E+00 -0.45593999997E+02  0.45594000000E+02  0.51100000000E-03 0. -1.
    9900012    2    1    2    0    0 -0.29506848431E+02 -0.18275883554E+02 -0.26056883754E+02  0.47787271723E+02  0.20000003093E+02 0.  0.
        -12    1    1    2    0    0  0.29506848431E+02  0.18275883554E+02  0.26056883754E+02  0.43400728277E+02  0.00000000000E+00 0.  1.
         11    1    3    3    0    0 -0.64884123680E+01 -0.20911234853E+01 -0.12369645736E+02  0.14123754047E+02  0.51100000000E-03 0. -1.
        -11    1    3    3    0    0 -0.10006111207E+02 -0.89473668683E+01  0.23203983643E-01  0.13423046377E+02  0.51100000000E-03 0.  1.
        -12    1    3    3    0    0 -0.13012324857E+02 -0.72373932002E+01 -0.13710442002E+02  0.20240471299E+02  0.00000000000E+00 0.  1.
</event>
<event>
 7    1  0.2700100E-010  0.4778727E+02  0.7816164E-02  0.1312668E+00
        -11   -1    0    0    0    0  0.00000000000E+00  0.00000000000E+00  0.45593999997E+02  0.45594000000E+02  0.51100000000E-03 0.  1.
         11   -1    0    0    0    0 -0.00000000000E+00 -0.00000000000E+00 -0.45593999997E+02  0.45594000000E+02  0.51100000000E-03 0. -1.
    9900012    2    1    2    0    0  0.31373054340E+01  0.28689841096E+02 -0.32414096019E+02  0.47787270879E+02  0.19999999246E+02 0.  0.
        -12    1    1    2    0    0 -0.31373054340E+01 -0.28689841096E+02  0.32414096019E+02  0.43400729121E+02  0.00000000000E+00 0.  1.
         11    1    3    3    0    0  0.15510846134E+01  0.18753280073E+02 -0.81469077154E+01  0.20505206230E+02  0.51100000000E-03 0. -1.
        -11    1    3    3    0    0  0.10958471084E+01 -0.30629786393E+00 -0.24675648507E+00  0.11642973377E+01  0.51100000000E-03 0.  1.
         12    1    3    3    0    0  0.49037371223E+00  0.10242858887E+02 -0.24020431819E+02  0.26117767311E+02  0.00000000000E+00 0. -1.
</event>
<event>
 7    1  0.2700100E-010  0.4778726E+02  0.7816164E-02  0.1312668E+00
        -11   -1    0    0    0    0  0.00000000000E+00  0.00000000000E+00  0.45593999997E+02  0.45594000000E+02  0.51100000000E-03 0.  1.
         11   -1    0    0    0    0 -0.00000000000E+00 -0.00000000000E+00 -0.45593999997E+02  0.45594000000E+02  0.51100000000E-03 0. -1.
    9900012    2    1    2    0    0  0.20206863750E+02 -0.47370992413E+01 -0.38116485563E+02  0.47787263561E+02  0.19999965879E+02 0.  0.
        -12    1    1    2    0    0 -0.20206863750E+02  0.47370992413E+01  0.38116485563E+02  0.43400736439E+02  0.00000000000E+00 0.  1.
         11    1    3    3    0    0  0.15312866788E+02 -0.51469577250E+01 -0.20447873348E+02  0.26059366604E+02  0.51100000000E-03 0. -1.
        -11    1    3    3    0    0  0.11699747311E+01  0.29588290279E+01 -0.16842102533E+02  0.17140009571E+02  0.51100000000E-03 0.  1.
        -12    1    3    3    0    0  0.37240222308E+01 -0.25489705442E+01 -0.82650968139E+00  0.45878873857E+01  0.00000000000E+00 0.  1.
</event>
<event>
 7    1  0.2700100E-010  0.4778727E+02  0.7816164E-02  0.1312668E+00
        -11   -1    0    0    0    0  0.00000000000E+00  0.00000000000E+00  0.45593999997E+02  0.45594000000E+02  0.51100000000E-03 0.  1.
         11   -1    0    0    0    0 -0.00000000000E+00 -0.00000000000E+00 -0.45593999997E+02  0.45594000000E+02  0.51100000000E-03 0. -1.
    9900012    2    1    2    0    0  0.37570563227E+02 -0.11745305041E+02 -0.18279066045E+02  0.47787266513E+02  0.19999979340E+02 0.  0.
        -12    1    1    2    0    0 -0.37570563227E+02  0.11745305041E+02  0.18279066045E+02  0.43400733487E+02  0.00000000000E+00 0.  1.
         11    1    3    3    0    0  0.52107846458E+01  0.38879536840E+00 -0.10025033438E+02  0.11305075593E+02  0.51100000000E-03 0. -1.
        -11    1    3    3    0    0  0.24515137437E+02 -0.12224118110E+02 -0.44122535455E+01  0.27746873855E+02  0.51100000000E-03 0.  1.
        -12    1    3    3    0    0  0.78446411448E+01  0.90017700769E-01 -0.38417790619E+01  0.87353170657E+01  0.00000000000E+00 0.  1.
</event>
<event>
 7    1  0.2700100E-010  0.4778728E+02  0.7816164E-02  0.1312668E+00
        -11   -1    0    0    0    0  0.00000000000E+00  0.00000000000E+00  0.45593999997E+02  0.45594000000E+02  0.51100000000E-03 0. -1.
         11   -1    0    0    0    0 -0.00000000000E+00 -0.00000000000E+00 -0.45593999997E+02  0.45594000000E+02  0.51100000000E-03 0.  1.
    9900012    2    1    2    0    0  0.15977771350E+02 -0.25085823662E+01  0.40274561464E+02  0.47787280376E+02  0.20000042545E+02 0.  0.
        -12    1    1    2    0    0 -0.15977771350E+02  0.25085823662E+01 -0.40274561464E+02  0.43400719624E+02  0.00000000000E+00 0.  1.
         11    1    3    3    0    0  0.66906696524E+01 -0.57471233390E+01  0.28608113207E+02  0.29936910806E+02  0.51100000000E-03 0. -1.
        -11    1    3    3    0    0  0.59131392231E+01  0.64987267417E+01  0.81849643764E+01  0.12008010112E+02  0.51100000000E-03 0.  1.
        -12    1    3    3    0    0  0.33739624748E+01 -0.32601857689E+01  0.34814838801E+01  0.58423594580E+01  0.00000000000E+00 0.  1.
</event>
<event>
 7    1  0.2700100E-010  0.4778727E+02  0.7816164E-02  0.1312668E+00
        -11   -1    0    0    0    0  0.00000000000E+00  0.00000000000E+00  0.45593999997E+02  0.45594000000E+02  0.51100000000E-03 0.  1.
         11   -1    0    0    0    0 -0.00000000000E+00 -0.00000000000E+00 -0.45593999997E+02  0.45594000000E+02  0.51100000000E-03 0. -1.
    9900012    2    1    2    0    0 -0.35347134354E+02  0.20067560236E+02 -0.15215011848E+02  0.47787268827E+02  0.19999989889E+02 0.  0.
        -12    1    1    2    0    0  0.35347134354E+02 -0.20067560236E+02  0.15215011848E+02  0.43400731173E+02  0.00000000000E+00 0.  1.
         11    1    3    3    0    0 -0.58439607878E+01  0.36791508872E+01 -0.10254640303E+01  0.69813756293E+01  0.51100000000E-03 0. -1.
        -11    1    3    3    0    0 -0.68398596748E+01  0.12927593972E+02 -0.93973013955E+01  0.17384350435E+02  0.51100000000E-03 0.  1.
        -12    1    3    3    0    0 -0.22663313891E+02  0.34608153768E+01 -0.47922464220E+01  0.23421542762E+02  0.00000000000E+00 0.  1.
</event>
<event>
 7    1  0.2700100E-010  0.4778727E+02  0.7816164E-02  0.1312668E+00
        -11   -1    0    0    0    0  0.00000000000E+00  0.00000000000E+00  0.45593999997E+02  0.45594000000E+02  0.51100000000E-03 0. -1.
         11   -1    0    0    0    0 -0.00000000000E+00 -0.00000000000E+00 -0.45593999997E+02  0.45594000000E+02  0.51100000000E-03 0.  1.
    9900012    2    1    2    0    0  0.38251226607E+02 -0.20380578982E+02  0.22581711914E+01  0.47787266438E+02  0.19999978998E+02 0.  0.
        -12    1    1    2    0    0 -0.38251226607E+02  0.20380578982E+02 -0.22581711914E+01  0.43400733562E+02  0.00000000000E+00 0.  1.
         11    1    3    3    0    0  0.12352991799E+02 -0.98251338065E+01  0.14444763549E+01  0.15849800406E+02  0.51100000000E-03 0. -1.
        -11    1    3    3    0    0  0.10989015656E+01 -0.63957194105E+01 -0.15769767083E+01  0.66782982285E+01  0.51100000000E-03 0.  1.
        -12    1    3    3    0    0  0.24799333242E+02 -0.41597257649E+01  0.23906715448E+01  0.25259167804E+02  0.00000000000E+00 0.  1.
</event>
<event>
 7    1  0.2700100E-010  0.4778727E+02  0.7816164E-02  0.1312668E+00
        -11   -1    0    0    0    0  0.00000000000E+00  0.00000000000E+00  0.45593999997E+02  0.45594000000E+02  0.51100000000E-03 0.  1.
         11   -1    0    0    0    0 -0.00000000000E+00 -0.00000000000E+00 -0.45593999997E+02  0.45594000000E+02  0.51100000000E-03 0. -1.
    9900012    2    1    2    0    0 -0.62288655434E+01  0.92677398261E+01 -0.41939640456E+02  0.47787271791E+02  0.20000003405E+02 0.  0.
        -12    1    1    2    0    0  0.62288655434E+01 -0.92677398261E+01  0.41939640456E+02  0.43400728209E+02  0.00000000000E+00 0.  1.
         11    1    3    3    0    0 -0.10510514467E+02  0.37822038171E+01 -0.20325417563E+02  0.23192640631E+02  0.51100000000E-03 0. -1.
        -11    1    3    3    0    0  0.64537985693E+00 -0.12592071428E+01  0.24076723740E+00  0.14353002863E+01  0.51100000000E-03 0.  1.
         12    1    3    3    0    0  0.36362690665E+01  0.67447431518E+01 -0.21854990131E+02  0.23159330874E+02  0.00000000000E+00 0. -1.
</event>
<event>
 7    1  0.2700100E-010  0.4778726E+02  0.7816164E-02  0.1312668E+00
        -11   -1    0    0    0    0  0.00000000000E+00  0.00000000000E+00  0.45593999997E+02  0.45594000000E+02  0.51100000000E-03 0.  1.
         11   -1    0    0    0    0 -0.00000000000E+00 -0.00000000000E+00 -0.45593999997E+02  0.45594000000E+02  0.51100000000E-03 0. -1.
    9900012    2    1    2    0    0 -0.73198099378E+01  0.31868839636E+02 -0.28538069547E+02  0.47787263017E+02  0.19999963398E+02 0.  0.
        -12    1    1    2    0    0  0.73198099378E+01 -0.31868839636E+02  0.28538069547E+02  0.43400736983E+02  0.00000000000E+00 0.  1.
         11    1    3    3    0    0 -0.78032415494E+01  0.15793584773E+02 -0.57457360447E+01  0.18529473322E+02  0.51100000000E-03 0. -1.
        -11    1    3    3    0    0  0.11014135958E+00  0.49124019143E+01 -0.14604657710E+02  0.15409083385E+02  0.51100000000E-03 0.  1.
         12    1    3    3    0    0  0.37329025203E+00  0.11162852949E+02 -0.81876757923E+01  0.13848706309E+02  0.00000000000E+00 0. -1.
</event>
<event>
 7    1  0.2700100E-010  0.4778727E+02  0.7816164E-02  0.1312668E+00
        -11   -1    0    0    0    0  0.00000000000E+00  0.00000000000E+00  0.45593999997E+02  0.45594000000E+02  0.51100000000E-03 0.  1.
         11   -1    0    0    0    0 -0.00000000000E+00 -0.00000000000E+00 -0.45593999997E+02  0.45594000000E+02  0.51100000000E-03 0. -1.
    9900012    2    1    2    0    0 -0.36121761075E+01 -0.23666190299E+02 -0.36200645979E+02  0.47787272485E+02  0.20000006569E+02 0.  0.
        -12    1    1    2    0    0  0.36121761075E+01  0.23666190299E+02  0.36200645979E+02  0.43400727515E+02  0.00000000000E+00 0.  1.
         11    1    3    3    0    0 -0.54850431481E+01 -0.15601260152E+02 -0.27305274939E+02  0.31922767054E+02  0.51100000000E-03 0. -1.
        -11    1    3    3    0    0  0.35392837138E+01 -0.18267618480E+01  0.94628777102E+00  0.40937817312E+01  0.51100000000E-03 0.  1.
        -12    1    3    3    0    0 -0.16664166731E+01 -0.62381682994E+01 -0.98416588114E+01  0.11770723700E+02  0.00000000000E+00 0.  1.
</event>
<event>
 7    1  0.2700100E-010  0.4778727E+02  0.7816164E-02  0.1312668E+00
        -11   -1    0    0    0    0  0.00000000000E+00  0.00000000000E+00  0.45593999997E+02  0.45594000000E+02  0.51100000000E-03 0.  1.
         11   -1    0    0    0    0 -0.00000000000E+00 -0.00000000000E+00 -0.45593999997E+02  0.45594000000E+02  0.51100000000E-03 0. -1.
    9900012    2    1    2    0    0  0.59153988460E+01 -0.17497757629E+02 -0.39274166292E+02  0.47787267247E+02  0.19999982687E+02 0.  0.
        -12    1    1    2    0    0 -0.59153988460E+01  0.17497757629E+02  0.39274166292E+02  0.43400732753E+02  0.00000000000E+00 0.  1.
         11    1    3    3    0    0  0.50830444491E+01  0.73284563771E+00 -0.98952193184E+01  0.11148532155E+02  0.51100000000E-03 0. -1.
        -11    1    3    3    0    0 -0.47493570284E+01 -0.10796747588E+02 -0.11426851128E+02  0.16422517396E+02  0.51100000000E-03 0.  1.
        -12    1    3    3    0    0  0.55817114252E+01 -0.74338556790E+01 -0.17952095845E+02  0.20216217696E+02  0.00000000000E+00 0.  1.
</event>
<event>
 7    1  0.2700100E-010  0.4778728E+02  0.7816164E-02  0.1312668E+00
        -11   -1    0    0    0    0  0.00000000000E+00  0.00000000000E+00  0.45593999997E+02  0.45594000000E+02  0.51100000000E-03 0.  1.
         11   -1    0    0    0    0 -0.00000000000E+00 -0.00000000000E+00 -0.45593999997E+02  0.45594000000E+02  0.51100000000E-03 0. -1.
    9900012    2    1    2    0    0 -0.14528463772E+02  0.15699839200E+02 -0.37763221837E+02  0.47787284176E+02  0.20000059874E+02 0.  0.
        -12    1    1    2    0    0  0.14528463772E+02 -0.15699839200E+02  0.37763221837E+02  0.43400715824E+02  0.00000000000E+00 0.  1.
         11    1    3    3    0    0 -0.59923105482E+01  0.14045280827E+01 -0.19563341726E+02  0.20508652432E+02  0.51100000000E-03 0. -1.
        -11    1    3    3    0    0 -0.47263119647E+00  0.11884560638E+02 -0.10245556032E+02  0.15698330499E+02  0.51100000000E-03 0.  1.
        -12    1    3    3    0    0 -0.80635220271E+01  0.24107504787E+01 -0.79543240795E+01  0.11580301244E+02  0.00000000000E+00 0.  1.
</event>
<event>
 7    1  0.2700100E-010  0.4778726E+02  0.7816164E-02  0.1312668E+00
        -11   -1    0    0    0    0  0.00000000000E+00  0.00000000000E+00  0.45593999997E+02  0.45594000000E+02  0.51100000000E-03 0.  1.
         11   -1    0    0    0    0 -0.00000000000E+00 -0.00000000000E+00 -0.45593999997E+02  0.45594000000E+02  0.51100000000E-03 0. -1.
    9900012    2    1    2    0    0  0.20040188648E+02  0.89222853227E+01 -0.37448739529E+02  0.47787257740E+02  0.19999939338E+02 0.  0.
        -12    1    1    2    0    0 -0.20040188648E+02 -0.89222853227E+01  0.37448739529E+02  0.43400742260E+02  0.00000000000E+00 0.  1.
         11    1    3    3    0    0  0.21684046010E+02  0.10349847047E+02 -0.23888598093E+02  0.33881887556E+02  0.51100000000E-03 0. -1.
        -11    1    3    3    0    0 -0.10546031090E-01 -0.81057816854E+00 -0.87623344375E+01  0.87997530216E+01  0.51100000000E-03 0.  1.
         12    1    3    3    0    0 -0.16333113308E+01 -0.61698355560E+00 -0.47978069983E+01  0.51056171619E+01  0.00000000000E+00 0. -1.
</event>
<event>
 7    1  0.2700100E-010  0.4778728E+02  0.7816164E-02  0.1312668E+00
        -11   -1    0    0    0    0  0.00000000000E+00  0.00000000000E+00  0.45593999997E+02  0.45594000000E+02  0.51100000000E-03 0.  1.
         11   -1    0    0    0    0 -0.00000000000E+00 -0.00000000000E+00 -0.45593999997E+02  0.45594000000E+02  0.51100000000E-03 0. -1.
    9900012    2    1    2    0    0  0.25501941037E+01  0.29267784680E+02 -0.31945508741E+02  0.47787282970E+02  0.20000054373E+02 0.  0.
        -12    1    1    2    0    0 -0.25501941037E+01 -0.29267784680E+02  0.31945508741E+02  0.43400717030E+02  0.00000000000E+00 0.  1.
         11    1    3    3    0    0 -0.92402564027E+00  0.24048536918E+02 -0.17541628086E+02  0.29780776811E+02  0.51100000000E-03 0. -1.
        -11    1    3    3    0    0  0.59588449844E+01  0.18545204888E+01 -0.10855126219E+02  0.12521215807E+02  0.51100000000E-03 0.  1.
         12    1    3    3    0    0 -0.24846252405E+01  0.33647272726E+01 -0.35487544354E+01  0.54852903521E+01  0.00000000000E+00 0. -1.
</event>
<event>
 7    1  0.2700100E-010  0.4778726E+02  0.7816164E-02  0.1312668E+00
        -11   -1    0    0    0    0  0.00000000000E+00  0.00000000000E+00  0.45593999997E+02  0.45594000000E+02  0.51100000000E-03 0. -1.
         11   -1    0    0    0    0 -0.00000000000E+00 -0.00000000000E+00 -0.45593999997E+02  0.45594000000E+02  0.51100000000E-03 0.  1.
    9900012    2    1    2    0    0 -0.52760388472E+01  0.11271419638E+02  0.41578148960E+02  0.47787263169E+02  0.19999964091E+02 0.  0.
        -12    1    1    2    0    0  0.52760388472E+01 -0.11271419638E+02 -0.41578148960E+02  0.43400736831E+02  0.00000000000E+00 0.  1.
         11    1    3    3    0    0  0.44310195120E+01  0.60402989693E+01  0.46943854352E+01  0.88406108629E+01  0.51100000000E-03 0.  1.
        -11    1    3    3    0    0 -0.58046876652E+01 -0.78207240719E-01  0.19900405294E+02  0.20729849165E+02  0.51100000000E-03 0. -1.
        -12    1    3    3    0    0 -0.39023706940E+01  0.53093279095E+01  0.16983358231E+02  0.18216803141E+02  0.00000000000E+00 0.  1.
</event>
<event>
 7    1  0.2700100E-010  0.4778727E+02  0.7816164E-02  0.1312668E+00
        -11   -1    0    0    0    0  0.00000000000E+00  0.00000000000E+00  0.45593999997E+02  0.45594000000E+02  0.51100000000E-03 0.  1.
         11   -1    0    0    0    0 -0.00000000000E+00 -0.00000000000E+00 -0.45593999997E+02  0.45594000000E+02  0.51100000000E-03 0. -1.
    9900012    2    1    2    0    0  0.89441899071E+01 -0.15856755971E+02 -0.39397816502E+02  0.47787272032E+02  0.20000004503E+02 0.  0.
        -12    1    1    2    0    0 -0.89441899071E+01  0.15856755971E+02  0.39397816502E+02  0.43400727968E+02  0.00000000000E+00 0.  1.
         11    1    3    3    0    0 -0.29134918559E+01 -0.58022903507E+00  0.35991003713E+00  0.29924297859E+01  0.51100000000E-03 0. -1.
        -11    1    3    3    0    0  0.22036722295E+01 -0.29640932753E-01 -0.76726365046E+01  0.79828817524E+01  0.51100000000E-03 0.  1.
         12    1    3    3    0    0  0.96540095335E+01 -0.15246886003E+02 -0.32085090035E+02  0.36811960494E+02  0.00000000000E+00 0. -1.
</event>
<event>
 7    1  0.2700100E-010  0.4778721E+02  0.7816164E-02  0.1312668E+00
        -11   -1    0    0    0    0  0.00000000000E+00  0.00000000000E+00  0.45593999997E+02  0.45594000000E+02  0.51100000000E-03 0. -1.
         11   -1    0    0    0    0 -0.00000000000E+00 -0.00000000000E+00 -0.45593999997E+02  0.45594000000E+02  0.51100000000E-03 0.  1.
    9900012    2    1    2    0    0 -0.10149496745E+02 -0.39875113001E+02  0.13805490075E+02  0.47787211099E+02  0.19999726683E+02 0.  0.
        -12    1    1    2    0    0  0.10149496745E+02  0.39875113001E+02 -0.13805490075E+02  0.43400788901E+02  0.00000000000E+00 0.  1.
         11    1    3    3    0    0 -0.93923511644E+01 -0.84942469057E+01  0.72946193193E+01  0.14614375189E+02  0.51100000000E-03 0. -1.
        -11    1    3    3    0    0  0.19663538593E+01 -0.73240766232E+01  0.46396577478E+01  0.88901670491E+01  0.51100000000E-03 0.  1.
         12    1    3    3    0    0 -0.27234994398E+01 -0.24056789472E+02  0.18712130082E+01  0.24282668861E+02  0.00000000000E+00 0. -1.
</event>
<event>
 7    1  0.2700100E-010  0.4778726E+02  0.7816164E-02  0.1312668E+00
        -11   -1    0    0    0    0  0.00000000000E+00  0.00000000000E+00  0.45593999997E+02  0.45594000000E+02  0.51100000000E-03 0. -1.
         11   -1    0    0    0    0 -0.00000000000E+00 -0.00000000000E+00 -0.45593999997E+02  0.45594000000E+02  0.51100000000E-03 0.  1.
    9900012    2    1    2    0    0 -0.41347625348E+02 -0.11980456712E+02  0.55196497805E+01  0.47787262695E+02  0.19999961932E+02 0.  0.
        -12    1    1    2    0    0  0.41347625348E+02  0.11980456712E+02 -0.55196497805E+01  0.43400737305E+02  0.00000000000E+00 0.  1.
         11    1    3    3    0    0 -0.33107236095E+01  0.85797562657E+00  0.59693394351E+01  0.68796821545E+01  0.51100000000E-03 0.  1.
        -11    1    3    3    0    0 -0.25407600365E+02 -0.50416245689E+01 -0.20252988211E+01  0.25982031679E+02  0.51100000000E-03 0. -1.
        -12    1    3    3    0    0 -0.12629301373E+02 -0.77968077696E+01  0.15756091665E+01  0.14925548861E+02  0.00000000000E+00 0.  1.
</event>
<event>
 7    1  0.2700100E-010  0.4778727E+02  0.7816164E-02  0.1312668E+00
        -11   -1    0    0    0    0  0.00000000000E+00  0.00000000000E+00  0.45593999997E+02  0.45594000000E+02  0.51100000000E-03 0. -1.
         11   -1    0    0    0    0 -0.00000000000E+00 -0.00000000000E+00 -0.45593999997E+02  0.45594000000E+02  0.51100000000E-03 0.  1.
    9900012    2    1    2    0    0 -0.37495862393E+01 -0.39721028391E+02 -0.17082265644E+02  0.47787270825E+02  0.19999998999E+02 0.  0.
        -12    1    1    2    0    0  0.37495862393E+01  0.39721028391E+02  0.17082265644E+02  0.43400729175E+02  0.00000000000E+00 0.  1.
         11    1    3    3    0    0  0.39529471459E+01 -0.10715045285E+02  0.76086213233E-01  0.11421198535E+02  0.51100000000E-03 0. -1.
        -11    1    3    3    0    0 -0.77981445432E+01 -0.14059600232E+02 -0.13461680523E+02  0.20969030968E+02  0.51100000000E-03 0.  1.
         12    1    3    3    0    0  0.95611157917E-01 -0.14946382874E+02 -0.36966713343E+01  0.15397041322E+02  0.00000000000E+00 0. -1.
</event>
<event>
 7    1  0.2700100E-010  0.4778727E+02  0.7816164E-02  0.1312668E+00
        -11   -1    0    0    0    0  0.00000000000E+00  0.00000000000E+00  0.45593999997E+02  0.45594000000E+02  0.51100000000E-03 0. -1.
         11   -1    0    0    0    0 -0.00000000000E+00 -0.00000000000E+00 -0.45593999997E+02  0.45594000000E+02  0.51100000000E-03 0.  1.
    9900012    2    1    2    0    0 -0.16173033191E+02 -0.20305707145E+02  0.34781243169E+02  0.47787267038E+02  0.19999981735E+02 0.  0.
        -12    1    1    2    0    0  0.16173033191E+02  0.20305707145E+02 -0.34781243169E+02  0.43400732962E+02  0.00000000000E+00 0.  1.
         11    1    3    3    0    0  0.25586410839E+01 -0.39713069079E+01  0.16777924198E+01  0.50132734234E+01  0.51100000000E-03 0. -1.
        -11    1    3    3    0    0 -0.31728800189E+01 -0.40080678645E+01  0.12839130182E+01  0.52706933624E+01  0.51100000000E-03 0.  1.
         12    1    3    3    0    0 -0.15558794256E+02 -0.12326332372E+02  0.31819537731E+02  0.37503300253E+02  0.00000000000E+00 0. -1.
</event>
<event>
 7    1  0.2700100E-010  0.4778727E+02  0.7816164E-02  0.1312668E+00
        -11   -1    0    0    0    0  0.00000000000E+00  0.00000000000E+00  0.45593999997E+02  0.45594000000E+02  0.51100000000E-03 0.  1.
         11   -1    0    0    0    0 -0.00000000000E+00 -0.00000000000E+00 -0.45593999997E+02  0.45594000000E+02  0.51100000000E-03 0. -1.
    9900012    2    1    2    0    0  0.12785522646E+01 -0.43298661180E+02  0.26859508762E+01  0.47787273186E+02  0.20000009763E+02 0.  0.
        -12    1    1    2    0    0 -0.12785522646E+01  0.43298661180E+02 -0.26859508762E+01  0.43400726814E+02  0.00000000000E+00 0.  1.
         11    1    3    3    0    0  0.12575367848E+01 -0.42885304850E+02  0.36096039575E+01  0.43055313398E+02  0.51100000000E-03 0. -1.
        -11    1    3    3    0    0 -0.24921830977E+00 -0.23936347448E+01 -0.12419474321E+01  0.27081415663E+01  0.51100000000E-03 0.  1.
         12    1    3    3    0    0  0.27023378960E+00  0.19802784143E+01  0.31829435089E+00  0.20238182214E+01  0.00000000000E+00 0. -1.
</event>
<event>
 7    1  0.2700100E-010  0.4778728E+02  0.7816164E-02  0.1312668E+00
        -11   -1    0    0    0    0  0.00000000000E+00  0.00000000000E+00  0.45593999997E+02  0.45594000000E+02  0.51100000000E-03 0. -1.
         11   -1    0    0    0    0 -0.00000000000E+00 -0.00000000000E+00 -0.45593999997E+02  0.45594000000E+02  0.51100000000E-03 0.  1.
    9900012    2    1    2    0    0 -0.17571977017E+02 -0.15982535541E+02  0.36323641884E+02  0.47787276753E+02  0.20000026028E+02 0.  0.
        -12    1    1    2    0    0  0.17571977017E+02  0.15982535541E+02 -0.36323641884E+02  0.43400723247E+02  0.00000000000E+00 0.  1.
         11    1    3    3    0    0 -0.69622564443E+01 -0.12934851022E+01  0.20298731362E+02  0.21498479334E+02  0.51100000000E-03 0. -1.
        -11    1    3    3    0    0 -0.22924219453E+01  0.14222555100E+01  0.17992206334E+01  0.32427155687E+01  0.51100000000E-03 0.  1.
         12    1    3    3    0    0 -0.83172986270E+01 -0.16111305949E+02  0.14225689889E+02  0.23046081850E+02  0.00000000000E+00 0. -1.
</event>
<event>
 7    1  0.2700100E-010  0.4778728E+02  0.7816164E-02  0.1312668E+00
        -11   -1    0    0    0    0  0.00000000000E+00  0.00000000000E+00  0.45593999997E+02  0.45594000000E+02  0.51100000000E-03 0.  1.
         11   -1    0    0    0    0 -0.00000000000E+00 -0.00000000000E+00 -0.45593999997E+02  0.45594000000E+02  0.51100000000E-03 0. -1.
    9900012    2    1    2    0    0  0.24150336885E+02  0.31925422879E+02 -0.16767570347E+02  0.47787276354E+02  0.20000024207E+02 0.  0.
        -12    1    1    2    0    0 -0.24150336885E+02 -0.31925422879E+02  0.16767570347E+02  0.43400723646E+02  0.00000000000E+00 0.  1.
         11    1    3    3    0    0 -0.30525295379E+01  0.51597043190E+01 -0.12774513674E+01  0.61296302904E+01  0.51100000000E-03 0. -1.
        -11    1    3    3    0    0  0.20471757705E+02  0.20387378857E+02 -0.14516090640E+02  0.32333496067E+02  0.51100000000E-03 0.  1.
         12    1    3    3    0    0  0.67311087181E+01  0.63783397033E+01 -0.97402833972E+00  0.93241499962E+01  0.00000000000E+00 0. -1.
</event>
<event>
 7    1  0.2700100E-010  0.4778729E+02  0.7816164E-02  0.1312668E+00
        -11   -1    0    0    0    0  0.00000000000E+00  0.00000000000E+00  0.45593999997E+02  0.45594000000E+02  0.51100000000E-03 0.  1.
         11   -1    0    0    0    0 -0.00000000000E+00 -0.00000000000E+00 -0.45593999997E+02  0.45594000000E+02  0.51100000000E-03 0. -1.
    9900012    2    1    2    0    0  0.36857022414E+02  0.20708814152E+02 -0.98146193642E+01  0.47787287585E+02  0.20000075417E+02 0.  0.
        -12    1    1    2    0    0 -0.36857022414E+02 -0.20708814152E+02  0.98146193642E+01  0.43400712415E+02  0.00000000000E+00 0.  1.
         11    1    3    3    0    0  0.14979936043E+02  0.61967713433E+01 -0.18738279449E+01  0.16318997836E+02  0.51100000000E-03 0. -1.
        -11    1    3    3    0    0  0.18676118447E+02  0.11893420592E+02 -0.12407487469E+02  0.25381028332E+02  0.51100000000E-03 0.  1.
        -12    1    3    3    0    0  0.32009679237E+01  0.26186222167E+01  0.44666960498E+01  0.60872614174E+01  0.00000000000E+00 0.  1.
</event>
<event>
 7    1  0.2700100E-010  0.4778727E+02  0.7816164E-02  0.1312668E+00
        -11   -1    0    0    0    0  0.00000000000E+00  0.00000000000E+00  0.45593999997E+02  0.45594000000E+02  0.51100000000E-03 0.  1.
         11   -1    0    0    0    0 -0.00000000000E+00 -0.00000000000E+00 -0.45593999997E+02  0.45594000000E+02  0.51100000000E-03 0. -1.
    9900012    2    1    2    0    0  0.77037971655E+01 -0.45645954936E+01 -0.42466919487E+02  0.47787271049E+02  0.20000000021E+02 0.  0.
        -12    1    1    2    0    0 -0.77037971655E+01  0.45645954936E+01  0.42466919487E+02  0.43400728951E+02  0.00000000000E+00 0.  1.
         11    1    3    3    0    0  0.66003975307E+01 -0.53501711661E+01 -0.31103030555E+02  0.32242643952E+02  0.51100000000E-03 0. -1.
        -11    1    3    3    0    0 -0.25655704592E+01  0.34402016037E+01 -0.12606174550E+01  0.44728397562E+01  0.51100000000E-03 0.  1.
        -12    1    3    3    0    0  0.36689700940E+01 -0.26546259312E+01 -0.10103271477E+02  0.11071787341E+02  0.00000000000E+00 0.  1.
</event>
<event>
 7    1  0.2700100E-010  0.4778727E+02  0.7816164E-02  0.1312668E+00
        -11   -1    0    0    0    0  0.00000000000E+00  0.00000000000E+00  0.45593999997E+02  0.45594000000E+02  0.51100000000E-03 0. -1.
         11   -1    0    0    0    0 -0.00000000000E+00 -0.00000000000E+00 -0.45593999997E+02  0.45594000000E+02  0.51100000000E-03 0.  1.
    9900012    2    1    2    0    0  0.37493483316E+02 -0.18685105486E+02  0.11345875469E+02  0.47787270187E+02  0.19999996088E+02 0.  0.
        -12    1    1    2    0    0 -0.37493483316E+02  0.18685105486E+02 -0.11345875469E+02  0.43400729813E+02  0.00000000000E+00 0.  1.
         11    1    3    3    0    0  0.27212607261E+02 -0.66700979694E+01  0.49656679147E+01  0.28454772165E+02  0.51100000000E-03 0. -1.
        -11    1    3    3    0    0  0.52777581121E+01 -0.42619613353E+01  0.74120944899E+01  0.10047795286E+02  0.51100000000E-03 0.  1.
         12    1    3    3    0    0  0.50031179428E+01 -0.77530461816E+01 -0.10318869360E+01  0.92847027358E+01  0.00000000000E+00 0. -1.
</event>
<event>
 7    1  0.2700100E-010  0.4778727E+02  0.7816164E-02  0.1312668E+00
        -11   -1    0    0    0    0  0.00000000000E+00  0.00000000000E+00  0.45593999997E+02  0.45594000000E+02  0.51100000000E-03 0. -1.
         11   -1    0    0    0    0 -0.00000000000E+00 -0.00000000000E+00 -0.45593999997E+02  0.45594000000E+02  0.51100000000E-03 0.  1.
    9900012    2    1    2    0    0 -0.12729499783E+02 -0.31111696701E+02 -0.27452604798E+02  0.47787270208E+02  0.19999996185E+02 0.  0.
        -12    1    1    2    0    0  0.12729499783E+02  0.31111696701E+02  0.27452604798E+02  0.43400729792E+02  0.00000000000E+00 0.  1.
         11    1    3    3    0    0 -0.43045599674E+01 -0.25609350545E+01 -0.22787204075E+01  0.55027440266E+01  0.51100000000E-03 0. -1.
        -11    1    3    3    0    0 -0.29961288891E+01 -0.10767004264E+02 -0.23708739208E+00  0.11178612607E+02  0.51100000000E-03 0.  1.
        -12    1    3    3    0    0 -0.54288109263E+01 -0.17783757383E+02 -0.24936796999E+02  0.31105913574E+02  0.00000000000E+00 0.  1.
</event>
<event>
 7    1  0.2700100E-010  0.4778727E+02  0.7816164E-02  0.1312668E+00
        -11   -1    0    0    0    0  0.00000000000E+00  0.00000000000E+00  0.45593999997E+02  0.45594000000E+02  0.51100000000E-03 0.  1.
         11   -1    0    0    0    0 -0.00000000000E+00 -0.00000000000E+00 -0.45593999997E+02  0.45594000000E+02  0.51100000000E-03 0. -1.
    9900012    2    1    2    0    0  0.76158508253E+01 -0.41295636107E+02 -0.10967788541E+02  0.47787272693E+02  0.20000007518E+02 0.  0.
        -12    1    1    2    0    0 -0.76158508253E+01  0.41295636107E+02  0.10967788541E+02  0.43400727307E+02  0.00000000000E+00 0.  1.
         11    1    3    3    0    0  0.10620757123E+02 -0.37351066094E+02 -0.14019075328E+02  0.41284828854E+02  0.51100000000E-03 0. -1.
        -11    1    3    3    0    0 -0.90006986014E+00 -0.21760915651E+00  0.18306756696E+01  0.20515489676E+01  0.51100000000E-03 0.  1.
         12    1    3    3    0    0 -0.21048364375E+01 -0.37269608569E+01  0.12206111177E+01  0.44508948716E+01  0.00000000000E+00 0. -1.
</event>
<event>
 7    1  0.2700100E-010  0.4778727E+02  0.7816164E-02  0.1312668E+00
        -11   -1    0    0    0    0  0.00000000000E+00  0.00000000000E+00  0.45593999997E+02  0.45594000000E+02  0.51100000000E-03 0. -1.
         11   -1    0    0    0    0 -0.00000000000E+00 -0.00000000000E+00 -0.45593999997E+02  0.45594000000E+02  0.51100000000E-03 0.  1.
    9900012    2    1    2    0    0 -0.36183795954E+02  0.88807004884E+01  0.22259584514E+02  0.47787273813E+02  0.20000012622E+02 0.  0.
        -12    1    1    2    0    0  0.36183795954E+02 -0.88807004884E+01 -0.22259584514E+02  0.43400726187E+02  0.00000000000E+00 0.  1.
         11    1    3    3    0    0 -0.68946794531E+01  0.49741564774E+01  0.14282345077E+02  0.16621197868E+02  0.51100000000E-03 0. -1.
        -11    1    3    3    0    0 -0.16504941611E+02 -0.40193057047E+00  0.29625189494E+01  0.16773525704E+02  0.51100000000E-03 0.  1.
         12    1    3    3    0    0 -0.12784174891E+02  0.43084745815E+01  0.50147204879E+01  0.14392550241E+02  0.00000000000E+00 0. -1.
</event>
<event>
 7    1  0.2700100E-010  0.4778727E+02  0.7816164E-02  0.1312668E+00
        -11   -1    0    0    0    0  0.00000000000E+00  0.00000000000E+00  0.45593999997E+02  0.45594000000E+02  0.51100000000E-03 0.  1.
         11   -1    0    0    0    0 -0.00000000000E+00 -0.00000000000E+00 -0.45593999997E+02  0.45594000000E+02  0.51100000000E-03 0. -1.
    9900012    2    1    2    0    0  0.20564052702E+01 -0.18062282759E+02 -0.39410003556E+02  0.47787271419E+02  0.20000001708E+02 0.  0.
        -12    1    1    2    0    0 -0.20564052702E+01  0.18062282759E+02  0.39410003556E+02  0.43400728581E+02  0.00000000000E+00 0.  1.
         11    1    3    3    0    0  0.41820802368E+01  0.22864619478E+01 -0.81053859136E+01  0.94029242481E+01  0.51100000000E-03 0. -1.
        -11    1    3    3    0    0 -0.26412140646E+00 -0.19719808324E+02 -0.25375302313E+02  0.32137930365E+02  0.51100000000E-03 0.  1.
         12    1    3    3    0    0 -0.18615535602E+01 -0.62893638275E+00 -0.59293153298E+01  0.62464168057E+01  0.00000000000E+00 0. -1.
</event>
<event>
 7    1  0.2700100E-010  0.4778727E+02  0.7816164E-02  0.1312668E+00
        -11   -1    0    0    0    0  0.00000000000E+00  0.00000000000E+00  0.45593999997E+02  0.45594000000E+02  0.51100000000E-03 0.  1.
         11   -1    0    0    0    0 -0.00000000000E+00 -0.00000000000E+00 -0.45593999997E+02  0.45594000000E+02  0.51100000000E-03 0. -1.
    9900012    2    1    2    0    0 -0.90560019042E+01  0.10636779553E+02 -0.41091007888E+02  0.47787272137E+02  0.20000004982E+02 0.  0.
        -12    1    1    2    0    0  0.90560019042E+01 -0.10636779553E+02  0.41091007888E+02  0.43400727863E+02  0.00000000000E+00 0.  1.
         11    1    3    3    0    0 -0.10375363886E+02  0.47206811129E+01 -0.35187959623E+02  0.36988180661E+02  0.51100000000E-03 0. -1.
        -11    1    3    3    0    0  0.33257427931E+01  0.15840134664E+01 -0.45153392706E+01  0.58273452598E+01  0.51100000000E-03 0.  1.
         12    1    3    3    0    0 -0.20063808117E+01  0.43320849742E+01 -0.13877089947E+01  0.49717462163E+01  0.00000000000E+00 0. -1.
</event>
<event>
 7    1  0.2700100E-010  0.4778726E+02  0.7816164E-02  0.1312668E+00
        -11   -1    0    0    0    0  0.00000000000E+00  0.00000000000E+00  0.45593999997E+02  0.45594000000E+02  0.51100000000E-03 0.  1.
         11   -1    0    0    0    0 -0.00000000000E+00 -0.00000000000E+00 -0.45593999997E+02  0.45594000000E+02  0.51100000000E-03 0. -1.
    9900012    2    1    2    0    0  0.38539339644E+02 -0.15200966097E+02 -0.12933444429E+02  0.47787262042E+02  0.19999958954E+02 0.  0.
        -12    1    1    2    0    0 -0.38539339644E+02  0.15200966097E+02  0.12933444429E+02  0.43400737958E+02  0.00000000000E+00 0.  1.
         11    1    3    3    0    0  0.20763130395E+02 -0.65264292801E+01 -0.11082751624E+02  0.24423948222E+02  0.51100000000E-03 0. -1.
        -11    1    3    3    0    0 -0.89210506100E+00 -0.25865982153E+00  0.22900406049E+01  0.24712431237E+01  0.51100000000E-03 0.  1.
         12    1    3    3    0    0  0.18668314311E+02 -0.84158769957E+01 -0.41407334101E+01  0.20892070696E+02  0.00000000000E+00 0. -1.
</event>
<event>
 7    1  0.2700100E-010  0.4778729E+02  0.7816164E-02  0.1312668E+00
        -11   -1    0    0    0    0  0.00000000000E+00  0.00000000000E+00  0.45593999997E+02  0.45594000000E+02  0.51100000000E-03 0.  1.
         11   -1    0    0    0    0 -0.00000000000E+00 -0.00000000000E+00 -0.45593999997E+02  0.45594000000E+02  0.51100000000E-03 0. -1.
    9900012    2    1    2    0    0  0.38065373825E+02 -0.67783229571E+01 -0.19715563359E+02  0.47787288196E+02  0.20000078200E+02 0.  0.
        -12    1    1    2    0    0 -0.38065373825E+02  0.67783229571E+01  0.19715563359E+02  0.43400711804E+02  0.00000000000E+00 0.  1.
         11    1    3    3    0    0  0.15666564344E+02  0.13686609336E+01 -0.13342737755E+02  0.20623848384E+02  0.51100000000E-03 0. -1.
        -11    1    3    3    0    0  0.18121677055E+02 -0.51790059398E+01  0.11188095631E+00  0.18847540938E+02  0.51100000000E-03 0.  1.
         12    1    3    3    0    0  0.42771324256E+01 -0.29679779509E+01 -0.64847065606E+01  0.83158988739E+01  0.00000000000E+00 0. -1.
</event>
<event>
 7    1  0.2700100E-010  0.4778727E+02  0.7816164E-02  0.1312668E+00
        -11   -1    0    0    0    0  0.00000000000E+00  0.00000000000E+00  0.45593999997E+02  0.45594000000E+02  0.51100000000E-03 0.  1.
         11   -1    0    0    0    0 -0.00000000000E+00 -0.00000000000E+00 -0.45593999997E+02  0.45594000000E+02  0.51100000000E-03 0. -1.
    9900012    2    1    2    0    0 -0.12779069821E+02 -0.40858983138E+02 -0.71317674425E+01  0.47787271487E+02  0.20000002019E+02 0.  0.
        -12    1    1    2    0    0  0.12779069821E+02  0.40858983138E+02  0.71317674425E+01  0.43400728513E+02  0.00000000000E+00 0.  1.
         11    1    3    3    0    0  0.16748797094E+01 -0.15381627873E+01  0.24216597454E+01  0.33219878062E+01  0.51100000000E-03 0.  1.
        -11    1    3    3    0    0  0.15722956897E+01 -0.67819692916E+01 -0.31145196559E+01  0.76267590860E+01  0.51100000000E-03 0. -1.
         12    1    3    3    0    0 -0.16026245220E+02 -0.32538851059E+02 -0.64389075319E+01  0.36838524595E+02  0.00000000000E+00 0. -1.
</event>
<event>
 7    1  0.2700100E-010  0.4778727E+02  0.7816164E-02  0.1312668E+00
        -11   -1    0    0    0    0  0.00000000000E+00  0.00000000000E+00  0.45593999997E+02  0.45594000000E+02  0.51100000000E-03 0.  1.
         11   -1    0    0    0    0 -0.00000000000E+00 -0.00000000000E+00 -0.45593999997E+02  0.45594000000E+02  0.51100000000E-03 0. -1.
    9900012    2    1    2    0    0 -0.14426425437E+01  0.75282342452E+01 -0.42718472506E+02  0.47787269343E+02  0.19999992240E+02 0.  0.
        -12    1    1    2    0    0  0.14426425437E+01 -0.75282342452E+01  0.42718472506E+02  0.43400730657E+02  0.00000000000E+00 0.  1.
         11    1    3    3    0    0 -0.23712351383E+01 -0.34541921815E+01 -0.16314572176E+01  0.44962042460E+01  0.51100000000E-03 0.  1.
        -11    1    3    3    0    0 -0.19501313195E+00  0.90221295157E+01 -0.18420713300E+02  0.20512423793E+02  0.51100000000E-03 0. -1.
         12    1    3    3    0    0  0.11236057265E+01  0.19602969109E+01 -0.22666301989E+02  0.22778641304E+02  0.00000000000E+00 0. -1.
</event>
<event>
 7    1  0.2700100E-010  0.4778727E+02  0.7816164E-02  0.1312668E+00
        -11   -1    0    0    0    0  0.00000000000E+00  0.00000000000E+00  0.45593999997E+02  0.45594000000E+02  0.51100000000E-03 0.  1.
         11   -1    0    0    0    0 -0.00000000000E+00 -0.00000000000E+00 -0.45593999997E+02  0.45594000000E+02  0.51100000000E-03 0. -1.
    9900012    2    1    2    0    0  0.11322247392E+02 -0.41064950512E+02 -0.83126496991E+01  0.47787267384E+02  0.19999983313E+02 0.  0.
        -12    1    1    2    0    0 -0.11322247392E+02  0.41064950512E+02  0.83126496991E+01  0.43400732616E+02  0.00000000000E+00 0.  1.
         11    1    3    3    0    0  0.27623443856E+01 -0.28307927505E+02 -0.12106469136E+02  0.30911743745E+02  0.51100000000E-03 0. -1.
        -11    1    3    3    0    0  0.61288781229E+01 -0.39762201644E+01  0.21668844248E+01  0.76202927904E+01  0.51100000000E-03 0.  1.
        -12    1    3    3    0    0  0.24310248837E+01 -0.87808028421E+01  0.16269350121E+01  0.92552308491E+01  0.00000000000E+00 0.  1.
</event>
<event>
 7    1  0.2700100E-010  0.4778728E+02  0.7816164E-02  0.1312668E+00
        -11   -1    0    0    0    0  0.00000000000E+00  0.00000000000E+00  0.45593999997E+02  0.45594000000E+02  0.51100000000E-03 0.  1.
         11   -1    0    0    0    0 -0.00000000000E+00 -0.00000000000E+00 -0.45593999997E+02  0.45594000000E+02  0.51100000000E-03 0. -1.
    9900012    2    1    2    0    0  0.46770662041E+01 -0.17544813375E+02 -0.39419886342E+02  0.47787275768E+02  0.20000021537E+02 0.  0.
        -12    1    1    2    0    0 -0.46770662041E+01  0.17544813375E+02  0.39419886342E+02  0.43400724232E+02  0.00000000000E+00 0.  1.
         11    1    3    3    0    0 -0.65629622595E+01 -0.84434577763E+01 -0.95286994001E+01  0.14323427151E+02  0.51100000000E-03 0. -1.
        -11    1    3    3    0    0  0.11279736789E+02 -0.90740541018E+01 -0.27547786633E+02  0.31119952900E+02  0.51100000000E-03 0.  1.
        -12    1    3    3    0    0 -0.39708325807E-01 -0.27301497338E-01 -0.23434003086E+01  0.23438957163E+01  0.00000000000E+00 0.  1.
</event>
<event>
 7    1  0.2700100E-010  0.4778727E+02  0.7816164E-02  0.1312668E+00
        -11   -1    0    0    0    0  0.00000000000E+00  0.00000000000E+00  0.45593999997E+02  0.45594000000E+02  0.51100000000E-03 0. -1.
         11   -1    0    0    0    0 -0.00000000000E+00 -0.00000000000E+00 -0.45593999997E+02  0.45594000000E+02  0.51100000000E-03 0.  1.
    9900012    2    1    2    0    0 -0.25740750232E+02 -0.24890961293E+01  0.34854581617E+02  0.47787266346E+02  0.19999978577E+02 0.  0.
        -12    1    1    2    0    0  0.25740750232E+02  0.24890961293E+01 -0.34854581617E+02  0.43400733654E+02  0.00000000000E+00 0.  1.
         11    1    3    3    0    0 -0.11756779715E+02 -0.95968332172E+01  0.19738999185E+02  0.24898778407E+02  0.51100000000E-03 0. -1.
        -11    1    3    3    0    0 -0.10693275901E+02  0.68441732866E+01  0.78990618234E+01  0.14952726689E+02  0.51100000000E-03 0.  1.
         12    1    3    3    0    0 -0.32906946151E+01  0.26356380128E+00  0.72165206082E+01  0.79357612499E+01  0.00000000000E+00 0. -1.
</event>
<event>
 7    1  0.2700100E-010  0.4778729E+02  0.7816164E-02  0.1312668E+00
        -11   -1    0    0    0    0  0.00000000000E+00  0.00000000000E+00  0.45593999997E+02  0.45594000000E+02  0.51100000000E-03 0. -1.
         11   -1    0    0    0    0 -0.00000000000E+00 -0.00000000000E+00 -0.45593999997E+02  0.45594000000E+02  0.51100000000E-03 0.  1.
    9900012    2    1    2    0    0 -0.71350188567E+01 -0.33738071697E+02  0.26352526577E+02  0.47787289949E+02  0.20000086195E+02 0.  0.
        -12    1    1    2    0    0  0.71350188567E+01  0.33738071697E+02 -0.26352526577E+02  0.43400710051E+02  0.00000000000E+00 0.  1.
         11    1    3    3    0    0 -0.39487865092E+01 -0.33999191076E+02  0.19255537016E+02  0.39272300859E+02  0.51100000000E-03 0. -1.
        -11    1    3    3    0    0 -0.33842701734E+01 -0.58565276046E+00  0.67597826011E+01  0.75822776814E+01  0.51100000000E-03 0.  1.
         12    1    3    3    0    0  0.19803782589E+00  0.84677214020E+00  0.33720696042E+00  0.93271140878E+00  0.00000000000E+00 0. -1.
</event>
<event>
 7    1  0.2700100E-010  0.4778728E+02  0.7816164E-02  0.1312668E+00
        -11   -1    0    0    0    0  0.00000000000E+00  0.00000000000E+00  0.45593999997E+02  0.45594000000E+02  0.51100000000E-03 0. -1.
         11   -1    0    0    0    0 -0.00000000000E+00 -0.00000000000E+00 -0.45593999997E+02  0.45594000000E+02  0.51100000000E-03 0.  1.
    9900012    2    1    2    0    0  0.20283757586E+02 -0.36634275638E+02 -0.11407099478E+02  0.47787275446E+02  0.20000020069E+02 0.  0.
        -12    1    1    2    0    0 -0.20283757586E+02  0.36634275638E+02  0.11407099478E+02  0.43400724554E+02  0.00000000000E+00 0.  1.
         11    1    3    3    0    0  0.15115289970E+02 -0.14587926430E+02 -0.24870556033E+01  0.21153369335E+02  0.51100000000E-03 0. -1.
        -11    1    3    3    0    0  0.34684806688E+01 -0.20167216617E+02 -0.36499693388E+01  0.20786275777E+02  0.51100000000E-03 0.  1.
        -12    1    3    3    0    0  0.16999869463E+01 -0.18791325914E+01 -0.52700745357E+01  0.58476303342E+01  0.00000000000E+00 0.  1.
</event>
<event>
 7    1  0.2700100E-010  0.4778727E+02  0.7816164E-02  0.1312668E+00
        -11   -1    0    0    0    0  0.00000000000E+00  0.00000000000E+00  0.45593999997E+02  0.45594000000E+02  0.51100000000E-03 0. -1.
         11   -1    0    0    0    0 -0.00000000000E+00 -0.00000000000E+00 -0.45593999997E+02  0.45594000000E+02  0.51100000000E-03 0.  1.
    9900012    2    1    2    0    0 -0.14122551328E-01  0.21965314276E+02  0.37431918705E+02  0.47787265345E+02  0.19999974015E+02 0.  0.
        -12    1    1    2    0    0  0.14122551328E-01 -0.21965314276E+02 -0.37431918705E+02  0.43400734655E+02  0.00000000000E+00 0.  1.
         11    1    3    3    0    0 -0.54084250966E+01  0.20088768919E+02  0.28711129504E+02  0.35456151178E+02  0.51100000000E-03 0. -1.
        -11    1    3    3    0    0  0.39821423127E+01  0.59031437277E-01  0.77318484810E+00  0.40569393858E+01  0.51100000000E-03 0.  1.
         12    1    3    3    0    0  0.14121602326E+01  0.18175139194E+01  0.79476043520E+01  0.82741747810E+01  0.00000000000E+00 0. -1.
</event>
<event>
 7    1  0.2700100E-010  0.4778727E+02  0.7816164E-02  0.1312668E+00
        -11   -1    0    0    0    0  0.00000000000E+00  0.00000000000E+00  0.45593999997E+02  0.45594000000E+02  0.51100000000E-03 0.  1.
         11   -1    0    0    0    0 -0.00000000000E+00 -0.00000000000E+00 -0.45593999997E+02  0.45594000000E+02  0.51100000000E-03 0. -1.
    9900012    2    1    2    0    0  0.95394338007E+01 -0.25458451853E+02 -0.33830306970E+02  0.47787271462E+02  0.20000001903E+02 0.  0.
        -12    1    1    2    0    0 -0.95394338007E+01  0.25458451853E+02  0.33830306970E+02  0.43400728538E+02  0.00000000000E+00 0.  1.
         11    1    3    3    0    0 -0.12172693670E+01  0.18410406142E+01 -0.19355132355E+01  0.29355386220E+01  0.51100000000E-03 0. -1.
        -11    1    3    3    0    0  0.10579657067E+02 -0.19941118014E+02 -0.17073502939E+02  0.28303389094E+02  0.51100000000E-03 0.  1.
        -12    1    3    3    0    0  0.17704610026E+00 -0.73583744529E+01 -0.14821290795E+02  0.16548343746E+02  0.00000000000E+00 0.  1.
</event>
<event>
 7    1  0.2700100E-010  0.4778727E+02  0.7816164E-02  0.1312668E+00
        -11   -1    0    0    0    0  0.00000000000E+00  0.00000000000E+00  0.45593999997E+02  0.45594000000E+02  0.51100000000E-03 0.  1.
         11   -1    0    0    0    0 -0.00000000000E+00 -0.00000000000E+00 -0.45593999997E+02  0.45594000000E+02  0.51100000000E-03 0. -1.
    9900012    2    1    2    0    0 -0.42079502958E+01 -0.84009847588E+01 -0.42371450944E+02  0.47787271369E+02  0.20000001480E+02 0.  0.
        -12    1    1    2    0    0  0.42079502958E+01  0.84009847588E+01  0.42371450944E+02  0.43400728631E+02  0.00000000000E+00 0.  1.
         11    1    3    3    0    0  0.48110391078E+01 -0.24961473765E+01 -0.22894768091E+02  0.23527584985E+02  0.51100000000E-03 0. -1.
        -11    1    3    3    0    0 -0.50329060003E+01 -0.15168389465E+01 -0.17062293714E+01  0.55264963699E+01  0.51100000000E-03 0.  1.
         12    1    3    3    0    0 -0.39860834033E+01 -0.43879984358E+01 -0.17770453482E+02  0.18733190015E+02  0.00000000000E+00 0. -1.
</event>
<event>
 7    1  0.2700100E-010  0.4778728E+02  0.7816164E-02  0.1312668E+00
        -11   -1    0    0    0    0  0.00000000000E+00  0.00000000000E+00  0.45593999997E+02  0.45594000000E+02  0.51100000000E-03 0.  1.
         11   -1    0    0    0    0 -0.00000000000E+00 -0.00000000000E+00 -0.45593999997E+02  0.45594000000E+02  0.51100000000E-03 0. -1.
    9900012    2    1    2    0    0 -0.12759751879E+02 -0.36893065660E+02 -0.18966105119E+02  0.47787277596E+02  0.20000029870E+02 0.  0.
        -12    1    1    2    0    0  0.12759751879E+02  0.36893065660E+02  0.18966105119E+02  0.43400722404E+02  0.00000000000E+00 0.  1.
         11    1    3    3    0    0  0.17982400085E+00 -0.15050669565E+01  0.21656800450E+01  0.26434321503E+01  0.51100000000E-03 0.  1.
        -11    1    3    3    0    0 -0.72379077241E+01 -0.30646241248E+02 -0.12804388412E+02  0.33993113622E+02  0.51100000000E-03 0. -1.
        -12    1    3    3    0    0 -0.57016681554E+01 -0.47417574559E+01 -0.83273967524E+01  0.11150731823E+02  0.00000000000E+00 0.  1.
</event>
<event>
 7    1  0.2700100E-010  0.4778727E+02  0.7816164E-02  0.1312668E+00
        -11   -1    0    0    0    0  0.00000000000E+00  0.00000000000E+00  0.45593999997E+02  0.45594000000E+02  0.51100000000E-03 0.  1.
         11   -1    0    0    0    0 -0.00000000000E+00 -0.00000000000E+00 -0.45593999997E+02  0.45594000000E+02  0.51100000000E-03 0. -1.
    9900012    2    1    2    0    0  0.30692510075E+02 -0.14885913430E+02 -0.26832863692E+02  0.47787272272E+02  0.20000005598E+02 0.  0.
        -12    1    1    2    0    0 -0.30692510075E+02  0.14885913430E+02  0.26832863692E+02  0.43400727728E+02  0.00000000000E+00 0.  1.
         11    1    3    3    0    0  0.10631957098E+02 -0.22900373286E+01 -0.16966611952E+02  0.20153131372E+02  0.51100000000E-03 0. -1.
        -11    1    3    3    0    0  0.19557923223E+02 -0.81732537684E+01 -0.69270875322E+01  0.22300201342E+02  0.51100000000E-03 0.  1.
        -12    1    3    3    0    0  0.50262975436E+00 -0.44226223331E+01 -0.29391642076E+01  0.53339395581E+01  0.00000000000E+00 0.  1.
</event>
<event>
 7    1  0.2700100E-010  0.4778728E+02  0.7816164E-02  0.1312668E+00
        -11   -1    0    0    0    0  0.00000000000E+00  0.00000000000E+00  0.45593999997E+02  0.45594000000E+02  0.51100000000E-03 0. -1.
         11   -1    0    0    0    0 -0.00000000000E+00 -0.00000000000E+00 -0.45593999997E+02  0.45594000000E+02  0.51100000000E-03 0.  1.
    9900012    2    1    2    0    0 -0.80779152774E+01  0.16782642224E+02  0.39200926252E+02  0.47787280948E+02  0.20000045152E+02 0.  0.
        -12    1    1    2    0    0  0.80779152774E+01 -0.16782642224E+02 -0.39200926252E+02  0.43400719052E+02  0.00000000000E+00 0.  1.
         11    1    3    3    0    0  0.15105423685E+01  0.12202314461E+02  0.11829838182E+02  0.17062335366E+02  0.51100000000E-03 0.  1.
        -11    1    3    3    0    0 -0.81687405714E+01 -0.95485559272E+00  0.15334119297E+02  0.17400439265E+02  0.51100000000E-03 0. -1.
        -12    1    3    3    0    0 -0.14197170744E+01  0.55351833557E+01  0.12036968773E+02  0.13324506317E+02  0.00000000000E+00 0.  1.
</event>
<event>
 7    1  0.2700100E-010  0.4778727E+02  0.7816164E-02  0.1312668E+00
        -11   -1    0    0    0    0  0.00000000000E+00  0.00000000000E+00  0.45593999997E+02  0.45594000000E+02  0.51100000000E-03 0.  1.
         11   -1    0    0    0    0 -0.00000000000E+00 -0.00000000000E+00 -0.45593999997E+02  0.45594000000E+02  0.51100000000E-03 0. -1.
    9900012    2    1    2    0    0 -0.66408954358E+01 -0.38035994666E+02 -0.19818799413E+02  0.47787271981E+02  0.20000004271E+02 0.  0.
        -12    1    1    2    0    0  0.66408954358E+01  0.38035994666E+02  0.19818799413E+02  0.43400728019E+02  0.00000000000E+00 0.  1.
         11    1    3    3    0    0 -0.79506240130E+01 -0.11096841602E+02 -0.99144400719E+01  0.16871527433E+02  0.51100000000E-03 0. -1.
        -11    1    3    3    0    0 -0.23866490237E+00 -0.25304650156E+02 -0.11847388387E+02  0.27941776828E+02  0.51100000000E-03 0.  1.
        -12    1    3    3    0    0  0.15483934796E+01 -0.16345029075E+01  0.19430290462E+01  0.29739677195E+01  0.00000000000E+00 0.  1.
</event>
<event>
 7    1  0.2700100E-010  0.4778727E+02  0.7816164E-02  0.1312668E+00
        -11   -1    0    0    0    0  0.00000000000E+00  0.00000000000E+00  0.45593999997E+02  0.45594000000E+02  0.51100000000E-03 0.  1.
         11   -1    0    0    0    0 -0.00000000000E+00 -0.00000000000E+00 -0.45593999997E+02  0.45594000000E+02  0.51100000000E-03 0. -1.
    9900012    2    1    2    0    0  0.27723824125E+02 -0.15776717642E+02 -0.29429712143E+02  0.47787271890E+02  0.20000003854E+02 0.  0.
        -12    1    1    2    0    0 -0.27723824125E+02  0.15776717642E+02  0.29429712143E+02  0.43400728110E+02  0.00000000000E+00 0.  1.
         11    1    3    3    0    0  0.16750339499E+02 -0.37092426470E+01 -0.92932561792E+01  0.19511457276E+02  0.51100000000E-03 0. -1.
        -11    1    3    3    0    0  0.10234872081E+02 -0.13929719137E+02 -0.15468865122E+02  0.23196453827E+02  0.51100000000E-03 0.  1.
        -12    1    3    3    0    0  0.73861254520E+00  0.18622441417E+01 -0.46675908417E+01  0.50793607866E+01  0.00000000000E+00 0.  1.
</event>
<event>
 7    1  0.2700100E-010  0.4778727E+02  0.7816164E-02  0.1312668E+00
        -11   -1    0    0    0    0  0.00000000000E+00  0.00000000000E+00  0.45593999997E+02  0.45594000000E+02  0.51100000000E-03 0. -1.
         11   -1    0    0    0    0 -0.00000000000E+00 -0.00000000000E+00 -0.45593999997E+02  0.45594000000E+02  0.51100000000E-03 0.  1.
    9900012    2    1    2    0    0  0.20362747821E+02  0.23225206687E+02  0.30488873827E+02  0.47787272452E+02  0.20000006416E+02 0.  0.
        -12    1    1    2    0    0 -0.20362747821E+02 -0.23225206687E+02 -0.30488873827E+02  0.43400727548E+02  0.00000000000E+00 0.  1.
         11    1    3    3    0    0  0.68973319801E+01  0.16708462116E+02  0.10907778044E+02  0.21112212505E+02  0.51100000000E-03 0. -1.
        -11    1    3    3    0    0  0.13781201851E+02  0.67933170645E+01  0.20526899094E+02  0.25640286034E+02  0.51100000000E-03 0.  1.
         12    1    3    3    0    0 -0.31578601055E+00 -0.27657249294E+00 -0.94580331129E+00  0.10347739134E+01  0.00000000000E+00 0. -1.
</event>
<event>
 7    1  0.2700100E-010  0.4778727E+02  0.7816164E-02  0.1312668E+00
        -11   -1    0    0    0    0  0.00000000000E+00  0.00000000000E+00  0.45593999997E+02  0.45594000000E+02  0.51100000000E-03 0.  1.
         11   -1    0    0    0    0 -0.00000000000E+00 -0.00000000000E+00 -0.45593999997E+02  0.45594000000E+02  0.51100000000E-03 0. -1.
    9900012    2    1    2    0    0  0.35679973716E+01 -0.17698581281E+02 -0.39467109923E+02  0.47787272468E+02  0.20000006492E+02 0.  0.
        -12    1    1    2    0    0 -0.35679973716E+01  0.17698581281E+02  0.39467109923E+02  0.43400727532E+02  0.00000000000E+00 0.  1.
         11    1    3    3    0    0  0.21059373848E+01 -0.68967956218E+01 -0.36156835621E+01  0.80668413892E+01  0.51100000000E-03 0. -1.
        -11    1    3    3    0    0 -0.39154273317E+01 -0.51053282674E+01 -0.27610846428E+02  0.28350551822E+02  0.51100000000E-03 0.  1.
        -12    1    3    3    0    0  0.53774873185E+01 -0.56964573920E+01 -0.82405799333E+01  0.11369879257E+02  0.00000000000E+00 0.  1.
</event>
<event>
 7    1  0.2700100E-010  0.4778727E+02  0.7816164E-02  0.1312668E+00
        -11   -1    0    0    0    0  0.00000000000E+00  0.00000000000E+00  0.45593999997E+02  0.45594000000E+02  0.51100000000E-03 0.  1.
         11   -1    0    0    0    0 -0.00000000000E+00 -0.00000000000E+00 -0.45593999997E+02  0.45594000000E+02  0.51100000000E-03 0. -1.
    9900012    2    1    2    0    0  0.13103578157E+02 -0.38653928754E+02 -0.14757821870E+02  0.47787271031E+02  0.19999999941E+02 0.  0.
        -12    1    1    2    0    0 -0.13103578157E+02  0.38653928754E+02  0.14757821870E+02  0.43400728969E+02  0.00000000000E+00 0.  1.
         11    1    3    3    0    0 -0.30629505334E+01 -0.10390304961E+02 -0.78052278142E+00  0.10860447469E+02  0.51100000000E-03 0.  1.
        -11    1    3    3    0    0  0.14901715407E+02 -0.26499793364E+02 -0.93366079597E+01  0.31803654175E+02  0.51100000000E-03 0. -1.
        -12    1    3    3    0    0  0.12648132835E+01 -0.17638304293E+01 -0.46406911288E+01  0.51231693880E+01  0.00000000000E+00 0.  1.
</event>
<event>
 7    1  0.2700100E-010  0.4778727E+02  0.7816164E-02  0.1312668E+00
        -11   -1    0    0    0    0  0.00000000000E+00  0.00000000000E+00  0.45593999997E+02  0.45594000000E+02  0.51100000000E-03 0.  1.
         11   -1    0    0    0    0 -0.00000000000E+00 -0.00000000000E+00 -0.45593999997E+02  0.45594000000E+02  0.51100000000E-03 0. -1.
    9900012    2    1    2    0    0 -0.15966032735E+02  0.63954511620E+01 -0.39847297323E+02  0.47787273038E+02  0.20000009090E+02 0.  0.
        -12    1    1    2    0    0  0.15966032735E+02 -0.63954511620E+01  0.39847297323E+02  0.43400726962E+02  0.00000000000E+00 0.  1.
         11    1    3    3    0    0 -0.85470237352E+00  0.22888401440E+01 -0.16052376718E+02  0.16237244344E+02  0.51100000000E-03 0. -1.
        -11    1    3    3    0    0 -0.87871443071E+01 -0.26199660860E+01 -0.46187362144E+01  0.10266978711E+02  0.51100000000E-03 0.  1.
        -12    1    3    3    0    0 -0.63241860541E+01  0.67265771041E+01 -0.19176184391E+02  0.21283049983E+02  0.00000000000E+00 0.  1.
</event>
<event>
 7    1  0.2700100E-010  0.4778727E+02  0.7816164E-02  0.1312668E+00
        -11   -1    0    0    0    0  0.00000000000E+00  0.00000000000E+00  0.45593999997E+02  0.45594000000E+02  0.51100000000E-03 0.  1.
         11   -1    0    0    0    0 -0.00000000000E+00 -0.00000000000E+00 -0.45593999997E+02  0.45594000000E+02  0.51100000000E-03 0. -1.
    9900012    2    1    2    0    0 -0.13684661561E+02  0.15244565182E+02 -0.38261682709E+02  0.47787273124E+02  0.20000009480E+02 0.  0.
        -12    1    1    2    0    0  0.13684661561E+02 -0.15244565182E+02  0.38261682709E+02  0.43400726876E+02  0.00000000000E+00 0.  1.
         11    1    3    3    0    0 -0.77839683197E+01  0.10324471064E+01 -0.64333109462E+01  0.10151039347E+02  0.51100000000E-03 0. -1.
        -11    1    3    3    0    0 -0.31397091960E+01  0.11297500163E+02 -0.31495879229E+02  0.33607762384E+02  0.51100000000E-03 0.  1.
        -12    1    3    3    0    0 -0.27609840451E+01  0.29146179132E+01 -0.33249253377E+00  0.40284713928E+01  0.00000000000E+00 0.  1.
</event>
<event>
 7    1  0.2700100E-010  0.4778726E+02  0.7816164E-02  0.1312668E+00
        -11   -1    0    0    0    0  0.00000000000E+00  0.00000000000E+00  0.45593999997E+02  0.45594000000E+02  0.51100000000E-03 0.  1.
         11   -1    0    0    0    0 -0.00000000000E+00 -0.00000000000E+00 -0.45593999997E+02  0.45594000000E+02  0.51100000000E-03 0. -1.
    9900012    2    1    2    0    0 -0.42199132669E+01  0.29909551922E+02 -0.31164642183E+02  0.47787263986E+02  0.19999967820E+02 0.  0.
        -12    1    1    2    0    0  0.42199132669E+01 -0.29909551922E+02  0.31164642183E+02  0.43400736014E+02  0.00000000000E+00 0.  1.
         11    1    3    3    0    0 -0.73415858041E+01  0.67340029631E+01 -0.15501575089E+02  0.18426733529E+02  0.51100000000E-03 0. -1.
        -11    1    3    3    0    0  0.54731629897E+01  0.14099385320E+02 -0.72878432744E+01  0.16788711665E+02  0.51100000000E-03 0.  1.
        -12    1    3    3    0    0 -0.23514904524E+01  0.90761636385E+01 -0.83752238189E+01  0.12571818793E+02  0.00000000000E+00 0.  1.
</event>
<event>
 7    1  0.2700100E-010  0.4778727E+02  0.7816164E-02  0.1312668E+00
        -11   -1    0    0    0    0  0.00000000000E+00  0.00000000000E+00  0.45593999997E+02  0.45594000000E+02  0.51100000000E-03 0.  1.
         11   -1    0    0    0    0 -0.00000000000E+00 -0.00000000000E+00 -0.45593999997E+02  0.45594000000E+02  0.51100000000E-03 0. -1.
    9900012    2    1    2    0    0 -0.18492353909E+02  0.12049738108E+02 -0.37369238385E+02  0.47787270524E+02  0.19999997628E+02 0.  0.
        -12    1    1    2    0    0  0.18492353909E+02 -0.12049738108E+02  0.37369238385E+02  0.43400729476E+02  0.00000000000E+00 0.  1.
         11    1    3    3    0    0 -0.25150456724E+01  0.78998790328E+01 -0.46236963282E+01  0.94927399345E+01  0.51100000000E-03 0. -1.
        -11    1    3    3    0    0 -0.17495112597E+02  0.41744198626E+01 -0.27713482419E+02  0.33038490492E+02  0.51100000000E-03 0.  1.
        -12    1    3    3    0    0  0.15178043606E+01 -0.24560787023E-01 -0.50320596375E+01  0.52560400974E+01  0.00000000000E+00 0.  1.
</event>
<event>
 7    1  0.2700100E-010  0.4778727E+02  0.7816164E-02  0.1312668E+00
        -11   -1    0    0    0    0  0.00000000000E+00  0.00000000000E+00  0.45593999997E+02  0.45594000000E+02  0.51100000000E-03 0. -1.
         11   -1    0    0    0    0 -0.00000000000E+00 -0.00000000000E+00 -0.45593999997E+02  0.45594000000E+02  0.51100000000E-03 0.  1.
    9900012    2    1    2    0    0 -0.20519103261E+01  0.34504477786E+02  0.26246023118E+02  0.47787273591E+02  0.20000011611E+02 0.  0.
        -12    1    1    2    0    0  0.20519103261E+01 -0.34504477786E+02 -0.26246023118E+02  0.43400726409E+02  0.00000000000E+00 0.  1.
         11    1    3    3    0    0  0.43939561679E+01  0.63251570511E+01  0.14647164730E+02  0.16548531579E+02  0.51100000000E-03 0. -1.
        -11    1    3    3    0    0 -0.14211512115E+01  0.10854038864E+02  0.38239442729E+01  0.11595360300E+02  0.51100000000E-03 0.  1.
         12    1    3    3    0    0 -0.50247152825E+01  0.17325281871E+02  0.77749141154E+01  0.19643381712E+02  0.00000000000E+00 0. -1.
</event>
<event>
 7    1  0.2700100E-010  0.4778727E+02  0.7816164E-02  0.1312668E+00
        -11   -1    0    0    0    0  0.00000000000E+00  0.00000000000E+00  0.45593999997E+02  0.45594000000E+02  0.51100000000E-03 0.  1.
         11   -1    0    0    0    0 -0.00000000000E+00 -0.00000000000E+00 -0.45593999997E+02  0.45594000000E+02  0.51100000000E-03 0. -1.
    9900012    2    1    2    0    0 -0.68149497438E+01 -0.32668245701E+02 -0.27748253437E+02  0.47787269753E+02  0.19999994113E+02 0.  0.
        -12    1    1    2    0    0  0.68149497438E+01  0.32668245701E+02  0.27748253437E+02  0.43400730247E+02  0.00000000000E+00 0.  1.
         11    1    3    3    0    0  0.18460998020E+01 -0.59606723684E+01 -0.64222641703E+01  0.89545059549E+01  0.51100000000E-03 0. -1.
        -11    1    3    3    0    0 -0.49053395917E+01 -0.27272642226E+02 -0.21435174058E+02  0.35033213636E+02  0.51100000000E-03 0.  1.
        -12    1    3    3    0    0 -0.37557099541E+01  0.56506889421E+00  0.10918479172E+00  0.37995501619E+01  0.00000000000E+00 0.  1.
</event>
<event>
 7    1  0.2700100E-010  0.4778727E+02  0.7816164E-02  0.1312668E+00
        -11   -1    0    0    0    0  0.00000000000E+00  0.00000000000E+00  0.45593999997E+02  0.45594000000E+02  0.51100000000E-03 0.  1.
         11   -1    0    0    0    0 -0.00000000000E+00 -0.00000000000E+00 -0.45593999997E+02  0.45594000000E+02  0.51100000000E-03 0. -1.
    9900012    2    1    2    0    0  0.64203281718E+01 -0.42384419190E+02 -0.67796443634E+01  0.47787272108E+02  0.20000004848E+02 0.  0.
        -12    1    1    2    0    0 -0.64203281718E+01  0.42384419190E+02  0.67796443634E+01  0.43400727892E+02  0.00000000000E+00 0.  1.
         11    1    3    3    0    0  0.13412041218E+01 -0.28885526840E+02  0.12434742524E+01  0.28943370878E+02  0.51100000000E-03 0.  1.
        -11    1    3    3    0    0  0.47457722585E+00 -0.68727033067E+01 -0.82796201130E+01  0.10770858079E+02  0.51100000000E-03 0. -1.
         12    1    3    3    0    0  0.46045468241E+01 -0.66261890434E+01  0.25650149717E+00  0.80730431507E+01  0.00000000000E+00 0. -1.
</event>
<event>
 7    1  0.2700100E-010  0.4778727E+02  0.7816164E-02  0.1312668E+00
        -11   -1    0    0    0    0  0.00000000000E+00  0.00000000000E+00  0.45593999997E+02  0.45594000000E+02  0.51100000000E-03 0. -1.
         11   -1    0    0    0    0 -0.00000000000E+00 -0.00000000000E+00 -0.45593999997E+02  0.45594000000E+02  0.51100000000E-03 0.  1.
    9900012    2    1    2    0    0 -0.40939988823E+02  0.14343134046E+02 -0.13472115525E+01  0.47787272379E+02  0.20000006084E+02 0.  0.
        -12    1    1    2    0    0  0.40939988823E+02 -0.14343134046E+02  0.13472115525E+01  0.43400727621E+02  0.00000000000E+00 0.  1.
         11    1    3    3    0    0 -0.19652698501E+02  0.14914956122E+02 -0.20428470426E+01  0.24755962894E+02  0.51100000000E-03 0. -1.
        -11    1    3    3    0    0 -0.13028069981E+02 -0.33088759265E+01 -0.26660610337E+01  0.13703545126E+02  0.51100000000E-03 0.  1.
        -12    1    3    3    0    0 -0.82592203404E+01  0.27370538504E+01  0.33616965238E+01  0.93277643586E+01  0.00000000000E+00 0.  1.
</event>
<event>
 7    1  0.2700100E-010  0.4778727E+02  0.7816164E-02  0.1312668E+00
        -11   -1    0    0    0    0  0.00000000000E+00  0.00000000000E+00  0.45593999997E+02  0.45594000000E+02  0.51100000000E-03 0.  1.
         11   -1    0    0    0    0 -0.00000000000E+00 -0.00000000000E+00 -0.45593999997E+02  0.45594000000E+02  0.51100000000E-03 0. -1.
    9900012    2    1    2    0    0 -0.15286174526E+02 -0.38460051538E+02 -0.13068311831E+02  0.47787268784E+02  0.19999989694E+02 0.  0.
        -12    1    1    2    0    0  0.15286174526E+02  0.38460051538E+02  0.13068311831E+02  0.43400731216E+02  0.00000000000E+00 0.  1.
         11    1    3    3    0    0  0.41217256658E+01 -0.38083135798E+01 -0.21151975542E+01  0.59971606399E+01  0.51100000000E-03 0.  1.
        -11    1    3    3    0    0 -0.15498509560E+02 -0.27680445102E+02 -0.11583624045E+02  0.33772639605E+02  0.51100000000E-03 0. -1.
        -12    1    3    3    0    0 -0.39093906320E+01 -0.69712928569E+01  0.63050976844E+00  0.80174685393E+01  0.00000000000E+00 0.  1.
</event>
<event>
 7    1  0.2700100E-010  0.4778727E+02  0.7816164E-02  0.1312668E+00
        -11   -1    0    0    0    0  0.00000000000E+00  0.00000000000E+00  0.45593999997E+02  0.45594000000E+02  0.51100000000E-03 0.  1.
         11   -1    0    0    0    0 -0.00000000000E+00 -0.00000000000E+00 -0.45593999997E+02  0.45594000000E+02  0.51100000000E-03 0. -1.
    9900012    2    1    2    0    0 -0.36922422757E+01  0.33307185594E+02 -0.27579372461E+02  0.47787273617E+02  0.20000011730E+02 0.  0.
        -12    1    1    2    0    0  0.36922422757E+01 -0.33307185594E+02  0.27579372461E+02  0.43400726383E+02  0.00000000000E+00 0.  1.
         11    1    3    3    0    0 -0.31826778429E+01  0.24582352597E+02 -0.26366765676E+02  0.36188780443E+02  0.51100000000E-03 0. -1.
        -11    1    3    3    0    0  0.28067724537E+01  0.53947775435E+01  0.13732188856E+01  0.62343665853E+01  0.51100000000E-03 0.  1.
         12    1    3    3    0    0 -0.33163368865E+01  0.33300554529E+01 -0.25858256713E+01  0.53641265893E+01  0.00000000000E+00 0. -1.
</event>
<event>
 7    1  0.2700100E-010  0.4778726E+02  0.7816164E-02  0.1312668E+00
        -11   -1    0    0    0    0  0.00000000000E+00  0.00000000000E+00  0.45593999997E+02  0.45594000000E+02  0.51100000000E-03 0.  1.
         11   -1    0    0    0    0 -0.00000000000E+00 -0.00000000000E+00 -0.45593999997E+02  0.45594000000E+02  0.51100000000E-03 0. -1.
    9900012    2    1    2    0    0 -0.13223417409E+02 -0.37430146921E+02 -0.17542780234E+02  0.47787264927E+02  0.19999972109E+02 0.  0.
        -12    1    1    2    0    0  0.13223417409E+02  0.37430146921E+02  0.17542780234E+02  0.43400735073E+02  0.00000000000E+00 0.  1.
         11    1    3    3    0    0 -0.12243438991E+02 -0.38232851760E+02 -0.17357370613E+02  0.43737067424E+02  0.51100000000E-03 0. -1.
        -11    1    3    3    0    0 -0.21778756215E+01  0.37387359579E+00 -0.11143658247E+01  0.24748202239E+01  0.51100000000E-03 0.  1.
         12    1    3    3    0    0  0.11978972029E+01  0.42883124321E+00  0.92895620318E+00  0.15753772790E+01  0.00000000000E+00 0. -1.
</event>
<event>
 7    1  0.2700100E-010  0.4778727E+02  0.7816164E-02  0.1312668E+00
        -11   -1    0    0    0    0  0.00000000000E+00  0.00000000000E+00  0.45593999997E+02  0.45594000000E+02  0.51100000000E-03 0.  1.
         11   -1    0    0    0    0 -0.00000000000E+00 -0.00000000000E+00 -0.45593999997E+02  0.45594000000E+02  0.51100000000E-03 0. -1.
    9900012    2    1    2    0    0  0.18594093809E+02  0.92606339623E+01 -0.38106739277E+02  0.47787271385E+02  0.20000001552E+02 0.  0.
        -12    1    1    2    0    0 -0.18594093809E+02 -0.92606339623E+01  0.38106739277E+02  0.43400728615E+02  0.00000000000E+00 0.  1.
         11    1    3    3    0    0 -0.13597398385E+01  0.43844489322E+01 -0.12450068443E+02  0.13269381649E+02  0.51100000000E-03 0. -1.
        -11    1    3    3    0    0  0.99031218633E+01 -0.26588009929E+01 -0.89137116480E+01  0.13586585331E+02  0.51100000000E-03 0.  1.
        -12    1    3    3    0    0  0.10050711784E+02  0.75349860230E+01 -0.16742959187E+02  0.20931304404E+02  0.00000000000E+00 0.  1.
</event>
<event>
 7    1  0.2700100E-010  0.4778727E+02  0.7816164E-02  0.1312668E+00
        -11   -1    0    0    0    0  0.00000000000E+00  0.00000000000E+00  0.45593999997E+02  0.45594000000E+02  0.51100000000E-03 0.  1.
         11   -1    0    0    0    0 -0.00000000000E+00 -0.00000000000E+00 -0.45593999997E+02  0.45594000000E+02  0.51100000000E-03 0. -1.
    9900012    2    1    2    0    0  0.87994700329E+01 -0.18189565074E+02 -0.38410055708E+02  0.47787270399E+02  0.19999997057E+02 0.  0.
        -12    1    1    2    0    0 -0.87994700329E+01  0.18189565074E+02  0.38410055708E+02  0.43400729601E+02  0.00000000000E+00 0.  1.
         11    1    3    3    0    0 -0.14093165213E+01 -0.15483102307E+02 -0.25970243420E+02  0.30268237043E+02  0.51100000000E-03 0. -1.
        -11    1    3    3    0    0  0.81728898074E+01 -0.45572062501E+01 -0.10901266199E+02  0.14366692786E+02  0.51100000000E-03 0.  1.
         12    1    3    3    0    0  0.20358967468E+01  0.18507434830E+01 -0.15385460884E+01  0.31523405701E+01  0.00000000000E+00 0. -1.
</event>
<event>
 7    1  0.2700100E-010  0.4778727E+02  0.7816164E-02  0.1312668E+00
        -11   -1    0    0    0    0  0.00000000000E+00  0.00000000000E+00  0.45593999997E+02  0.45594000000E+02  0.51100000000E-03 0.  1.
         11   -1    0    0    0    0 -0.00000000000E+00 -0.00000000000E+00 -0.45593999997E+02  0.45594000000E+02  0.51100000000E-03 0. -1.
    9900012    2    1    2    0    0  0.17833819532E+02  0.21567613065E+02 -0.33172522823E+02  0.47787270480E+02  0.19999997427E+02 0.  0.
        -12    1    1    2    0    0 -0.17833819532E+02 -0.21567613065E+02  0.33172522823E+02  0.43400729520E+02  0.00000000000E+00 0.  1.
         11    1    3    3    0    0  0.81932776835E+00  0.79538186598E+01 -0.14780868945E+02  0.16805017593E+02  0.51100000000E-03 0. -1.
        -11    1    3    3    0    0  0.13908405525E+02  0.37458018867E+01 -0.12533088580E+02  0.19093273309E+02  0.51100000000E-03 0.  1.
        -12    1    3    3    0    0  0.31060862384E+01  0.98679925183E+01 -0.58585652979E+01  0.11888979578E+02  0.00000000000E+00 0.  1.
</event>
<event>
 7    1  0.2700100E-010  0.4778727E+02  0.7816164E-02  0.1312668E+00
        -11   -1    0    0    0    0  0.00000000000E+00  0.00000000000E+00  0.45593999997E+02  0.45594000000E+02  0.51100000000E-03 0.  1.
         11   -1    0    0    0    0 -0.00000000000E+00 -0.00000000000E+00 -0.45593999997E+02  0.45594000000E+02  0.51100000000E-03 0. -1.
    9900012    2    1    2    0    0  0.58714711216E+01  0.36999704160E+02 -0.21912807247E+02  0.47787269563E+02  0.19999993243E+02 0.  0.
        -12    1    1    2    0    0 -0.58714711216E+01 -0.36999704160E+02  0.21912807247E+02  0.43400730437E+02  0.00000000000E+00 0.  1.
         11    1    3    3    0    0  0.10865981276E+00  0.36643344949E+01 -0.43306750432E+01  0.56739669400E+01  0.51100000000E-03 0. -1.
        -11    1    3    3    0    0  0.12852838573E+01 -0.21265694791E+01 -0.68737982502E+00  0.25781279310E+01  0.51100000000E-03 0.  1.
        -12    1    3    3    0    0  0.44775274515E+01  0.35461939144E+02 -0.16894752379E+02  0.39535174692E+02  0.00000000000E+00 0.  1.
</event>
<event>
 7    1  0.2700100E-010  0.4778727E+02  0.7816164E-02  0.1312668E+00
        -11   -1    0    0    0    0  0.00000000000E+00  0.00000000000E+00  0.45593999997E+02  0.45594000000E+02  0.51100000000E-03 0. -1.
         11   -1    0    0    0    0 -0.00000000000E+00 -0.00000000000E+00 -0.45593999997E+02  0.45594000000E+02  0.51100000000E-03 0.  1.
    9900012    2    1    2    0    0  0.29084980363E+02  0.16231694854E+02  0.27824793413E+02  0.47787272713E+02  0.20000007607E+02 0.  0.
        -12    1    1    2    0    0 -0.29084980363E+02 -0.16231694854E+02 -0.27824793413E+02  0.43400727287E+02  0.00000000000E+00 0.  1.
         11    1    3    3    0    0  0.14546520651E+02  0.45013856731E+01  0.11421139213E+02  0.19034341523E+02  0.51100000000E-03 0. -1.
        -11    1    3    3    0    0 -0.17304497852E+01  0.52427279269E+01  0.14128122718E+01  0.56988324550E+01  0.51100000000E-03 0.  1.
        -12    1    3    3    0    0  0.16268909497E+02  0.64875812542E+01  0.14990841928E+02  0.23054098735E+02  0.00000000000E+00 0.  1.
</event>
<event>
 7    1  0.2700100E-010  0.4778727E+02  0.7816164E-02  0.1312668E+00
        -11   -1    0    0    0    0  0.00000000000E+00  0.00000000000E+00  0.45593999997E+02  0.45594000000E+02  0.51100000000E-03 0.  1.
         11   -1    0    0    0    0 -0.00000000000E+00 -0.00000000000E+00 -0.45593999997E+02  0.45594000000E+02  0.51100000000E-03 0. -1.
    9900012    2    1    2    0    0 -0.34612099684E+02  0.24449928016E+02 -0.93715832776E+01  0.47787274227E+02  0.20000014509E+02 0.  0.
        -12    1    1    2    0    0  0.34612099684E+02 -0.24449928016E+02  0.93715832776E+01  0.43400725773E+02  0.00000000000E+00 0.  1.
         11    1    3    3    0    0 -0.50965460727E+01  0.55495119174E+01 -0.11021623139E+01  0.76148950367E+01  0.51100000000E-03 0. -1.
        -11    1    3    3    0    0 -0.71372126921E+01  0.14877541362E+02 -0.22634004957E+01  0.16655450281E+02  0.51100000000E-03 0.  1.
        -12    1    3    3    0    0 -0.22378340919E+02  0.40228747361E+01 -0.60060204680E+01  0.23516928909E+02  0.00000000000E+00 0.  1.
</event>
<event>
 7    1  0.2700100E-010  0.4778727E+02  0.7816164E-02  0.1312668E+00
        -11   -1    0    0    0    0  0.00000000000E+00  0.00000000000E+00  0.45593999997E+02  0.45594000000E+02  0.51100000000E-03 0.  1.
         11   -1    0    0    0    0 -0.00000000000E+00 -0.00000000000E+00 -0.45593999997E+02  0.45594000000E+02  0.51100000000E-03 0. -1.
    9900012    2    1    2    0    0 -0.51708425199E+01  0.31542568517E+02 -0.29359022245E+02  0.47787269267E+02  0.19999991896E+02 0.  0.
        -12    1    1    2    0    0  0.51708425199E+01 -0.31542568517E+02  0.29359022245E+02  0.43400730733E+02  0.00000000000E+00 0.  1.
         11    1    3    3    0    0  0.56119708964E+01  0.60487664672E+01 -0.81873432912E+01  0.11623871281E+02  0.51100000000E-03 0. -1.
        -11    1    3    3    0    0 -0.70186872535E+01  0.15094206866E+02 -0.66871854297E+01  0.17939216842E+02  0.51100000000E-03 0.  1.
         12    1    3    3    0    0 -0.37641261628E+01  0.10399595184E+02 -0.14484493524E+02  0.18224181145E+02  0.00000000000E+00 0. -1.
</event>
<event>
 7    1  0.2700100E-010  0.4778725E+02  0.7816164E-02  0.1312668E+00
        -11   -1    0    0    0    0  0.00000000000E+00  0.00000000000E+00  0.45593999997E+02  0.45594000000E+02  0.51100000000E-03 0. -1.
         11   -1    0    0    0    0 -0.00000000000E+00 -0.00000000000E+00 -0.45593999997E+02  0.45594000000E+02  0.51100000000E-03 0.  1.
    9900012    2    1    2    0    0 -0.42017391784E+02  0.29283208424E+01 -0.10468461035E+02  0.47787251715E+02  0.19999911869E+02 0.  0.
        -12    1    1    2    0    0  0.42017391784E+02 -0.29283208424E+01  0.10468461035E+02  0.43400748285E+02  0.00000000000E+00 0.  1.
         11    1    3    3    0    0 -0.29364810622E+02  0.59192232116E+01  0.12348731355E+01  0.29980897555E+02  0.51100000000E-03 0. -1.
        -11    1    3    3    0    0 -0.22714686464E+01 -0.25813700917E+00 -0.39519258758E+01  0.45655145292E+01  0.51100000000E-03 0.  1.
         12    1    3    3    0    0 -0.10381112515E+02 -0.27327653601E+01 -0.77514082949E+01  0.13240839630E+02  0.00000000000E+00 0. -1.
</event>
<event>
 7    1  0.2700100E-010  0.4778727E+02  0.7816164E-02  0.1312668E+00
        -11   -1    0    0    0    0  0.00000000000E+00  0.00000000000E+00  0.45593999997E+02  0.45594000000E+02  0.51100000000E-03 0.  1.
         11   -1    0    0    0    0 -0.00000000000E+00 -0.00000000000E+00 -0.45593999997E+02  0.45594000000E+02  0.51100000000E-03 0. -1.
    9900012    2    1    2    0    0 -0.30314814520E+02 -0.28380563874E+02 -0.12616617398E+02  0.47787269363E+02  0.19999992335E+02 0.  0.
        -12    1    1    2    0    0  0.30314814520E+02  0.28380563874E+02  0.12616617398E+02  0.43400730637E+02  0.00000000000E+00 0.  1.
         11    1    3    3    0    0 -0.13271447898E+02 -0.10653116179E+02  0.37662980316E+01  0.17430009029E+02  0.51100000000E-03 0. -1.
        -11    1    3    3    0    0 -0.99056964055E+01 -0.54480863167E+01 -0.81964423071E+01  0.13963743500E+02  0.51100000000E-03 0.  1.
         12    1    3    3    0    0 -0.71376702170E+01 -0.12279361379E+02 -0.81864731230E+01  0.16393516834E+02  0.00000000000E+00 0. -1.
</event>
<event>
 7    1  0.2700100E-010  0.4778727E+02  0.7816164E-02  0.1312668E+00
        -11   -1    0    0    0    0  0.00000000000E+00  0.00000000000E+00  0.45593999997E+02  0.45594000000E+02  0.51100000000E-03 0.  1.
         11   -1    0    0    0    0 -0.00000000000E+00 -0.00000000000E+00 -0.45593999997E+02  0.45594000000E+02  0.51100000000E-03 0. -1.
    9900012    2    1    2    0    0  0.12728927124E+02 -0.31855104199E+02 -0.26586659421E+02  0.47787266038E+02  0.19999977175E+02 0.  0.
        -12    1    1    2    0    0 -0.12728927124E+02  0.31855104199E+02  0.26586659421E+02  0.43400733962E+02  0.00000000000E+00 0.  1.
         11    1    3    3    0    0  0.11555607004E+02 -0.11994616149E+02 -0.17737639472E+02  0.24331599292E+02  0.51100000000E-03 0. -1.
        -11    1    3    3    0    0 -0.40434976568E+00 -0.41639440464E+01  0.16593014848E+01  0.45005788998E+01  0.51100000000E-03 0.  1.
         12    1    3    3    0    0  0.15776698860E+01 -0.15696544004E+02 -0.10508321433E+02  0.18955087847E+02  0.00000000000E+00 0. -1.
</event>
<event>
 7    1  0.2700100E-010  0.4778727E+02  0.7816164E-02  0.1312668E+00
        -11   -1    0    0    0    0  0.00000000000E+00  0.00000000000E+00  0.45593999997E+02  0.45594000000E+02  0.51100000000E-03 0. -1.
         11   -1    0    0    0    0 -0.00000000000E+00 -0.00000000000E+00 -0.45593999997E+02  0.45594000000E+02  0.51100000000E-03 0.  1.
    9900012    2    1    2    0    0 -0.69407513866E+01  0.17448307731E+02  0.39128068027E+02  0.47787272126E+02  0.20000004933E+02 0.  0.
        -12    1    1    2    0    0  0.69407513866E+01 -0.17448307731E+02 -0.39128068027E+02  0.43400727874E+02  0.00000000000E+00 0.  1.
         11    1    3    3    0    0 -0.39438475756E+01  0.73503449495E+00  0.14508011450E+00  0.40143813856E+01  0.51100000000E-03 0.  1.
        -11    1    3    3    0    0  0.13742063253E+01  0.43398690786E+01  0.21135755755E+02  0.21620431962E+02  0.51100000000E-03 0. -1.
         12    1    3    3    0    0 -0.43711101363E+01  0.12373404157E+02  0.17847232157E+02  0.22152458778E+02  0.00000000000E+00 0. -1.
</event>
<event>
 7    1  0.2700100E-010  0.4778728E+02  0.7816164E-02  0.1312668E+00
        -11   -1    0    0    0    0  0.00000000000E+00  0.00000000000E+00  0.45593999997E+02  0.45594000000E+02  0.51100000000E-03 0. -1.
         11   -1    0    0    0    0 -0.00000000000E+00 -0.00000000000E+00 -0.45593999997E+02  0.45594000000E+02  0.51100000000E-03 0.  1.
    9900012    2    1    2    0    0  0.50936348660E+01 -0.23315672251E+02  0.36249925683E+02  0.47787276496E+02  0.20000024856E+02 0.  0.
        -12    1    1    2    0    0 -0.50936348660E+01  0.23315672251E+02 -0.36249925683E+02  0.43400723504E+02  0.00000000000E+00 0.  1.
         11    1    3    3    0    0 -0.38797831049E+01  0.15942463554E+01  0.27239970428E+01  0.50014496432E+01  0.51100000000E-03 0. -1.
        -11    1    3    3    0    0  0.66892544311E+01 -0.15457408801E+02  0.20548060391E+02  0.26568786156E+02  0.51100000000E-03 0.  1.
         12    1    3    3    0    0  0.22841635398E+01 -0.94525098051E+01  0.12977868249E+02  0.16217040697E+02  0.00000000000E+00 0. -1.
</event>
<event>
 7    1  0.2700100E-010  0.4778728E+02  0.7816164E-02  0.1312668E+00
        -11   -1    0    0    0    0  0.00000000000E+00  0.00000000000E+00  0.45593999997E+02  0.45594000000E+02  0.51100000000E-03 0. -1.
         11   -1    0    0    0    0 -0.00000000000E+00 -0.00000000000E+00 -0.45593999997E+02  0.45594000000E+02  0.51100000000E-03 0.  1.
    9900012    2    1    2    0    0 -0.37110715715E+02 -0.12188135888E+02  0.18917372245E+02  0.47787275928E+02  0.20000022266E+02 0.  0.
        -12    1    1    2    0    0  0.37110715715E+02  0.12188135888E+02 -0.18917372245E+02  0.43400724072E+02  0.00000000000E+00 0.  1.
         11    1    3    3    0    0 -0.23788936570E+02 -0.87181355588E+01  0.20309019560E+02  0.32471151297E+02  0.51100000000E-03 0. -1.
        -11    1    3    3    0    0 -0.11165466260E+02 -0.12430535302E+00 -0.22546764810E+00  0.11168434292E+02  0.51100000000E-03 0.  1.
         12    1    3    3    0    0 -0.21563128854E+01 -0.33456949763E+01 -0.11661796676E+01  0.41476903393E+01  0.00000000000E+00 0. -1.
</event>
<event>
 7    1  0.2700100E-010  0.4778727E+02  0.7816164E-02  0.1312668E+00
        -11   -1    0    0    0    0  0.00000000000E+00  0.00000000000E+00  0.45593999997E+02  0.45594000000E+02  0.51100000000E-03 0.  1.
         11   -1    0    0    0    0 -0.00000000000E+00 -0.00000000000E+00 -0.45593999997E+02  0.45594000000E+02  0.51100000000E-03 0. -1.
    9900012    2    1    2    0    0  0.36148008476E+02  0.47827944715E+01 -0.23538681663E+02  0.47787272193E+02  0.20000005236E+02 0.  0.
        -12    1    1    2    0    0 -0.36148008476E+02 -0.47827944715E+01  0.23538681663E+02  0.43400727807E+02  0.00000000000E+00 0.  1.
         11    1    3    3    0    0  0.16373460926E+02 -0.45912851646E+01 -0.29940228712E+01  0.17266565825E+02  0.51100000000E-03 0. -1.
        -11    1    3    3    0    0  0.61182033981E+00 -0.60653533329E+00 -0.14478351902E+01  0.16847659297E+01  0.51100000000E-03 0.  1.
         12    1    3    3    0    0  0.19162727210E+02  0.99806149693E+01 -0.19096823601E+02  0.28835940438E+02  0.00000000000E+00 0. -1.
</event>
<event>
 7    1  0.2700100E-010  0.4778727E+02  0.7816164E-02  0.1312668E+00
        -11   -1    0    0    0    0  0.00000000000E+00  0.00000000000E+00  0.45593999997E+02  0.45594000000E+02  0.51100000000E-03 0. -1.
         11   -1    0    0    0    0 -0.00000000000E+00 -0.00000000000E+00 -0.45593999997E+02  0.45594000000E+02  0.51100000000E-03 0.  1.
    9900012    2    1    2    0    0  0.13452978120E+02  0.58738737705E+01  0.40842852013E+02  0.47787267588E+02  0.19999984241E+02 0.  0.
        -12    1    1    2    0    0 -0.13452978120E+02 -0.58738737705E+01 -0.40842852013E+02  0.43400732412E+02  0.00000000000E+00 0.  1.
         11    1    3    3    0    0  0.26331953508E+01 -0.30315236677E-01  0.15838081359E+02  0.16055511769E+02  0.51100000000E-03 0. -1.
        -11    1    3    3    0    0  0.57188077357E+01  0.74000735664E+01  0.24695389558E+02  0.26406970981E+02  0.51100000000E-03 0.  1.
        -12    1    3    3    0    0  0.51009750340E+01 -0.14958845593E+01  0.30938109586E+00  0.53247848383E+01  0.00000000000E+00 0.  1.
</event>
<event>
 7    1  0.2700100E-010  0.4778728E+02  0.7816164E-02  0.1312668E+00
        -11   -1    0    0    0    0  0.00000000000E+00  0.00000000000E+00  0.45593999997E+02  0.45594000000E+02  0.51100000000E-03 0. -1.
         11   -1    0    0    0    0 -0.00000000000E+00 -0.00000000000E+00 -0.45593999997E+02  0.45594000000E+02  0.51100000000E-03 0.  1.
    9900012    2    1    2    0    0  0.33759959952E+02 -0.27212642153E+02  0.18329699298E+01  0.47787279180E+02  0.20000037094E+02 0.  0.
        -12    1    1    2    0    0 -0.33759959952E+02  0.27212642153E+02 -0.18329699298E+01  0.43400720820E+02  0.00000000000E+00 0.  1.
         11    1    3    3    0    0  0.13890857218E+02 -0.15458008877E+02  0.97728929855E+01  0.22965526126E+02  0.51100000000E-03 0. -1.
        -11    1    3    3    0    0  0.11583129031E+02 -0.58901948656E+01 -0.66236294536E+01  0.14585463349E+02  0.51100000000E-03 0.  1.
         12    1    3    3    0    0  0.82859737033E+01 -0.58644384106E+01 -0.13162936022E+01  0.10236289705E+02  0.00000000000E+00 0. -1.
</event>
<event>
 7    1  0.2700100E-010  0.4778727E+02  0.7816164E-02  0.1312668E+00
        -11   -1    0    0    0    0  0.00000000000E+00  0.00000000000E+00  0.45593999997E+02  0.45594000000E+02  0.51100000000E-03 0.  1.
         11   -1    0    0    0    0 -0.00000000000E+00 -0.00000000000E+00 -0.45593999997E+02  0.45594000000E+02  0.51100000000E-03 0. -1.
    9900012    2    1    2    0    0 -0.95108498483E+01  0.18878298884E+02 -0.37904840464E+02  0.47787270004E+02  0.19999995255E+02 0.  0.
        -12    1    1    2    0    0  0.95108498483E+01 -0.18878298884E+02  0.37904840464E+02  0.43400729996E+02  0.00000000000E+00 0.  1.
         11    1    3    3    0    0 -0.32195304650E+01 -0.22021211998E+01 -0.99467851458E+01  0.10684252393E+02  0.51100000000E-03 0. -1.
        -11    1    3    3    0    0 -0.85725523281E+00  0.60719572266E+00  0.84607576566E+00  0.13488579029E+01  0.51100000000E-03 0.  1.
         12    1    3    3    0    0 -0.54340641505E+01  0.20473224361E+02 -0.28804131084E+02  0.35754159708E+02  0.00000000000E+00 0. -1.
</event>
<event>
 7    1  0.3058703E-010  0.4778727E+02  0.7816164E-02  0.1312668E+00
        -11   -1    0    0    0    0  0.00000000000E+00  0.00000000000E+00  0.45593999997E+02  0.45594000000E+02  0.51100000000E-03 0. -1.
         11   -1    0    0    0    0 -0.00000000000E+00 -0.00000000000E+00 -0.45593999997E+02  0.45594000000E+02  0.51100000000E-03 0.  1.
    9900012    2    1    2    0    0  0.60973416316E+01 -0.31485057938E+02  0.29242723365E+02  0.47787270535E+02  0.19999997677E+02 0.  0.
        -12    1    1    2    0    0 -0.60973416316E+01  0.31485057938E+02 -0.29242723365E+02  0.43400729465E+02  0.00000000000E+00 0.  1.
         11    1    3    3    0    0  0.71996494503E+00 -0.10334811073E+02  0.64280823292E+01  0.12192083994E+02  0.51100000000E-03 0. -1.
        -11    1    3    3    0    0 -0.56703576213E+01 -0.62339562828E+01  0.46538996280E+01  0.96267309351E+01  0.51100000000E-03 0.  1.
        -12    1    3    3    0    0  0.11047734308E+02 -0.14916290582E+02  0.18160741408E+02  0.25968455606E+02  0.00000000000E+00 0.  1.
</event>
<event>
 7    1  0.2700100E-010  0.4778727E+02  0.7816164E-02  0.1312668E+00
        -11   -1    0    0    0    0  0.00000000000E+00  0.00000000000E+00  0.45593999997E+02  0.45594000000E+02  0.51100000000E-03 0. -1.
         11   -1    0    0    0    0 -0.00000000000E+00 -0.00000000000E+00 -0.45593999997E+02  0.45594000000E+02  0.51100000000E-03 0.  1.
    9900012    2    1    2    0    0 -0.20632349326E+02  0.83401238394E+01  0.37260860232E+02  0.47787271785E+02  0.20000003376E+02 0.  0.
        -12    1    1    2    0    0  0.20632349326E+02 -0.83401238394E+01 -0.37260860232E+02  0.43400728215E+02  0.00000000000E+00 0.  1.
         11    1    3    3    0    0 -0.20103420202E+02  0.84971877376E+01  0.35274832388E+02  0.41480881181E+02  0.51100000000E-03 0. -1.
        -11    1    3    3    0    0 -0.27617693254E+01 -0.13387943490E+01  0.21922739361E+01  0.37717112016E+01  0.51100000000E-03 0.  1.
         12    1    3    3    0    0  0.22328402014E+01  0.11817304508E+01 -0.20624609199E+00  0.25346794026E+01  0.00000000000E+00 0. -1.
</event>
<event>
 7    1  0.2700100E-010  0.4778727E+02  0.7816164E-02  0.1312668E+00
        -11   -1    0    0    0    0  0.00000000000E+00  0.00000000000E+00  0.45593999997E+02  0.45594000000E+02  0.51100000000E-03 0.  1.
         11   -1    0    0    0    0 -0.00000000000E+00 -0.00000000000E+00 -0.45593999997E+02  0.45594000000E+02  0.51100000000E-03 0. -1.
    9900012    2    1    2    0    0 -0.34637720283E+02 -0.18389189245E+02 -0.18592727665E+02  0.47787268790E+02  0.19999989722E+02 0.  0.
        -12    1    1    2    0    0  0.34637720283E+02  0.18389189245E+02  0.18592727665E+02  0.43400731210E+02  0.00000000000E+00 0.  1.
         11    1    3    3    0    0 -0.12231704228E+02 -0.64606720041E+01  0.22138489013E+00  0.13834879204E+02  0.51100000000E-03 0. -1.
        -11    1    3    3    0    0 -0.23167319659E+02 -0.89615549134E+01 -0.18283992283E+02  0.30843776369E+02  0.51100000000E-03 0.  1.
        -12    1    3    3    0    0  0.76130360319E+00 -0.29669623277E+01 -0.53012027135E+00  0.31086132169E+01  0.00000000000E+00 0.  1.
</event>
<event>
 7    1  0.2700100E-010  0.4778727E+02  0.7816164E-02  0.1312668E+00
        -11   -1    0    0    0    0  0.00000000000E+00  0.00000000000E+00  0.45593999997E+02  0.45594000000E+02  0.51100000000E-03 0. -1.
         11   -1    0    0    0    0 -0.00000000000E+00 -0.00000000000E+00 -0.45593999997E+02  0.45594000000E+02  0.51100000000E-03 0.  1.
    9900012    2    1    2    0    0 -0.35911844130E+02  0.20560477671E+02 -0.13085470512E+02  0.47787270405E+02  0.19999997083E+02 0.  0.
        -12    1    1    2    0    0  0.35911844130E+02 -0.20560477671E+02  0.13085470512E+02  0.43400729595E+02  0.00000000000E+00 0.  1.
         11    1    3    3    0    0 -0.13859627012E+02  0.98652525517E+01  0.10763290512E+01  0.17046141889E+02  0.51100000000E-03 0. -1.
        -11    1    3    3    0    0 -0.81932906219E+00  0.21158130116E+00 -0.54408878969E+01  0.55062989500E+01  0.51100000000E-03 0.  1.
         12    1    3    3    0    0 -0.21232888056E+02  0.10483643818E+02 -0.87209116660E+01  0.25234829565E+02  0.00000000000E+00 0. -1.
</event>
<event>
 7    1  0.2700100E-010  0.4778727E+02  0.7816164E-02  0.1312668E+00
        -11   -1    0    0    0    0  0.00000000000E+00  0.00000000000E+00  0.45593999997E+02  0.45594000000E+02  0.51100000000E-03 0.  1.
         11   -1    0    0    0    0 -0.00000000000E+00 -0.00000000000E+00 -0.45593999997E+02  0.45594000000E+02  0.51100000000E-03 0. -1.
    9900012    2    1    2    0    0  0.15739819400E+02  0.35376955511E+02 -0.19604904559E+02  0.47787272140E+02  0.20000004995E+02 0.  0.
        -12    1    1    2    0    0 -0.15739819400E+02 -0.35376955511E+02  0.19604904559E+02  0.43400727860E+02  0.00000000000E+00 0.  1.
         11    1    3    3    0    0 -0.59780103299E+00 -0.17949534334E+00 -0.60369109327E+01  0.60690920675E+01  0.51100000000E-03 0. -1.
        -11    1    3    3    0    0  0.13887223136E+02  0.26119236745E+02 -0.87877743732E+01  0.30859268839E+02  0.51100000000E-03 0.  1.
         12    1    3    3    0    0  0.24503972972E+01  0.94372141098E+01 -0.47802192532E+01  0.10858911233E+02  0.00000000000E+00 0. -1.
</event>
<event>
 7    1  0.2700100E-010  0.4778727E+02  0.7816164E-02  0.1312668E+00
        -11   -1    0    0    0    0  0.00000000000E+00  0.00000000000E+00  0.45593999997E+02  0.45594000000E+02  0.51100000000E-03 0.  1.
         11   -1    0    0    0    0 -0.00000000000E+00 -0.00000000000E+00 -0.45593999997E+02  0.45594000000E+02  0.51100000000E-03 0. -1.
    9900012    2    1    2    0    0 -0.37915248116E+02  0.16262702552E+02 -0.13475221730E+02  0.47787272648E+02  0.20000007312E+02 0.  0.
        -12    1    1    2    0    0  0.37915248116E+02 -0.16262702552E+02  0.13475221730E+02  0.43400727352E+02  0.00000000000E+00 0.  1.
         11    1    3    3    0    0 -0.80267386222E+01  0.86068249841E+01 -0.54080488406E+01  0.12951948183E+02  0.51100000000E-03 0. -1.
        -11    1    3    3    0    0 -0.13658301080E+02  0.73395743062E+00 -0.10199716286E+02  0.17062300387E+02  0.51100000000E-03 0.  1.
        -12    1    3    3    0    0 -0.16230208414E+02  0.69219201373E+01  0.21325433972E+01  0.17773024078E+02  0.00000000000E+00 0.  1.
</event>
<event>
 7    1  0.2700100E-010  0.4778727E+02  0.7816164E-02  0.1312668E+00
        -11   -1    0    0    0    0  0.00000000000E+00  0.00000000000E+00  0.45593999997E+02  0.45594000000E+02  0.51100000000E-03 0. -1.
         11   -1    0    0    0    0 -0.00000000000E+00 -0.00000000000E+00 -0.45593999997E+02  0.45594000000E+02  0.51100000000E-03 0.  1.
    9900012    2    1    2    0    0 -0.10536511967E+02 -0.94352444398E+01  0.41031468261E+02  0.47787270631E+02  0.19999998116E+02 0.  0.
        -12    1    1    2    0    0  0.10536511967E+02  0.94352444398E+01 -0.41031468261E+02  0.43400729369E+02  0.00000000000E+00 0.  1.
         11    1    3    3    0    0 -0.42509406678E+01  0.14934379324E+01  0.26625194311E+02  0.27003737256E+02  0.51100000000E-03 0. -1.
        -11    1    3    3    0    0 -0.68962600553E+01 -0.40233323822E+01  0.67488857043E+01  0.10454332342E+02  0.51100000000E-03 0.  1.
         12    1    3    3    0    0  0.61068875604E+00 -0.69053499900E+01  0.76573882462E+01  0.10329201034E+02  0.00000000000E+00 0. -1.
</event>
<event>
 7    1  0.2700100E-010  0.4778727E+02  0.7816164E-02  0.1312668E+00
        -11   -1    0    0    0    0  0.00000000000E+00  0.00000000000E+00  0.45593999997E+02  0.45594000000E+02  0.51100000000E-03 0.  1.
         11   -1    0    0    0    0 -0.00000000000E+00 -0.00000000000E+00 -0.45593999997E+02  0.45594000000E+02  0.51100000000E-03 0. -1.
    9900012    2    1    2    0    0 -0.90313046466E+01 -0.32381265469E+02 -0.27450178759E+02  0.47787272692E+02  0.20000007510E+02 0.  0.
        -12    1    1    2    0    0  0.90313046466E+01  0.32381265469E+02  0.27450178759E+02  0.43400727308E+02  0.00000000000E+00 0.  1.
         11    1    3    3    0    0  0.40596846162E+01 -0.13754346185E+02 -0.15147652699E+02  0.20859397420E+02  0.51100000000E-03 0. -1.
        -11    1    3    3    0    0 -0.82664139903E+01 -0.56939172727E+01 -0.39042539158E+01  0.10770213232E+02  0.51100000000E-03 0.  1.
        -12    1    3    3    0    0 -0.48245752725E+01 -0.12933002011E+02 -0.83982721444E+01  0.16157662040E+02  0.00000000000E+00 0.  1.
</event>
<event>
 7    1  0.2700100E-010  0.4778727E+02  0.7816164E-02  0.1312668E+00
        -11   -1    0    0    0    0  0.00000000000E+00  0.00000000000E+00  0.45593999997E+02  0.45594000000E+02  0.51100000000E-03 0.  1.
         11   -1    0    0    0    0 -0.00000000000E+00 -0.00000000000E+00 -0.45593999997E+02  0.45594000000E+02  0.51100000000E-03 0. -1.
    9900012    2    1    2    0    0 -0.15596526899E+02  0.14052305975E+02 -0.37985582060E+02  0.47787269603E+02  0.19999993429E+02 0.  0.
        -12    1    1    2    0    0  0.15596526899E+02 -0.14052305975E+02  0.37985582060E+02  0.43400730397E+02  0.00000000000E+00 0.  1.
         11    1    3    3    0    0 -0.91581468900E+01  0.49979971916E+01 -0.25533325222E+02  0.27582645405E+02  0.51100000000E-03 0.  1.
        -11    1    3    3    0    0 -0.47181207696E+01  0.11776791805E+02 -0.10113204054E+02  0.16224376269E+02  0.51100000000E-03 0. -1.
        -12    1    3    3    0    0 -0.17202592397E+01 -0.27224830216E+01 -0.23390527839E+01  0.39802479295E+01  0.00000000000E+00 0.  1.
</event>
<event>
 7    1  0.2700100E-010  0.4778728E+02  0.7816164E-02  0.1312668E+00
        -11   -1    0    0    0    0  0.00000000000E+00  0.00000000000E+00  0.45593999997E+02  0.45594000000E+02  0.51100000000E-03 0. -1.
         11   -1    0    0    0    0 -0.00000000000E+00 -0.00000000000E+00 -0.45593999997E+02  0.45594000000E+02  0.51100000000E-03 0.  1.
    9900012    2    1    2    0    0 -0.18767242679E+02 -0.27916395534E+02  0.27424225221E+02  0.47787278043E+02  0.20000031910E+02 0.  0.
        -12    1    1    2    0    0  0.18767242679E+02  0.27916395534E+02 -0.27424225221E+02  0.43400721957E+02  0.00000000000E+00 0.  1.
         11    1    3    3    0    0  0.26050747468E+01 -0.67391427313E+01  0.22530271595E+01  0.75682620748E+01  0.51100000000E-03 0.  1.
        -11    1    3    3    0    0 -0.21423290081E+02 -0.17496672729E+02  0.22738427740E+02  0.35806801181E+02  0.51100000000E-03 0. -1.
         12    1    3    3    0    0  0.50972655043E-01 -0.36805800740E+01  0.24327703217E+01  0.44122147875E+01  0.00000000000E+00 0. -1.
</event>
<event>
 7    1  0.2700100E-010  0.4778727E+02  0.7816164E-02  0.1312668E+00
        -11   -1    0    0    0    0  0.00000000000E+00  0.00000000000E+00  0.45593999997E+02  0.45594000000E+02  0.51100000000E-03 0.  1.
         11   -1    0    0    0    0 -0.00000000000E+00 -0.00000000000E+00 -0.45593999997E+02  0.45594000000E+02  0.51100000000E-03 0. -1.
    9900012    2    1    2    0    0 -0.35175740337E+02  0.16422217164E+02 -0.19406220139E+02  0.47787270687E+02  0.19999998368E+02 0.  0.
        -12    1    1    2    0    0  0.35175740337E+02 -0.16422217164E+02  0.19406220139E+02  0.43400729313E+02  0.00000000000E+00 0.  1.
         11    1    3    3    0    0 -0.28266985950E+01  0.74401739457E+01 -0.31744776610E+00  0.79653742307E+01  0.51100000000E-03 0. -1.
        -11    1    3    3    0    0 -0.36150610836E+01  0.58275508256E+00  0.96821542793E+00  0.37875732997E+01  0.51100000000E-03 0.  1.
         12    1    3    3    0    0 -0.28733980659E+02  0.83992881354E+01 -0.20056987801E+02  0.36034323156E+02  0.00000000000E+00 0. -1.
</event>
<event>
 7    1  0.2700100E-010  0.4778727E+02  0.7816164E-02  0.1312668E+00
        -11   -1    0    0    0    0  0.00000000000E+00  0.00000000000E+00  0.45593999997E+02  0.45594000000E+02  0.51100000000E-03 0. -1.
         11   -1    0    0    0    0 -0.00000000000E+00 -0.00000000000E+00 -0.45593999997E+02  0.45594000000E+02  0.51100000000E-03 0.  1.
    9900012    2    1    2    0    0  0.40145905285E+02 -0.72002450793E+01 -0.14835292242E+02  0.47787272630E+02  0.20000007227E+02 0.  0.
        -12    1    1    2    0    0 -0.40145905285E+02  0.72002450793E+01  0.14835292242E+02  0.43400727370E+02  0.00000000000E+00 0.  1.
         11    1    3    3    0    0  0.21805299261E+01 -0.48233732381E+01 -0.59367690545E+01  0.79539214995E+01  0.51100000000E-03 0.  1.
        -11    1    3    3    0    0  0.31394316714E+02 -0.48970857574E+01 -0.77088338598E+01  0.32695728935E+02  0.51100000000E-03 0. -1.
        -12    1    3    3    0    0  0.65710586452E+01  0.25202139162E+01 -0.11896893278E+01  0.71376221950E+01  0.00000000000E+00 0.  1.
</event>
<event>
 7    1  0.2700100E-010  0.4778727E+02  0.7816164E-02  0.1312668E+00
        -11   -1    0    0    0    0  0.00000000000E+00  0.00000000000E+00  0.45593999997E+02  0.45594000000E+02  0.51100000000E-03 0.  1.
         11   -1    0    0    0    0 -0.00000000000E+00 -0.00000000000E+00 -0.45593999997E+02  0.45594000000E+02  0.51100000000E-03 0. -1.
    9900012    2    1    2    0    0  0.51645249428E+01 -0.11333006263E+02 -0.41575400319E+02  0.47787271198E+02  0.20000000700E+02 0.  0.
        -12    1    1    2    0    0 -0.51645249428E+01  0.11333006263E+02  0.41575400319E+02  0.43400728802E+02  0.00000000000E+00 0.  1.
         11    1    3    3    0    0  0.19148327660E+00 -0.88513719616E+01 -0.15484239497E+02  0.17836623126E+02  0.51100000000E-03 0. -1.
        -11    1    3    3    0    0  0.59072701012E+01  0.51272148113E+00 -0.26149558395E+02  0.26813394561E+02  0.51100000000E-03 0.  1.
        -12    1    3    3    0    0 -0.93422843499E+00 -0.29943557825E+01  0.58397572846E-01  0.31372535119E+01  0.00000000000E+00 0.  1.
</event>
<event>
 7    1  0.3287631E-010  0.4778727E+02  0.7816164E-02  0.1312668E+00
        -11   -1    0    0    0    0  0.00000000000E+00  0.00000000000E+00  0.45593999997E+02  0.45594000000E+02  0.51100000000E-03 0.  1.
         11   -1    0    0    0    0 -0.00000000000E+00 -0.00000000000E+00 -0.45593999997E+02  0.45594000000E+02  0.51100000000E-03 0. -1.
    9900012    2    1    2    0    0 -0.28309133286E+02  0.18702605653E+02 -0.27063424045E+02  0.47787269515E+02  0.19999993026E+02 0.  0.
        -12    1    1    2    0    0  0.28309133286E+02 -0.18702605653E+02  0.27063424045E+02  0.43400730485E+02  0.00000000000E+00 0.  1.
         11    1    3    3    0    0 -0.21690741081E+02  0.15036588196E+02 -0.21624951047E+02  0.34120752355E+02  0.51100000000E-03 0. -1.
        -11    1    3    3    0    0 -0.30475438974E+01  0.40680874818E+01  0.19550429465E+01  0.54460125550E+01  0.51100000000E-03 0.  1.
        -12    1    3    3    0    0 -0.35708483077E+01 -0.40207002453E+00 -0.73935159441E+01  0.82205046048E+01  0.00000000000E+00 0.  1.
</event>
<event>
 7    1  0.2700100E-010  0.4778726E+02  0.7816164E-02  0.1312668E+00
        -11   -1    0    0    0    0  0.00000000000E+00  0.00000000000E+00  0.45593999997E+02  0.45594000000E+02  0.51100000000E-03 0.  1.
         11   -1    0    0    0    0 -0.00000000000E+00 -0.00000000000E+00 -0.45593999997E+02  0.45594000000E+02  0.51100000000E-03 0. -1.
    9900012    2    1    2    0    0  0.24209659314E+02 -0.18612253287E+02 -0.30839922844E+02  0.47787257869E+02  0.19999939929E+02 0.  0.
        -12    1    1    2    0    0 -0.24209659314E+02  0.18612253287E+02  0.30839922844E+02  0.43400742131E+02  0.00000000000E+00 0.  1.
         11    1    3    3    0    0  0.16914427268E+02 -0.33474361252E+01 -0.21536720509E+02  0.27588648190E+02  0.51100000000E-03 0. -1.
        -11    1    3    3    0    0  0.36437750085E+01 -0.12086262550E+02 -0.86747975503E+01  0.15316884525E+02  0.51100000000E-03 0.  1.
         12    1    3    3    0    0  0.36514570374E+01 -0.31785546118E+01 -0.62840478482E+00  0.48817251551E+01  0.00000000000E+00 0. -1.
</event>
<event>
 7    1  0.2700100E-010  0.4778727E+02  0.7816164E-02  0.1312668E+00
        -11   -1    0    0    0    0  0.00000000000E+00  0.00000000000E+00  0.45593999997E+02  0.45594000000E+02  0.51100000000E-03 0. -1.
         11   -1    0    0    0    0 -0.00000000000E+00 -0.00000000000E+00 -0.45593999997E+02  0.45594000000E+02  0.51100000000E-03 0.  1.
    9900012    2    1    2    0    0 -0.36028120571E+02 -0.13317510013E+02  0.20204985812E+02  0.47787274240E+02  0.20000014571E+02 0.  0.
        -12    1    1    2    0    0  0.36028120571E+02  0.13317510013E+02 -0.20204985812E+02  0.43400725760E+02  0.00000000000E+00 0.  1.
         11    1    3    3    0    0 -0.21882397830E+02 -0.63423290814E+00  0.17930449907E+02  0.28297395999E+02  0.51100000000E-03 0. -1.
        -11    1    3    3    0    0 -0.11481551967E+02 -0.94010123604E+01  0.34600392625E+00  0.14843341536E+02  0.51100000000E-03 0.  1.
         12    1    3    3    0    0 -0.26641707734E+01 -0.32822647449E+01  0.19285319787E+01  0.46465367058E+01  0.00000000000E+00 0. -1.
</event>
<event>
 7    1  0.2700100E-010  0.4778727E+02  0.7816164E-02  0.1312668E+00
        -11   -1    0    0    0    0  0.00000000000E+00  0.00000000000E+00  0.45593999997E+02  0.45594000000E+02  0.51100000000E-03 0.  1.
         11   -1    0    0    0    0 -0.00000000000E+00 -0.00000000000E+00 -0.45593999997E+02  0.45594000000E+02  0.51100000000E-03 0. -1.
    9900012    2    1    2    0    0 -0.79255409355E+01  0.17886299539E+02 -0.38741313306E+02  0.47787271124E+02  0.20000000362E+02 0.  0.
        -12    1    1    2    0    0  0.79255409355E+01 -0.17886299539E+02  0.38741313306E+02  0.43400728876E+02  0.00000000000E+00 0.  1.
         11    1    3    3    0    0 -0.15858933807E+01  0.15106539647E+01 -0.18724823014E+02  0.18852483401E+02  0.51100000000E-03 0. -1.
        -11    1    3    3    0    0 -0.95367462942E+01  0.13762165807E+02 -0.15525674764E+02  0.22834038511E+02  0.51100000000E-03 0.  1.
         12    1    3    3    0    0  0.31970987394E+01  0.26134797668E+01 -0.44908155279E+01  0.61007492119E+01  0.00000000000E+00 0. -1.
</event>
<event>
 7    1  0.2700100E-010  0.4778727E+02  0.7816164E-02  0.1312668E+00
        -11   -1    0    0    0    0  0.00000000000E+00  0.00000000000E+00  0.45593999997E+02  0.45594000000E+02  0.51100000000E-03 0. -1.
         11   -1    0    0    0    0 -0.00000000000E+00 -0.00000000000E+00 -0.45593999997E+02  0.45594000000E+02  0.51100000000E-03 0.  1.
    9900012    2    1    2    0    0 -0.33899238541E+02 -0.16410514658E+02  0.21567566628E+02  0.47787270798E+02  0.19999998875E+02 0.  0.
        -12    1    1    2    0    0  0.33899238541E+02  0.16410514658E+02 -0.21567566628E+02  0.43400729202E+02  0.00000000000E+00 0.  1.
         11    1    3    3    0    0 -0.22565352772E+02 -0.16728812649E+01  0.69256457595E+01  0.23663436921E+02  0.51100000000E-03 0. -1.
        -11    1    3    3    0    0 -0.83464852201E+01 -0.10687153976E+02  0.78438055708E+01  0.15665387379E+02  0.51100000000E-03 0.  1.
         12    1    3    3    0    0 -0.29874005489E+01 -0.40504794179E+01  0.67981152982E+01  0.84584464982E+01  0.00000000000E+00 0. -1.
</event>
<event>
 7    1  0.2700100E-010  0.4778727E+02  0.7816164E-02  0.1312668E+00
        -11   -1    0    0    0    0  0.00000000000E+00  0.00000000000E+00  0.45593999997E+02  0.45594000000E+02  0.51100000000E-03 0.  1.
         11   -1    0    0    0    0 -0.00000000000E+00 -0.00000000000E+00 -0.45593999997E+02  0.45594000000E+02  0.51100000000E-03 0. -1.
    9900012    2    1    2    0    0 -0.84691196661E+01 -0.25637521453E+01 -0.42489107145E+02  0.47787273751E+02  0.20000012339E+02 0.  0.
        -12    1    1    2    0    0  0.84691196661E+01  0.25637521453E+01  0.42489107145E+02  0.43400726249E+02  0.00000000000E+00 0.  1.
         11    1    3    3    0    0 -0.23108522780E+01 -0.27332251329E+01 -0.17437424934E+02  0.17800964762E+02  0.51100000000E-03 0. -1.
        -11    1    3    3    0    0  0.49401337612E+01 -0.15316473782E+01 -0.93168160889E+01  0.10656168522E+02  0.51100000000E-03 0.  1.
        -12    1    3    3    0    0 -0.11098401149E+02  0.17011203658E+01 -0.15734866122E+02  0.19330140466E+02  0.00000000000E+00 0.  1.
</event>
<event>
 7    1  0.2700100E-010  0.4778727E+02  0.7816164E-02  0.1312668E+00
        -11   -1    0    0    0    0  0.00000000000E+00  0.00000000000E+00  0.45593999997E+02  0.45594000000E+02  0.51100000000E-03 0. -1.
         11   -1    0    0    0    0 -0.00000000000E+00 -0.00000000000E+00 -0.45593999997E+02  0.45594000000E+02  0.51100000000E-03 0.  1.
    9900012    2    1    2    0    0  0.67492083636E+01  0.42154653580E+02  0.78138797271E+01  0.47787270186E+02  0.19999996087E+02 0.  0.
        -12    1    1    2    0    0 -0.67492083636E+01 -0.42154653580E+02 -0.78138797271E+01  0.43400729814E+02  0.00000000000E+00 0.  1.
         11    1    3    3    0    0  0.19183868431E+01  0.38035569091E+02  0.49416017511E+01  0.38403178935E+02  0.51100000000E-03 0. -1.
        -11    1    3    3    0    0  0.33691479241E+01  0.12443092488E+01 -0.15491584285E+01  0.39114390368E+01  0.51100000000E-03 0.  1.
         12    1    3    3    0    0  0.14616735964E+01  0.28747752397E+01  0.44214364045E+01  0.54726522144E+01  0.00000000000E+00 0. -1.
</event>
<event>
 7    1  0.2700100E-010  0.4778727E+02  0.7816164E-02  0.1312668E+00
        -11   -1    0    0    0    0  0.00000000000E+00  0.00000000000E+00  0.45593999997E+02  0.45594000000E+02  0.51100000000E-03 0.  1.
         11   -1    0    0    0    0 -0.00000000000E+00 -0.00000000000E+00 -0.45593999997E+02  0.45594000000E+02  0.51100000000E-03 0. -1.
    9900012    2    1    2    0    0  0.71828780621E+01  0.42494265060E+02  0.51251518066E+01  0.47787268655E+02  0.19999989107E+02 0.  0.
        -12    1    1    2    0    0 -0.71828780621E+01 -0.42494265060E+02 -0.51251518066E+01  0.43400731345E+02  0.00000000000E+00 0.  1.
         11    1    3    3    0    0  0.42625959552E+01  0.19462345054E+01  0.36624039096E+01  0.59473318123E+01  0.51100000000E-03 0.  1.
        -11    1    3    3    0    0 -0.20248740127E+01  0.21126256591E+02  0.41318169768E+01  0.21621534268E+02  0.51100000000E-03 0. -1.
         12    1    3    3    0    0  0.49451561196E+01  0.19421773963E+02 -0.26690690798E+01  0.20218402575E+02  0.00000000000E+00 0. -1.
</event>
<event>
 7    1  0.2700100E-010  0.4778728E+02  0.7816164E-02  0.1312668E+00
        -11   -1    0    0    0    0  0.00000000000E+00  0.00000000000E+00  0.45593999997E+02  0.45594000000E+02  0.51100000000E-03 0.  1.
         11   -1    0    0    0    0 -0.00000000000E+00 -0.00000000000E+00 -0.45593999997E+02  0.45594000000E+02  0.51100000000E-03 0. -1.
    9900012    2    1    2    0    0 -0.84944898710E+01 -0.99295997783E+01 -0.41386827718E+02  0.47787276290E+02  0.20000023918E+02 0.  0.
        -12    1    1    2    0    0  0.84944898710E+01  0.99295997783E+01  0.41386827718E+02  0.43400723710E+02  0.00000000000E+00 0.  1.
         11    1    3    3    0    0 -0.31251433972E+01 -0.30322555506E+01 -0.20396961555E+02  0.20856584953E+02  0.51100000000E-03 0. -1.
        -11    1    3    3    0    0  0.38573944920E+01 -0.24565977451E+01 -0.13278946129E+01  0.47621076334E+01  0.51100000000E-03 0.  1.
        -12    1    3    3    0    0 -0.92267409657E+01 -0.44407464827E+01 -0.19661971551E+02  0.22168583704E+02  0.00000000000E+00 0.  1.
</event>
<event>
 7    1  0.2700100E-010  0.4778727E+02  0.7816164E-02  0.1312668E+00
        -11   -1    0    0    0    0  0.00000000000E+00  0.00000000000E+00  0.45593999997E+02  0.45594000000E+02  0.51100000000E-03 0. -1.
         11   -1    0    0    0    0 -0.00000000000E+00 -0.00000000000E+00 -0.45593999997E+02  0.45594000000E+02  0.51100000000E-03 0.  1.
    9900012    2    1    2    0    0  0.41624684528E+02  0.81832239817E+01  0.91675267899E+01  0.47787273459E+02  0.20000011011E+02 0.  0.
        -12    1    1    2    0    0 -0.41624684528E+02 -0.81832239817E+01 -0.91675267899E+01  0.43400726541E+02  0.00000000000E+00 0.  1.
         11    1    3    3    0    0  0.15482108523E+02 -0.38511046348E+01  0.19226220698E+01  0.16069323792E+02  0.51100000000E-03 0. -1.
        -11    1    3    3    0    0  0.10738312166E+02  0.62303889396E+01  0.87490558545E+01  0.15187991082E+02  0.51100000000E-03 0.  1.
         12    1    3    3    0    0  0.15404263839E+02  0.58039396770E+01 -0.15041511344E+01  0.16529958585E+02  0.00000000000E+00 0. -1.
</event>
<event>
 7    1  0.2700100E-010  0.4778729E+02  0.7816164E-02  0.1312668E+00
        -11   -1    0    0    0    0  0.00000000000E+00  0.00000000000E+00  0.45593999997E+02  0.45594000000E+02  0.51100000000E-03 0. -1.
         11   -1    0    0    0    0 -0.00000000000E+00 -0.00000000000E+00 -0.45593999997E+02  0.45594000000E+02  0.51100000000E-03 0.  1.
    9900012    2    1    2    0    0 -0.18194207921E+02  0.20350357910E+02  0.33741003696E+02  0.47787290336E+02  0.20000087960E+02 0.  0.
        -12    1    1    2    0    0  0.18194207921E+02 -0.20350357910E+02 -0.33741003696E+02  0.43400709664E+02  0.00000000000E+00 0.  1.
         11    1    3    3    0    0 -0.12684794756E+02  0.14541556414E+02  0.28766907604E+02  0.34639512905E+02  0.51100000000E-03 0. -1.
        -11    1    3    3    0    0  0.18639187244E+01  0.42398180197E+01  0.19613542092E+01  0.50296282612E+01  0.51100000000E-03 0.  1.
         12    1    3    3    0    0 -0.73733318895E+01  0.15689834761E+01  0.30127418822E+01  0.81181491702E+01  0.00000000000E+00 0. -1.
</event>
<event>
 7    1  0.2700100E-010  0.4778728E+02  0.7816164E-02  0.1312668E+00
        -11   -1    0    0    0    0  0.00000000000E+00  0.00000000000E+00  0.45593999997E+02  0.45594000000E+02  0.51100000000E-03 0. -1.
         11   -1    0    0    0    0 -0.00000000000E+00 -0.00000000000E+00 -0.45593999997E+02  0.45594000000E+02  0.51100000000E-03 0.  1.
    9900012    2    1    2    0    0 -0.39137977911E+02  0.32398175275E+01 -0.18475525641E+02  0.47787276731E+02  0.20000025927E+02 0.  0.
        -12    1    1    2    0    0  0.39137977911E+02 -0.32398175275E+01  0.18475525641E+02  0.43400723269E+02  0.00000000000E+00 0.  1.
         11    1    3    3    0    0 -0.30381458373E+02  0.51787329690E+01 -0.20739595129E+02  0.37148123700E+02  0.51100000000E-03 0. -1.
        -11    1    3    3    0    0  0.70972840492E+00 -0.36656788298E+00  0.14093755130E+00  0.81114121832E+00  0.51100000000E-03 0.  1.
         12    1    3    3    0    0 -0.94662479426E+01 -0.15723475586E+01  0.21231319375E+01  0.98280118122E+01  0.00000000000E+00 0. -1.
</event>
<event>
 7    1  0.2700100E-010  0.4778727E+02  0.7816164E-02  0.1312668E+00
        -11   -1    0    0    0    0  0.00000000000E+00  0.00000000000E+00  0.45593999997E+02  0.45594000000E+02  0.51100000000E-03 0.  1.
         11   -1    0    0    0    0 -0.00000000000E+00 -0.00000000000E+00 -0.45593999997E+02  0.45594000000E+02  0.51100000000E-03 0. -1.
    9900012    2    1    2    0    0 -0.31774251105E+02 -0.26242746687E+01 -0.29447133319E+02  0.47787268307E+02  0.19999987519E+02 0.  0.
        -12    1    1    2    0    0  0.31774251105E+02  0.26242746687E+01  0.29447133319E+02  0.43400731693E+02  0.00000000000E+00 0.  1.
         11    1    3    3    0    0 -0.25111536101E+02 -0.51523633649E+01 -0.20874886069E+02  0.33058992155E+02  0.51100000000E-03 0. -1.
        -11    1    3    3    0    0 -0.26999835624E+01  0.39927469097E+01 -0.92681920433E+01  0.10446593853E+02  0.51100000000E-03 0.  1.
        -12    1    3    3    0    0 -0.39627314409E+01 -0.14646582135E+01  0.69594479362E+00  0.42816822991E+01  0.00000000000E+00 0.  1.
</event>
<event>
 7    1  0.2700100E-010  0.4778727E+02  0.7816164E-02  0.1312668E+00
        -11   -1    0    0    0    0  0.00000000000E+00  0.00000000000E+00  0.45593999997E+02  0.45594000000E+02  0.51100000000E-03 0.  1.
         11   -1    0    0    0    0 -0.00000000000E+00 -0.00000000000E+00 -0.45593999997E+02  0.45594000000E+02  0.51100000000E-03 0. -1.
    9900012    2    1    2    0    0  0.26886303745E+02 -0.39537030603E+01 -0.33839592418E+02  0.47787272910E+02  0.20000008504E+02 0.  0.
        -12    1    1    2    0    0 -0.26886303745E+02  0.39537030603E+01  0.33839592418E+02  0.43400727090E+02  0.00000000000E+00 0.  1.
         11    1    3    3    0    0  0.86949531033E+01  0.28467785657E+01 -0.12077575147E+01  0.92284904587E+01  0.51100000000E-03 0. -1.
        -11    1    3    3    0    0  0.60667946647E+00 -0.99166768383E+00 -0.15494668375E+00  0.11728058263E+01  0.51100000000E-03 0.  1.
         12    1    3    3    0    0  0.17584671175E+02 -0.58088139422E+01 -0.32476888220E+02  0.37385976625E+02  0.00000000000E+00 0. -1.
</event>
<event>
 7    1  0.2700100E-010  0.4778727E+02  0.7816164E-02  0.1312668E+00
        -11   -1    0    0    0    0  0.00000000000E+00  0.00000000000E+00  0.45593999997E+02  0.45594000000E+02  0.51100000000E-03 0. -1.
         11   -1    0    0    0    0 -0.00000000000E+00 -0.00000000000E+00 -0.45593999997E+02  0.45594000000E+02  0.51100000000E-03 0.  1.
    9900012    2    1    2    0    0 -0.18902380411E+02  0.18544236167E+02  0.34386546334E+02  0.47787271331E+02  0.20000001308E+02 0.  0.
        -12    1    1    2    0    0  0.18902380411E+02 -0.18544236167E+02 -0.34386546334E+02  0.43400728669E+02  0.00000000000E+00 0.  1.
         11    1    3    3    0    0 -0.21989534546E+01  0.89644843489E+01  0.15695607391E+02  0.18208499871E+02  0.51100000000E-03 0. -1.
        -11    1    3    3    0    0 -0.16969948888E+02  0.85440860704E+01  0.20198693831E+02  0.27730268747E+02  0.51100000000E-03 0.  1.
        -12    1    3    3    0    0  0.26652193117E+00  0.10356657473E+01 -0.15077548877E+01  0.18485027134E+01  0.00000000000E+00 0.  1.
</event>
<event>
 7    1  0.2700100E-010  0.4778727E+02  0.7816164E-02  0.1312668E+00
        -11   -1    0    0    0    0  0.00000000000E+00  0.00000000000E+00  0.45593999997E+02  0.45594000000E+02  0.51100000000E-03 0. -1.
         11   -1    0    0    0    0 -0.00000000000E+00 -0.00000000000E+00 -0.45593999997E+02  0.45594000000E+02  0.51100000000E-03 0.  1.
    9900012    2    1    2    0    0  0.19954701235E+02 -0.16848429160E+02  0.34663584520E+02  0.47787265464E+02  0.19999974555E+02 0.  0.
        -12    1    1    2    0    0 -0.19954701235E+02  0.16848429160E+02 -0.34663584520E+02  0.43400734536E+02  0.00000000000E+00 0.  1.
         11    1    3    3    0    0  0.39896770985E+01 -0.41854800651E+01  0.19884258605E+02  0.20707957583E+02  0.51100000000E-03 0.  1.
        -11    1    3    3    0    0  0.95388609151E+01 -0.58521835366E+01  0.13644652066E+02  0.17646938827E+02  0.51100000000E-03 0. -1.
         12    1    3    3    0    0  0.64261632211E+01 -0.68107655578E+01  0.11346738496E+01  0.94323690540E+01  0.00000000000E+00 0. -1.
</event>
<event>
 7    1  0.2700100E-010  0.4778727E+02  0.7816164E-02  0.1312668E+00
        -11   -1    0    0    0    0  0.00000000000E+00  0.00000000000E+00  0.45593999997E+02  0.45594000000E+02  0.51100000000E-03 0.  1.
         11   -1    0    0    0    0 -0.00000000000E+00 -0.00000000000E+00 -0.45593999997E+02  0.45594000000E+02  0.51100000000E-03 0. -1.
    9900012    2    1    2    0    0 -0.36976403479E+02  0.36278008797E+01 -0.22432304193E+02  0.47787267001E+02  0.19999981564E+02 0.  0.
        -12    1    1    2    0    0  0.36976403479E+02 -0.36278008797E+01  0.22432304193E+02  0.43400732999E+02  0.00000000000E+00 0.  1.
         11    1    3    3    0    0 -0.20521477171E+02  0.36039266038E+01 -0.14266171421E+02  0.25251593208E+02  0.51100000000E-03 0. -1.
        -11    1    3    3    0    0 -0.31749391960E+01 -0.55784540641E+01 -0.12107126656E+01  0.65318614547E+01  0.51100000000E-03 0.  1.
        -12    1    3    3    0    0 -0.13279987112E+02  0.56023283399E+01 -0.69554201059E+01  0.16003812339E+02  0.00000000000E+00 0.  1.
</event>
<event>
 7    1  0.2752569E-010  0.4778727E+02  0.7816164E-02  0.1312668E+00
        -11   -1    0    0    0    0  0.00000000000E+00  0.00000000000E+00  0.45593999997E+02  0.45594000000E+02  0.51100000000E-03 0. -1.
         11   -1    0    0    0    0 -0.00000000000E+00 -0.00000000000E+00 -0.45593999997E+02  0.45594000000E+02  0.51100000000E-03 0.  1.
    9900012    2    1    2    0    0  0.13071493399E+02 -0.23407599877E+02  0.34129806871E+02  0.47787269721E+02  0.19999993965E+02 0.  0.
        -12    1    1    2    0    0 -0.13071493399E+02  0.23407599877E+02 -0.34129806871E+02  0.43400730279E+02  0.00000000000E+00 0.  1.
         11    1    3    3    0    0  0.63363107997E+01 -0.51930133406E+01  0.17925413914E+02  0.19708797182E+02  0.51100000000E-03 0. -1.
        -11    1    3    3    0    0  0.37849652295E+01 -0.10057495788E+02  0.12876358462E+01  0.10822993562E+02  0.51100000000E-03 0.  1.
        -12    1    3    3    0    0  0.29502173699E+01 -0.81570907487E+01  0.14916757111E+02  0.17255478977E+02  0.00000000000E+00 0.  1.
</event>
<event>
 7    1  0.2700100E-010  0.4778728E+02  0.7816164E-02  0.1312668E+00
        -11   -1    0    0    0    0  0.00000000000E+00  0.00000000000E+00  0.45593999997E+02  0.45594000000E+02  0.51100000000E-03 0.  1.
         11   -1    0    0    0    0 -0.00000000000E+00 -0.00000000000E+00 -0.45593999997E+02  0.45594000000E+02  0.51100000000E-03 0. -1.
    9900012    2    1    2    0    0 -0.28359611570E+01 -0.35403349459E+02 -0.24943598184E+02  0.47787275133E+02  0.20000018641E+02 0.  0.
        -12    1    1    2    0    0  0.28359611570E+01  0.35403349459E+02  0.24943598184E+02  0.43400724867E+02  0.00000000000E+00 0.  1.
         11    1    3    3    0    0 -0.12449949111E+01 -0.76143492403E+01 -0.60148594559E+01  0.97829883583E+01  0.51100000000E-03 0. -1.
        -11    1    3    3    0    0  0.79150076508E+01 -0.98429769194E+01 -0.66818323546E+01  0.14289101603E+02  0.51100000000E-03 0.  1.
        -12    1    3    3    0    0 -0.95059738966E+01 -0.17946023299E+02 -0.12246906374E+02  0.23715185171E+02  0.00000000000E+00 0.  1.
</event>
<event>
 7    1  0.2700100E-010  0.4778727E+02  0.7816164E-02  0.1312668E+00
        -11   -1    0    0    0    0  0.00000000000E+00  0.00000000000E+00  0.45593999997E+02  0.45594000000E+02  0.51100000000E-03 0.  1.
         11   -1    0    0    0    0 -0.00000000000E+00 -0.00000000000E+00 -0.45593999997E+02  0.45594000000E+02  0.51100000000E-03 0. -1.
    9900012    2    1    2    0    0 -0.24687347301E+01 -0.41953809483E+02 -0.10835450885E+02  0.47787265245E+02  0.19999973560E+02 0.  0.
        -12    1    1    2    0    0  0.24687347301E+01  0.41953809483E+02  0.10835450885E+02  0.43400734755E+02  0.00000000000E+00 0.  1.
         11    1    3    3    0    0 -0.80875600163E+00 -0.13500027159E+02 -0.71925893748E+01  0.15317903308E+02  0.51100000000E-03 0. -1.
        -11    1    3    3    0    0 -0.66230836846E+01 -0.23549209051E+02  0.28033169522E+00  0.24464445028E+02  0.51100000000E-03 0.  1.
        -12    1    3    3    0    0  0.49631049562E+01 -0.49045732734E+01 -0.39231932058E+01  0.80049169097E+01  0.00000000000E+00 0.  1.
</event>
<event>
 7    1  0.2700100E-010  0.4778730E+02  0.7816164E-02  0.1312668E+00
        -11   -1    0    0    0    0  0.00000000000E+00  0.00000000000E+00  0.45593999997E+02  0.45594000000E+02  0.51100000000E-03 0.  1.
         11   -1    0    0    0    0 -0.00000000000E+00 -0.00000000000E+00 -0.45593999997E+02  0.45594000000E+02  0.51100000000E-03 0. -1.
    9900012    2    1    2    0    0  0.41714523327E+02 -0.40587087272E+01 -0.11271472616E+02  0.47787301067E+02  0.20000136883E+02 0.  0.
        -12    1    1    2    0    0 -0.41714523327E+02  0.40587087272E+01  0.11271472616E+02  0.43400698933E+02  0.00000000000E+00 0.  1.
         11    1    3    3    0    0  0.18103754833E+02 -0.24560177134E+01 -0.56895701629E+01  0.19135024718E+02  0.51100000000E-03 0. -1.
        -11    1    3    3    0    0  0.10277599754E+02 -0.52312357708E+00 -0.10211011040E+02  0.14497153572E+02  0.51100000000E-03 0.  1.
        -12    1    3    3    0    0  0.13333168740E+02 -0.10795674368E+01  0.46291085864E+01  0.14155122776E+02  0.00000000000E+00 0.  1.
</event>
<event>
 7    1  0.2700100E-010  0.4778727E+02  0.7816164E-02  0.1312668E+00
        -11   -1    0    0    0    0  0.00000000000E+00  0.00000000000E+00  0.45593999997E+02  0.45594000000E+02  0.51100000000E-03 0.  1.
         11   -1    0    0    0    0 -0.00000000000E+00 -0.00000000000E+00 -0.45593999997E+02  0.45594000000E+02  0.51100000000E-03 0. -1.
    9900012    2    1    2    0    0  0.27617541569E+02 -0.98162946823E+01 -0.32008360691E+02  0.47787269618E+02  0.19999993496E+02 0.  0.
        -12    1    1    2    0    0 -0.27617541569E+02  0.98162946823E+01  0.32008360691E+02  0.43400730382E+02  0.00000000000E+00 0.  1.
         11    1    3    3    0    0  0.12724913303E+02 -0.21738291096E+01 -0.98093355611E+01  0.16213328344E+02  0.51100000000E-03 0. -1.
        -11    1    3    3    0    0  0.12062389107E+02 -0.45098832098E+01 -0.49185362268E+01  0.13785219491E+02  0.51100000000E-03 0.  1.
        -12    1    3    3    0    0  0.28302391582E+01 -0.31325823629E+01 -0.17280488903E+02  0.17788721783E+02  0.00000000000E+00 0.  1.
</event>
<event>
 7    1  0.2700100E-010  0.4778727E+02  0.7816164E-02  0.1312668E+00
        -11   -1    0    0    0    0  0.00000000000E+00  0.00000000000E+00  0.45593999997E+02  0.45594000000E+02  0.51100000000E-03 0.  1.
         11   -1    0    0    0    0 -0.00000000000E+00 -0.00000000000E+00 -0.45593999997E+02  0.45594000000E+02  0.51100000000E-03 0. -1.
    9900012    2    1    2    0    0  0.15818802467E+02 -0.16893005261E+02 -0.36715325617E+02  0.47787271050E+02  0.20000000023E+02 0.  0.
        -12    1    1    2    0    0 -0.15818802467E+02  0.16893005261E+02  0.36715325617E+02  0.43400728950E+02  0.00000000000E+00 0.  1.
         11    1    3    3    0    0 -0.10134857733E+01 -0.73907969449E+01 -0.13025465190E+02  0.15010455575E+02  0.51100000000E-03 0. -1.
        -11    1    3    3    0    0  0.65387644215E+01  0.25062202170E+00 -0.19622946625E+01  0.68314604706E+01  0.51100000000E-03 0.  1.
         12    1    3    3    0    0  0.10293523819E+02 -0.97528303375E+01 -0.21727565765E+02  0.25945355004E+02  0.00000000000E+00 0. -1.
</event>
<event>
 7    1  0.2700100E-010  0.4778729E+02  0.7816164E-02  0.1312668E+00
        -11   -1    0    0    0    0  0.00000000000E+00  0.00000000000E+00  0.45593999997E+02  0.45594000000E+02  0.51100000000E-03 0. -1.
         11   -1    0    0    0    0 -0.00000000000E+00 -0.00000000000E+00 -0.45593999997E+02  0.45594000000E+02  0.51100000000E-03 0.  1.
    9900012    2    1    2    0    0  0.11605165606E+02  0.12819173736E+02  0.39807170832E+02  0.47787286485E+02  0.20000070399E+02 0.  0.
        -12    1    1    2    0    0 -0.11605165606E+02 -0.12819173736E+02 -0.39807170832E+02  0.43400713515E+02  0.00000000000E+00 0.  1.
         11    1    3    3    0    0  0.65818394590E+01  0.10321977335E+02  0.17478170417E+02  0.21338937840E+02  0.51100000000E-03 0. -1.
        -11    1    3    3    0    0  0.12728765443E-01 -0.50546223845E+01  0.91614410155E+01  0.10463334612E+02  0.51100000000E-03 0.  1.
        -12    1    3    3    0    0  0.50105973812E+01  0.75518187854E+01  0.13167559400E+02  0.15985014033E+02  0.00000000000E+00 0.  1.
</event>
<event>
 7    1  0.2700100E-010  0.4778727E+02  0.7816164E-02  0.1312668E+00
        -11   -1    0    0    0    0  0.00000000000E+00  0.00000000000E+00  0.45593999997E+02  0.45594000000E+02  0.51100000000E-03 0.  1.
         11   -1    0    0    0    0 -0.00000000000E+00 -0.00000000000E+00 -0.45593999997E+02  0.45594000000E+02  0.51100000000E-03 0. -1.
    9900012    2    1    2    0    0  0.20950397321E+02  0.24563913790E+02 -0.29005490265E+02  0.47787268738E+02  0.19999989485E+02 0.  0.
        -12    1    1    2    0    0 -0.20950397321E+02 -0.24563913790E+02  0.29005490265E+02  0.43400731262E+02  0.00000000000E+00 0.  1.
         11    1    3    3    0    0  0.57783695091E+01  0.67089336008E+00 -0.24890042700E+01  0.63273054771E+01  0.51100000000E-03 0. -1.
        -11    1    3    3    0    0  0.62036276407E+01  0.28490757446E+01 -0.13531970476E+02  0.15156399761E+02  0.51100000000E-03 0.  1.
        -12    1    3    3    0    0  0.89684001708E+01  0.21043944685E+02 -0.12984515519E+02  0.26303563500E+02  0.00000000000E+00 0.  1.
</event>
<event>
 7    1  0.2700100E-010  0.4778727E+02  0.7816164E-02  0.1312668E+00
        -11   -1    0    0    0    0  0.00000000000E+00  0.00000000000E+00  0.45593999997E+02  0.45594000000E+02  0.51100000000E-03 0.  1.
         11   -1    0    0    0    0 -0.00000000000E+00 -0.00000000000E+00 -0.45593999997E+02  0.45594000000E+02  0.51100000000E-03 0. -1.
    9900012    2    1    2    0    0 -0.80225666683E+01  0.73043994837E+01 -0.42022706370E+02  0.47787266384E+02  0.19999978749E+02 0.  0.
        -12    1    1    2    0    0  0.80225666683E+01 -0.73043994837E+01  0.42022706370E+02  0.43400733616E+02  0.00000000000E+00 0.  1.
         11    1    3    3    0    0 -0.10834116978E+02 -0.23369401928E+01 -0.28109591986E+02  0.30215700257E+02  0.51100000000E-03 0. -1.
        -11    1    3    3    0    0  0.84133545040E+00  0.39707596196E+00 -0.26000860661E+00  0.96598105380E+00  0.51100000000E-03 0.  1.
         12    1    3    3    0    0  0.19702148597E+01  0.92442637145E+01 -0.13653105778E+02  0.16605585073E+02  0.00000000000E+00 0. -1.
</event>
<event>
 7    1  0.2700100E-010  0.4778727E+02  0.7816164E-02  0.1312668E+00
        -11   -1    0    0    0    0  0.00000000000E+00  0.00000000000E+00  0.45593999997E+02  0.45594000000E+02  0.51100000000E-03 0.  1.
         11   -1    0    0    0    0 -0.00000000000E+00 -0.00000000000E+00 -0.45593999997E+02  0.45594000000E+02  0.51100000000E-03 0. -1.
    9900012    2    1    2    0    0  0.15981973923E+02  0.28404249284E+02 -0.28660048920E+02  0.47787271066E+02  0.20000000100E+02 0.  0.
        -12    1    1    2    0    0 -0.15981973923E+02 -0.28404249284E+02  0.28660048920E+02  0.43400728934E+02  0.00000000000E+00 0.  1.
         11    1    3    3    0    0  0.11126918494E+02  0.20167449281E+02 -0.22623388824E+02  0.32285477352E+02  0.51100000000E-03 0. -1.
        -11    1    3    3    0    0  0.39595089582E+01 -0.39270336494E+00  0.12513468759E+01  0.41710665768E+01  0.51100000000E-03 0.  1.
         12    1    3    3    0    0  0.89554647109E+00  0.86295033675E+01 -0.72880069721E+01  0.11330727138E+02  0.00000000000E+00 0. -1.
</event>
<event>
 7    1  0.2700100E-010  0.4778727E+02  0.7816164E-02  0.1312668E+00
        -11   -1    0    0    0    0  0.00000000000E+00  0.00000000000E+00  0.45593999997E+02  0.45594000000E+02  0.51100000000E-03 0.  1.
         11   -1    0    0    0    0 -0.00000000000E+00 -0.00000000000E+00 -0.45593999997E+02  0.45594000000E+02  0.51100000000E-03 0. -1.
    9900012    2    1    2    0    0 -0.37273011467E+02 -0.21862267241E+02 -0.40481249331E+01  0.47787269266E+02  0.19999991893E+02 0.  0.
        -12    1    1    2    0    0  0.37273011467E+02  0.21862267241E+02  0.40481249331E+01  0.43400730734E+02  0.00000000000E+00 0.  1.
         11    1    3    3    0    0 -0.23965762622E+02 -0.15159385613E+02  0.20981090621E+01  0.28435309250E+02  0.51100000000E-03 0. -1.
        -11    1    3    3    0    0 -0.13310621324E+02 -0.51952697308E+01 -0.84489270921E+01  0.16599633637E+02  0.51100000000E-03 0.  1.
        -12    1    3    3    0    0  0.33724783170E-02 -0.15076118963E+01  0.23026930969E+01  0.27523263800E+01  0.00000000000E+00 0.  1.
</event>
<event>
 7    1  0.2700100E-010  0.4778729E+02  0.7816164E-02  0.1312668E+00
        -11   -1    0    0    0    0  0.00000000000E+00  0.00000000000E+00  0.45593999997E+02  0.45594000000E+02  0.51100000000E-03 0.  1.
         11   -1    0    0    0    0 -0.00000000000E+00 -0.00000000000E+00 -0.45593999997E+02  0.45594000000E+02  0.51100000000E-03 0. -1.
    9900012    2    1    2    0    0 -0.30148343073E+02  0.38863785363E+01 -0.30977326899E+02  0.47787293669E+02  0.20000103156E+02 0.  0.
        -12    1    1    2    0    0  0.30148343073E+02 -0.38863785363E+01  0.30977326899E+02  0.43400706331E+02  0.00000000000E+00 0.  1.
         11    1    3    3    0    0 -0.23783592062E+02 -0.30669249067E+00 -0.22401775522E+02  0.32674039518E+02  0.51100000000E-03 0. -1.
        -11    1    3    3    0    0 -0.22242622443E+01  0.22368851033E+01  0.18985968819E+01  0.36818022595E+01  0.51100000000E-03 0.  1.
         12    1    3    3    0    0 -0.41404887670E+01  0.19561859236E+01 -0.10474148259E+02  0.11431451892E+02  0.00000000000E+00 0. -1.
</event>
<event>
 7    1  0.2700100E-010  0.4778727E+02  0.7816164E-02  0.1312668E+00
        -11   -1    0    0    0    0  0.00000000000E+00  0.00000000000E+00  0.45593999997E+02  0.45594000000E+02  0.51100000000E-03 0. -1.
         11   -1    0    0    0    0 -0.00000000000E+00 -0.00000000000E+00 -0.45593999997E+02  0.45594000000E+02  0.51100000000E-03 0.  1.
    9900012    2    1    2    0    0 -0.24073933399E+02 -0.29831051847E+02  0.20351343004E+02  0.47787273213E+02  0.20000009886E+02 0.  0.
        -12    1    1    2    0    0  0.24073933399E+02  0.29831051847E+02 -0.20351343004E+02  0.43400726787E+02  0.00000000000E+00 0.  1.
         11    1    3    3    0    0 -0.30122834404E+01 -0.71193423645E+01  0.58010268459E+01  0.96649262779E+01  0.51100000000E-03 0. -1.
        -11    1    3    3    0    0  0.23217505546E+00 -0.87546543207E+01 -0.79550310462E-01  0.87580937449E+01  0.51100000000E-03 0.  1.
        -12    1    3    3    0    0 -0.21293825014E+02 -0.13957055162E+02  0.14629866468E+02  0.29364253190E+02  0.00000000000E+00 0.  1.
</event>
<event>
 7    1  0.2700100E-010  0.4778727E+02  0.7816164E-02  0.1312668E+00
        -11   -1    0    0    0    0  0.00000000000E+00  0.00000000000E+00  0.45593999997E+02  0.45594000000E+02  0.51100000000E-03 0.  1.
         11   -1    0    0    0    0 -0.00000000000E+00 -0.00000000000E+00 -0.45593999997E+02  0.45594000000E+02  0.51100000000E-03 0. -1.
    9900012    2    1    2    0    0  0.20067319561E+02 -0.38120346295E+02 -0.52692738948E+01  0.47787270013E+02  0.19999995297E+02 0.  0.
        -12    1    1    2    0    0 -0.20067319561E+02  0.38120346295E+02  0.52692738948E+01  0.43400729987E+02  0.00000000000E+00 0.  1.
         11    1    3    3    0    0 -0.27745201798E+01 -0.90335941660E+01 -0.29250816848E+01  0.98924157266E+01  0.51100000000E-03 0. -1.
        -11    1    3    3    0    0  0.19472921136E+02 -0.26435385651E+02 -0.44238162070E+01  0.33129962605E+02  0.51100000000E-03 0.  1.
        -12    1    3    3    0    0  0.33689186048E+01 -0.26513664776E+01  0.20796239970E+01  0.47648916812E+01  0.00000000000E+00 0.  1.
</event>
<event>
 7    1  0.2700100E-010  0.4778727E+02  0.7816164E-02  0.1312668E+00
        -11   -1    0    0    0    0  0.00000000000E+00  0.00000000000E+00  0.45593999997E+02  0.45594000000E+02  0.51100000000E-03 0. -1.
         11   -1    0    0    0    0 -0.00000000000E+00 -0.00000000000E+00 -0.45593999997E+02  0.45594000000E+02  0.51100000000E-03 0.  1.
    9900012    2    1    2    0    0  0.67789553957E+01 -0.42785204521E+02  0.26636501689E+01  0.47787274264E+02  0.20000014679E+02 0.  0.
        -12    1    1    2    0    0 -0.67789553957E+01  0.42785204521E+02 -0.26636501689E+01  0.43400725736E+02  0.00000000000E+00 0.  1.
         11    1    3    3    0    0  0.28407563082E+01 -0.18754744527E+01  0.10002294603E+00  0.34054817098E+01  0.51100000000E-03 0. -1.
        -11    1    3    3    0    0 -0.37364596012E+01 -0.22719536109E+01 -0.18389812500E+01  0.47439177755E+01  0.51100000000E-03 0.  1.
        -12    1    3    3    0    0  0.76746586888E+01 -0.38637776458E+02  0.44026084729E+01  0.39637874779E+02  0.00000000000E+00 0.  1.
</event>
<event>
 7    1  0.2700100E-010  0.4778727E+02  0.7816164E-02  0.1312668E+00
        -11   -1    0    0    0    0  0.00000000000E+00  0.00000000000E+00  0.45593999997E+02  0.45594000000E+02  0.51100000000E-03 0.  1.
         11   -1    0    0    0    0 -0.00000000000E+00 -0.00000000000E+00 -0.45593999997E+02  0.45594000000E+02  0.51100000000E-03 0. -1.
    9900012    2    1    2    0    0 -0.34927179666E+02  0.74970975783E+01 -0.24647696057E+02  0.47787271061E+02  0.20000000074E+02 0.  0.
        -12    1    1    2    0    0  0.34927179666E+02 -0.74970975783E+01  0.24647696057E+02  0.43400728939E+02  0.00000000000E+00 0.  1.
         11    1    3    3    0    0 -0.18802030557E+02 -0.58415726717E-01 -0.21201218244E+02  0.28337456145E+02  0.51100000000E-03 0. -1.
        -11    1    3    3    0    0 -0.57491293806E+01  0.27777974071E+01  0.21395867767E+01  0.67339794257E+01  0.51100000000E-03 0.  1.
        -12    1    3    3    0    0 -0.10376019728E+02  0.47777158979E+01 -0.55860645901E+01  0.12715835490E+02  0.00000000000E+00 0.  1.
</event>
<event>
 7    1  0.2700100E-010  0.4778729E+02  0.7816164E-02  0.1312668E+00
        -11   -1    0    0    0    0  0.00000000000E+00  0.00000000000E+00  0.45593999997E+02  0.45594000000E+02  0.51100000000E-03 0. -1.
         11   -1    0    0    0    0 -0.00000000000E+00 -0.00000000000E+00 -0.45593999997E+02  0.45594000000E+02  0.51100000000E-03 0.  1.
    9900012    2    1    2    0    0 -0.19501370502E+02  0.37667888353E+02  0.91895706988E+01  0.47787291780E+02  0.20000094539E+02 0.  0.
        -12    1    1    2    0    0  0.19501370502E+02 -0.37667888353E+02 -0.91895706988E+01  0.43400708220E+02  0.00000000000E+00 0.  1.
         11    1    3    3    0    0 -0.11438120821E+02  0.90628019395E+01 -0.23112259351E+01  0.14775207359E+02  0.51100000000E-03 0. -1.
        -11    1    3    3    0    0 -0.78691955947E+00 -0.42773554623E+00  0.87229551936E+00  0.12502399069E+01  0.51100000000E-03 0.  1.
         12    1    3    3    0    0 -0.72763301211E+01  0.29032821960E+02  0.10628501115E+02  0.31761844514E+02  0.00000000000E+00 0. -1.
</event>
<event>
 7    1  0.2700100E-010  0.4778727E+02  0.7816164E-02  0.1312668E+00
        -11   -1    0    0    0    0  0.00000000000E+00  0.00000000000E+00  0.45593999997E+02  0.45594000000E+02  0.51100000000E-03 0.  1.
         11   -1    0    0    0    0 -0.00000000000E+00 -0.00000000000E+00 -0.45593999997E+02  0.45594000000E+02  0.51100000000E-03 0. -1.
    9900012    2    1    2    0    0 -0.50846373685E+01 -0.25275706245E+02 -0.34912869343E+02  0.47787270639E+02  0.19999998150E+02 0.  0.
        -12    1    1    2    0    0  0.50846373685E+01  0.25275706245E+02  0.34912869343E+02  0.43400729361E+02  0.00000000000E+00 0.  1.
         11    1    3    3    0    0 -0.41928896100E+01  0.13774621442E+01 -0.47598473772E+01  0.64910609730E+01  0.51100000000E-03 0.  1.
        -11    1    3    3    0    0  0.26621445681E+01 -0.21862408971E+02 -0.25739870041E+02  0.33876139829E+02  0.51100000000E-03 0. -1.
         12    1    3    3    0    0 -0.35538923267E+01 -0.47907594178E+01 -0.44131519243E+01  0.74200698364E+01  0.00000000000E+00 0. -1.
</event>
<event>
 7    1  0.2700100E-010  0.4778727E+02  0.7816164E-02  0.1312668E+00
        -11   -1    0    0    0    0  0.00000000000E+00  0.00000000000E+00  0.45593999997E+02  0.45594000000E+02  0.51100000000E-03 0. -1.
         11   -1    0    0    0    0 -0.00000000000E+00 -0.00000000000E+00 -0.45593999997E+02  0.45594000000E+02  0.51100000000E-03 0.  1.
    9900012    2    1    2    0    0  0.40910203261E+02 -0.71354175524E+01 -0.12612060007E+02  0.47787274521E+02  0.20000015850E+02 0.  0.
        -12    1    1    2    0    0 -0.40910203261E+02  0.71354175524E+01  0.12612060007E+02  0.43400725479E+02  0.00000000000E+00 0.  1.
         11    1    3    3    0    0  0.16020026276E+02  0.16433734874E+01  0.29078533210E+01  0.16364520449E+02  0.51100000000E-03 0. -1.
        -11    1    3    3    0    0  0.87644741192E+01 -0.56825481381E+01 -0.88832283407E+01  0.13712005905E+02  0.51100000000E-03 0.  1.
         12    1    3    3    0    0  0.16125702865E+02 -0.30962429016E+01 -0.66366849875E+01  0.17710748167E+02  0.00000000000E+00 0. -1.
</event>
<event>
 7    1  0.2700100E-010  0.4778727E+02  0.7816164E-02  0.1312668E+00
        -11   -1    0    0    0    0  0.00000000000E+00  0.00000000000E+00  0.45593999997E+02  0.45594000000E+02  0.51100000000E-03 0. -1.
         11   -1    0    0    0    0 -0.00000000000E+00 -0.00000000000E+00 -0.45593999997E+02  0.45594000000E+02  0.51100000000E-03 0.  1.
    9900012    2    1    2    0    0 -0.28181392285E+02 -0.27893096803E+02 -0.17646738114E+02  0.47787273204E+02  0.20000009845E+02 0.  0.
        -12    1    1    2    0    0  0.28181392285E+02  0.27893096803E+02  0.17646738114E+02  0.43400726796E+02  0.00000000000E+00 0.  1.
         11    1    3    3    0    0 -0.76440156463E+01  0.96739417615E-01 -0.50706547865E-01  0.76447959509E+01  0.51100000000E-03 0. -1.
        -11    1    3    3    0    0 -0.27313865088E+01  0.16008526524E+00 -0.18240273971E+01  0.32883393619E+01  0.51100000000E-03 0.  1.
         12    1    3    3    0    0 -0.17805990130E+02 -0.28149921485E+02 -0.15772004169E+02  0.36854137891E+02  0.00000000000E+00 0. -1.
</event>
<event>
 7    1  0.2700100E-010  0.4778727E+02  0.7816164E-02  0.1312668E+00
        -11   -1    0    0    0    0  0.00000000000E+00  0.00000000000E+00  0.45593999997E+02  0.45594000000E+02  0.51100000000E-03 0.  1.
         11   -1    0    0    0    0 -0.00000000000E+00 -0.00000000000E+00 -0.45593999997E+02  0.45594000000E+02  0.51100000000E-03 0. -1.
    9900012    2    1    2    0    0 -0.40007341394E+02  0.38719458585E+01 -0.16372046225E+02  0.47787271576E+02  0.20000002425E+02 0.  0.
        -12    1    1    2    0    0  0.40007341394E+02 -0.38719458585E+01  0.16372046225E+02  0.43400728424E+02  0.00000000000E+00 0.  1.
         11    1    3    3    0    0 -0.79558617535E+01  0.66815836752E+01  0.83523820322E+00  0.10422903615E+02  0.51100000000E-03 0.  1.
        -11    1    3    3    0    0 -0.30082912895E+02 -0.22939613413E+01 -0.18054837251E+02  0.35159935371E+02  0.51100000000E-03 0. -1.
         12    1    3    3    0    0 -0.19685667457E+01 -0.51567647533E+00  0.84755282281E+00  0.22044325907E+01  0.00000000000E+00 0. -1.
</event>
<event>
 7    1  0.2700100E-010  0.4778727E+02  0.7816164E-02  0.1312668E+00
        -11   -1    0    0    0    0  0.00000000000E+00  0.00000000000E+00  0.45593999997E+02  0.45594000000E+02  0.51100000000E-03 0.  1.
         11   -1    0    0    0    0 -0.00000000000E+00 -0.00000000000E+00 -0.45593999997E+02  0.45594000000E+02  0.51100000000E-03 0. -1.
    9900012    2    1    2    0    0  0.17105594847E+02  0.15148468830E+02 -0.36899129909E+02  0.47787271078E+02  0.20000000152E+02 0.  0.
        -12    1    1    2    0    0 -0.17105594847E+02 -0.15148468830E+02  0.36899129909E+02  0.43400728922E+02  0.00000000000E+00 0.  1.
         11    1    3    3    0    0  0.23067395250E+01 -0.21856520668E+01 -0.80473802777E+01  0.86520778885E+01  0.51100000000E-03 0. -1.
        -11    1    3    3    0    0  0.81862510022E+01  0.11640361245E+02 -0.75369955953E+01  0.16103385304E+02  0.51100000000E-03 0.  1.
        -12    1    3    3    0    0  0.66126043198E+01  0.56937596517E+01 -0.21314754036E+02  0.23031807885E+02  0.00000000000E+00 0.  1.
</event>
<event>
 7    1  0.2700100E-010  0.4778727E+02  0.7816164E-02  0.1312668E+00
        -11   -1    0    0    0    0  0.00000000000E+00  0.00000000000E+00  0.45593999997E+02  0.45594000000E+02  0.51100000000E-03 0.  1.
         11   -1    0    0    0    0 -0.00000000000E+00 -0.00000000000E+00 -0.45593999997E+02  0.45594000000E+02  0.51100000000E-03 0. -1.
    9900012    2    1    2    0    0 -0.51660840727E+01 -0.43052432769E+02  0.18501968399E+01  0.47787267053E+02  0.19999981801E+02 0.  0.
        -12    1    1    2    0    0  0.51660840727E+01  0.43052432769E+02 -0.18501968399E+01  0.43400732947E+02  0.00000000000E+00 0.  1.
         11    1    3    3    0    0  0.63944401689E+01 -0.23536313772E+02 -0.73926400089E+00  0.24400685289E+02  0.51100000000E-03 0. -1.
        -11    1    3    3    0    0 -0.75947408213E+01 -0.82469555899E+01  0.22520226150E+01  0.11435207509E+02  0.51100000000E-03 0.  1.
         12    1    3    3    0    0 -0.39657834204E+01 -0.11269163407E+02  0.33743822586E+00  0.11951374255E+02  0.00000000000E+00 0. -1.
</event>
<event>
 7    1  0.2700100E-010  0.4778727E+02  0.7816164E-02  0.1312668E+00
        -11   -1    0    0    0    0  0.00000000000E+00  0.00000000000E+00  0.45593999997E+02  0.45594000000E+02  0.51100000000E-03 0.  1.
         11   -1    0    0    0    0 -0.00000000000E+00 -0.00000000000E+00 -0.45593999997E+02  0.45594000000E+02  0.51100000000E-03 0. -1.
    9900012    2    1    2    0    0 -0.29783040978E+02 -0.26376298400E+02 -0.17346024703E+02  0.47787271664E+02  0.20000002824E+02 0.  0.
        -12    1    1    2    0    0  0.29783040978E+02  0.26376298400E+02  0.17346024703E+02  0.43400728336E+02  0.00000000000E+00 0.  1.
         11    1    3    3    0    0 -0.12684579218E+02 -0.99937568791E+01 -0.82570539069E+01  0.18137052296E+02  0.51100000000E-03 0. -1.
        -11    1    3    3    0    0 -0.15108016634E+02 -0.19269623315E+02 -0.66318306565E+01  0.25368321337E+02  0.51100000000E-03 0.  1.
        -12    1    3    3    0    0 -0.19904451254E+01  0.28870817947E+01 -0.24571401392E+01  0.42818980312E+01  0.00000000000E+00 0.  1.
</event>
<event>
 7    1  0.2700100E-010  0.4778727E+02  0.7816164E-02  0.1312668E+00
        -11   -1    0    0    0    0  0.00000000000E+00  0.00000000000E+00  0.45593999997E+02  0.45594000000E+02  0.51100000000E-03 0. -1.
         11   -1    0    0    0    0 -0.00000000000E+00 -0.00000000000E+00 -0.45593999997E+02  0.45594000000E+02  0.51100000000E-03 0.  1.
    9900012    2    1    2    0    0 -0.26468071344E+02  0.13476219470E+02  0.31645788980E+02  0.47787271296E+02  0.20000001147E+02 0.  0.
        -12    1    1    2    0    0  0.26468071344E+02 -0.13476219470E+02 -0.31645788980E+02  0.43400728704E+02  0.00000000000E+00 0.  1.
         11    1    3    3    0    0  0.20698937497E+01  0.37015818671E+00  0.42534800899E+01  0.47448467156E+01  0.51100000000E-03 0. -1.
        -11    1    3    3    0    0 -0.13910541241E+01 -0.17200265686E+01  0.12351176513E+01  0.25335822162E+01  0.51100000000E-03 0.  1.
         12    1    3    3    0    0 -0.27146910970E+02  0.14826087852E+02  0.26157191239E+02  0.40508842364E+02  0.00000000000E+00 0. -1.
</event>
<event>
 7    1  0.2700100E-010  0.4778729E+02  0.7816164E-02  0.1312668E+00
        -11   -1    0    0    0    0  0.00000000000E+00  0.00000000000E+00  0.45593999997E+02  0.45594000000E+02  0.51100000000E-03 0.  1.
         11   -1    0    0    0    0 -0.00000000000E+00 -0.00000000000E+00 -0.45593999997E+02  0.45594000000E+02  0.51100000000E-03 0. -1.
    9900012    2    1    2    0    0  0.11294144770E+02  0.22201594845E+02 -0.35540870464E+02  0.47787285800E+02  0.20000067278E+02 0.  0.
        -12    1    1    2    0    0 -0.11294144770E+02 -0.22201594845E+02  0.35540870464E+02  0.43400714200E+02  0.00000000000E+00 0.  1.
         11    1    3    3    0    0  0.11378337086E+01  0.51635407580E+01 -0.23237987559E+02  0.23831929942E+02  0.51100000000E-03 0.  1.
        -11    1    3    3    0    0  0.98976568957E+01  0.16794379772E+02 -0.12817254777E+02  0.23330169828E+02  0.51100000000E-03 0. -1.
        -12    1    3    3    0    0  0.25865416563E+00  0.24367431505E+00  0.51437187244E+00  0.62518603021E+00  0.00000000000E+00 0.  1.
</event>
<event>
 7    1  0.2700100E-010  0.4778727E+02  0.7816164E-02  0.1312668E+00
        -11   -1    0    0    0    0  0.00000000000E+00  0.00000000000E+00  0.45593999997E+02  0.45594000000E+02  0.51100000000E-03 0.  1.
         11   -1    0    0    0    0 -0.00000000000E+00 -0.00000000000E+00 -0.45593999997E+02  0.45594000000E+02  0.51100000000E-03 0. -1.
    9900012    2    1    2    0    0  0.19429544758E+02 -0.31544739682E+02 -0.22606313942E+02  0.47787271422E+02  0.20000001719E+02 0.  0.
        -12    1    1    2    0    0 -0.19429544758E+02  0.31544739682E+02  0.22606313942E+02  0.43400728578E+02  0.00000000000E+00 0.  1.
         11    1    3    3    0    0  0.28990822992E+01 -0.18004049190E+02 -0.80357144317E+01  0.19927949521E+02  0.51100000000E-03 0. -1.
        -11    1    3    3    0    0  0.92213532511E+01 -0.11758995195E+02 -0.51557193772E+01  0.15807870392E+02  0.51100000000E-03 0.  1.
         12    1    3    3    0    0  0.73091092078E+01 -0.17816952967E+01 -0.94148801332E+01  0.12051451509E+02  0.00000000000E+00 0. -1.
</event>
<event>
 7    1  0.2700100E-010  0.4778727E+02  0.7816164E-02  0.1312668E+00
        -11   -1    0    0    0    0  0.00000000000E+00  0.00000000000E+00  0.45593999997E+02  0.45594000000E+02  0.51100000000E-03 0.  1.
         11   -1    0    0    0    0 -0.00000000000E+00 -0.00000000000E+00 -0.45593999997E+02  0.45594000000E+02  0.51100000000E-03 0. -1.
    9900012    2    1    2    0    0 -0.34752073046E+02 -0.64323791630E+01 -0.25190101664E+02  0.47787270691E+02  0.19999998388E+02 0.  0.
        -12    1    1    2    0    0  0.34752073046E+02  0.64323791630E+01  0.25190101664E+02  0.43400729309E+02  0.00000000000E+00 0.  1.
         11    1    3    3    0    0 -0.35809538648E+02 -0.21637772268E+01 -0.21519230982E+02  0.41833984897E+02  0.51100000000E-03 0. -1.
        -11    1    3    3    0    0  0.82529241792E+00 -0.17766651085E+01 -0.25379849623E+01  0.32060902066E+01  0.51100000000E-03 0.  1.
         12    1    3    3    0    0  0.23217318363E+00 -0.24919368276E+01 -0.11328857202E+01  0.27471955873E+01  0.00000000000E+00 0. -1.
</event>
<event>
 7    1  0.2700100E-010  0.4778727E+02  0.7816164E-02  0.1312668E+00
        -11   -1    0    0    0    0  0.00000000000E+00  0.00000000000E+00  0.45593999997E+02  0.45594000000E+02  0.51100000000E-03 0.  1.
         11   -1    0    0    0    0 -0.00000000000E+00 -0.00000000000E+00 -0.45593999997E+02  0.45594000000E+02  0.51100000000E-03 0. -1.
    9900012    2    1    2    0    0 -0.65667030052E+01  0.20787763790E+01 -0.42850676161E+02  0.47787270201E+02  0.19999996156E+02 0.  0.
        -12    1    1    2    0    0  0.65667030052E+01 -0.20787763790E+01  0.42850676161E+02  0.43400729799E+02  0.00000000000E+00 0.  1.
         11    1    3    3    0    0  0.22568111399E+01  0.51460058808E+01 -0.24960617435E+02  0.25585288665E+02  0.51100000000E-03 0. -1.
        -11    1    3    3    0    0 -0.19317374772E+01 -0.51515778731E+01 -0.10672369583E+02  0.12007074458E+02  0.51100000000E-03 0.  1.
        -12    1    3    3    0    0 -0.68917766680E+01  0.20843483713E+01 -0.72176891426E+01  0.10194907078E+02  0.00000000000E+00 0.  1.
</event>
<event>
 7    1  0.2700100E-010  0.4778727E+02  0.7816164E-02  0.1312668E+00
        -11   -1    0    0    0    0  0.00000000000E+00  0.00000000000E+00  0.45593999997E+02  0.45594000000E+02  0.51100000000E-03 0.  1.
         11   -1    0    0    0    0 -0.00000000000E+00 -0.00000000000E+00 -0.45593999997E+02  0.45594000000E+02  0.51100000000E-03 0. -1.
    9900012    2    1    2    0    0  0.23820895050E+02  0.15711759159E+01 -0.36245273262E+02  0.47787268801E+02  0.19999989772E+02 0.  0.
        -12    1    1    2    0    0 -0.23820895050E+02 -0.15711759159E+01  0.36245273262E+02  0.43400731199E+02  0.00000000000E+00 0.  1.
         11    1    3    3    0    0 -0.55497860173E+00 -0.99566946374E+00 -0.14950285809E+02  0.14993678834E+02  0.51100000000E-03 0. -1.
        -11    1    3    3    0    0  0.21841565514E+02  0.14913427522E+01 -0.17115409081E+02  0.27788762398E+02  0.51100000000E-03 0.  1.
         12    1    3    3    0    0  0.25343081371E+01  0.10755026275E+01 -0.41795783720E+01  0.50048275698E+01  0.00000000000E+00 0. -1.
</event>
<event>
 7    1  0.2700100E-010  0.4778727E+02  0.7816164E-02  0.1312668E+00
        -11   -1    0    0    0    0  0.00000000000E+00  0.00000000000E+00  0.45593999997E+02  0.45594000000E+02  0.51100000000E-03 0.  1.
         11   -1    0    0    0    0 -0.00000000000E+00 -0.00000000000E+00 -0.45593999997E+02  0.45594000000E+02  0.51100000000E-03 0. -1.
    9900012    2    1    2    0    0  0.35291857037E+02 -0.12724685481E+02 -0.21821789336E+02  0.47787270933E+02  0.19999999494E+02 0.  0.
        -12    1    1    2    0    0 -0.35291857037E+02  0.12724685481E+02  0.21821789336E+02  0.43400729067E+02  0.00000000000E+00 0.  1.
         11    1    3    3    0    0  0.22322357095E+02 -0.87873519535E+01 -0.55966418124E+01  0.24633870594E+02  0.51100000000E-03 0. -1.
        -11    1    3    3    0    0  0.10101781560E+02 -0.57459498447E+01 -0.15973241103E+02  0.19753641738E+02  0.51100000000E-03 0.  1.
        -12    1    3    3    0    0  0.28677183817E+01  0.18086163172E+01 -0.25190642028E+00  0.33997586009E+01  0.00000000000E+00 0.  1.
</event>
<event>
 7    1  0.2700100E-010  0.4778728E+02  0.7816164E-02  0.1312668E+00
        -11   -1    0    0    0    0  0.00000000000E+00  0.00000000000E+00  0.45593999997E+02  0.45594000000E+02  0.51100000000E-03 0.  1.
         11   -1    0    0    0    0 -0.00000000000E+00 -0.00000000000E+00 -0.45593999997E+02  0.45594000000E+02  0.51100000000E-03 0. -1.
    9900012    2    1    2    0    0  0.31418725300E+02  0.26632250937E+02 -0.13682439568E+02  0.47787282932E+02  0.20000054199E+02 0.  0.
        -12    1    1    2    0    0 -0.31418725300E+02 -0.26632250937E+02  0.13682439568E+02  0.43400717068E+02  0.00000000000E+00 0.  1.
         11    1    3    3    0    0  0.70598262083E+01  0.88340708112E+01 -0.26252818858E+01  0.11609222990E+02  0.51100000000E-03 0. -1.
        -11    1    3    3    0    0  0.14481590903E+02  0.15828009429E+02 -0.14081559644E+02  0.25661891587E+02  0.51100000000E-03 0.  1.
        -12    1    3    3    0    0  0.98773081890E+01  0.19701706976E+01  0.30244019619E+01  0.10516168355E+02  0.00000000000E+00 0.  1.
</event>
<event>
 7    1  0.2700100E-010  0.4778728E+02  0.7816164E-02  0.1312668E+00
        -11   -1    0    0    0    0  0.00000000000E+00  0.00000000000E+00  0.45593999997E+02  0.45594000000E+02  0.51100000000E-03 0.  1.
         11   -1    0    0    0    0 -0.00000000000E+00 -0.00000000000E+00 -0.45593999997E+02  0.45594000000E+02  0.51100000000E-03 0. -1.
    9900012    2    1    2    0    0 -0.16256893817E+02  0.18272922147E+02 -0.35852984783E+02  0.47787276524E+02  0.20000024982E+02 0.  0.
        -12    1    1    2    0    0  0.16256893817E+02 -0.18272922147E+02  0.35852984783E+02  0.43400723476E+02  0.00000000000E+00 0.  1.
         11    1    3    3    0    0 -0.33299812818E+01  0.58916807690E+01 -0.85507398004E+01  0.10904853461E+02  0.51100000000E-03 0. -1.
        -11    1    3    3    0    0 -0.14155028627E+02  0.33533749684E+01 -0.21897372490E+02  0.26288873718E+02  0.51100000000E-03 0.  1.
        -12    1    3    3    0    0  0.12281160921E+01  0.90278664098E+01 -0.54048724933E+01  0.10593549345E+02  0.00000000000E+00 0.  1.
</event>
<event>
 7    1  0.2700100E-010  0.4778727E+02  0.7816164E-02  0.1312668E+00
        -11   -1    0    0    0    0  0.00000000000E+00  0.00000000000E+00  0.45593999997E+02  0.45594000000E+02  0.51100000000E-03 0. -1.
         11   -1    0    0    0    0 -0.00000000000E+00 -0.00000000000E+00 -0.45593999997E+02  0.45594000000E+02  0.51100000000E-03 0.  1.
    9900012    2    1    2    0    0  0.13513544622E+02 -0.14999943871E+02  0.38418867793E+02  0.47787267208E+02  0.19999982508E+02 0.  0.
        -12    1    1    2    0    0 -0.13513544622E+02  0.14999943871E+02 -0.38418867793E+02  0.43400732792E+02  0.00000000000E+00 0.  1.
         11    1    3    3    0    0  0.31196707509E+01 -0.50178158503E+01  0.19302730518E+02  0.20186783478E+02  0.51100000000E-03 0. -1.
        -11    1    3    3    0    0  0.75018832961E+01 -0.27736001936E+01  0.12188886005E+01  0.80905377265E+01  0.51100000000E-03 0.  1.
        -12    1    3    3    0    0  0.28919905752E+01 -0.72085278274E+01  0.17897248675E+02  0.19509946003E+02  0.00000000000E+00 0.  1.
</event>
<event>
 7    1  0.2700100E-010  0.4778727E+02  0.7816164E-02  0.1312668E+00
        -11   -1    0    0    0    0  0.00000000000E+00  0.00000000000E+00  0.45593999997E+02  0.45594000000E+02  0.51100000000E-03 0.  1.
         11   -1    0    0    0    0 -0.00000000000E+00 -0.00000000000E+00 -0.45593999997E+02  0.45594000000E+02  0.51100000000E-03 0. -1.
    9900012    2    1    2    0    0 -0.56209848682E+01 -0.11924084961E+02 -0.41350262344E+02  0.47787268797E+02  0.19999989751E+02 0.  0.
        -12    1    1    2    0    0  0.56209848682E+01  0.11924084961E+02  0.41350262344E+02  0.43400731203E+02  0.00000000000E+00 0.  1.
         11    1    3    3    0    0 -0.66201496142E+01 -0.54299537646E+00 -0.18057040210E+02  0.19240008480E+02  0.51100000000E-03 0. -1.
        -11    1    3    3    0    0  0.37386742136E+00 -0.13110543259E+02 -0.23265700119E+02  0.26708031071E+02  0.51100000000E-03 0.  1.
        -12    1    3    3    0    0  0.62529732468E+00  0.17294536748E+01 -0.27522015479E-01  0.18392292459E+01  0.00000000000E+00 0.  1.
</event>
<event>
 7    1  0.2700100E-010  0.4778727E+02  0.7816164E-02  0.1312668E+00
        -11   -1    0    0    0    0  0.00000000000E+00  0.00000000000E+00  0.45593999997E+02  0.45594000000E+02  0.51100000000E-03 0.  1.
         11   -1    0    0    0    0 -0.00000000000E+00 -0.00000000000E+00 -0.45593999997E+02  0.45594000000E+02  0.51100000000E-03 0. -1.
    9900012    2    1    2    0    0 -0.19412042999E+02 -0.78640025925E+01 -0.38012544184E+02  0.47787268837E+02  0.19999989934E+02 0.  0.
        -12    1    1    2    0    0  0.19412042999E+02  0.78640025925E+01  0.38012544184E+02  0.43400731163E+02  0.00000000000E+00 0.  1.
         11    1    3    3    0    0  0.21601431472E+01 -0.55909944186E+01 -0.76303083564E+01  0.97029399091E+01  0.51100000000E-03 0. -1.
        -11    1    3    3    0    0 -0.13010717624E+02  0.17566858810E+01 -0.14204580315E+02  0.19342564994E+02  0.51100000000E-03 0.  1.
         12    1    3    3    0    0 -0.85614685219E+01 -0.40296940550E+01 -0.16177655513E+02  0.18741763933E+02  0.00000000000E+00 0. -1.
</event>
<event>
 7    1  0.2700100E-010  0.4778727E+02  0.7816164E-02  0.1312668E+00
        -11   -1    0    0    0    0  0.00000000000E+00  0.00000000000E+00  0.45593999997E+02  0.45594000000E+02  0.51100000000E-03 0.  1.
         11   -1    0    0    0    0 -0.00000000000E+00 -0.00000000000E+00 -0.45593999997E+02  0.45594000000E+02  0.51100000000E-03 0. -1.
    9900012    2    1    2    0    0 -0.31650254967E+02 -0.14338389834E+02 -0.26005672617E+02  0.47787273384E+02  0.20000010667E+02 0.  0.
        -12    1    1    2    0    0  0.31650254967E+02  0.14338389834E+02  0.26005672617E+02  0.43400726616E+02  0.00000000000E+00 0.  1.
         11    1    3    3    0    0 -0.13805438023E+02 -0.15274625922E+02 -0.17926179177E+02  0.27299307980E+02  0.51100000000E-03 0. -1.
        -11    1    3    3    0    0 -0.10993288733E+02 -0.17405488225E+01 -0.29320382561E+01  0.11509941615E+02  0.51100000000E-03 0.  1.
         12    1    3    3    0    0 -0.68515282113E+01  0.26767849104E+01 -0.51474551842E+01  0.89780237893E+01  0.00000000000E+00 0. -1.
</event>
<event>
 7    1  0.2700100E-010  0.4778727E+02  0.7816164E-02  0.1312668E+00
        -11   -1    0    0    0    0  0.00000000000E+00  0.00000000000E+00  0.45593999997E+02  0.45594000000E+02  0.51100000000E-03 0. -1.
         11   -1    0    0    0    0 -0.00000000000E+00 -0.00000000000E+00 -0.45593999997E+02  0.45594000000E+02  0.51100000000E-03 0.  1.
    9900012    2    1    2    0    0 -0.21927059221E+02  0.13278932914E+02  0.35021383519E+02  0.47787270871E+02  0.19999999208E+02 0.  0.
        -12    1    1    2    0    0  0.21927059221E+02 -0.13278932914E+02 -0.35021383519E+02  0.43400729129E+02  0.00000000000E+00 0.  1.
         11    1    3    3    0    0 -0.79260392872E+01  0.81547286407E-02  0.14819561050E+02  0.16805997598E+02  0.51100000000E-03 0. -1.
        -11    1    3    3    0    0 -0.10617542710E+02  0.14223705917E+02  0.10408617620E+02  0.20576329708E+02  0.51100000000E-03 0.  1.
        -12    1    3    3    0    0 -0.33834772232E+01 -0.95292773219E+00  0.97932048485E+01  0.10404943565E+02  0.00000000000E+00 0.  1.
</event>
<event>
 7    1  0.2700100E-010  0.4778727E+02  0.7816164E-02  0.1312668E+00
        -11   -1    0    0    0    0  0.00000000000E+00  0.00000000000E+00  0.45593999997E+02  0.45594000000E+02  0.51100000000E-03 0. -1.
         11   -1    0    0    0    0 -0.00000000000E+00 -0.00000000000E+00 -0.45593999997E+02  0.45594000000E+02  0.51100000000E-03 0.  1.
    9900012    2    1    2    0    0 -0.31085943007E+02  0.23707092988E+02 -0.18848371619E+02  0.47787271628E+02  0.20000002660E+02 0.  0.
        -12    1    1    2    0    0  0.31085943007E+02 -0.23707092988E+02  0.18848371619E+02  0.43400728372E+02  0.00000000000E+00 0.  1.
         11    1    3    3    0    0 -0.19250540324E+02  0.22275321808E+02 -0.92795306520E+01  0.30868802274E+02  0.51100000000E-03 0. -1.
        -11    1    3    3    0    0 -0.39435815498E+01 -0.29495898540E+01 -0.32637502649E+01  0.59079591907E+01  0.51100000000E-03 0.  1.
        -12    1    3    3    0    0 -0.78918211328E+01  0.43813610335E+01 -0.63050907023E+01  0.11010510164E+02  0.00000000000E+00 0.  1.
</event>
<event>
 7    1  0.2700100E-010  0.4778727E+02  0.7816164E-02  0.1312668E+00
        -11   -1    0    0    0    0  0.00000000000E+00  0.00000000000E+00  0.45593999997E+02  0.45594000000E+02  0.51100000000E-03 0.  1.
         11   -1    0    0    0    0 -0.00000000000E+00 -0.00000000000E+00 -0.45593999997E+02  0.45594000000E+02  0.51100000000E-03 0. -1.
    9900012    2    1    2    0    0  0.95599238266E+01 -0.11196412282E+02 -0.40827334468E+02  0.47787273839E+02  0.20000012740E+02 0.  0.
        -12    1    1    2    0    0 -0.95599238266E+01  0.11196412282E+02  0.40827334468E+02  0.43400726161E+02  0.00000000000E+00 0.  1.
         11    1    3    3    0    0  0.72623473596E+01  0.37678176842E+01 -0.22331180131E+02  0.23782761521E+02  0.51100000000E-03 0. -1.
        -11    1    3    3    0    0  0.60067718871E+00 -0.94592766754E+00 -0.86359474583E+00  0.14147043449E+01  0.51100000000E-03 0.  1.
         12    1    3    3    0    0  0.16968992783E+01 -0.14018302298E+02 -0.17632559591E+02  0.22589807973E+02  0.00000000000E+00 0. -1.
</event>
<event>
 7    1  0.2700100E-010  0.4778725E+02  0.7816164E-02  0.1312668E+00
        -11   -1    0    0    0    0  0.00000000000E+00  0.00000000000E+00  0.45593999997E+02  0.45594000000E+02  0.51100000000E-03 0. -1.
         11   -1    0    0    0    0 -0.00000000000E+00 -0.00000000000E+00 -0.45593999997E+02  0.45594000000E+02  0.51100000000E-03 0.  1.
    9900012    2    1    2    0    0  0.30015941444E+02 -0.30292233252E+02  0.80652690157E+01  0.47787254609E+02  0.19999925066E+02 0.  0.
        -12    1    1    2    0    0 -0.30015941444E+02  0.30292233252E+02 -0.80652690157E+01  0.43400745391E+02  0.00000000000E+00 0.  1.
         11    1    3    3    0    0  0.13486294763E+02 -0.40506427071E+01  0.25164105057E+01  0.14304550845E+02  0.51100000000E-03 0. -1.
        -11    1    3    3    0    0  0.14915052126E+02 -0.26552830287E+02  0.32101419208E+01  0.30623791202E+02  0.51100000000E-03 0.  1.
        -12    1    3    3    0    0  0.16145945543E+01  0.31123974236E+00  0.23387165892E+01  0.28589125620E+01  0.00000000000E+00 0.  1.
</event>
<event>
 7    1  0.2700100E-010  0.4778727E+02  0.7816164E-02  0.1312668E+00
        -11   -1    0    0    0    0  0.00000000000E+00  0.00000000000E+00  0.45593999997E+02  0.45594000000E+02  0.51100000000E-03 0.  1.
         11   -1    0    0    0    0 -0.00000000000E+00 -0.00000000000E+00 -0.45593999997E+02  0.45594000000E+02  0.51100000000E-03 0. -1.
    9900012    2    1    2    0    0  0.31563679432E+02  0.13602362515E+02 -0.26501571138E+02  0.47787269614E+02  0.19999993478E+02 0.  0.
        -12    1    1    2    0    0 -0.31563679432E+02 -0.13602362515E+02  0.26501571138E+02  0.43400730386E+02  0.00000000000E+00 0.  1.
         11    1    3    3    0    0  0.38402082829E+01  0.53821364290E+01  0.59928279307E+00  0.66388050373E+01  0.51100000000E-03 0. -1.
        -11    1    3    3    0    0  0.14862877379E+02  0.84613571026E+01 -0.20478812241E+02  0.26681106406E+02  0.51100000000E-03 0.  1.
        -12    1    3    3    0    0  0.12860593770E+02 -0.24113101670E+00 -0.66220416899E+01  0.14467358171E+02  0.00000000000E+00 0.  1.
</event>
<event>
 7    1  0.2700100E-010  0.4778727E+02  0.7816164E-02  0.1312668E+00
        -11   -1    0    0    0    0  0.00000000000E+00  0.00000000000E+00  0.45593999997E+02  0.45594000000E+02  0.51100000000E-03 0. -1.
         11   -1    0    0    0    0 -0.00000000000E+00 -0.00000000000E+00 -0.45593999997E+02  0.45594000000E+02  0.51100000000E-03 0.  1.
    9900012    2    1    2    0    0 -0.28585072419E+02 -0.10992242230E+00  0.32657384247E+02  0.47787271964E+02  0.20000004193E+02 0.  0.
        -12    1    1    2    0    0  0.28585072419E+02  0.10992242230E+00 -0.32657384247E+02  0.43400728036E+02  0.00000000000E+00 0.  1.
         11    1    3    3    0    0 -0.96049841335E+01 -0.39071086924E+01  0.19388296319E+02  0.21986979169E+02  0.51100000000E-03 0. -1.
        -11    1    3    3    0    0 -0.25006856277E+01  0.50019089843E+01  0.30043165502E+01  0.63481052521E+01  0.51100000000E-03 0.  1.
        -12    1    3    3    0    0 -0.16479402658E+02 -0.12047227142E+01  0.10264771378E+02  0.19452187544E+02  0.00000000000E+00 0.  1.
</event>
<event>
 7    1  0.2700100E-010  0.4778724E+02  0.7816164E-02  0.1312668E+00
        -11   -1    0    0    0    0  0.00000000000E+00  0.00000000000E+00  0.45593999997E+02  0.45594000000E+02  0.51100000000E-03 0. -1.
         11   -1    0    0    0    0 -0.00000000000E+00 -0.00000000000E+00 -0.45593999997E+02  0.45594000000E+02  0.51100000000E-03 0.  1.
    9900012    2    1    2    0    0  0.26561666238E+02  0.14528217224E+02  0.31097176202E+02  0.47787244514E+02  0.19999879038E+02 0.  0.
        -12    1    1    2    0    0 -0.26561666238E+02 -0.14528217224E+02 -0.31097176202E+02  0.43400755486E+02  0.00000000000E+00 0.  1.
         11    1    3    3    0    0  0.14208118317E+02  0.77684407147E+01  0.16858862111E+02  0.23376067445E+02  0.51100000000E-03 0. -1.
        -11    1    3    3    0    0  0.77272231378E+01  0.37945243006E+01 -0.55874481959E+00  0.86267368178E+01  0.51100000000E-03 0.  1.
        -12    1    3    3    0    0  0.46263247827E+01  0.29652522087E+01  0.14797058911E+02  0.15784440252E+02  0.00000000000E+00 0.  1.
</event>
<event>
 7    1  0.2700100E-010  0.4778727E+02  0.7816164E-02  0.1312668E+00
        -11   -1    0    0    0    0  0.00000000000E+00  0.00000000000E+00  0.45593999997E+02  0.45594000000E+02  0.51100000000E-03 0. -1.
         11   -1    0    0    0    0 -0.00000000000E+00 -0.00000000000E+00 -0.45593999997E+02  0.45594000000E+02  0.51100000000E-03 0.  1.
    9900012    2    1    2    0    0  0.11107538169E+02  0.58454754481E+01  0.41546072200E+02  0.47787273017E+02  0.20000008995E+02 0.  0.
        -12    1    1    2    0    0 -0.11107538169E+02 -0.58454754481E+01 -0.41546072200E+02  0.43400726983E+02  0.00000000000E+00 0.  1.
         11    1    3    3    0    0  0.53427622450E+01 -0.96355731161E+00  0.42732507876E+01  0.69089958499E+01  0.51100000000E-03 0.  1.
        -11    1    3    3    0    0 -0.45673985812E+01  0.33144519297E+00  0.95042372340E+01  0.10549953146E+02  0.51100000000E-03 0. -1.
        -12    1    3    3    0    0  0.10332174505E+02  0.64775875667E+01  0.27768584178E+02  0.30328324022E+02  0.00000000000E+00 0.  1.
</event>
<event>
 7    1  0.2700100E-010  0.4778727E+02  0.7816164E-02  0.1312668E+00
        -11   -1    0    0    0    0  0.00000000000E+00  0.00000000000E+00  0.45593999997E+02  0.45594000000E+02  0.51100000000E-03 0. -1.
         11   -1    0    0    0    0 -0.00000000000E+00 -0.00000000000E+00 -0.45593999997E+02  0.45594000000E+02  0.51100000000E-03 0.  1.
    9900012    2    1    2    0    0 -0.25883040386E+02  0.11237890332E+01  0.34819949246E+02  0.47787267899E+02  0.19999985658E+02 0.  0.
        -12    1    1    2    0    0  0.25883040386E+02 -0.11237890332E+01 -0.34819949246E+02  0.43400732101E+02  0.00000000000E+00 0.  1.
         11    1    3    3    0    0 -0.71713155141E+01 -0.71802287249E+01  0.75752124831E+01  0.12663620934E+02  0.51100000000E-03 0. -1.
        -11    1    3    3    0    0 -0.13358012262E+01 -0.71255733393E+00  0.61978302991E+01  0.63800629736E+01  0.51100000000E-03 0.  1.
         12    1    3    3    0    0 -0.17375923646E+02  0.90165750921E+01  0.21046906464E+02  0.28743583991E+02  0.00000000000E+00 0. -1.
</event>
<event>
 7    1  0.2700100E-010  0.4778731E+02  0.7816164E-02  0.1312668E+00
        -11   -1    0    0    0    0  0.00000000000E+00  0.00000000000E+00  0.45593999997E+02  0.45594000000E+02  0.51100000000E-03 0.  1.
         11   -1    0    0    0    0 -0.00000000000E+00 -0.00000000000E+00 -0.45593999997E+02  0.45594000000E+02  0.51100000000E-03 0. -1.
    9900012    2    1    2    0    0 -0.23307707962E+02  0.19677860223E+02 -0.30873163336E+02  0.47787312819E+02  0.20000190465E+02 0.  0.
        -12    1    1    2    0    0  0.23307707962E+02 -0.19677860223E+02  0.30873163336E+02  0.43400687181E+02  0.00000000000E+00 0.  1.
         11    1    3    3    0    0 -0.30586075924E+00 -0.38544097554E+00 -0.61929621202E+01  0.62124790247E+01  0.51100000000E-03 0. -1.
        -11    1    3    3    0    0 -0.23283529039E+02  0.21586564354E+02 -0.24292832561E+02  0.39978046466E+02  0.51100000000E-03 0.  1.
        -12    1    3    3    0    0  0.28168183622E+00 -0.15232631551E+01 -0.38736865505E+00  0.15967873282E+01  0.00000000000E+00 0.  1.
</event>
<event>
 7    1  0.2700100E-010  0.4778727E+02  0.7816164E-02  0.1312668E+00
        -11   -1    0    0    0    0  0.00000000000E+00  0.00000000000E+00  0.45593999997E+02  0.45594000000E+02  0.51100000000E-03 0.  1.
         11   -1    0    0    0    0 -0.00000000000E+00 -0.00000000000E+00 -0.45593999997E+02  0.45594000000E+02  0.51100000000E-03 0. -1.
    9900012    2    1    2    0    0  0.94285603587E+01 -0.41455212038E+02  0.87287404618E+01  0.47787271140E+02  0.20000000436E+02 0.  0.
        -12    1    1    2    0    0 -0.94285603587E+01  0.41455212038E+02 -0.87287404618E+01  0.43400728860E+02  0.00000000000E+00 0.  1.
         11    1    3    3    0    0  0.35255800868E+01 -0.14643367719E+02  0.10080469065E+02  0.18123845892E+02  0.51100000000E-03 0. -1.
        -11    1    3    3    0    0 -0.36384258898E+00 -0.20490150007E+02 -0.26636386713E+01  0.20665759119E+02  0.51100000000E-03 0.  1.
         12    1    3    3    0    0  0.62668228608E+01 -0.63216943118E+01  0.13119100684E+01  0.89976661290E+01  0.00000000000E+00 0. -1.
</event>
<event>
 7    1  0.2700100E-010  0.4778725E+02  0.7816164E-02  0.1312668E+00
        -11   -1    0    0    0    0  0.00000000000E+00  0.00000000000E+00  0.45593999997E+02  0.45594000000E+02  0.51100000000E-03 0.  1.
         11   -1    0    0    0    0 -0.00000000000E+00 -0.00000000000E+00 -0.45593999997E+02  0.45594000000E+02  0.51100000000E-03 0. -1.
    9900012    2    1    2    0    0  0.36352588609E+02  0.18464392314E+02  0.14872131538E+02  0.47787253709E+02  0.19999920963E+02 0.  0.
        -12    1    1    2    0    0 -0.36352588609E+02 -0.18464392314E+02 -0.14872131538E+02  0.43400746291E+02  0.00000000000E+00 0.  1.
         11    1    3    3    0    0  0.25570385673E+02  0.96035370684E+01  0.80863205040E+01  0.28486156765E+02  0.51100000000E-03 0. -1.
        -11    1    3    3    0    0  0.10048387383E+01  0.79759028662E+00  0.64991215476E+01  0.66245326105E+01  0.51100000000E-03 0.  1.
        -12    1    3    3    0    0  0.97773641980E+01  0.80632649585E+01  0.28668948616E+00  0.12676564334E+02  0.00000000000E+00 0.  1.
</event>
<event>
 7    1  0.2700100E-010  0.4778727E+02  0.7816164E-02  0.1312668E+00
        -11   -1    0    0    0    0  0.00000000000E+00  0.00000000000E+00  0.45593999997E+02  0.45594000000E+02  0.51100000000E-03 0. -1.
         11   -1    0    0    0    0 -0.00000000000E+00 -0.00000000000E+00 -0.45593999997E+02  0.45594000000E+02  0.51100000000E-03 0.  1.
    9900012    2    1    2    0    0 -0.39447911121E+02 -0.31030823714E+01  0.17828531798E+02  0.47787270075E+02  0.19999995578E+02 0.  0.
        -12    1    1    2    0    0  0.39447911121E+02  0.31030823714E+01 -0.17828531798E+02  0.43400729925E+02  0.00000000000E+00 0.  1.
         11    1    3    3    0    0 -0.17911445201E+02  0.64986461059E+01  0.77598628434E+01  0.20573471803E+02  0.51100000000E-03 0. -1.
        -11    1    3    3    0    0 -0.69584440856E+01 -0.69845204855E+01  0.11531865100E+01  0.99263946070E+01  0.51100000000E-03 0.  1.
        -12    1    3    3    0    0 -0.14578021834E+02 -0.26172079919E+01  0.89154824447E+01  0.17287403665E+02  0.00000000000E+00 0.  1.
</event>
<event>
 7    1  0.2700100E-010  0.4778727E+02  0.7816164E-02  0.1312668E+00
        -11   -1    0    0    0    0  0.00000000000E+00  0.00000000000E+00  0.45593999997E+02  0.45594000000E+02  0.51100000000E-03 0. -1.
         11   -1    0    0    0    0 -0.00000000000E+00 -0.00000000000E+00 -0.45593999997E+02  0.45594000000E+02  0.51100000000E-03 0.  1.
    9900012    2    1    2    0    0 -0.29853472496E+02 -0.12929526566E+02  0.28726658075E+02  0.47787270036E+02  0.19999995400E+02 0.  0.
        -12    1    1    2    0    0  0.29853472496E+02  0.12929526566E+02 -0.28726658075E+02  0.43400729964E+02  0.00000000000E+00 0.  1.
         11    1    3    3    0    0 -0.17393646827E+02 -0.11214360130E+02  0.25560503436E+02  0.32888298211E+02  0.51100000000E-03 0. -1.
        -11    1    3    3    0    0 -0.48425396845E+01  0.16152661745E+01 -0.15575568482E+01  0.53371583269E+01  0.51100000000E-03 0.  1.
         12    1    3    3    0    0 -0.76172859852E+01 -0.33304326100E+01  0.47237114875E+01  0.95618134978E+01  0.00000000000E+00 0. -1.
</event>
<event>
 7    1  0.2700100E-010  0.4778727E+02  0.7816164E-02  0.1312668E+00
        -11   -1    0    0    0    0  0.00000000000E+00  0.00000000000E+00  0.45593999997E+02  0.45594000000E+02  0.51100000000E-03 0. -1.
         11   -1    0    0    0    0 -0.00000000000E+00 -0.00000000000E+00 -0.45593999997E+02  0.45594000000E+02  0.51100000000E-03 0.  1.
    9900012    2    1    2    0    0 -0.33936393425E+02 -0.21828027495E+02  0.15983797746E+02  0.47787269898E+02  0.19999994772E+02 0.  0.
        -12    1    1    2    0    0  0.33936393425E+02  0.21828027495E+02 -0.15983797746E+02  0.43400730102E+02  0.00000000000E+00 0.  1.
         11    1    3    3    0    0 -0.27893774012E+02 -0.23556136548E+02  0.15487780518E+02  0.39658864625E+02  0.51100000000E-03 0. -1.
        -11    1    3    3    0    0 -0.46534022089E+01  0.91083289143E+00 -0.20089256357E+01  0.51497136954E+01  0.51100000000E-03 0.  1.
         12    1    3    3    0    0 -0.13892172038E+01  0.81727616130E+00  0.25049428641E+01  0.29786915778E+01  0.00000000000E+00 0. -1.
</event>
<event>
 7    1  0.2700100E-010  0.4778727E+02  0.7816164E-02  0.1312668E+00
        -11   -1    0    0    0    0  0.00000000000E+00  0.00000000000E+00  0.45593999997E+02  0.45594000000E+02  0.51100000000E-03 0.  1.
         11   -1    0    0    0    0 -0.00000000000E+00 -0.00000000000E+00 -0.45593999997E+02  0.45594000000E+02  0.51100000000E-03 0. -1.
    9900012    2    1    2    0    0 -0.35258113602E+02 -0.11200278684E+02 -0.22694554800E+02  0.47787266885E+02  0.19999981037E+02 0.  0.
        -12    1    1    2    0    0  0.35258113602E+02  0.11200278684E+02  0.22694554800E+02  0.43400733115E+02  0.00000000000E+00 0.  1.
         11    1    3    3    0    0 -0.14330224308E+02 -0.17435740704E+01 -0.12351362005E+01  0.14488648693E+02  0.51100000000E-03 0. -1.
        -11    1    3    3    0    0 -0.22201573426E+02 -0.91906406008E+01 -0.21020149037E+02  0.31925294095E+02  0.51100000000E-03 0.  1.
        -12    1    3    3    0    0  0.12736841324E+01 -0.26606401264E+00 -0.43926956201E+00  0.13733240973E+01  0.00000000000E+00 0.  1.
</event>
<event>
 7    1  0.2700100E-010  0.4778725E+02  0.7816164E-02  0.1312668E+00
        -11   -1    0    0    0    0  0.00000000000E+00  0.00000000000E+00  0.45593999997E+02  0.45594000000E+02  0.51100000000E-03 0.  1.
         11   -1    0    0    0    0 -0.00000000000E+00 -0.00000000000E+00 -0.45593999997E+02  0.45594000000E+02  0.51100000000E-03 0. -1.
    9900012    2    1    2    0    0 -0.35935926700E+02 -0.10120988936E+00 -0.24335644645E+02  0.47787254943E+02  0.19999926586E+02 0.  0.
        -12    1    1    2    0    0  0.35935926700E+02  0.10120988936E+00  0.24335644645E+02  0.43400745057E+02  0.00000000000E+00 0.  1.
         11    1    3    3    0    0 -0.25315673107E+02 -0.12587496365E+00 -0.12037226829E+02  0.28032017041E+02  0.51100000000E-03 0. -1.
        -11    1    3    3    0    0 -0.67957291357E+01 -0.23116719911E+01 -0.13344939473E+02  0.15152992169E+02  0.51100000000E-03 0.  1.
        -12    1    3    3    0    0 -0.38245244570E+01  0.23363370654E+01  0.10465216574E+01  0.46022457327E+01  0.00000000000E+00 0.  1.
</event>
<event>
 7    1  0.2700100E-010  0.4778727E+02  0.7816164E-02  0.1312668E+00
        -11   -1    0    0    0    0  0.00000000000E+00  0.00000000000E+00  0.45593999997E+02  0.45594000000E+02  0.51100000000E-03 0.  1.
         11   -1    0    0    0    0 -0.00000000000E+00 -0.00000000000E+00 -0.45593999997E+02  0.45594000000E+02  0.51100000000E-03 0. -1.
    9900012    2    1    2    0    0  0.11015567281E+02 -0.41840652108E+02 -0.34117834013E+01  0.47787272387E+02  0.20000006122E+02 0.  0.
        -12    1    1    2    0    0 -0.11015567281E+02  0.41840652108E+02  0.34117834013E+01  0.43400727613E+02  0.00000000000E+00 0.  1.
         11    1    3    3    0    0  0.13629386720E+02 -0.23376766849E+02  0.14309119573E+00  0.27060190059E+02  0.51100000000E-03 0. -1.
        -11    1    3    3    0    0 -0.17129354723E+01 -0.17520212970E+02 -0.54483985257E+01  0.18427616699E+02  0.51100000000E-03 0.  1.
        -12    1    3    3    0    0 -0.90088396697E+00 -0.94367228855E+00  0.18935239286E+01  0.22994656289E+01  0.00000000000E+00 0.  1.
</event>
<event>
 7    1  0.2700100E-010  0.4778727E+02  0.7816164E-02  0.1312668E+00
        -11   -1    0    0    0    0  0.00000000000E+00  0.00000000000E+00  0.45593999997E+02  0.45594000000E+02  0.51100000000E-03 0. -1.
         11   -1    0    0    0    0 -0.00000000000E+00 -0.00000000000E+00 -0.45593999997E+02  0.45594000000E+02  0.51100000000E-03 0.  1.
    9900012    2    1    2    0    0  0.42143647175E+02 -0.93067781466E+01  0.45738606391E+01  0.47787270538E+02  0.19999997691E+02 0.  0.
        -12    1    1    2    0    0 -0.42143647175E+02  0.93067781466E+01 -0.45738606391E+01  0.43400729462E+02  0.00000000000E+00 0.  1.
         11    1    3    3    0    0  0.26647061253E+02  0.31606842789E+01  0.17763618359E+01  0.26892587458E+02  0.51100000000E-03 0.  1.
        -11    1    3    3    0    0  0.14287047005E+01 -0.13429363330E+01 -0.14801335363E+01  0.24567194920E+01  0.51100000000E-03 0. -1.
         12    1    3    3    0    0  0.14067881221E+02 -0.11124526093E+02  0.42776323396E+01  0.18437963588E+02  0.00000000000E+00 0. -1.
</event>
<event>
 7    1  0.2700100E-010  0.4778726E+02  0.7816164E-02  0.1312668E+00
        -11   -1    0    0    0    0  0.00000000000E+00  0.00000000000E+00  0.45593999997E+02  0.45594000000E+02  0.51100000000E-03 0.  1.
         11   -1    0    0    0    0 -0.00000000000E+00 -0.00000000000E+00 -0.45593999997E+02  0.45594000000E+02  0.51100000000E-03 0. -1.
    9900012    2    1    2    0    0  0.65191004665E+01 -0.12507695957E+02 -0.41044887081E+02  0.47787264009E+02  0.19999967922E+02 0.  0.
        -12    1    1    2    0    0 -0.65191004665E+01  0.12507695957E+02  0.41044887081E+02  0.43400735991E+02  0.00000000000E+00 0.  1.
         11    1    3    3    0    0  0.23698800163E+01  0.25527411040E+01 -0.79498988541E+01  0.86794994376E+01  0.51100000000E-03 0. -1.
        -11    1    3    3    0    0  0.24859846403E+00 -0.62247369703E+01 -0.19931566986E+01  0.65407817142E+01  0.51100000000E-03 0.  1.
        -12    1    3    3    0    0  0.39006219861E+01 -0.88357000907E+01 -0.31101831529E+02  0.32566982857E+02  0.00000000000E+00 0.  1.
</event>
<event>
 7    1  0.2700100E-010  0.4778727E+02  0.7816164E-02  0.1312668E+00
        -11   -1    0    0    0    0  0.00000000000E+00  0.00000000000E+00  0.45593999997E+02  0.45594000000E+02  0.51100000000E-03 0. -1.
         11   -1    0    0    0    0 -0.00000000000E+00 -0.00000000000E+00 -0.45593999997E+02  0.45594000000E+02  0.51100000000E-03 0.  1.
    9900012    2    1    2    0    0 -0.26217638873E+02  0.26953126145E+02  0.21674595867E+02  0.47787266100E+02  0.19999977457E+02 0.  0.
        -12    1    1    2    0    0  0.26217638873E+02 -0.26953126145E+02 -0.21674595867E+02  0.43400733900E+02  0.00000000000E+00 0.  1.
         11    1    3    3    0    0  0.28806694239E+01  0.44990860272E+01  0.15478351233E+01  0.55619983135E+01  0.51100000000E-03 0.  1.
        -11    1    3    3    0    0 -0.17854975930E+02  0.13051717966E+02  0.14886669036E+02  0.26660090445E+02  0.51100000000E-03 0. -1.
        -12    1    3    3    0    0 -0.11243332367E+02  0.94023221514E+01  0.52400917084E+01  0.15565177341E+02  0.00000000000E+00 0.  1.
</event>
<event>
 7    1  0.2700100E-010  0.4778725E+02  0.7816164E-02  0.1312668E+00
        -11   -1    0    0    0    0  0.00000000000E+00  0.00000000000E+00  0.45593999997E+02  0.45594000000E+02  0.51100000000E-03 0.  1.
         11   -1    0    0    0    0 -0.00000000000E+00 -0.00000000000E+00 -0.45593999997E+02  0.45594000000E+02  0.51100000000E-03 0. -1.
    9900012    2    1    2    0    0  0.12198522183E+01  0.26517358660E+02 -0.34336079758E+02  0.47787254351E+02  0.19999923887E+02 0.  0.
        -12    1    1    2    0    0 -0.12198522183E+01 -0.26517358660E+02  0.34336079758E+02  0.43400745649E+02  0.00000000000E+00 0.  1.
         11    1    3    3    0    0  0.17162307298E+01  0.22665024259E+02 -0.17377911238E+02  0.28611895635E+02  0.51100000000E-03 0. -1.
        -11    1    3    3    0    0 -0.35072577307E+01  0.17918708548E+01 -0.13796404284E+02  0.14347558307E+02  0.51100000000E-03 0.  1.
         12    1    3    3    0    0  0.30108792193E+01  0.20604635463E+01 -0.31617642364E+01  0.48278004086E+01  0.00000000000E+00 0. -1.
</event>
<event>
 7    1  0.2700100E-010  0.4778727E+02  0.7816164E-02  0.1312668E+00
        -11   -1    0    0    0    0  0.00000000000E+00  0.00000000000E+00  0.45593999997E+02  0.45594000000E+02  0.51100000000E-03 0.  1.
         11   -1    0    0    0    0 -0.00000000000E+00 -0.00000000000E+00 -0.45593999997E+02  0.45594000000E+02  0.51100000000E-03 0. -1.
    9900012    2    1    2    0    0  0.15059941473E+02  0.40332514090E+02 -0.54872295333E+01  0.47787271689E+02  0.20000002940E+02 0.  0.
        -12    1    1    2    0    0 -0.15059941473E+02 -0.40332514090E+02  0.54872295333E+01  0.43400728311E+02  0.00000000000E+00 0.  1.
         11    1    3    3    0    0  0.80915457643E+01  0.16374163766E+02 -0.64098320547E+01  0.19356453681E+02  0.51100000000E-03 0. -1.
        -11    1    3    3    0    0 -0.39406674721E+01  0.83842868609E+01  0.16131109788E+01  0.94035766378E+01  0.51100000000E-03 0.  1.
         12    1    3    3    0    0  0.10909063181E+02  0.15574063463E+02 -0.69050845728E+00  0.19027241370E+02  0.00000000000E+00 0. -1.
</event>
<event>
 7    1  0.2700100E-010  0.4778727E+02  0.7816164E-02  0.1312668E+00
        -11   -1    0    0    0    0  0.00000000000E+00  0.00000000000E+00  0.45593999997E+02  0.45594000000E+02  0.51100000000E-03 0.  1.
         11   -1    0    0    0    0 -0.00000000000E+00 -0.00000000000E+00 -0.45593999997E+02  0.45594000000E+02  0.51100000000E-03 0. -1.
    9900012    2    1    2    0    0 -0.31736657526E+02 -0.51278701167E+01 -0.29156698562E+02  0.47787267819E+02  0.19999985292E+02 0.  0.
        -12    1    1    2    0    0  0.31736657526E+02  0.51278701167E+01  0.29156698562E+02  0.43400732181E+02  0.00000000000E+00 0.  1.
         11    1    3    3    0    0 -0.13632620344E+02 -0.76752168957E+01 -0.17208590158E+02  0.23257103588E+02  0.51100000000E-03 0. -1.
        -11    1    3    3    0    0 -0.78876080474E+01  0.38126243766E+01 -0.24582521662E-02  0.87607346524E+01  0.51100000000E-03 0.  1.
         12    1    3    3    0    0 -0.10216429134E+02 -0.12652775976E+01 -0.11945650152E+02  0.15769429578E+02  0.00000000000E+00 0. -1.
</event>
<event>
 7    1  0.2700100E-010  0.4778727E+02  0.7816164E-02  0.1312668E+00
        -11   -1    0    0    0    0  0.00000000000E+00  0.00000000000E+00  0.45593999997E+02  0.45594000000E+02  0.51100000000E-03 0.  1.
         11   -1    0    0    0    0 -0.00000000000E+00 -0.00000000000E+00 -0.45593999997E+02  0.45594000000E+02  0.51100000000E-03 0. -1.
    9900012    2    1    2    0    0 -0.24860354427E+02  0.26363264958E+02 -0.23886489914E+02  0.47787270030E+02  0.19999995377E+02 0.  0.
        -12    1    1    2    0    0  0.24860354427E+02 -0.26363264958E+02  0.23886489914E+02  0.43400729970E+02  0.00000000000E+00 0.  1.
         11    1    3    3    0    0 -0.48065363688E+01  0.17952488402E+02 -0.85788225961E+01  0.20469265475E+02  0.51100000000E-03 0. -1.
        -11    1    3    3    0    0 -0.35081103382E+01  0.32646360008E+01 -0.59012031425E+01  0.76019001015E+01  0.51100000000E-03 0.  1.
         12    1    3    3    0    0 -0.16545707720E+02  0.51461405558E+01 -0.94064641750E+01  0.19716104454E+02  0.00000000000E+00 0. -1.
</event>
<event>
 7    1  0.2700100E-010  0.4778727E+02  0.7816164E-02  0.1312668E+00
        -11   -1    0    0    0    0  0.00000000000E+00  0.00000000000E+00  0.45593999997E+02  0.45594000000E+02  0.51100000000E-03 0. -1.
         11   -1    0    0    0    0 -0.00000000000E+00 -0.00000000000E+00 -0.45593999997E+02  0.45594000000E+02  0.51100000000E-03 0.  1.
    9900012    2    1    2    0    0  0.22825502094E+01 -0.26166108665E+02 -0.34550657424E+02  0.47787271820E+02  0.20000003538E+02 0.  0.
        -12    1    1    2    0    0 -0.22825502094E+01  0.26166108665E+02  0.34550657424E+02  0.43400728180E+02  0.00000000000E+00 0.  1.
         11    1    3    3    0    0  0.59710023952E+01 -0.14101599131E+02 -0.23177409651E+02  0.27779493984E+02  0.51100000000E-03 0. -1.
        -11    1    3    3    0    0 -0.24709068410E+00  0.16232030443E+01  0.32797286692E+00  0.16743381952E+01  0.51100000000E-03 0.  1.
         12    1    3    3    0    0 -0.34413615017E+01 -0.13687712578E+02 -0.11701220640E+02  0.18333439641E+02  0.00000000000E+00 0. -1.
</event>
<event>
 7    1  0.2700100E-010  0.4778727E+02  0.7816164E-02  0.1312668E+00
        -11   -1    0    0    0    0  0.00000000000E+00  0.00000000000E+00  0.45593999997E+02  0.45594000000E+02  0.51100000000E-03 0.  1.
         11   -1    0    0    0    0 -0.00000000000E+00 -0.00000000000E+00 -0.45593999997E+02  0.45594000000E+02  0.51100000000E-03 0. -1.
    9900012    2    1    2    0    0  0.41718029758E+02  0.97579336271E+01 -0.69290922400E+01  0.47787267346E+02  0.19999983139E+02 0.  0.
        -12    1    1    2    0    0 -0.41718029758E+02 -0.97579336271E+01  0.69290922400E+01  0.43400732654E+02  0.00000000000E+00 0.  1.
         11    1    3    3    0    0  0.31720534162E+02  0.44093256558E+01 -0.20744520927E+01  0.32092643892E+02  0.51100000000E-03 0. -1.
        -11    1    3    3    0    0  0.10942632428E+01 -0.78625081390E+00 -0.46915109193E+01  0.48811758168E+01  0.51100000000E-03 0.  1.
         12    1    3    3    0    0  0.89032323538E+01  0.61348587852E+01 -0.16312922803E+00  0.10813447637E+02  0.00000000000E+00 0. -1.
</event>
<event>
 7    1  0.2700100E-010  0.4778727E+02  0.7816164E-02  0.1312668E+00
        -11   -1    0    0    0    0  0.00000000000E+00  0.00000000000E+00  0.45593999997E+02  0.45594000000E+02  0.51100000000E-03 0.  1.
         11   -1    0    0    0    0 -0.00000000000E+00 -0.00000000000E+00 -0.45593999997E+02  0.45594000000E+02  0.51100000000E-03 0. -1.
    9900012    2    1    2    0    0  0.28778857479E+02 -0.35815300561E+01 -0.32288911040E+02  0.47787265312E+02  0.19999973864E+02 0.  0.
        -12    1    1    2    0    0 -0.28778857479E+02  0.35815300561E+01  0.32288911040E+02  0.43400734688E+02  0.00000000000E+00 0.  1.
         11    1    3    3    0    0  0.27116974680E+02 -0.93783026639E+01 -0.24085581241E+02  0.37461955377E+02  0.51100000000E-03 0. -1.
        -11    1    3    3    0    0  0.94020271493E+00  0.30363588766E+01 -0.57150516686E+01  0.65395162060E+01  0.51100000000E-03 0.  1.
         12    1    3    3    0    0  0.72168008347E+00  0.27604137312E+01 -0.24882781301E+01  0.37857937296E+01  0.00000000000E+00 0. -1.
</event>
<event>
 7    1  0.3245140E-010  0.4778727E+02  0.7816164E-02  0.1312668E+00
        -11   -1    0    0    0    0  0.00000000000E+00  0.00000000000E+00  0.45593999997E+02  0.45594000000E+02  0.51100000000E-03 0.  1.
         11   -1    0    0    0    0 -0.00000000000E+00 -0.00000000000E+00 -0.45593999997E+02  0.45594000000E+02  0.51100000000E-03 0. -1.
    9900012    2    1    2    0    0  0.39534759514E+02 -0.17895368918E+02 -0.61808167471E+00  0.47787268860E+02  0.19999990040E+02 0.  0.
        -12    1    1    2    0    0 -0.39534759514E+02  0.17895368918E+02  0.61808167471E+00  0.43400731140E+02  0.00000000000E+00 0.  1.
         11    1    3    3    0    0  0.25433222421E+02 -0.11504169034E+02  0.23463681406E+01  0.28012499917E+02  0.51100000000E-03 0. -1.
        -11    1    3    3    0    0  0.37977693160E+01  0.28572843711E+01 -0.35259692351E+01  0.59177347915E+01  0.51100000000E-03 0.  1.
        -12    1    3    3    0    0  0.10303767777E+02 -0.92484842559E+01  0.56151941982E+00  0.13857034152E+02  0.00000000000E+00 0.  1.
</event>
<event>
 7    1  0.2842198E-010  0.4778727E+02  0.7816164E-02  0.1312668E+00
        -11   -1    0    0    0    0  0.00000000000E+00  0.00000000000E+00  0.45593999997E+02  0.45594000000E+02  0.51100000000E-03 0. -1.
         11   -1    0    0    0    0 -0.00000000000E+00 -0.00000000000E+00 -0.45593999997E+02  0.45594000000E+02  0.51100000000E-03 0.  1.
    9900012    2    1    2    0    0 -0.13226590547E+02  0.65671385311E+01  0.40811196022E+02  0.47787265828E+02  0.19999976214E+02 0.  0.
        -12    1    1    2    0    0  0.13226590547E+02 -0.65671385311E+01 -0.40811196022E+02  0.43400734172E+02  0.00000000000E+00 0.  1.
         11    1    3    3    0    0 -0.71820275238E+01 -0.35048289860E+01  0.21197030754E+02  0.22653464605E+02  0.51100000000E-03 0. -1.
        -11    1    3    3    0    0 -0.78149385190E+01  0.10296132812E+02  0.19434053487E+02  0.23340223866E+02  0.51100000000E-03 0.  1.
        -12    1    3    3    0    0  0.17703754964E+01 -0.22416529485E+00  0.18011178062E+00  0.17935773557E+01  0.00000000000E+00 0.  1.
</event>
<event>
 7    1  0.2700100E-010  0.4778727E+02  0.7816164E-02  0.1312668E+00
        -11   -1    0    0    0    0  0.00000000000E+00  0.00000000000E+00  0.45593999997E+02  0.45594000000E+02  0.51100000000E-03 0.  1.
         11   -1    0    0    0    0 -0.00000000000E+00 -0.00000000000E+00 -0.45593999997E+02  0.45594000000E+02  0.51100000000E-03 0. -1.
    9900012    2    1    2    0    0 -0.33885698182E+02 -0.20696759092E+02 -0.17522173291E+02  0.47787274948E+02  0.20000017797E+02 0.  0.
        -12    1    1    2    0    0  0.33885698182E+02  0.20696759092E+02  0.17522173291E+02  0.43400725052E+02  0.00000000000E+00 0.  1.
         11    1    3    3    0    0 -0.15252318514E+02 -0.10039281164E+02 -0.15011459565E+02  0.23638195889E+02  0.51100000000E-03 0. -1.
        -11    1    3    3    0    0 -0.18515134825E+02 -0.87896249915E+01  0.61623344673E+00  0.20504815752E+02  0.51100000000E-03 0.  1.
        -12    1    3    3    0    0 -0.11824484327E+00 -0.18678529367E+01 -0.31269471722E+01  0.36442633074E+01  0.00000000000E+00 0.  1.
</event>
<event>
 7    1  0.2700100E-010  0.4778727E+02  0.7816164E-02  0.1312668E+00
        -11   -1    0    0    0    0  0.00000000000E+00  0.00000000000E+00  0.45593999997E+02  0.45594000000E+02  0.51100000000E-03 0.  1.
         11   -1    0    0    0    0 -0.00000000000E+00 -0.00000000000E+00 -0.45593999997E+02  0.45594000000E+02  0.51100000000E-03 0. -1.
    9900012    2    1    2    0    0 -0.17156918688E+02 -0.29787910454E+02 -0.26494220025E+02  0.47787272323E+02  0.20000005831E+02 0.  0.
        -12    1    1    2    0    0  0.17156918688E+02  0.29787910454E+02  0.26494220025E+02  0.43400727677E+02  0.00000000000E+00 0.  1.
         11    1    3    3    0    0 -0.48925549110E+01 -0.96865360251E+00 -0.17571538547E+01  0.52880027694E+01  0.51100000000E-03 0. -1.
        -11    1    3    3    0    0 -0.14303546454E+02 -0.15541309799E+02 -0.14852216488E+02  0.25820768507E+02  0.51100000000E-03 0.  1.
        -12    1    3    3    0    0  0.20391826766E+01 -0.13277947052E+02 -0.98848496832E+01  0.16678501047E+02  0.00000000000E+00 0.  1.
</event>
<event>
 7    1  0.2700100E-010  0.4778727E+02  0.7816164E-02  0.1312668E+00
        -11   -1    0    0    0    0  0.00000000000E+00  0.00000000000E+00  0.45593999997E+02  0.45594000000E+02  0.51100000000E-03 0.  1.
         11   -1    0    0    0    0 -0.00000000000E+00 -0.00000000000E+00 -0.45593999997E+02  0.45594000000E+02  0.51100000000E-03 0. -1.
    9900012    2    1    2    0    0  0.18189481483E+02 -0.39371416025E+02 -0.16302343962E+01  0.47787270737E+02  0.19999998598E+02 0.  0.
        -12    1    1    2    0    0 -0.18189481483E+02  0.39371416025E+02  0.16302343962E+01  0.43400729263E+02  0.00000000000E+00 0.  1.
         11    1    3    3    0    0  0.97034385160E+01 -0.34032357029E+02  0.31700958751E+01  0.35530375063E+02  0.51100000000E-03 0. -1.
        -11    1    3    3    0    0  0.40305527501E+01  0.12757320612E-01 -0.31100829775E+01  0.50909856225E+01  0.51100000000E-03 0.  1.
        -12    1    3    3    0    0  0.44554902165E+01 -0.53518163157E+01 -0.16902472939E+01  0.71659100511E+01  0.00000000000E+00 0.  1.
</event>
<event>
 7    1  0.2700100E-010  0.4778727E+02  0.7816164E-02  0.1312668E+00
        -11   -1    0    0    0    0  0.00000000000E+00  0.00000000000E+00  0.45593999997E+02  0.45594000000E+02  0.51100000000E-03 0.  1.
         11   -1    0    0    0    0 -0.00000000000E+00 -0.00000000000E+00 -0.45593999997E+02  0.45594000000E+02  0.51100000000E-03 0. -1.
    9900012    2    1    2    0    0  0.14543685147E+02  0.18915017964E+02 -0.36253642788E+02  0.47787270770E+02  0.19999998750E+02 0.  0.
        -12    1    1    2    0    0 -0.14543685147E+02 -0.18915017964E+02  0.36253642788E+02  0.43400729230E+02  0.00000000000E+00 0.  1.
         11    1    3    3    0    0  0.79693229222E+01  0.14360119114E+02 -0.20069609357E+02  0.25932843053E+02  0.51100000000E-03 0. -1.
        -11    1    3    3    0    0  0.86389831178E+01 -0.62533475167E+00 -0.71202188757E+01  0.11212519340E+02  0.51100000000E-03 0.  1.
        -12    1    3    3    0    0 -0.20646208927E+01  0.51802336019E+01 -0.90638145553E+01  0.10641908376E+02  0.00000000000E+00 0.  1.
</event>
<event>
 7    1  0.2700100E-010  0.4778727E+02  0.7816164E-02  0.1312668E+00
        -11   -1    0    0    0    0  0.00000000000E+00  0.00000000000E+00  0.45593999997E+02  0.45594000000E+02  0.51100000000E-03 0.  1.
         11   -1    0    0    0    0 -0.00000000000E+00 -0.00000000000E+00 -0.45593999997E+02  0.45594000000E+02  0.51100000000E-03 0. -1.
    9900012    2    1    2    0    0 -0.36960479642E+02 -0.21868269899E+02  0.62709723115E+01  0.47787269851E+02  0.19999994557E+02 0.  0.
        -12    1    1    2    0    0  0.36960479642E+02  0.21868269899E+02 -0.62709723115E+01  0.43400730149E+02  0.00000000000E+00 0.  1.
         11    1    3    3    0    0 -0.21315625160E+02 -0.11569726282E+02 -0.50107519681E+00  0.24258308243E+02  0.51100000000E-03 0. -1.
        -11    1    3    3    0    0  0.11112611283E+01 -0.47437885240E+01  0.12034042428E+01  0.50186265939E+01  0.51100000000E-03 0.  1.
         12    1    3    3    0    0 -0.16756115610E+02 -0.55547550931E+01  0.55686432655E+01  0.18510335013E+02  0.00000000000E+00 0. -1.
</event>
<event>
 7    1  0.2700100E-010  0.4778732E+02  0.7816164E-02  0.1312668E+00
        -11   -1    0    0    0    0  0.00000000000E+00  0.00000000000E+00  0.45593999997E+02  0.45594000000E+02  0.51100000000E-03 0. -1.
         11   -1    0    0    0    0 -0.00000000000E+00 -0.00000000000E+00 -0.45593999997E+02  0.45594000000E+02  0.51100000000E-03 0.  1.
    9900012    2    1    2    0    0 -0.13152723000E+02 -0.17906647305E+02  0.37282391914E+02  0.47787321586E+02  0.20000230438E+02 0.  0.
        -12    1    1    2    0    0  0.13152723000E+02  0.17906647305E+02 -0.37282391914E+02  0.43400678414E+02  0.00000000000E+00 0.  1.
         11    1    3    3    0    0 -0.14411817366E+02 -0.15394618293E+02  0.23503748247E+02  0.31577221760E+02  0.51100000000E-03 0. -1.
        -11    1    3    3    0    0  0.40258047916E+01 -0.51158102924E+00  0.34324020183E+01  0.53150920261E+01  0.51100000000E-03 0.  1.
         12    1    3    3    0    0 -0.27667104248E+01 -0.20004479819E+01  0.10346241649E+02  0.10895007800E+02  0.00000000000E+00 0. -1.
</event>
<event>
 7    1  0.2700100E-010  0.4778724E+02  0.7816164E-02  0.1312668E+00
        -11   -1    0    0    0    0  0.00000000000E+00  0.00000000000E+00  0.45593999997E+02  0.45594000000E+02  0.51100000000E-03 0.  1.
         11   -1    0    0    0    0 -0.00000000000E+00 -0.00000000000E+00 -0.45593999997E+02  0.45594000000E+02  0.51100000000E-03 0. -1.
    9900012    2    1    2    0    0 -0.40258753654E+02 -0.14063544763E+02 -0.80669504732E+01  0.47787237022E+02  0.19999844879E+02 0.  0.
        -12    1    1    2    0    0  0.40258753654E+02  0.14063544763E+02  0.80669504732E+01  0.43400762978E+02  0.00000000000E+00 0.  1.
         11    1    3    3    0    0 -0.13394490416E+02 -0.55619620025E+01 -0.35489513232E+01  0.14931270896E+02  0.51100000000E-03 0. -1.
        -11    1    3    3    0    0 -0.15296264691E+02 -0.12116543057E+02  0.99978488160E+00  0.19539342344E+02  0.51100000000E-03 0.  1.
        -12    1    3    3    0    0 -0.11567998548E+02  0.36149602968E+01 -0.55177840316E+01  0.13316623783E+02  0.00000000000E+00 0.  1.
</event>
<event>
 7    1  0.2700100E-010  0.4778727E+02  0.7816164E-02  0.1312668E+00
        -11   -1    0    0    0    0  0.00000000000E+00  0.00000000000E+00  0.45593999997E+02  0.45594000000E+02  0.51100000000E-03 0. -1.
         11   -1    0    0    0    0 -0.00000000000E+00 -0.00000000000E+00 -0.45593999997E+02  0.45594000000E+02  0.51100000000E-03 0.  1.
    9900012    2    1    2    0    0  0.35839735286E+02  0.22993013458E+02 -0.83939332323E+01  0.47787269495E+02  0.19999992935E+02 0.  0.
        -12    1    1    2    0    0 -0.35839735286E+02 -0.22993013458E+02  0.83939332323E+01  0.43400730505E+02  0.00000000000E+00 0.  1.
         11    1    3    3    0    0  0.26111481323E+02  0.23957362691E+02 -0.32121408455E+01  0.35582053525E+02  0.51100000000E-03 0. -1.
        -11    1    3    3    0    0  0.63694512959E+01 -0.13380726839E+01 -0.63411444309E+00  0.65393003988E+01  0.51100000000E-03 0.  1.
         12    1    3    3    0    0  0.33588026670E+01  0.37372345078E+00 -0.45476779437E+01  0.56659155706E+01  0.00000000000E+00 0. -1.
</event>
<event>
 7    1  0.2700100E-010  0.4778726E+02  0.7816164E-02  0.1312668E+00
        -11   -1    0    0    0    0  0.00000000000E+00  0.00000000000E+00  0.45593999997E+02  0.45594000000E+02  0.51100000000E-03 0.  1.
         11   -1    0    0    0    0 -0.00000000000E+00 -0.00000000000E+00 -0.45593999997E+02  0.45594000000E+02  0.51100000000E-03 0. -1.
    9900012    2    1    2    0    0  0.14165105706E+01  0.29989468131E+02 -0.31340856343E+02  0.47787262940E+02  0.19999963050E+02 0.  0.
        -12    1    1    2    0    0 -0.14165105706E+01 -0.29989468131E+02  0.31340856343E+02  0.43400737060E+02  0.00000000000E+00 0.  1.
         11    1    3    3    0    0 -0.25855300104E+01  0.72761523071E+01 -0.79500800065E+01  0.11082920653E+02  0.51100000000E-03 0. -1.
        -11    1    3    3    0    0  0.17625041377E+00  0.21365621621E+02 -0.24491317884E+02  0.32501469250E+02  0.51100000000E-03 0.  1.
        -12    1    3    3    0    0  0.38257901672E+01  0.13476942032E+01  0.11005415473E+01  0.42028730371E+01  0.00000000000E+00 0.  1.
</event>
<event>
 7    1  0.2700100E-010  0.4778727E+02  0.7816164E-02  0.1312668E+00
        -11   -1    0    0    0    0  0.00000000000E+00  0.00000000000E+00  0.45593999997E+02  0.45594000000E+02  0.51100000000E-03 0. -1.
         11   -1    0    0    0    0 -0.00000000000E+00 -0.00000000000E+00 -0.45593999997E+02  0.45594000000E+02  0.51100000000E-03 0.  1.
    9900012    2    1    2    0    0 -0.32715308818E+00  0.40245012754E+02 -0.16243614365E+02  0.47787273182E+02  0.20000009744E+02 0.  0.
        -12    1    1    2    0    0  0.32715308818E+00 -0.40245012754E+02  0.16243614365E+02  0.43400726818E+02  0.00000000000E+00 0.  1.
         11    1    3    3    0    0 -0.18576982330E+01  0.11821395917E+02  0.28425995318E+01  0.12299464074E+02  0.51100000000E-03 0. -1.
        -11    1    3    3    0    0  0.43514397531E+01  0.87913782014E+01 -0.86365789175E+01  0.13069577432E+02  0.51100000000E-03 0.  1.
        -12    1    3    3    0    0 -0.28208946083E+01  0.19632238636E+02 -0.10449634979E+02  0.22418231676E+02  0.00000000000E+00 0.  1.
</event>
<event>
 7    1  0.2700100E-010  0.4778727E+02  0.7816164E-02  0.1312668E+00
        -11   -1    0    0    0    0  0.00000000000E+00  0.00000000000E+00  0.45593999997E+02  0.45594000000E+02  0.51100000000E-03 0.  1.
         11   -1    0    0    0    0 -0.00000000000E+00 -0.00000000000E+00 -0.45593999997E+02  0.45594000000E+02  0.51100000000E-03 0. -1.
    9900012    2    1    2    0    0  0.32232386892E+02  0.55744321767E+01 -0.28524065343E+02  0.47787270023E+02  0.19999995341E+02 0.  0.
        -12    1    1    2    0    0 -0.32232386892E+02 -0.55744321767E+01  0.28524065343E+02  0.43400729977E+02  0.00000000000E+00 0.  1.
         11    1    3    3    0    0  0.11291211781E+02  0.11641057656E+02 -0.11378994242E+02  0.19811289636E+02  0.51100000000E-03 0. -1.
        -11    1    3    3    0    0  0.93594469646E-01 -0.20851563199E+00 -0.83545501502E+00  0.86615474182E+00  0.51100000000E-03 0.  1.
         12    1    3    3    0    0  0.20847580642E+02 -0.58581098472E+01 -0.16309616086E+02  0.27109825645E+02  0.00000000000E+00 0. -1.
</event>
<event>
 7    1  0.2700100E-010  0.4778727E+02  0.7816164E-02  0.1312668E+00
        -11   -1    0    0    0    0  0.00000000000E+00  0.00000000000E+00  0.45593999997E+02  0.45594000000E+02  0.51100000000E-03 0.  1.
         11   -1    0    0    0    0 -0.00000000000E+00 -0.00000000000E+00 -0.45593999997E+02  0.45594000000E+02  0.51100000000E-03 0. -1.
    9900012    2    1    2    0    0 -0.12386452035E+02  0.12963533107E+02 -0.39523991463E+02  0.47787270907E+02  0.19999999373E+02 0.  0.
        -12    1    1    2    0    0  0.12386452035E+02 -0.12963533107E+02  0.39523991463E+02  0.43400729093E+02  0.00000000000E+00 0.  1.
         11    1    3    3    0    0  0.41605658901E+01  0.71342665485E+01 -0.11613222129E+02  0.14250438456E+02  0.51100000000E-03 0. -1.
        -11    1    3    3    0    0 -0.14173072949E+02  0.25578258173E+01 -0.19908547819E+02  0.24571706214E+02  0.51100000000E-03 0.  1.
         12    1    3    3    0    0 -0.23739449760E+01  0.32714407416E+01 -0.80022215142E+01  0.89651262365E+01  0.00000000000E+00 0. -1.
</event>
<event>
 7    1  0.2700100E-010  0.4778727E+02  0.7816164E-02  0.1312668E+00
        -11   -1    0    0    0    0  0.00000000000E+00  0.00000000000E+00  0.45593999997E+02  0.45594000000E+02  0.51100000000E-03 0.  1.
         11   -1    0    0    0    0 -0.00000000000E+00 -0.00000000000E+00 -0.45593999997E+02  0.45594000000E+02  0.51100000000E-03 0. -1.
    9900012    2    1    2    0    0  0.40137148766E+01 -0.30865892857E+02 -0.30245826907E+02  0.47787270809E+02  0.19999998926E+02 0.  0.
        -12    1    1    2    0    0 -0.40137148766E+01  0.30865892857E+02  0.30245826907E+02  0.43400729191E+02  0.00000000000E+00 0.  1.
         11    1    3    3    0    0  0.18099725694E+01 -0.23440522247E+02 -0.13864805115E+02  0.27294081869E+02  0.51100000000E-03 0. -1.
        -11    1    3    3    0    0  0.16881236139E+01 -0.34730261957E+01 -0.16033804935E+02  0.16492257979E+02  0.51100000000E-03 0.  1.
        -12    1    3    3    0    0  0.51561869325E+00 -0.39523444142E+01 -0.34721685712E+00  0.40009309606E+01  0.00000000000E+00 0.  1.
</event>
<event>
 7    1  0.2700100E-010  0.4778728E+02  0.7816164E-02  0.1312668E+00
        -11   -1    0    0    0    0  0.00000000000E+00  0.00000000000E+00  0.45593999997E+02  0.45594000000E+02  0.51100000000E-03 0.  1.
         11   -1    0    0    0    0 -0.00000000000E+00 -0.00000000000E+00 -0.45593999997E+02  0.45594000000E+02  0.51100000000E-03 0. -1.
    9900012    2    1    2    0    0 -0.19722396332E+02  0.38660447762E+02 -0.13970540854E+00  0.47787278164E+02  0.20000032463E+02 0.  0.
        -12    1    1    2    0    0  0.19722396332E+02 -0.38660447762E+02  0.13970540854E+00  0.43400721836E+02  0.00000000000E+00 0.  1.
         11    1    3    3    0    0 -0.64872714316E+01  0.94205379046E+01 -0.51377438367E+01  0.12539044502E+02  0.51100000000E-03 0. -1.
        -11    1    3    3    0    0 -0.93627549084E+01  0.23879387672E+02  0.93851645910E+01  0.27312408347E+02  0.51100000000E-03 0.  1.
        -12    1    3    3    0    0 -0.38723699923E+01  0.53605221851E+01 -0.43871261629E+01  0.79358253146E+01  0.00000000000E+00 0.  1.
</event>
<event>
 7    1  0.2700100E-010  0.4778728E+02  0.7816164E-02  0.1312668E+00
        -11   -1    0    0    0    0  0.00000000000E+00  0.00000000000E+00  0.45593999997E+02  0.45594000000E+02  0.51100000000E-03 0. -1.
         11   -1    0    0    0    0 -0.00000000000E+00 -0.00000000000E+00 -0.45593999997E+02  0.45594000000E+02  0.51100000000E-03 0.  1.
    9900012    2    1    2    0    0  0.16760859636E+02  0.34242339302E+02  0.20740252547E+02  0.47787282352E+02  0.20000051557E+02 0.  0.
        -12    1    1    2    0    0 -0.16760859636E+02 -0.34242339302E+02 -0.20740252547E+02  0.43400717648E+02  0.00000000000E+00 0.  1.
         11    1    3    3    0    0  0.68115269273E+01  0.30173152330E+02  0.10312124381E+02  0.32606071983E+02  0.51100000000E-03 0. -1.
        -11    1    3    3    0    0  0.67100713554E+01  0.15317152384E+01  0.71057178954E+01  0.98925444774E+01  0.51100000000E-03 0.  1.
         12    1    3    3    0    0  0.32392613536E+01  0.25374717330E+01  0.33224102706E+01  0.52886658922E+01  0.00000000000E+00 0. -1.
</event>
<event>
 7    1  0.2700100E-010  0.4778728E+02  0.7816164E-02  0.1312668E+00
        -11   -1    0    0    0    0  0.00000000000E+00  0.00000000000E+00  0.45593999997E+02  0.45594000000E+02  0.51100000000E-03 0.  1.
         11   -1    0    0    0    0 -0.00000000000E+00 -0.00000000000E+00 -0.45593999997E+02  0.45594000000E+02  0.51100000000E-03 0. -1.
    9900012    2    1    2    0    0  0.77420556126E+01  0.20364927708E+02 -0.37536024018E+02  0.47787276449E+02  0.20000024643E+02 0.  0.
        -12    1    1    2    0    0 -0.77420556126E+01 -0.20364927708E+02  0.37536024018E+02  0.43400723551E+02  0.00000000000E+00 0.  1.
         11    1    3    3    0    0 -0.48209221555E+01 -0.60422956382E+00 -0.57037552929E+01  0.74926102593E+01  0.51100000000E-03 0. -1.
        -11    1    3    3    0    0  0.87093796988E+01  0.17376494405E+02 -0.25090274291E+02  0.31738268963E+02  0.51100000000E-03 0.  1.
         12    1    3    3    0    0  0.38535980694E+01  0.35926628667E+01 -0.67419944339E+01  0.85563972267E+01  0.00000000000E+00 0. -1.
</event>
<event>
 7    1  0.2700100E-010  0.4778727E+02  0.7816164E-02  0.1312668E+00
        -11   -1    0    0    0    0  0.00000000000E+00  0.00000000000E+00  0.45593999997E+02  0.45594000000E+02  0.51100000000E-03 0.  1.
         11   -1    0    0    0    0 -0.00000000000E+00 -0.00000000000E+00 -0.45593999997E+02  0.45594000000E+02  0.51100000000E-03 0. -1.
    9900012    2    1    2    0    0 -0.17383129289E+02 -0.14828771665E+02 -0.36899286141E+02  0.47787274538E+02  0.20000015927E+02 0.  0.
        -12    1    1    2    0    0  0.17383129289E+02  0.14828771665E+02  0.36899286141E+02  0.43400725462E+02  0.00000000000E+00 0.  1.
         11    1    3    3    0    0 -0.16270697342E+02 -0.88859508705E+01 -0.17924500680E+02  0.25787272825E+02  0.51100000000E-03 0. -1.
        -11    1    3    3    0    0  0.14234909568E+01 -0.35927090080E+01 -0.14343246340E+01  0.41220349267E+01  0.51100000000E-03 0.  1.
         12    1    3    3    0    0 -0.25359229037E+01 -0.23501117865E+01 -0.17540460826E+02  0.17877966786E+02  0.00000000000E+00 0. -1.
</event>
<event>
 7    1  0.3062778E-010  0.4778727E+02  0.7816164E-02  0.1312668E+00
        -11   -1    0    0    0    0  0.00000000000E+00  0.00000000000E+00  0.45593999997E+02  0.45594000000E+02  0.51100000000E-03 0. -1.
         11   -1    0    0    0    0 -0.00000000000E+00 -0.00000000000E+00 -0.45593999997E+02  0.45594000000E+02  0.51100000000E-03 0.  1.
    9900012    2    1    2    0    0 -0.35054988263E+02  0.57125892132E+01  0.24942690604E+02  0.47787266225E+02  0.19999978025E+02 0.  0.
        -12    1    1    2    0    0  0.35054988263E+02 -0.57125892132E+01 -0.24942690604E+02  0.43400733775E+02  0.00000000000E+00 0.  1.
         11    1    3    3    0    0 -0.11275473255E+02  0.58800617538E+01  0.89120799904E+01  0.15528573449E+02  0.51100000000E-03 0. -1.
        -11    1    3    3    0    0  0.20631021619E+01 -0.26244893272E+00  0.62132602751E+00  0.21705566720E+01  0.51100000000E-03 0.  1.
        -12    1    3    3    0    0 -0.25842617170E+02  0.94976392072E-01  0.15409284586E+02  0.30088136103E+02  0.00000000000E+00 0.  1.
</event>
<event>
 7    1  0.2700100E-010  0.4778724E+02  0.7816164E-02  0.1312668E+00
        -11   -1    0    0    0    0  0.00000000000E+00  0.00000000000E+00  0.45593999997E+02  0.45594000000E+02  0.51100000000E-03 0. -1.
         11   -1    0    0    0    0 -0.00000000000E+00 -0.00000000000E+00 -0.45593999997E+02  0.45594000000E+02  0.51100000000E-03 0.  1.
    9900012    2    1    2    0    0  0.10198687148E+02  0.35312088481E+02  0.23079632065E+02  0.47787237003E+02  0.19999844792E+02 0.  0.
        -12    1    1    2    0    0 -0.10198687148E+02 -0.35312088481E+02 -0.23079632065E+02  0.43400762997E+02  0.00000000000E+00 0.  1.
         11    1    3    3    0    0 -0.11453413982E+01  0.23100599796E+02  0.93854819128E+01  0.24960704895E+02  0.51100000000E-03 0. -1.
        -11    1    3    3    0    0  0.64052142254E+01  0.50593750271E+01  0.11057422390E+02  0.13743748946E+02  0.51100000000E-03 0.  1.
         12    1    3    3    0    0  0.49388143204E+01  0.71521136577E+01  0.26367277628E+01  0.90827831615E+01  0.00000000000E+00 0. -1.
</event>
<event>
 7    1  0.2700100E-010  0.4778727E+02  0.7816164E-02  0.1312668E+00
        -11   -1    0    0    0    0  0.00000000000E+00  0.00000000000E+00  0.45593999997E+02  0.45594000000E+02  0.51100000000E-03 0. -1.
         11   -1    0    0    0    0 -0.00000000000E+00 -0.00000000000E+00 -0.45593999997E+02  0.45594000000E+02  0.51100000000E-03 0.  1.
    9900012    2    1    2    0    0 -0.12470960664E+02 -0.25921793271E+02  0.32498598713E+02  0.47787272534E+02  0.20000006791E+02 0.  0.
        -12    1    1    2    0    0  0.12470960664E+02  0.25921793271E+02 -0.32498598713E+02  0.43400727466E+02  0.00000000000E+00 0.  1.
         11    1    3    3    0    0 -0.18324168369E+01 -0.15725100111E+02  0.78750624460E+01  0.17682000276E+02  0.51100000000E-03 0. -1.
        -11    1    3    3    0    0 -0.10686479049E+02 -0.77560314842E+01  0.24282423426E+02  0.27640422329E+02  0.51100000000E-03 0.  1.
        -12    1    3    3    0    0  0.47935222165E-01 -0.24406616762E+01  0.34111284150E+00  0.24648499292E+01  0.00000000000E+00 0.  1.
</event>
<event>
 7    1  0.2700100E-010  0.4778727E+02  0.7816164E-02  0.1312668E+00
        -11   -1    0    0    0    0  0.00000000000E+00  0.00000000000E+00  0.45593999997E+02  0.45594000000E+02  0.51100000000E-03 0.  1.
         11   -1    0    0    0    0 -0.00000000000E+00 -0.00000000000E+00 -0.45593999997E+02  0.45594000000E+02  0.51100000000E-03 0. -1.
    9900012    2    1    2    0    0  0.34924908031E+02  0.11711081218E+02  0.22950478527E+02  0.47787273175E+02  0.20000009716E+02 0.  0.
        -12    1    1    2    0    0 -0.34924908031E+02 -0.11711081218E+02 -0.22950478527E+02  0.43400726825E+02  0.00000000000E+00 0.  1.
         11    1    3    3    0    0  0.11375946611E+02  0.22006560077E+01  0.16267824104E+02  0.19972409706E+02  0.51100000000E-03 0.  1.
        -11    1    3    3    0    0  0.27879135419E+01  0.35878510633E+01 -0.14118658003E+01  0.47579935339E+01  0.51100000000E-03 0. -1.
        -12    1    3    3    0    0  0.20761047879E+02  0.59225741471E+01  0.80945202239E+01  0.23056869935E+02  0.00000000000E+00 0.  1.
</event>
<event>
 7    1  0.2700100E-010  0.4778725E+02  0.7816164E-02  0.1312668E+00
        -11   -1    0    0    0    0  0.00000000000E+00  0.00000000000E+00  0.45593999997E+02  0.45594000000E+02  0.51100000000E-03 0.  1.
         11   -1    0    0    0    0 -0.00000000000E+00 -0.00000000000E+00 -0.45593999997E+02  0.45594000000E+02  0.51100000000E-03 0. -1.
    9900012    2    1    2    0    0 -0.12489763524E+02 -0.38975133809E+02 -0.14441948948E+02  0.47787249572E+02  0.19999902098E+02 0.  0.
        -12    1    1    2    0    0  0.12489763524E+02  0.38975133809E+02  0.14441948948E+02  0.43400750428E+02  0.00000000000E+00 0.  1.
         11    1    3    3    0    0  0.28450886000E+01 -0.12386359623E+01  0.63190407390E+00  0.31667098396E+01  0.51100000000E-03 0. -1.
        -11    1    3    3    0    0 -0.79698611580E+01 -0.12717477713E+02 -0.10044546757E+02  0.18059508468E+02  0.51100000000E-03 0.  1.
         12    1    3    3    0    0 -0.73649909657E+01 -0.25019020133E+02 -0.50293062644E+01  0.26561031265E+02  0.00000000000E+00 0. -1.
</event>
<event>
 7    1  0.2700100E-010  0.4778727E+02  0.7816164E-02  0.1312668E+00
        -11   -1    0    0    0    0  0.00000000000E+00  0.00000000000E+00  0.45593999997E+02  0.45594000000E+02  0.51100000000E-03 0.  1.
         11   -1    0    0    0    0 -0.00000000000E+00 -0.00000000000E+00 -0.45593999997E+02  0.45594000000E+02  0.51100000000E-03 0. -1.
    9900012    2    1    2    0    0 -0.28976829196E+02  0.26393506357E+02 -0.18637311178E+02  0.47787272172E+02  0.20000005139E+02 0.  0.
        -12    1    1    2    0    0  0.28976829196E+02 -0.26393506357E+02  0.18637311178E+02  0.43400727828E+02  0.00000000000E+00 0.  1.
         11    1    3    3    0    0 -0.12789309751E+02  0.15603181259E+02 -0.18668881491E+02  0.27487321544E+02  0.51100000000E-03 0. -1.
        -11    1    3    3    0    0 -0.10031543149E+02  0.70400155604E+01  0.28121547385E+01  0.12573857466E+02  0.51100000000E-03 0.  1.
        -12    1    3    3    0    0 -0.61559762960E+01  0.37503095379E+01 -0.27805844261E+01  0.77260931613E+01  0.00000000000E+00 0.  1.
</event>
<event>
 7    1  0.2700100E-010  0.4778727E+02  0.7816164E-02  0.1312668E+00
        -11   -1    0    0    0    0  0.00000000000E+00  0.00000000000E+00  0.45593999997E+02  0.45594000000E+02  0.51100000000E-03 0.  1.
         11   -1    0    0    0    0 -0.00000000000E+00 -0.00000000000E+00 -0.45593999997E+02  0.45594000000E+02  0.51100000000E-03 0. -1.
    9900012    2    1    2    0    0  0.82090246605E+01  0.80212179940E+01 -0.41855648336E+02  0.47787270495E+02  0.19999997493E+02 0.  0.
        -12    1    1    2    0    0 -0.82090246605E+01 -0.80212179940E+01  0.41855648336E+02  0.43400729505E+02  0.00000000000E+00 0.  1.
         11    1    3    3    0    0  0.94818195432E+01  0.10633174971E+02 -0.27090559301E+02  0.30608294878E+02  0.51100000000E-03 0. -1.
        -11    1    3    3    0    0 -0.24531457841E+01 -0.38764693536E+01 -0.34695627194E+01  0.57517653475E+01  0.51100000000E-03 0.  1.
        -12    1    3    3    0    0  0.11803509015E+01  0.12645123768E+01 -0.11295526315E+02  0.11427210269E+02  0.00000000000E+00 0.  1.
</event>
<event>
 7    1  0.2700100E-010  0.4778727E+02  0.7816164E-02  0.1312668E+00
        -11   -1    0    0    0    0  0.00000000000E+00  0.00000000000E+00  0.45593999997E+02  0.45594000000E+02  0.51100000000E-03 0.  1.
         11   -1    0    0    0    0 -0.00000000000E+00 -0.00000000000E+00 -0.45593999997E+02  0.45594000000E+02  0.51100000000E-03 0. -1.
    9900012    2    1    2    0    0 -0.31804862696E+02  0.86419077594E+01 -0.28238120810E+02  0.47787270424E+02  0.19999997172E+02 0.  0.
        -12    1    1    2    0    0  0.31804862696E+02 -0.86419077594E+01  0.28238120810E+02  0.43400729576E+02  0.00000000000E+00 0.  1.
         11    1    3    3    0    0 -0.26684785547E+02  0.40172731527E+01 -0.23208343179E+02  0.35592744438E+02  0.51100000000E-03 0. -1.
        -11    1    3    3    0    0  0.82457682624E+00  0.50601108481E+01 -0.19487031504E+01  0.54847144836E+01  0.51100000000E-03 0.  1.
         12    1    3    3    0    0 -0.59446539752E+01 -0.43547624147E+00 -0.30810744809E+01  0.67098115025E+01  0.00000000000E+00 0. -1.
</event>
<event>
 7    1  0.2760364E-010  0.4778727E+02  0.7816164E-02  0.1312668E+00
        -11   -1    0    0    0    0  0.00000000000E+00  0.00000000000E+00  0.45593999997E+02  0.45594000000E+02  0.51100000000E-03 0. -1.
         11   -1    0    0    0    0 -0.00000000000E+00 -0.00000000000E+00 -0.45593999997E+02  0.45594000000E+02  0.51100000000E-03 0.  1.
    9900012    2    1    2    0    0 -0.39084608284E+02  0.66947557780E+01 -0.17640774895E+02  0.47787270760E+02  0.19999998702E+02 0.  0.
        -12    1    1    2    0    0  0.39084608284E+02 -0.66947557780E+01  0.17640774895E+02  0.43400729240E+02  0.00000000000E+00 0.  1.
         11    1    3    3    0    0 -0.29178409869E+02  0.87653187207E+01 -0.15748102468E+02  0.34295963996E+02  0.51100000000E-03 0. -1.
        -11    1    3    3    0    0 -0.99019457301E+01 -0.12057156944E+01  0.14127358737E+01  0.10074626667E+02  0.51100000000E-03 0.  1.
        -12    1    3    3    0    0 -0.42526849619E-02 -0.86484724833E+00 -0.33054083008E+01  0.34166800967E+01  0.00000000000E+00 0.  1.
</event>
<event>
 7    1  0.2700100E-010  0.4778727E+02  0.7816164E-02  0.1312668E+00
        -11   -1    0    0    0    0  0.00000000000E+00  0.00000000000E+00  0.45593999997E+02  0.45594000000E+02  0.51100000000E-03 0.  1.
         11   -1    0    0    0    0 -0.00000000000E+00 -0.00000000000E+00 -0.45593999997E+02  0.45594000000E+02  0.51100000000E-03 0. -1.
    9900012    2    1    2    0    0  0.17972309193E+02  0.22740277965E+02 -0.32303235799E+02  0.47787272094E+02  0.20000004786E+02 0.  0.
        -12    1    1    2    0    0 -0.17972309193E+02 -0.22740277965E+02  0.32303235799E+02  0.43400727906E+02  0.00000000000E+00 0.  1.
         11    1    3    3    0    0  0.44320066187E+01  0.12928932964E+02 -0.68402016181E+01  0.15283597374E+02  0.51100000000E-03 0. -1.
        -11    1    3    3    0    0  0.10479199966E+02  0.51029056871E+01 -0.24030200730E+02  0.26707748422E+02  0.51100000000E-03 0.  1.
        -12    1    3    3    0    0  0.30611026087E+01  0.47084393140E+01 -0.14328334510E+01  0.57959262981E+01  0.00000000000E+00 0.  1.
</event>
<event>
 7    1  0.2700100E-010  0.4778727E+02  0.7816164E-02  0.1312668E+00
        -11   -1    0    0    0    0  0.00000000000E+00  0.00000000000E+00  0.45593999997E+02  0.45594000000E+02  0.51100000000E-03 0. -1.
         11   -1    0    0    0    0 -0.00000000000E+00 -0.00000000000E+00 -0.45593999997E+02  0.45594000000E+02  0.51100000000E-03 0.  1.
    9900012    2    1    2    0    0  0.22323912656E+02 -0.27027480769E+02  0.25588700099E+02  0.47787269986E+02  0.19999995174E+02 0.  0.
        -12    1    1    2    0    0 -0.22323912656E+02  0.27027480769E+02 -0.25588700099E+02  0.43400730014E+02  0.00000000000E+00 0.  1.
         11    1    3    3    0    0  0.70642081021E+01 -0.21028460217E+02  0.98734760575E+01  0.24281365384E+02  0.51100000000E-03 0. -1.
        -11    1    3    3    0    0  0.12000531951E+02 -0.44428742072E+01  0.82850549298E+01  0.15244475517E+02  0.51100000000E-03 0.  1.
         12    1    3    3    0    0  0.32591726023E+01 -0.15561463454E+01  0.74301691114E+01  0.82614290849E+01  0.00000000000E+00 0. -1.
</event>
<event>
 7    1  0.2700100E-010  0.4778727E+02  0.7816164E-02  0.1312668E+00
        -11   -1    0    0    0    0  0.00000000000E+00  0.00000000000E+00  0.45593999997E+02  0.45594000000E+02  0.51100000000E-03 0. -1.
         11   -1    0    0    0    0 -0.00000000000E+00 -0.00000000000E+00 -0.45593999997E+02  0.45594000000E+02  0.51100000000E-03 0.  1.
    9900012    2    1    2    0    0  0.25360759601E+02  0.25878281020E+02  0.23890784555E+02  0.47787272556E+02  0.20000006890E+02 0.  0.
        -12    1    1    2    0    0 -0.25360759601E+02 -0.25878281020E+02 -0.23890784555E+02  0.43400727444E+02  0.00000000000E+00 0.  1.
         11    1    3    3    0    0  0.11452669952E+02  0.78980102538E+01  0.17111982885E+02  0.22053620418E+02  0.51100000000E-03 0. -1.
        -11    1    3    3    0    0  0.14960711154E+02  0.14314045832E+02  0.41937621639E+01  0.21125871051E+02  0.51100000000E-03 0.  1.
        -12    1    3    3    0    0 -0.10526215055E+01  0.36662249337E+01  0.25850395058E+01  0.46077810869E+01  0.00000000000E+00 0.  1.
</event>
<event>
 7    1  0.2700100E-010  0.4778727E+02  0.7816164E-02  0.1312668E+00
        -11   -1    0    0    0    0  0.00000000000E+00  0.00000000000E+00  0.45593999997E+02  0.45594000000E+02  0.51100000000E-03 0.  1.
         11   -1    0    0    0    0 -0.00000000000E+00 -0.00000000000E+00 -0.45593999997E+02  0.45594000000E+02  0.51100000000E-03 0. -1.
    9900012    2    1    2    0    0 -0.32038112349E+02 -0.28208783637E+01 -0.29141472461E+02  0.47787269420E+02  0.19999992594E+02 0.  0.
        -12    1    1    2    0    0  0.32038112349E+02  0.28208783637E+01  0.29141472461E+02  0.43400730580E+02  0.00000000000E+00 0.  1.
         11    1    3    3    0    0 -0.59929539600E+01  0.33189497208E+01 -0.16444373222E+02  0.17814273360E+02  0.51100000000E-03 0.  1.
        -11    1    3    3    0    0 -0.20995488937E+02 -0.51245814753E+01 -0.12150710980E+02  0.24793379531E+02  0.51100000000E-03 0. -1.
        -12    1    3    3    0    0 -0.50496694527E+01 -0.10152466093E+01 -0.54638825903E+00  0.51796165291E+01  0.00000000000E+00 0.  1.
</event>
<event>
 7    1  0.2700100E-010  0.4778727E+02  0.7816164E-02  0.1312668E+00
        -11   -1    0    0    0    0  0.00000000000E+00  0.00000000000E+00  0.45593999997E+02  0.45594000000E+02  0.51100000000E-03 0.  1.
         11   -1    0    0    0    0 -0.00000000000E+00 -0.00000000000E+00 -0.45593999997E+02  0.45594000000E+02  0.51100000000E-03 0. -1.
    9900012    2    1    2    0    0  0.23631161801E+02  0.29976369728E+02  0.20654506496E+02  0.47787272026E+02  0.20000004474E+02 0.  0.
        -12    1    1    2    0    0 -0.23631161801E+02 -0.29976369728E+02 -0.20654506496E+02  0.43400727974E+02  0.00000000000E+00 0.  1.
         11    1    3    3    0    0  0.10993902809E+02  0.81002203971E+01 -0.15073413776E+01  0.13738687992E+02  0.51100000000E-03 0. -1.
        -11    1    3    3    0    0  0.10063061779E+02  0.12092732987E+02  0.13560006086E+02  0.20769525001E+02  0.51100000000E-03 0.  1.
         12    1    3    3    0    0  0.25741972121E+01  0.97834163434E+01  0.86018417878E+01  0.13279059032E+02  0.00000000000E+00 0. -1.
</event>
<event>
 7    1  0.2700100E-010  0.4778727E+02  0.7816164E-02  0.1312668E+00
        -11   -1    0    0    0    0  0.00000000000E+00  0.00000000000E+00  0.45593999997E+02  0.45594000000E+02  0.51100000000E-03 0.  1.
         11   -1    0    0    0    0 -0.00000000000E+00 -0.00000000000E+00 -0.45593999997E+02  0.45594000000E+02  0.51100000000E-03 0. -1.
    9900012    2    1    2    0    0 -0.12951421564E+01 -0.42385697864E+00 -0.43379329517E+02  0.47787271005E+02  0.19999999820E+02 0.  0.
        -12    1    1    2    0    0  0.12951421564E+01  0.42385697864E+00  0.43379329517E+02  0.43400728995E+02  0.00000000000E+00 0.  1.
         11    1    3    3    0    0  0.41209139860E-01 -0.16394361571E+01 -0.10403508643E+02  0.10531972344E+02  0.51100000000E-03 0. -1.
        -11    1    3    3    0    0  0.26157127402E+00  0.31746602823E+01 -0.34268248589E+02  0.34415981012E+02  0.51100000000E-03 0.  1.
        -12    1    3    3    0    0 -0.15979225703E+01 -0.19590811039E+01  0.12924277148E+01  0.28393176487E+01  0.00000000000E+00 0.  1.
</event>
<event>
 7    1  0.2700100E-010  0.4778727E+02  0.7816164E-02  0.1312668E+00
        -11   -1    0    0    0    0  0.00000000000E+00  0.00000000000E+00  0.45593999997E+02  0.45594000000E+02  0.51100000000E-03 0.  1.
         11   -1    0    0    0    0 -0.00000000000E+00 -0.00000000000E+00 -0.45593999997E+02  0.45594000000E+02  0.51100000000E-03 0. -1.
    9900012    2    1    2    0    0 -0.22466250044E+02  0.15270669131E+02 -0.33848154091E+02  0.47787271180E+02  0.20000000618E+02 0.  0.
        -12    1    1    2    0    0  0.22466250044E+02 -0.15270669131E+02  0.33848154091E+02  0.43400728820E+02  0.00000000000E+00 0.  1.
         11    1    3    3    0    0  0.71513513405E-01 -0.74657450318E+00 -0.31755775368E+01  0.32629404874E+01  0.51100000000E-03 0. -1.
        -11    1    3    3    0    0 -0.15303851807E+02  0.68308966300E+00 -0.14514508242E+02  0.21103209268E+02  0.51100000000E-03 0.  1.
        -12    1    3    3    0    0 -0.72339117503E+01  0.15334153971E+02 -0.16158068312E+02  0.23421121425E+02  0.00000000000E+00 0.  1.
</event>
<event>
 7    1  0.2700100E-010  0.4778727E+02  0.7816164E-02  0.1312668E+00
        -11   -1    0    0    0    0  0.00000000000E+00  0.00000000000E+00  0.45593999997E+02  0.45594000000E+02  0.51100000000E-03 0.  1.
         11   -1    0    0    0    0 -0.00000000000E+00 -0.00000000000E+00 -0.45593999997E+02  0.45594000000E+02  0.51100000000E-03 0. -1.
    9900012    2    1    2    0    0  0.11851978584E+02 -0.41749034458E+02  0.41492620720E+00  0.47787269151E+02  0.19999991365E+02 0.  0.
        -12    1    1    2    0    0 -0.11851978584E+02  0.41749034458E+02 -0.41492620720E+00  0.43400730849E+02  0.00000000000E+00 0.  1.
         11    1    3    3    0    0  0.17261062162E+01  0.19925315512E+01 -0.15866799145E+00  0.26409847491E+01  0.51100000000E-03 0.  1.
        -11    1    3    3    0    0  0.99661765123E+01 -0.43795395319E+02  0.41811177861E+00  0.44916991698E+02  0.51100000000E-03 0. -1.
         12    1    3    3    0    0  0.15969585592E+00  0.53829310594E-01  0.15548242004E+00  0.22929270380E+00  0.00000000000E+00 0. -1.
</event>
<event>
 7    1  0.2700100E-010  0.4778727E+02  0.7816164E-02  0.1312668E+00
        -11   -1    0    0    0    0  0.00000000000E+00  0.00000000000E+00  0.45593999997E+02  0.45594000000E+02  0.51100000000E-03 0.  1.
         11   -1    0    0    0    0 -0.00000000000E+00 -0.00000000000E+00 -0.45593999997E+02  0.45594000000E+02  0.51100000000E-03 0. -1.
    9900012    2    1    2    0    0 -0.14236607544E+02  0.39574343009E+02 -0.10715135804E+02  0.47787265510E+02  0.19999974767E+02 0.  0.
        -12    1    1    2    0    0  0.14236607544E+02 -0.39574343009E+02  0.10715135804E+02  0.43400734490E+02  0.00000000000E+00 0.  1.
         11    1    3    3    0    0 -0.78618588675E+01  0.13313154868E+02 -0.33734528976E+01  0.15824951883E+02  0.51100000000E-03 0. -1.
        -11    1    3    3    0    0 -0.32165067794E+01  0.12232082956E+01 -0.57181235686E+01  0.66737614434E+01  0.51100000000E-03 0.  1.
        -12    1    3    3    0    0 -0.31582418975E+01  0.25037979845E+02 -0.16235593374E+01  0.25288552183E+02  0.00000000000E+00 0.  1.
</event>
<event>
 7    1  0.2700100E-010  0.4778727E+02  0.7816164E-02  0.1312668E+00
        -11   -1    0    0    0    0  0.00000000000E+00  0.00000000000E+00  0.45593999997E+02  0.45594000000E+02  0.51100000000E-03 0.  1.
         11   -1    0    0    0    0 -0.00000000000E+00 -0.00000000000E+00 -0.45593999997E+02  0.45594000000E+02  0.51100000000E-03 0. -1.
    9900012    2    1    2    0    0  0.39469149795E+02 -0.16382325025E+02 -0.75781900882E+01  0.47787270470E+02  0.19999997380E+02 0.  0.
        -12    1    1    2    0    0 -0.39469149795E+02  0.16382325025E+02  0.75781900882E+01  0.43400729530E+02  0.00000000000E+00 0.  1.
         11    1    3    3    0    0  0.20613554422E+02 -0.15580103915E+02 -0.21571686365E+01  0.25928972997E+02  0.51100000000E-03 0. -1.
        -11    1    3    3    0    0 -0.11359812118E+01 -0.31073164735E+00 -0.28837604294E+00  0.12125050406E+01  0.51100000000E-03 0.  1.
         12    1    3    3    0    0  0.19991576585E+02 -0.49148946190E+00 -0.51326454088E+01  0.20645792432E+02  0.00000000000E+00 0. -1.
</event>
<event>
 7    1  0.2700100E-010  0.4778727E+02  0.7816164E-02  0.1312668E+00
        -11   -1    0    0    0    0  0.00000000000E+00  0.00000000000E+00  0.45593999997E+02  0.45594000000E+02  0.51100000000E-03 0.  1.
         11   -1    0    0    0    0 -0.00000000000E+00 -0.00000000000E+00 -0.45593999997E+02  0.45594000000E+02  0.51100000000E-03 0. -1.
    9900012    2    1    2    0    0 -0.30692878675E+02  0.94018746918E+01 -0.29209165905E+02  0.47787269339E+02  0.19999992222E+02 0.  0.
        -12    1    1    2    0    0  0.30692878675E+02 -0.94018746918E+01  0.29209165905E+02  0.43400730661E+02  0.00000000000E+00 0.  1.
         11    1    3    3    0    0 -0.20333561440E+02  0.69404975598E+01 -0.29879028501E+02  0.36801909891E+02  0.51100000000E-03 0. -1.
        -11    1    3    3    0    0 -0.59021936460E+01  0.18114820068E+01  0.16179469186E+01  0.63824062381E+01  0.51100000000E-03 0.  1.
         12    1    3    3    0    0 -0.44571235890E+01  0.64989512523E+00 -0.94808432239E+00  0.46029532090E+01  0.00000000000E+00 0. -1.
</event>
<event>
 7    1  0.2700100E-010  0.4778727E+02  0.7816164E-02  0.1312668E+00
        -11   -1    0    0    0    0  0.00000000000E+00  0.00000000000E+00  0.45593999997E+02  0.45594000000E+02  0.51100000000E-03 0.  1.
         11   -1    0    0    0    0 -0.00000000000E+00 -0.00000000000E+00 -0.45593999997E+02  0.45594000000E+02  0.51100000000E-03 0. -1.
    9900012    2    1    2    0    0 -0.17939013310E+02 -0.24006010447E+02 -0.31393095375E+02  0.47787272203E+02  0.20000005281E+02 0.  0.
        -12    1    1    2    0    0  0.17939013310E+02  0.24006010447E+02  0.31393095375E+02  0.43400727797E+02  0.00000000000E+00 0.  1.
         11    1    3    3    0    0 -0.17646774170E+02 -0.22607874728E+02 -0.24463086780E+02  0.37695719298E+02  0.51100000000E-03 0. -1.
        -11    1    3    3    0    0  0.20011723329E+01 -0.19589172005E+00 -0.72117774495E+01  0.74868416915E+01  0.51100000000E-03 0.  1.
         12    1    3    3    0    0 -0.22934114725E+01 -0.12022439995E+01  0.28176885502E+00  0.26047112132E+01  0.00000000000E+00 0. -1.
</event>
<event>
 7    1  0.2700100E-010  0.4778727E+02  0.7816164E-02  0.1312668E+00
        -11   -1    0    0    0    0  0.00000000000E+00  0.00000000000E+00  0.45593999997E+02  0.45594000000E+02  0.51100000000E-03 0.  1.
         11   -1    0    0    0    0 -0.00000000000E+00 -0.00000000000E+00 -0.45593999997E+02  0.45594000000E+02  0.51100000000E-03 0. -1.
    9900012    2    1    2    0    0  0.14913656740E+02 -0.36664392967E+02 -0.17802485847E+02  0.47787269922E+02  0.19999994882E+02 0.  0.
        -12    1    1    2    0    0 -0.14913656740E+02  0.36664392967E+02  0.17802485847E+02  0.43400730078E+02  0.00000000000E+00 0.  1.
         11    1    3    3    0    0  0.11101587023E+02 -0.18464344549E+02 -0.13631182778E+02  0.25494830814E+02  0.51100000000E-03 0. -1.
        -11    1    3    3    0    0 -0.87373432265E+00 -0.16997179864E+02 -0.38125833038E+01  0.17441425593E+02  0.51100000000E-03 0.  1.
        -12    1    3    3    0    0  0.46858040394E+01 -0.12028685543E+01 -0.35871976518E+00  0.48510135152E+01  0.00000000000E+00 0.  1.
</event>
<event>
 7    1  0.2700100E-010  0.4778727E+02  0.7816164E-02  0.1312668E+00
        -11   -1    0    0    0    0  0.00000000000E+00  0.00000000000E+00  0.45593999997E+02  0.45594000000E+02  0.51100000000E-03 0. -1.
         11   -1    0    0    0    0 -0.00000000000E+00 -0.00000000000E+00 -0.45593999997E+02  0.45594000000E+02  0.51100000000E-03 0.  1.
    9900012    2    1    2    0    0 -0.34830686039E+02 -0.15185640911E+02  0.20972428816E+02  0.47787272468E+02  0.20000006491E+02 0.  0.
        -12    1    1    2    0    0  0.34830686039E+02  0.15185640911E+02 -0.20972428816E+02  0.43400727532E+02  0.00000000000E+00 0.  1.
         11    1    3    3    0    0 -0.27773658545E+02 -0.12657977473E+02  0.18958407608E+02  0.35930790723E+02  0.51100000000E-03 0. -1.
        -11    1    3    3    0    0 -0.43737258783E+01  0.86735055258E+00 -0.28920219314E+01  0.53146557887E+01  0.51100000000E-03 0.  1.
         12    1    3    3    0    0 -0.26833016156E+01 -0.33950139900E+01  0.49060431396E+01  0.65418259561E+01  0.00000000000E+00 0. -1.
</event>
<event>
 7    1  0.2700100E-010  0.4778727E+02  0.7816164E-02  0.1312668E+00
        -11   -1    0    0    0    0  0.00000000000E+00  0.00000000000E+00  0.45593999997E+02  0.45594000000E+02  0.51100000000E-03 0.  1.
         11   -1    0    0    0    0 -0.00000000000E+00 -0.00000000000E+00 -0.45593999997E+02  0.45594000000E+02  0.51100000000E-03 0. -1.
    9900012    2    1    2    0    0 -0.88917662571E+01 -0.16880620041E+02 -0.38982103889E+02  0.47787271161E+02  0.20000000532E+02 0.  0.
        -12    1    1    2    0    0  0.88917662571E+01  0.16880620041E+02  0.38982103889E+02  0.43400728839E+02  0.00000000000E+00 0.  1.
         11    1    3    3    0    0  0.22056391972E+01  0.45215451714E+00 -0.14020656993E+02  0.14200285587E+02  0.51100000000E-03 0. -1.
        -11    1    3    3    0    0 -0.12676312211E+02 -0.15940648790E+02 -0.22529497268E+02  0.30370568360E+02  0.51100000000E-03 0.  1.
        -12    1    3    3    0    0  0.15789067569E+01 -0.13921257678E+01 -0.24319496284E+01  0.32164172141E+01  0.00000000000E+00 0.  1.
</event>
<event>
 7    1  0.2700100E-010  0.4778726E+02  0.7816164E-02  0.1312668E+00
        -11   -1    0    0    0    0  0.00000000000E+00  0.00000000000E+00  0.45593999997E+02  0.45594000000E+02  0.51100000000E-03 0. -1.
         11   -1    0    0    0    0 -0.00000000000E+00 -0.00000000000E+00 -0.45593999997E+02  0.45594000000E+02  0.51100000000E-03 0.  1.
    9900012    2    1    2    0    0  0.36081331055E+02 -0.24064123858E+02 -0.16368890477E+01  0.47787263675E+02  0.19999966402E+02 0.  0.
        -12    1    1    2    0    0 -0.36081331055E+02  0.24064123858E+02  0.16368890477E+01  0.43400736325E+02  0.00000000000E+00 0.  1.
         11    1    3    3    0    0  0.70969363917E+01  0.14070672101E+00 -0.22787533201E+01  0.74551339011E+01  0.51100000000E-03 0. -1.
        -11    1    3    3    0    0  0.14882052146E+02 -0.20961613154E+02 -0.12547688029E+01  0.25737893215E+02  0.51100000000E-03 0.  1.
         12    1    3    3    0    0  0.14102342517E+02 -0.32432174244E+01  0.18966330752E+01  0.14594236560E+02  0.00000000000E+00 0. -1.
</event>
<event>
 7    1  0.2700100E-010  0.4778727E+02  0.7816164E-02  0.1312668E+00
        -11   -1    0    0    0    0  0.00000000000E+00  0.00000000000E+00  0.45593999997E+02  0.45594000000E+02  0.51100000000E-03 0. -1.
         11   -1    0    0    0    0 -0.00000000000E+00 -0.00000000000E+00 -0.45593999997E+02  0.45594000000E+02  0.51100000000E-03 0.  1.
    9900012    2    1    2    0    0 -0.22087710722E+02  0.13862795382E+02  0.34692637781E+02  0.47787272161E+02  0.20000005093E+02 0.  0.
        -12    1    1    2    0    0  0.22087710722E+02 -0.13862795382E+02 -0.34692637781E+02  0.43400727839E+02  0.00000000000E+00 0.  1.
         11    1    3    3    0    0 -0.81982270011E+01  0.20021142848E+01  0.16685041125E+02  0.18697860444E+02  0.51100000000E-03 0. -1.
        -11    1    3    3    0    0 -0.15321710663E+02  0.85779001009E+01  0.97412779259E+01  0.20080529965E+02  0.51100000000E-03 0.  1.
        -12    1    3    3    0    0  0.14322269427E+01  0.32827809962E+01  0.82663187299E+01  0.90088817524E+01  0.00000000000E+00 0.  1.
</event>
<event>
 7    1  0.2700100E-010  0.4778728E+02  0.7816164E-02  0.1312668E+00
        -11   -1    0    0    0    0  0.00000000000E+00  0.00000000000E+00  0.45593999997E+02  0.45594000000E+02  0.51100000000E-03 0.  1.
         11   -1    0    0    0    0 -0.00000000000E+00 -0.00000000000E+00 -0.45593999997E+02  0.45594000000E+02  0.51100000000E-03 0. -1.
    9900012    2    1    2    0    0 -0.24502850334E+02 -0.34935157877E+02 -0.79225876509E+01  0.47787281970E+02  0.20000049815E+02 0.  0.
        -12    1    1    2    0    0  0.24502850334E+02  0.34935157877E+02  0.79225876509E+01  0.43400718030E+02  0.00000000000E+00 0.  1.
         11    1    3    3    0    0 -0.46135478347E+01  0.17016428826E+01 -0.86157236427E+00  0.49922659508E+01  0.51100000000E-03 0. -1.
        -11    1    3    3    0    0 -0.17331632513E+02 -0.29388873663E+02 -0.80221126625E+01  0.35049189328E+02  0.51100000000E-03 0.  1.
        -12    1    3    3    0    0 -0.25576699868E+01 -0.72479270969E+01  0.96109737581E+00  0.77458266911E+01  0.00000000000E+00 0.  1.
</event>
<event>
 7    1  0.2700100E-010  0.4778727E+02  0.7816164E-02  0.1312668E+00
        -11   -1    0    0    0    0  0.00000000000E+00  0.00000000000E+00  0.45593999997E+02  0.45594000000E+02  0.51100000000E-03 0.  1.
         11   -1    0    0    0    0 -0.00000000000E+00 -0.00000000000E+00 -0.45593999997E+02  0.45594000000E+02  0.51100000000E-03 0. -1.
    9900012    2    1    2    0    0 -0.16175407710E+02  0.15165836044E+02 -0.37309209084E+02  0.47787268670E+02  0.19999989176E+02 0.  0.
        -12    1    1    2    0    0  0.16175407710E+02 -0.15165836044E+02  0.37309209084E+02  0.43400731330E+02  0.00000000000E+00 0.  1.
         11    1    3    3    0    0 -0.22035887588E+01 -0.27407948641E+01 -0.11975229126E+02  0.12480940380E+02  0.51100000000E-03 0. -1.
        -11    1    3    3    0    0 -0.14354317108E+02  0.12135494909E+02 -0.18925953295E+02  0.26674114131E+02  0.51100000000E-03 0.  1.
         12    1    3    3    0    0  0.38249815690E+00  0.57711359995E+01 -0.64080266631E+01  0.86322141586E+01  0.00000000000E+00 0. -1.
</event>
<event>
 7    1  0.2700100E-010  0.4778727E+02  0.7816164E-02  0.1312668E+00
        -11   -1    0    0    0    0  0.00000000000E+00  0.00000000000E+00  0.45593999997E+02  0.45594000000E+02  0.51100000000E-03 0.  1.
         11   -1    0    0    0    0 -0.00000000000E+00 -0.00000000000E+00 -0.45593999997E+02  0.45594000000E+02  0.51100000000E-03 0. -1.
    9900012    2    1    2    0    0 -0.51176437122E+01  0.39762207258E+02 -0.16625277085E+02  0.47787271419E+02  0.20000001708E+02 0.  0.
        -12    1    1    2    0    0  0.51176437122E+01 -0.39762207258E+02  0.16625277085E+02  0.43400728581E+02  0.00000000000E+00 0.  1.
         11    1    3    3    0    0 -0.24138675068E+01 -0.94961402027E+00 -0.29072445733E+01  0.38962282271E+01  0.51100000000E-03 0. -1.
        -11    1    3    3    0    0 -0.95728219252E+00  0.34559502553E+02 -0.84128062358E+01  0.35581609223E+02  0.51100000000E-03 0.  1.
        -12    1    3    3    0    0 -0.17464940130E+01  0.61523187255E+01 -0.53052262760E+01  0.83094339685E+01  0.00000000000E+00 0.  1.
</event>
<event>
 7    1  0.2700100E-010  0.4778727E+02  0.7816164E-02  0.1312668E+00
        -11   -1    0    0    0    0  0.00000000000E+00  0.00000000000E+00  0.45593999997E+02  0.45594000000E+02  0.51100000000E-03 0.  1.
         11   -1    0    0    0    0 -0.00000000000E+00 -0.00000000000E+00 -0.45593999997E+02  0.45594000000E+02  0.51100000000E-03 0. -1.
    9900012    2    1    2    0    0 -0.21761901216E+02 -0.34988586574E+02 -0.13632375740E+02  0.47787271857E+02  0.20000003707E+02 0.  0.
        -12    1    1    2    0    0  0.21761901216E+02  0.34988586574E+02  0.13632375740E+02  0.43400728143E+02  0.00000000000E+00 0.  1.
         11    1    3    3    0    0 -0.91044005205E+01 -0.32795053137E+01 -0.23279677775E+01  0.99531250457E+01  0.51100000000E-03 0. -1.
        -11    1    3    3    0    0 -0.11500673605E+02 -0.23572860208E+02 -0.34292313874E+01  0.26451934899E+02  0.51100000000E-03 0.  1.
        -12    1    3    3    0    0 -0.11568270905E+01 -0.81362210529E+01 -0.78751765748E+01  0.11382211913E+02  0.00000000000E+00 0.  1.
</event>
<event>
 7    1  0.2700100E-010  0.4778727E+02  0.7816164E-02  0.1312668E+00
        -11   -1    0    0    0    0  0.00000000000E+00  0.00000000000E+00  0.45593999997E+02  0.45594000000E+02  0.51100000000E-03 0. -1.
         11   -1    0    0    0    0 -0.00000000000E+00 -0.00000000000E+00 -0.45593999997E+02  0.45594000000E+02  0.51100000000E-03 0.  1.
    9900012    2    1    2    0    0 -0.34050872764E+02 -0.65220476663E+01  0.26107937261E+02  0.47787269248E+02  0.19999991810E+02 0.  0.
        -12    1    1    2    0    0  0.34050872764E+02  0.65220476663E+01 -0.26107937261E+02  0.43400730752E+02  0.00000000000E+00 0.  1.
         11    1    3    3    0    0 -0.50596783884E+01 -0.20058728946E+01  0.43529901087E+01  0.69693898306E+01  0.51100000000E-03 0. -1.
        -11    1    3    3    0    0 -0.12456164104E+02 -0.46292322669E+01 -0.25213712373E+00  0.13290951394E+02  0.51100000000E-03 0.  1.
        -12    1    3    3    0    0 -0.16535030272E+02  0.11305749521E+00  0.22007084276E+02  0.27526928023E+02  0.00000000000E+00 0.  1.
</event>
<event>
 7    1  0.2700100E-010  0.4778728E+02  0.7816164E-02  0.1312668E+00
        -11   -1    0    0    0    0  0.00000000000E+00  0.00000000000E+00  0.45593999997E+02  0.45594000000E+02  0.51100000000E-03 0. -1.
         11   -1    0    0    0    0 -0.00000000000E+00 -0.00000000000E+00 -0.45593999997E+02  0.45594000000E+02  0.51100000000E-03 0.  1.
    9900012    2    1    2    0    0 -0.26821672474E+02  0.28051112067E+02  0.19425649296E+02  0.47787275893E+02  0.20000022105E+02 0.  0.
        -12    1    1    2    0    0  0.26821672474E+02 -0.28051112067E+02 -0.19425649296E+02  0.43400724107E+02  0.00000000000E+00 0.  1.
         11    1    3    3    0    0 -0.12027072019E+02  0.69823539257E+01  0.74698150850E+01  0.15786128891E+02  0.51100000000E-03 0. -1.
        -11    1    3    3    0    0  0.26424673955E+01  0.21784819667E+01 -0.45416204245E+00  0.34546607702E+01  0.51100000000E-03 0.  1.
        -12    1    3    3    0    0 -0.17437067850E+02  0.18890276175E+02  0.12409996253E+02  0.28546486232E+02  0.00000000000E+00 0.  1.
</event>
<event>
 7    1  0.2700100E-010  0.4778725E+02  0.7816164E-02  0.1312668E+00
        -11   -1    0    0    0    0  0.00000000000E+00  0.00000000000E+00  0.45593999997E+02  0.45594000000E+02  0.51100000000E-03 0.  1.
         11   -1    0    0    0    0 -0.00000000000E+00 -0.00000000000E+00 -0.45593999997E+02  0.45594000000E+02  0.51100000000E-03 0. -1.
    9900012    2    1    2    0    0 -0.22729374407E+02 -0.12057774524E+02 -0.34951543610E+02  0.47787253599E+02  0.19999920461E+02 0.  0.
        -12    1    1    2    0    0  0.22729374407E+02  0.12057774524E+02  0.34951543610E+02  0.43400746401E+02  0.00000000000E+00 0.  1.
         11    1    3    3    0    0 -0.86161434645E+01  0.10455717231E+01 -0.19383411865E+02  0.21237886058E+02  0.51100000000E-03 0. -1.
        -11    1    3    3    0    0 -0.12821861783E+02 -0.59537081432E+01 -0.90246541337E+01  0.16771737022E+02  0.51100000000E-03 0.  1.
         12    1    3    3    0    0 -0.12913691592E+01 -0.71496381038E+01 -0.65434776122E+01  0.97776305198E+01  0.00000000000E+00 0. -1.
</event>
<event>
 7    1  0.2700100E-010  0.4778728E+02  0.7816164E-02  0.1312668E+00
        -11   -1    0    0    0    0  0.00000000000E+00  0.00000000000E+00  0.45593999997E+02  0.45594000000E+02  0.51100000000E-03 0. -1.
         11   -1    0    0    0    0 -0.00000000000E+00 -0.00000000000E+00 -0.45593999997E+02  0.45594000000E+02  0.51100000000E-03 0.  1.
    9900012    2    1    2    0    0 -0.40179726354E+02  0.16133783827E+02  0.29855481761E+01  0.47787275485E+02  0.20000020247E+02 0.  0.
        -12    1    1    2    0    0  0.40179726354E+02 -0.16133783827E+02 -0.29855481761E+01  0.43400724515E+02  0.00000000000E+00 0.  1.
         11    1    3    3    0    0 -0.28684979214E+02  0.28657641962E+01  0.18001540035E+01  0.28883926181E+02  0.51100000000E-03 0. -1.
        -11    1    3    3    0    0 -0.50925228632E+01  0.85075255857E+01  0.36304038147E+01  0.10558958889E+02  0.51100000000E-03 0.  1.
         12    1    3    3    0    0 -0.64022242775E+01  0.47604940453E+01 -0.24450096420E+01  0.83443904154E+01  0.00000000000E+00 0. -1.
</event>
<event>
 7    1  0.2700100E-010  0.4778727E+02  0.7816164E-02  0.1312668E+00
        -11   -1    0    0    0    0  0.00000000000E+00  0.00000000000E+00  0.45593999997E+02  0.45594000000E+02  0.51100000000E-03 0. -1.
         11   -1    0    0    0    0 -0.00000000000E+00 -0.00000000000E+00 -0.45593999997E+02  0.45594000000E+02  0.51100000000E-03 0.  1.
    9900012    2    1    2    0    0 -0.21205281194E+02 -0.16265072234E+02  0.34196589537E+02  0.47787271190E+02  0.20000000662E+02 0.  0.
        -12    1    1    2    0    0  0.21205281194E+02  0.16265072234E+02 -0.34196589537E+02  0.43400728810E+02  0.00000000000E+00 0.  1.
         11    1    3    3    0    0 -0.19882419165E+02 -0.12518376599E+02  0.32971459503E+02  0.40486262936E+02  0.51100000000E-03 0. -1.
        -11    1    3    3    0    0 -0.19543838376E+01 -0.48352446235E+01 -0.41720288455E+00  0.52319466035E+01  0.51100000000E-03 0.  1.
         12    1    3    3    0    0  0.63152180789E+00  0.10885489889E+01  0.16423329189E+01  0.20690616500E+01  0.00000000000E+00 0. -1.
</event>
<event>
 7    1  0.2700100E-010  0.4778727E+02  0.7816164E-02  0.1312668E+00
        -11   -1    0    0    0    0  0.00000000000E+00  0.00000000000E+00  0.45593999997E+02  0.45594000000E+02  0.51100000000E-03 0.  1.
         11   -1    0    0    0    0 -0.00000000000E+00 -0.00000000000E+00 -0.45593999997E+02  0.45594000000E+02  0.51100000000E-03 0. -1.
    9900012    2    1    2    0    0  0.56212601907E+01 -0.35754340320E+02 -0.23951034221E+02  0.47787268922E+02  0.19999990324E+02 0.  0.
        -12    1    1    2    0    0 -0.56212601907E+01  0.35754340320E+02  0.23951034221E+02  0.43400731078E+02  0.00000000000E+00 0.  1.
         11    1    3    3    0    0  0.17814838879E+01 -0.25783087688E+02 -0.17122056134E+02  0.31001711277E+02  0.51100000000E-03 0. -1.
        -11    1    3    3    0    0 -0.29846833175E+01 -0.28407107021E+01  0.93811401759E+00  0.42258762369E+01  0.51100000000E-03 0.  1.
         12    1    3    3    0    0  0.68244596202E+01 -0.71305419294E+01 -0.77670921050E+01  0.12559681408E+02  0.00000000000E+00 0. -1.
</event>
<event>
 7    1  0.2700100E-010  0.4778727E+02  0.7816164E-02  0.1312668E+00
        -11   -1    0    0    0    0  0.00000000000E+00  0.00000000000E+00  0.45593999997E+02  0.45594000000E+02  0.51100000000E-03 0. -1.
         11   -1    0    0    0    0 -0.00000000000E+00 -0.00000000000E+00 -0.45593999997E+02  0.45594000000E+02  0.51100000000E-03 0.  1.
    9900012    2    1    2    0    0  0.58585426893E+01 -0.35768489398E+02  0.23872916050E+02  0.47787268704E+02  0.19999989330E+02 0.  0.
        -12    1    1    2    0    0 -0.58585426893E+01  0.35768489398E+02 -0.23872916050E+02  0.43400731296E+02  0.00000000000E+00 0.  1.
         11    1    3    3    0    0 -0.32332911811E+01 -0.88012026359E+01  0.41038748838E+01  0.10235093015E+02  0.51100000000E-03 0. -1.
        -11    1    3    3    0    0  0.11269222595E+02 -0.13345658616E+02  0.72093859948E+01  0.18896487199E+02  0.51100000000E-03 0.  1.
        -12    1    3    3    0    0 -0.21773887243E+01 -0.13621628146E+02  0.12559655172E+02  0.18655688490E+02  0.00000000000E+00 0.  1.
</event>
<event>
 7    1  0.2700100E-010  0.4778727E+02  0.7816164E-02  0.1312668E+00
        -11   -1    0    0    0    0  0.00000000000E+00  0.00000000000E+00  0.45593999997E+02  0.45594000000E+02  0.51100000000E-03 0.  1.
         11   -1    0    0    0    0 -0.00000000000E+00 -0.00000000000E+00 -0.45593999997E+02  0.45594000000E+02  0.51100000000E-03 0. -1.
    9900012    2    1    2    0    0 -0.14344455865E+02  0.28041533019E+02 -0.29858545362E+02  0.47787265914E+02  0.19999976606E+02 0.  0.
        -12    1    1    2    0    0  0.14344455865E+02 -0.28041533019E+02  0.29858545362E+02  0.43400734086E+02  0.00000000000E+00 0.  1.
         11    1    3    3    0    0 -0.12295275060E+02  0.23821893868E+02 -0.13854639726E+02  0.30176273105E+02  0.51100000000E-03 0. -1.
        -11    1    3    3    0    0 -0.17465954430E+01  0.54772518118E+01 -0.14654143596E+02  0.15741499543E+02  0.51100000000E-03 0.  1.
         12    1    3    3    0    0 -0.30258536217E+00 -0.12576126617E+01 -0.13497620400E+01  0.18694932663E+01  0.00000000000E+00 0. -1.
</event>
<event>
 7    1  0.2700100E-010  0.4778727E+02  0.7816164E-02  0.1312668E+00
        -11   -1    0    0    0    0  0.00000000000E+00  0.00000000000E+00  0.45593999997E+02  0.45594000000E+02  0.51100000000E-03 0.  1.
         11   -1    0    0    0    0 -0.00000000000E+00 -0.00000000000E+00 -0.45593999997E+02  0.45594000000E+02  0.51100000000E-03 0. -1.
    9900012    2    1    2    0    0 -0.21903635074E+01 -0.24951635547E+02 -0.35443496182E+02  0.47787271546E+02  0.20000002285E+02 0.  0.
        -12    1    1    2    0    0  0.21903635074E+01  0.24951635547E+02  0.35443496182E+02  0.43400728454E+02  0.00000000000E+00 0.  1.
         11    1    3    3    0    0  0.17464231054E+01 -0.21210626947E+02 -0.16264354680E+02  0.26785629031E+02  0.51100000000E-03 0.  1.
        -11    1    3    3    0    0 -0.29094558829E+01  0.98537223001E+00 -0.11686541432E+02  0.12083507060E+02  0.51100000000E-03 0. -1.
         12    1    3    3    0    0 -0.10273307300E+01 -0.47263808296E+01 -0.74926000702E+01  0.89181354546E+01  0.00000000000E+00 0. -1.
</event>
<event>
 7    1  0.2700100E-010  0.4778728E+02  0.7816164E-02  0.1312668E+00
        -11   -1    0    0    0    0  0.00000000000E+00  0.00000000000E+00  0.45593999997E+02  0.45594000000E+02  0.51100000000E-03 0. -1.
         11   -1    0    0    0    0 -0.00000000000E+00 -0.00000000000E+00 -0.45593999997E+02  0.45594000000E+02  0.51100000000E-03 0.  1.
    9900012    2    1    2    0    0 -0.41606341271E+02 -0.10688038289E+02 -0.61887239248E+01  0.47787284565E+02  0.20000061645E+02 0.  0.
        -12    1    1    2    0    0  0.41606341271E+02  0.10688038289E+02  0.61887239248E+01  0.43400715435E+02  0.00000000000E+00 0.  1.
         11    1    3    3    0    0 -0.19648053907E+02 -0.13079941439E+02  0.42324992161E+00  0.23607414749E+02  0.51100000000E-03 0. -1.
        -11    1    3    3    0    0 -0.48041986750E+01  0.24863632515E+01 -0.42173708996E+01  0.68591941723E+01  0.51100000000E-03 0.  1.
         12    1    3    3    0    0 -0.17154088690E+02 -0.94460101171E-01 -0.23946029468E+01  0.17320675644E+02  0.00000000000E+00 0. -1.
</event>
<event>
 7    1  0.2700100E-010  0.4778727E+02  0.7816164E-02  0.1312668E+00
        -11   -1    0    0    0    0  0.00000000000E+00  0.00000000000E+00  0.45593999997E+02  0.45594000000E+02  0.51100000000E-03 0.  1.
         11   -1    0    0    0    0 -0.00000000000E+00 -0.00000000000E+00 -0.45593999997E+02  0.45594000000E+02  0.51100000000E-03 0. -1.
    9900012    2    1    2    0    0 -0.22330740030E+02  0.25282424643E+02 -0.27308611910E+02  0.47787271544E+02  0.20000002275E+02 0.  0.
        -12    1    1    2    0    0  0.22330740030E+02 -0.25282424643E+02  0.27308611910E+02  0.43400728456E+02  0.00000000000E+00 0.  1.
         11    1    3    3    0    0 -0.99395709044E+01  0.62229895694E+01 -0.53693313563E+01  0.12897689267E+02  0.51100000000E-03 0. -1.
        -11    1    3    3    0    0  0.22345660081E+01 -0.84950601390E+00 -0.14616958998E+01  0.28020529754E+01  0.51100000000E-03 0.  1.
        -12    1    3    3    0    0 -0.14625735133E+02  0.19908941087E+02 -0.20477584654E+02  0.32087529301E+02  0.00000000000E+00 0.  1.
</event>
<event>
 7    1  0.2700100E-010  0.4778727E+02  0.7816164E-02  0.1312668E+00
        -11   -1    0    0    0    0  0.00000000000E+00  0.00000000000E+00  0.45593999997E+02  0.45594000000E+02  0.51100000000E-03 0. -1.
         11   -1    0    0    0    0 -0.00000000000E+00 -0.00000000000E+00 -0.45593999997E+02  0.45594000000E+02  0.51100000000E-03 0.  1.
    9900012    2    1    2    0    0  0.38816479996E+02  0.18999472608E+02 -0.39905102357E+01  0.47787271313E+02  0.20000001223E+02 0.  0.
        -12    1    1    2    0    0 -0.38816479996E+02 -0.18999472608E+02  0.39905102357E+01  0.43400728687E+02  0.00000000000E+00 0.  1.
         11    1    3    3    0    0  0.23923005941E+02  0.60118776037E+01  0.30455765529E+01  0.24854142962E+02  0.51100000000E-03 0. -1.
        -11    1    3    3    0    0  0.32845851136E+01  0.69486332591E+01 -0.61030101629E+01  0.98142109641E+01  0.51100000000E-03 0.  1.
        -12    1    3    3    0    0  0.11608888941E+02  0.60389617449E+01 -0.93307662567E+00  0.13118917387E+02  0.00000000000E+00 0.  1.
</event>
<event>
 7    1  0.2700100E-010  0.4778727E+02  0.7816164E-02  0.1312668E+00
        -11   -1    0    0    0    0  0.00000000000E+00  0.00000000000E+00  0.45593999997E+02  0.45594000000E+02  0.51100000000E-03 0. -1.
         11   -1    0    0    0    0 -0.00000000000E+00 -0.00000000000E+00 -0.45593999997E+02  0.45594000000E+02  0.51100000000E-03 0.  1.
    9900012    2    1    2    0    0 -0.22705335058E+01  0.42628009753E+02  0.78307786111E+01  0.47787266923E+02  0.19999981210E+02 0.  0.
        -12    1    1    2    0    0  0.22705335058E+01 -0.42628009753E+02 -0.78307786111E+01  0.43400733077E+02  0.00000000000E+00 0.  1.
         11    1    3    3    0    0  0.53993917819E+01  0.73751391934E+01 -0.23704970682E+01  0.94427414636E+01  0.51100000000E-03 0.  1.
        -11    1    3    3    0    0 -0.85421530412E+01  0.26759229905E+02  0.55893826394E+01  0.28640285652E+02  0.51100000000E-03 0. -1.
         12    1    3    3    0    0  0.87222775348E+00  0.84936406548E+01  0.46118930399E+01  0.97042398073E+01  0.00000000000E+00 0. -1.
</event>
<event>
 7    1  0.2700100E-010  0.4778727E+02  0.7816164E-02  0.1312668E+00
        -11   -1    0    0    0    0  0.00000000000E+00  0.00000000000E+00  0.45593999997E+02  0.45594000000E+02  0.51100000000E-03 0. -1.
         11   -1    0    0    0    0 -0.00000000000E+00 -0.00000000000E+00 -0.45593999997E+02  0.45594000000E+02  0.51100000000E-03 0.  1.
    9900012    2    1    2    0    0 -0.22921798907E+02 -0.35834363342E+02 -0.86088962642E+01  0.47787267792E+02  0.19999985171E+02 0.  0.
        -12    1    1    2    0    0  0.22921798907E+02  0.35834363342E+02  0.86088962642E+01  0.43400732208E+02  0.00000000000E+00 0.  1.
         11    1    3    3    0    0 -0.14128042318E+02 -0.31647852043E+02 -0.11963025312E+02  0.36664725467E+02  0.51100000000E-03 0. -1.
        -11    1    3    3    0    0 -0.84398720395E+01 -0.48556524149E+01  0.26558226957E+01  0.10092680262E+02  0.51100000000E-03 0.  1.
         12    1    3    3    0    0 -0.35388454989E+00  0.66914111586E+00  0.69830635229E+00  0.10298620632E+01  0.00000000000E+00 0. -1.
</event>
<event>
 7    1  0.2700100E-010  0.4778727E+02  0.7816164E-02  0.1312668E+00
        -11   -1    0    0    0    0  0.00000000000E+00  0.00000000000E+00  0.45593999997E+02  0.45594000000E+02  0.51100000000E-03 0.  1.
         11   -1    0    0    0    0 -0.00000000000E+00 -0.00000000000E+00 -0.45593999997E+02  0.45594000000E+02  0.51100000000E-03 0. -1.
    9900012    2    1    2    0    0 -0.16425900396E+02  0.37055323307E+01 -0.40001025439E+02  0.47787271783E+02  0.20000003365E+02 0.  0.
        -12    1    1    2    0    0  0.16425900396E+02 -0.37055323307E+01  0.40001025439E+02  0.43400728217E+02  0.00000000000E+00 0.  1.
         11    1    3    3    0    0 -0.55157844549E+01 -0.59528113392E+01 -0.21106024497E+02  0.22612476895E+02  0.51100000000E-03 0. -1.
        -11    1    3    3    0    0 -0.95279631682E+01  0.42184446664E+01 -0.15293615980E+02  0.18506000312E+02  0.51100000000E-03 0.  1.
         12    1    3    3    0    0 -0.13821527726E+01  0.54398990034E+01 -0.36013849622E+01  0.66687945762E+01  0.00000000000E+00 0. -1.
</event>
<event>
 7    1  0.2700100E-010  0.4778727E+02  0.7816164E-02  0.1312668E+00
        -11   -1    0    0    0    0  0.00000000000E+00  0.00000000000E+00  0.45593999997E+02  0.45594000000E+02  0.51100000000E-03 0.  1.
         11   -1    0    0    0    0 -0.00000000000E+00 -0.00000000000E+00 -0.45593999997E+02  0.45594000000E+02  0.51100000000E-03 0. -1.
    9900012    2    1    2    0    0  0.23295297507E+02  0.33456366128E+02 -0.14887041119E+02  0.47787270585E+02  0.19999997906E+02 0.  0.
        -12    1    1    2    0    0 -0.23295297507E+02 -0.33456366128E+02  0.14887041119E+02  0.43400729415E+02  0.00000000000E+00 0.  1.
         11    1    3    3    0    0  0.20179733845E+02  0.17118258367E+02 -0.52852848355E+01  0.26985008127E+02  0.51100000000E-03 0. -1.
        -11    1    3    3    0    0 -0.44454623950E-01  0.13014424385E+02 -0.41113853434E+01  0.13648469072E+02  0.51100000000E-03 0.  1.
        -12    1    3    3    0    0  0.31600182861E+01  0.33236833759E+01 -0.54903709403E+01  0.71537933863E+01  0.00000000000E+00 0.  1.
</event>
<event>
 7    1  0.2700100E-010  0.4778727E+02  0.7816164E-02  0.1312668E+00
        -11   -1    0    0    0    0  0.00000000000E+00  0.00000000000E+00  0.45593999997E+02  0.45594000000E+02  0.51100000000E-03 0.  1.
         11   -1    0    0    0    0 -0.00000000000E+00 -0.00000000000E+00 -0.45593999997E+02  0.45594000000E+02  0.51100000000E-03 0. -1.
    9900012    2    1    2    0    0 -0.14279168133E+02 -0.14162769264E+02 -0.38459650298E+02  0.47787269858E+02  0.19999994591E+02 0.  0.
        -12    1    1    2    0    0  0.14279168133E+02  0.14162769264E+02  0.38459650298E+02  0.43400730142E+02  0.00000000000E+00 0.  1.
         11    1    3    3    0    0 -0.47771679060E+00 -0.14951396348E+01 -0.73933084031E+01  0.75580860848E+01  0.51100000000E-03 0. -1.
        -11    1    3    3    0    0 -0.38389528388E+01 -0.14854937672E+02 -0.19362159233E+02  0.24704249484E+02  0.51100000000E-03 0.  1.
        -12    1    3    3    0    0 -0.99624985041E+01  0.21873080421E+01 -0.11704182662E+02  0.15524934290E+02  0.00000000000E+00 0.  1.
</event>
<event>
 7    1  0.2700100E-010  0.4778729E+02  0.7816164E-02  0.1312668E+00
        -11   -1    0    0    0    0  0.00000000000E+00  0.00000000000E+00  0.45593999997E+02  0.45594000000E+02  0.51100000000E-03 0.  1.
         11   -1    0    0    0    0 -0.00000000000E+00 -0.00000000000E+00 -0.45593999997E+02  0.45594000000E+02  0.51100000000E-03 0. -1.
    9900012    2    1    2    0    0  0.27837055389E+02 -0.98852904517E+01 -0.31796244939E+02  0.47787287883E+02  0.20000076773E+02 0.  0.
        -12    1    1    2    0    0 -0.27837055389E+02  0.98852904517E+01  0.31796244939E+02  0.43400712117E+02  0.00000000000E+00 0.  1.
         11    1    3    3    0    0  0.71013961151E+01  0.15905123598E+01 -0.17173868646E+01  0.74772303866E+01  0.51100000000E-03 0. -1.
        -11    1    3    3    0    0  0.18746150120E+02 -0.13169330536E+02 -0.29932109129E+02  0.37693243005E+02  0.51100000000E-03 0.  1.
        -12    1    3    3    0    0  0.19895091537E+01  0.16935277245E+01 -0.14674894547E+00  0.26168144908E+01  0.00000000000E+00 0.  1.
</event>
<event>
 7    1  0.2700100E-010  0.4778727E+02  0.7816164E-02  0.1312668E+00
        -11   -1    0    0    0    0  0.00000000000E+00  0.00000000000E+00  0.45593999997E+02  0.45594000000E+02  0.51100000000E-03 0.  1.
         11   -1    0    0    0    0 -0.00000000000E+00 -0.00000000000E+00 -0.45593999997E+02  0.45594000000E+02  0.51100000000E-03 0. -1.
    9900012    2    1    2    0    0 -0.19421506774E+02 -0.36279230378E+02  0.13792975551E+02  0.47787266634E+02  0.19999979889E+02 0.  0.
        -12    1    1    2    0    0  0.19421506774E+02  0.36279230378E+02 -0.13792975551E+02  0.43400733366E+02  0.00000000000E+00 0.  1.
         11    1    3    3    0    0 -0.15576134338E+02 -0.37856473941E+02  0.12360664307E+02  0.42761134252E+02  0.51100000000E-03 0. -1.
        -11    1    3    3    0    0 -0.19665160947E+01  0.13646600944E+01 -0.36031300765E+00  0.24206008445E+01  0.51100000000E-03 0.  1.
         12    1    3    3    0    0 -0.18788563422E+01  0.21258346848E+00  0.17926242514E+01  0.26055315374E+01  0.00000000000E+00 0. -1.
</event>
<event>
 7    1  0.2700100E-010  0.4778728E+02  0.7816164E-02  0.1312668E+00
        -11   -1    0    0    0    0  0.00000000000E+00  0.00000000000E+00  0.45593999997E+02  0.45594000000E+02  0.51100000000E-03 0.  1.
         11   -1    0    0    0    0 -0.00000000000E+00 -0.00000000000E+00 -0.45593999997E+02  0.45594000000E+02  0.51100000000E-03 0. -1.
    9900012    2    1    2    0    0  0.24118522971E+02 -0.13349419841E+02 -0.33521824851E+02  0.47787275331E+02  0.20000019546E+02 0.  0.
        -12    1    1    2    0    0 -0.24118522971E+02  0.13349419841E+02  0.33521824851E+02  0.43400724669E+02  0.00000000000E+00 0.  1.
         11    1    3    3    0    0  0.18789746965E+02 -0.42537614581E+01 -0.95050841298E+01  0.21482451027E+02  0.51100000000E-03 0. -1.
        -11    1    3    3    0    0  0.31578900136E+01 -0.67877160183E+01 -0.15380772850E+02  0.17105950187E+02  0.51100000000E-03 0.  1.
         12    1    3    3    0    0  0.21708859929E+01 -0.23079423650E+01 -0.86359678717E+01  0.91988741179E+01  0.00000000000E+00 0. -1.
</event>
<event>
 7    1  0.2700100E-010  0.4778726E+02  0.7816164E-02  0.1312668E+00
        -11   -1    0    0    0    0  0.00000000000E+00  0.00000000000E+00  0.45593999997E+02  0.45594000000E+02  0.51100000000E-03 0.  1.
         11   -1    0    0    0    0 -0.00000000000E+00 -0.00000000000E+00 -0.45593999997E+02  0.45594000000E+02  0.51100000000E-03 0. -1.
    9900012    2    1    2    0    0 -0.22122689253E+02 -0.20788653181E+02 -0.31016808402E+02  0.47787264012E+02  0.19999967934E+02 0.  0.
        -12    1    1    2    0    0  0.22122689253E+02  0.20788653181E+02  0.31016808402E+02  0.43400735988E+02  0.00000000000E+00 0.  1.
         11    1    3    3    0    0 -0.61781548826E+01 -0.15841347876E+02 -0.94542092437E+01  0.19455075764E+02  0.51100000000E-03 0. -1.
        -11    1    3    3    0    0 -0.12239264205E+02 -0.48084534998E+01 -0.11021328239E+02  0.17157811333E+02  0.51100000000E-03 0.  1.
         12    1    3    3    0    0 -0.37052701659E+01 -0.13885180515E+00 -0.10541270920E+02  0.11174376915E+02  0.00000000000E+00 0. -1.
</event>
<event>
 7    1  0.2700100E-010  0.4778727E+02  0.7816164E-02  0.1312668E+00
        -11   -1    0    0    0    0  0.00000000000E+00  0.00000000000E+00  0.45593999997E+02  0.45594000000E+02  0.51100000000E-03 0.  1.
         11   -1    0    0    0    0 -0.00000000000E+00 -0.00000000000E+00 -0.45593999997E+02  0.45594000000E+02  0.51100000000E-03 0. -1.
    9900012    2    1    2    0    0  0.35432173907E+02 -0.15953394616E+02 -0.19330649911E+02  0.47787265288E+02  0.19999973756E+02 0.  0.
        -12    1    1    2    0    0 -0.35432173907E+02  0.15953394616E+02  0.19330649911E+02  0.43400734712E+02  0.00000000000E+00 0.  1.
         11    1    3    3    0    0  0.84622892108E+01 -0.64947133139E+01 -0.14761268013E+02  0.18212267111E+02  0.51100000000E-03 0. -1.
        -11    1    3    3    0    0  0.19335192152E+02 -0.65160438231E+01 -0.60025767775E+01  0.21268272401E+02  0.51100000000E-03 0.  1.
         12    1    3    3    0    0  0.76346925436E+01 -0.29426374787E+01  0.14331948793E+01  0.83067257767E+01  0.00000000000E+00 0. -1.
</event>
<event>
 7    1  0.2700100E-010  0.4778727E+02  0.7816164E-02  0.1312668E+00
        -11   -1    0    0    0    0  0.00000000000E+00  0.00000000000E+00  0.45593999997E+02  0.45594000000E+02  0.51100000000E-03 0.  1.
         11   -1    0    0    0    0 -0.00000000000E+00 -0.00000000000E+00 -0.45593999997E+02  0.45594000000E+02  0.51100000000E-03 0. -1.
    9900012    2    1    2    0    0  0.60808035504E+01 -0.62586198570E+00 -0.42968074681E+02  0.47787270550E+02  0.19999997745E+02 0.  0.
        -12    1    1    2    0    0 -0.60808035504E+01  0.62586198570E+00  0.42968074681E+02  0.43400729450E+02  0.00000000000E+00 0.  1.
         11    1    3    3    0    0  0.96137326335E+01 -0.29999478347E+01 -0.16877259793E+02  0.19653636827E+02  0.51100000000E-03 0. -1.
        -11    1    3    3    0    0 -0.53547643728E+01  0.22955482119E+01 -0.77156622933E+01  0.96682205171E+01  0.51100000000E-03 0.  1.
        -12    1    3    3    0    0  0.18218352898E+01  0.78537637096E-01 -0.18375152594E+02  0.18465413206E+02  0.00000000000E+00 0.  1.
</event>
<event>
 7    1  0.2700100E-010  0.4778727E+02  0.7816164E-02  0.1312668E+00
        -11   -1    0    0    0    0  0.00000000000E+00  0.00000000000E+00  0.45593999997E+02  0.45594000000E+02  0.51100000000E-03 0.  1.
         11   -1    0    0    0    0 -0.00000000000E+00 -0.00000000000E+00 -0.45593999997E+02  0.45594000000E+02  0.51100000000E-03 0. -1.
    9900012    2    1    2    0    0  0.29065034789E+01  0.79569305753E+01 -0.42565982351E+02  0.47787270050E+02  0.19999995467E+02 0.  0.
        -12    1    1    2    0    0 -0.29065034789E+01 -0.79569305753E+01  0.42565982351E+02  0.43400729950E+02  0.00000000000E+00 0.  1.
         11    1    3    3    0    0 -0.41028959825E+00 -0.16527158669E+00 -0.36047423218E+02  0.36050136937E+02  0.51100000000E-03 0. -1.
        -11    1    3    3    0    0  0.29123776361E+01  0.72714462921E+01 -0.35080177972E+01  0.85826606481E+01  0.51100000000E-03 0.  1.
        -12    1    3    3    0    0  0.40441544106E+00  0.85075586995E+00 -0.30105413354E+01  0.31544724648E+01  0.00000000000E+00 0.  1.
</event>
<event>
 7    1  0.2700100E-010  0.4778727E+02  0.7816164E-02  0.1312668E+00
        -11   -1    0    0    0    0  0.00000000000E+00  0.00000000000E+00  0.45593999997E+02  0.45594000000E+02  0.51100000000E-03 0.  1.
         11   -1    0    0    0    0 -0.00000000000E+00 -0.00000000000E+00 -0.45593999997E+02  0.45594000000E+02  0.51100000000E-03 0. -1.
    9900012    2    1    2    0    0 -0.24845918438E+02 -0.35496901341E+02  0.25046987873E+01  0.47787272081E+02  0.20000004728E+02 0.  0.
        -12    1    1    2    0    0  0.24845918438E+02  0.35496901341E+02 -0.25046987873E+01  0.43400727919E+02  0.00000000000E+00 0.  1.
         11    1    3    3    0    0 -0.88551857650E+01 -0.12700638728E+02  0.94094621475E+01  0.18117905983E+02  0.51100000000E-03 0. -1.
        -11    1    3    3    0    0 -0.75832805127E-01 -0.33674100419E+00 -0.15993113520E+01  0.16361363574E+01  0.51100000000E-03 0.  1.
         12    1    3    3    0    0 -0.15914899867E+02 -0.22459521609E+02 -0.53054520081E+01  0.28033229741E+02  0.00000000000E+00 0. -1.
</event>
<event>
 7    1  0.2700100E-010  0.4778727E+02  0.7816164E-02  0.1312668E+00
        -11   -1    0    0    0    0  0.00000000000E+00  0.00000000000E+00  0.45593999997E+02  0.45594000000E+02  0.51100000000E-03 0.  1.
         11   -1    0    0    0    0 -0.00000000000E+00 -0.00000000000E+00 -0.45593999997E+02  0.45594000000E+02  0.51100000000E-03 0. -1.
    9900012    2    1    2    0    0 -0.16870848592E+02 -0.38078441581E+02 -0.12207773980E+02  0.47787274303E+02  0.20000014858E+02 0.  0.
        -12    1    1    2    0    0  0.16870848592E+02  0.38078441581E+02  0.12207773980E+02  0.43400725697E+02  0.00000000000E+00 0.  1.
         11    1    3    3    0    0  0.16717143002E+01 -0.13822151278E+02 -0.22810175175E+01  0.14108491621E+02  0.51100000000E-03 0. -1.
        -11    1    3    3    0    0 -0.12903781601E+00 -0.52845091067E+01  0.38628104618E+00  0.53001792955E+01  0.51100000000E-03 0.  1.
         12    1    3    3    0    0 -0.18413525076E+02 -0.18971781197E+02 -0.10313037509E+02  0.28378603386E+02  0.00000000000E+00 0. -1.
</event>
<event>
 7    1  0.2700100E-010  0.4778727E+02  0.7816164E-02  0.1312668E+00
        -11   -1    0    0    0    0  0.00000000000E+00  0.00000000000E+00  0.45593999997E+02  0.45594000000E+02  0.51100000000E-03 0.  1.
         11   -1    0    0    0    0 -0.00000000000E+00 -0.00000000000E+00 -0.45593999997E+02  0.45594000000E+02  0.51100000000E-03 0. -1.
    9900012    2    1    2    0    0 -0.25997314134E+02  0.25055294702E+02 -0.24083084887E+02  0.47787272905E+02  0.20000008482E+02 0.  0.
        -12    1    1    2    0    0  0.25997314134E+02 -0.25055294702E+02  0.24083084887E+02  0.43400727095E+02  0.00000000000E+00 0.  1.
         11    1    3    3    0    0 -0.18250359653E+02  0.22835052727E+02 -0.11998601394E+02  0.31598760992E+02  0.51100000000E-03 0. -1.
        -11    1    3    3    0    0 -0.68636922305E+00  0.84117763422E-01 -0.74387980989E+01  0.74708698239E+01  0.51100000000E-03 0.  1.
         12    1    3    3    0    0 -0.70605852571E+01  0.21361242110E+01 -0.46456853932E+01  0.87176420889E+01  0.00000000000E+00 0. -1.
</event>
<event>
 7    1  0.2700100E-010  0.4778727E+02  0.7816164E-02  0.1312668E+00
        -11   -1    0    0    0    0  0.00000000000E+00  0.00000000000E+00  0.45593999997E+02  0.45594000000E+02  0.51100000000E-03 0.  1.
         11   -1    0    0    0    0 -0.00000000000E+00 -0.00000000000E+00 -0.45593999997E+02  0.45594000000E+02  0.51100000000E-03 0. -1.
    9900012    2    1    2    0    0  0.27716643912E+02 -0.54913668299E+00 -0.33393254810E+02  0.47787269964E+02  0.19999995075E+02 0.  0.
        -12    1    1    2    0    0 -0.27716643912E+02  0.54913668299E+00  0.33393254810E+02  0.43400730036E+02  0.00000000000E+00 0.  1.
         11    1    3    3    0    0  0.16083540979E+02 -0.20193305114E+01 -0.22320175262E+02  0.27585289742E+02  0.51100000000E-03 0. -1.
        -11    1    3    3    0    0  0.85769887807E+01  0.29021946589E+01 -0.46129941352E+00  0.90664363337E+01  0.51100000000E-03 0.  1.
        -12    1    3    3    0    0  0.30561141523E+01 -0.14320008305E+01 -0.10611780134E+02  0.11135543889E+02  0.00000000000E+00 0.  1.
</event>
<event>
 7    1  0.2700100E-010  0.4778727E+02  0.7816164E-02  0.1312668E+00
        -11   -1    0    0    0    0  0.00000000000E+00  0.00000000000E+00  0.45593999997E+02  0.45594000000E+02  0.51100000000E-03 0.  1.
         11   -1    0    0    0    0 -0.00000000000E+00 -0.00000000000E+00 -0.45593999997E+02  0.45594000000E+02  0.51100000000E-03 0. -1.
    9900012    2    1    2    0    0  0.14099116988E+02  0.43792834264E+01 -0.40812501850E+02  0.47787268089E+02  0.19999986525E+02 0.  0.
        -12    1    1    2    0    0 -0.14099116988E+02 -0.43792834264E+01  0.40812501850E+02  0.43400731911E+02  0.00000000000E+00 0.  1.
         11    1    3    3    0    0  0.12335388250E+02  0.55674245269E+01 -0.10976155245E+02  0.17425096940E+02  0.51100000000E-03 0. -1.
        -11    1    3    3    0    0 -0.66588783882E+00 -0.22284462762E+01 -0.21285369203E+02  0.21412060195E+02  0.51100000000E-03 0.  1.
        -12    1    3    3    0    0  0.24296165762E+01  0.10403051756E+01 -0.85509774018E+01  0.89501109542E+01  0.00000000000E+00 0.  1.
</event>
<event>
 7    1  0.2700100E-010  0.4778728E+02  0.7816164E-02  0.1312668E+00
        -11   -1    0    0    0    0  0.00000000000E+00  0.00000000000E+00  0.45593999997E+02  0.45594000000E+02  0.51100000000E-03 0.  1.
         11   -1    0    0    0    0 -0.00000000000E+00 -0.00000000000E+00 -0.45593999997E+02  0.45594000000E+02  0.51100000000E-03 0. -1.
    9900012    2    1    2    0    0  0.67591850602E+01 -0.32611691379E+02 -0.27828283374E+02  0.47787281656E+02  0.20000048381E+02 0.  0.
        -12    1    1    2    0    0 -0.67591850602E+01  0.32611691379E+02  0.27828283374E+02  0.43400718344E+02  0.00000000000E+00 0.  1.
         11    1    3    3    0    0  0.63742824499E+01 -0.17040130059E+02 -0.71363585111E+01  0.19542904652E+02  0.51100000000E-03 0. -1.
        -11    1    3    3    0    0 -0.11887685868E+01 -0.13956358233E+02 -0.21656713988E+02  0.25791594889E+02  0.51100000000E-03 0.  1.
        -12    1    3    3    0    0  0.15736711971E+01 -0.16152030872E+01  0.96478912510E+00  0.24527821154E+01  0.00000000000E+00 0.  1.
</event>
<event>
 7    1  0.2700100E-010  0.4778728E+02  0.7816164E-02  0.1312668E+00
        -11   -1    0    0    0    0  0.00000000000E+00  0.00000000000E+00  0.45593999997E+02  0.45594000000E+02  0.51100000000E-03 0. -1.
         11   -1    0    0    0    0 -0.00000000000E+00 -0.00000000000E+00 -0.45593999997E+02  0.45594000000E+02  0.51100000000E-03 0.  1.
    9900012    2    1    2    0    0 -0.32262147783E+02  0.98813863920E-01  0.29030443966E+02  0.47787278570E+02  0.20000034314E+02 0.  0.
        -12    1    1    2    0    0  0.32262147783E+02 -0.98813863920E-01 -0.29030443966E+02  0.43400721430E+02  0.00000000000E+00 0.  1.
         11    1    3    3    0    0 -0.99300980209E+01  0.13067176490E+00  0.28646852942E+01  0.10335876543E+02  0.51100000000E-03 0. -1.
        -11    1    3    3    0    0 -0.21262060562E+02  0.43103470568E+01  0.24382713557E+02  0.32636958065E+02  0.51100000000E-03 0.  1.
        -12    1    3    3    0    0 -0.10699892000E+01 -0.43422049577E+01  0.17830451146E+01  0.48144439621E+01  0.00000000000E+00 0.  1.
</event>
<event>
 7    1  0.2700100E-010  0.4778727E+02  0.7816164E-02  0.1312668E+00
        -11   -1    0    0    0    0  0.00000000000E+00  0.00000000000E+00  0.45593999997E+02  0.45594000000E+02  0.51100000000E-03 0. -1.
         11   -1    0    0    0    0 -0.00000000000E+00 -0.00000000000E+00 -0.45593999997E+02  0.45594000000E+02  0.51100000000E-03 0.  1.
    9900012    2    1    2    0    0  0.32749827950E+02 -0.27740786521E+02  0.64436425463E+01  0.47787274236E+02  0.20000014554E+02 0.  0.
        -12    1    1    2    0    0 -0.32749827950E+02  0.27740786521E+02 -0.64436425463E+01  0.43400725764E+02  0.00000000000E+00 0.  1.
         11    1    3    3    0    0  0.17849663292E+02 -0.62807859630E+01  0.97484443775E+01  0.21285932443E+02  0.51100000000E-03 0. -1.
        -11    1    3    3    0    0  0.13397827769E+02 -0.17562222039E+02 -0.23294570908E+01  0.22211704177E+02  0.51100000000E-03 0.  1.
         12    1    3    3    0    0  0.15023368896E+01 -0.38977785192E+01 -0.97534474043E+00  0.42896376160E+01  0.00000000000E+00 0. -1.
</event>
<event>
 7    1  0.2700100E-010  0.4778727E+02  0.7816164E-02  0.1312668E+00
        -11   -1    0    0    0    0  0.00000000000E+00  0.00000000000E+00  0.45593999997E+02  0.45594000000E+02  0.51100000000E-03 0.  1.
         11   -1    0    0    0    0 -0.00000000000E+00 -0.00000000000E+00 -0.45593999997E+02  0.45594000000E+02  0.51100000000E-03 0. -1.
    9900012    2    1    2    0    0  0.23084969740E+02  0.19345573893E+02 -0.31248296312E+02  0.47787273283E+02  0.20000010208E+02 0.  0.
        -12    1    1    2    0    0 -0.23084969740E+02 -0.19345573893E+02  0.31248296312E+02  0.43400726717E+02  0.00000000000E+00 0.  1.
         11    1    3    3    0    0  0.29883486300E+01  0.29928937934E+01 -0.76870512534E+01  0.87737334144E+01  0.51100000000E-03 0. -1.
        -11    1    3    3    0    0  0.52110961241E+01 -0.34337444907E+01 -0.35665653722E+01  0.71879421852E+01  0.51100000000E-03 0.  1.
        -12    1    3    3    0    0  0.14885524986E+02  0.19786424590E+02 -0.19994679686E+02  0.31825597684E+02  0.00000000000E+00 0.  1.
</event>
<event>
 7    1  0.2700100E-010  0.4778729E+02  0.7816164E-02  0.1312668E+00
        -11   -1    0    0    0    0  0.00000000000E+00  0.00000000000E+00  0.45593999997E+02  0.45594000000E+02  0.51100000000E-03 0. -1.
         11   -1    0    0    0    0 -0.00000000000E+00 -0.00000000000E+00 -0.45593999997E+02  0.45594000000E+02  0.51100000000E-03 0.  1.
    9900012    2    1    2    0    0 -0.14105057799E+02 -0.38019679974E+02  0.15465223042E+02  0.47787287511E+02  0.20000075078E+02 0.  0.
        -12    1    1    2    0    0  0.14105057799E+02  0.38019679974E+02 -0.15465223042E+02  0.43400712489E+02  0.00000000000E+00 0.  1.
         11    1    3    3    0    0 -0.63762111515E+00 -0.15640439797E+02  0.72991991207E+01  0.17271601715E+02  0.51100000000E-03 0. -1.
        -11    1    3    3    0    0 -0.31978114233E+01 -0.62853554541E+00 -0.25940976329E+01  0.41653808494E+01  0.51100000000E-03 0.  1.
        -12    1    3    3    0    0 -0.10269625260E+02 -0.21750704631E+02  0.10760121554E+02  0.26350304947E+02  0.00000000000E+00 0.  1.
</event>
<event>
 7    1  0.2700100E-010  0.4778727E+02  0.7816164E-02  0.1312668E+00
        -11   -1    0    0    0    0  0.00000000000E+00  0.00000000000E+00  0.45593999997E+02  0.45594000000E+02  0.51100000000E-03 0.  1.
         11   -1    0    0    0    0 -0.00000000000E+00 -0.00000000000E+00 -0.45593999997E+02  0.45594000000E+02  0.51100000000E-03 0. -1.
    9900012    2    1    2    0    0  0.27321725329E+01  0.43218737445E+02 -0.28808414616E+01  0.47787270967E+02  0.19999999646E+02 0.  0.
        -12    1    1    2    0    0 -0.27321725329E+01 -0.43218737445E+02  0.28808414616E+01  0.43400729033E+02  0.00000000000E+00 0.  1.
         11    1    3    3    0    0 -0.61185396333E+01  0.16452567693E+02  0.15536878421E+01  0.17622073009E+02  0.51100000000E-03 0. -1.
        -11    1    3    3    0    0  0.72361016237E+01  0.86922219583E+01 -0.40561367795E+01  0.12015329172E+02  0.51100000000E-03 0.  1.
         12    1    3    3    0    0  0.16146105425E+01  0.18073947793E+02 -0.37839252421E+00  0.18149868786E+02  0.00000000000E+00 0. -1.
</event>
<event>
 7    1  0.2700100E-010  0.4778727E+02  0.7816164E-02  0.1312668E+00
        -11   -1    0    0    0    0  0.00000000000E+00  0.00000000000E+00  0.45593999997E+02  0.45594000000E+02  0.51100000000E-03 0.  1.
         11   -1    0    0    0    0 -0.00000000000E+00 -0.00000000000E+00 -0.45593999997E+02  0.45594000000E+02  0.51100000000E-03 0. -1.
    9900012    2    1    2    0    0  0.21179013955E+02  0.21447232631E+02 -0.31226408117E+02  0.47787274390E+02  0.20000015252E+02 0.  0.
        -12    1    1    2    0    0 -0.21179013955E+02 -0.21447232631E+02  0.31226408117E+02  0.43400725610E+02  0.00000000000E+00 0.  1.
         11    1    3    3    0    0  0.67198326802E+01  0.17883107521E+02 -0.23165359947E+02  0.30026581351E+02  0.51100000000E-03 0. -1.
        -11    1    3    3    0    0  0.57841967960E+01 -0.15301782328E+00 -0.54963198855E+01  0.79805939361E+01  0.51100000000E-03 0.  1.
         12    1    3    3    0    0  0.86749844785E+01  0.37171429330E+01 -0.25647282845E+01  0.97800991027E+01  0.00000000000E+00 0. -1.
</event>
<event>
 7    1  0.2700100E-010  0.4778727E+02  0.7816164E-02  0.1312668E+00
        -11   -1    0    0    0    0  0.00000000000E+00  0.00000000000E+00  0.45593999997E+02  0.45594000000E+02  0.51100000000E-03 0. -1.
         11   -1    0    0    0    0 -0.00000000000E+00 -0.00000000000E+00 -0.45593999997E+02  0.45594000000E+02  0.51100000000E-03 0.  1.
    9900012    2    1    2    0    0 -0.38337779445E+02 -0.17977989392E+02  0.95199738745E+01  0.47787270306E+02  0.19999996634E+02 0.  0.
        -12    1    1    2    0    0  0.38337779445E+02  0.17977989392E+02 -0.95199738745E+01  0.43400729694E+02  0.00000000000E+00 0.  1.
         11    1    3    3    0    0 -0.48499849894E+01 -0.54576064907E+01  0.18212552738E+01  0.75249447863E+01  0.51100000000E-03 0. -1.
        -11    1    3    3    0    0 -0.28256700149E+02 -0.14800285907E+02  0.16411837255E+01  0.31940304484E+02  0.51100000000E-03 0.  1.
        -12    1    3    3    0    0 -0.52310943072E+01  0.22799030052E+01  0.60575348751E+01  0.83220210362E+01  0.00000000000E+00 0.  1.
</event>
<event>
 7    1  0.2700100E-010  0.4778727E+02  0.7816164E-02  0.1312668E+00
        -11   -1    0    0    0    0  0.00000000000E+00  0.00000000000E+00  0.45593999997E+02  0.45594000000E+02  0.51100000000E-03 0. -1.
         11   -1    0    0    0    0 -0.00000000000E+00 -0.00000000000E+00 -0.45593999997E+02  0.45594000000E+02  0.51100000000E-03 0.  1.
    9900012    2    1    2    0    0  0.27305741028E+02  0.28043871820E+02 -0.18749956771E+02  0.47787272832E+02  0.20000008152E+02 0.  0.
        -12    1    1    2    0    0 -0.27305741028E+02 -0.28043871820E+02  0.18749956771E+02  0.43400727168E+02  0.00000000000E+00 0.  1.
         11    1    3    3    0    0  0.88268405014E+01  0.92690934039E+01 -0.28051211527E+01  0.13103354941E+02  0.51100000000E-03 0. -1.
        -11    1    3    3    0    0  0.20453013022E+02  0.13608505792E+02 -0.15685842236E+02  0.29147260909E+02  0.51100000000E-03 0.  1.
        -12    1    3    3    0    0 -0.19741124953E+01  0.51662726237E+01 -0.25899338213E+00  0.55366569822E+01  0.00000000000E+00 0.  1.
</event>
<event>
 7    1  0.2700100E-010  0.4778727E+02  0.7816164E-02  0.1312668E+00
        -11   -1    0    0    0    0  0.00000000000E+00  0.00000000000E+00  0.45593999997E+02  0.45594000000E+02  0.51100000000E-03 0.  1.
         11   -1    0    0    0    0 -0.00000000000E+00 -0.00000000000E+00 -0.45593999997E+02  0.45594000000E+02  0.51100000000E-03 0. -1.
    9900012    2    1    2    0    0  0.41235392838E+02 -0.60151262915E+01 -0.12127816330E+02  0.47787270792E+02  0.19999998850E+02 0.  0.
        -12    1    1    2    0    0 -0.41235392838E+02  0.60151262915E+01  0.12127816330E+02  0.43400729208E+02  0.00000000000E+00 0.  1.
         11    1    3    3    0    0  0.14851652876E+02  0.50778281350E+01 -0.15841663344E+01  0.15775471941E+02  0.51100000000E-03 0. -1.
        -11    1    3    3    0    0  0.74998660446E+01  0.10379033408E+01 -0.43341658850E+01  0.87241176180E+01  0.51100000000E-03 0.  1.
         12    1    3    3    0    0  0.18883873918E+02 -0.12130857767E+02 -0.62094841105E+01  0.23287681233E+02  0.00000000000E+00 0. -1.
</event>
<event>
 7    1  0.2700100E-010  0.4778727E+02  0.7816164E-02  0.1312668E+00
        -11   -1    0    0    0    0  0.00000000000E+00  0.00000000000E+00  0.45593999997E+02  0.45594000000E+02  0.51100000000E-03 0.  1.
         11   -1    0    0    0    0 -0.00000000000E+00 -0.00000000000E+00 -0.45593999997E+02  0.45594000000E+02  0.51100000000E-03 0. -1.
    9900012    2    1    2    0    0  0.17595398815E+01  0.25919166288E+02 -0.34766707707E+02  0.47787272743E+02  0.20000007745E+02 0.  0.
        -12    1    1    2    0    0 -0.17595398815E+01 -0.25919166288E+02  0.34766707707E+02  0.43400727257E+02  0.00000000000E+00 0.  1.
         11    1    3    3    0    0 -0.78218763566E+01  0.10350155817E+02 -0.11498475568E+02  0.17335582362E+02  0.51100000000E-03 0. -1.
        -11    1    3    3    0    0  0.93160586460E+01  0.13043801286E+02 -0.22798706589E+02  0.27869530370E+02  0.51100000000E-03 0.  1.
        -12    1    3    3    0    0  0.26535759211E+00  0.25252091845E+01 -0.46952554983E+00  0.25821600104E+01  0.00000000000E+00 0.  1.
</event>
<event>
 7    1  0.2700100E-010  0.4778727E+02  0.7816164E-02  0.1312668E+00
        -11   -1    0    0    0    0  0.00000000000E+00  0.00000000000E+00  0.45593999997E+02  0.45594000000E+02  0.51100000000E-03 0.  1.
         11   -1    0    0    0    0 -0.00000000000E+00 -0.00000000000E+00 -0.45593999997E+02  0.45594000000E+02  0.51100000000E-03 0. -1.
    9900012    2    1    2    0    0 -0.53877622137E+01  0.42446561388E+02 -0.72721851429E+01  0.47787271525E+02  0.20000002193E+02 0.  0.
        -12    1    1    2    0    0  0.53877622137E+01 -0.42446561388E+02  0.72721851429E+01  0.43400728475E+02  0.00000000000E+00 0.  1.
         11    1    3    3    0    0  0.52480047662E+01  0.16181145595E+02 -0.39872229446E+01  0.17471948199E+02  0.51100000000E-03 0. -1.
        -11    1    3    3    0    0 -0.48764976072E+01  0.39966355560E+01  0.21840951679E+01  0.66726004410E+01  0.51100000000E-03 0.  1.
         12    1    3    3    0    0 -0.57592693727E+01  0.22268780237E+02 -0.54690573662E+01  0.23642722885E+02  0.00000000000E+00 0. -1.
</event>
<event>
 7    1  0.2700100E-010  0.4778726E+02  0.7816164E-02  0.1312668E+00
        -11   -1    0    0    0    0  0.00000000000E+00  0.00000000000E+00  0.45593999997E+02  0.45594000000E+02  0.51100000000E-03 0.  1.
         11   -1    0    0    0    0 -0.00000000000E+00 -0.00000000000E+00 -0.45593999997E+02  0.45594000000E+02  0.51100000000E-03 0. -1.
    9900012    2    1    2    0    0 -0.41803684988E+02  0.10407022979E+02 -0.52697357112E+01  0.47787258989E+02  0.19999945034E+02 0.  0.
        -12    1    1    2    0    0  0.41803684988E+02 -0.10407022979E+02  0.52697357112E+01  0.43400741011E+02  0.00000000000E+00 0.  1.
         11    1    3    3    0    0 -0.16181437781E+02  0.21922430238E+01 -0.10524384112E+02  0.19426979161E+02  0.51100000000E-03 0. -1.
        -11    1    3    3    0    0 -0.24067591248E+02  0.54297216490E+01  0.44471947492E+01  0.25070069148E+02  0.51100000000E-03 0.  1.
        -12    1    3    3    0    0 -0.15546559580E+01  0.27850583061E+01  0.80745365130E+00  0.32902106795E+01  0.00000000000E+00 0.  1.
</event>
<event>
 7    1  0.2700100E-010  0.4778727E+02  0.7816164E-02  0.1312668E+00
        -11   -1    0    0    0    0  0.00000000000E+00  0.00000000000E+00  0.45593999997E+02  0.45594000000E+02  0.51100000000E-03 0.  1.
         11   -1    0    0    0    0 -0.00000000000E+00 -0.00000000000E+00 -0.45593999997E+02  0.45594000000E+02  0.51100000000E-03 0. -1.
    9900012    2    1    2    0    0 -0.27803794174E+02 -0.18990394422E+01 -0.33271094534E+02  0.47787273592E+02  0.20000011615E+02 0.  0.
        -12    1    1    2    0    0  0.27803794174E+02  0.18990394422E+01  0.33271094534E+02  0.43400726408E+02  0.00000000000E+00 0.  1.
         11    1    3    3    0    0 -0.17774620412E+02  0.44320967010E+01 -0.27740063908E+02  0.33242920417E+02  0.51100000000E-03 0. -1.
        -11    1    3    3    0    0 -0.95211487757E+01 -0.29450451806E+01 -0.34979557151E+01  0.10562256367E+02  0.51100000000E-03 0.  1.
         12    1    3    3    0    0 -0.50802498641E+00 -0.33860909626E+01 -0.20330749105E+01  0.39820968077E+01  0.00000000000E+00 0. -1.
</event>
<event>
 7    1  0.2700100E-010  0.4778727E+02  0.7816164E-02  0.1312668E+00
        -11   -1    0    0    0    0  0.00000000000E+00  0.00000000000E+00  0.45593999997E+02  0.45594000000E+02  0.51100000000E-03 0. -1.
         11   -1    0    0    0    0 -0.00000000000E+00 -0.00000000000E+00 -0.45593999997E+02  0.45594000000E+02  0.51100000000E-03 0.  1.
    9900012    2    1    2    0    0  0.27176223335E+02  0.16080137303E+02  0.29774242723E+02  0.47787268898E+02  0.19999990215E+02 0.  0.
        -12    1    1    2    0    0 -0.27176223335E+02 -0.16080137303E+02 -0.29774242723E+02  0.43400731102E+02  0.00000000000E+00 0.  1.
         11    1    3    3    0    0  0.15704699133E+01 -0.74700602363E-01  0.23619537573E+01  0.28373899523E+01  0.51100000000E-03 0. -1.
        -11    1    3    3    0    0  0.43482752637E+01  0.11792562130E+02  0.16260177852E+02  0.20551530439E+02  0.51100000000E-03 0.  1.
        -12    1    3    3    0    0  0.21257478158E+02  0.43622757763E+01  0.11152111113E+02  0.24398348507E+02  0.00000000000E+00 0.  1.
</event>
<event>
 7    1  0.2700100E-010  0.4778727E+02  0.7816164E-02  0.1312668E+00
        -11   -1    0    0    0    0  0.00000000000E+00  0.00000000000E+00  0.45593999997E+02  0.45594000000E+02  0.51100000000E-03 0.  1.
         11   -1    0    0    0    0 -0.00000000000E+00 -0.00000000000E+00 -0.45593999997E+02  0.45594000000E+02  0.51100000000E-03 0. -1.
    9900012    2    1    2    0    0  0.23284387345E+02 -0.20667362937E+02 -0.30237734693E+02  0.47787272078E+02  0.20000004713E+02 0.  0.
        -12    1    1    2    0    0 -0.23284387345E+02  0.20667362937E+02  0.30237734693E+02  0.43400727922E+02  0.00000000000E+00 0.  1.
         11    1    3    3    0    0  0.56655671428E+01 -0.14483522695E+02 -0.21134526117E+02  0.26240031920E+02  0.51100000000E-03 0. -1.
        -11    1    3    3    0    0  0.11722189061E+02 -0.21866547267E+01 -0.33377243201E+01  0.12382712917E+02  0.51100000000E-03 0.  1.
         12    1    3    3    0    0  0.58966311406E+01 -0.39971855157E+01 -0.57654842553E+01  0.91645272411E+01  0.00000000000E+00 0. -1.
</event>
<event>
 7    1  0.2700100E-010  0.4778727E+02  0.7816164E-02  0.1312668E+00
        -11   -1    0    0    0    0  0.00000000000E+00  0.00000000000E+00  0.45593999997E+02  0.45594000000E+02  0.51100000000E-03 0.  1.
         11   -1    0    0    0    0 -0.00000000000E+00 -0.00000000000E+00 -0.45593999997E+02  0.45594000000E+02  0.51100000000E-03 0. -1.
    9900012    2    1    2    0    0  0.24659231005E+02 -0.34169101427E+02 -0.10393173485E+02  0.47787271652E+02  0.20000002769E+02 0.  0.
        -12    1    1    2    0    0 -0.24659231005E+02  0.34169101427E+02  0.10393173485E+02  0.43400728348E+02  0.00000000000E+00 0.  1.
         11    1    3    3    0    0  0.32452848664E+01 -0.49214098557E+01 -0.22753723178E+01  0.63189768379E+01  0.51100000000E-03 0. -1.
        -11    1    3    3    0    0  0.74189879614E+01 -0.80507050605E+01  0.59211785520E+01  0.12446509151E+02  0.51100000000E-03 0.  1.
        -12    1    3    3    0    0  0.13994958177E+02 -0.21196986511E+02 -0.14038979719E+02  0.29021785663E+02  0.00000000000E+00 0.  1.
</event>
<event>
 7    1  0.2700100E-010  0.4778727E+02  0.7816164E-02  0.1312668E+00
        -11   -1    0    0    0    0  0.00000000000E+00  0.00000000000E+00  0.45593999997E+02  0.45594000000E+02  0.51100000000E-03 0.  1.
         11   -1    0    0    0    0 -0.00000000000E+00 -0.00000000000E+00 -0.45593999997E+02  0.45594000000E+02  0.51100000000E-03 0. -1.
    9900012    2    1    2    0    0  0.20176928248E+02 -0.38425444939E+02  0.64640638434E-02  0.47787270812E+02  0.19999998941E+02 0.  0.
        -12    1    1    2    0    0 -0.20176928248E+02  0.38425444939E+02 -0.64640638434E-02  0.43400729188E+02  0.00000000000E+00 0.  1.
         11    1    3    3    0    0  0.17374791803E+02 -0.31315147242E+02  0.49862312482E+01  0.36157770110E+02  0.51100000000E-03 0. -1.
        -11    1    3    3    0    0  0.30128538411E+01 -0.41486364211E+01 -0.65120684969E+01  0.82882753810E+01  0.51100000000E-03 0.  1.
         12    1    3    3    0    0 -0.21071739710E+00 -0.29616612762E+01  0.15323013125E+01  0.33412253214E+01  0.00000000000E+00 0. -1.
</event>
<event>
 7    1  0.2700100E-010  0.4778727E+02  0.7816164E-02  0.1312668E+00
        -11   -1    0    0    0    0  0.00000000000E+00  0.00000000000E+00  0.45593999997E+02  0.45594000000E+02  0.51100000000E-03 0.  1.
         11   -1    0    0    0    0 -0.00000000000E+00 -0.00000000000E+00 -0.45593999997E+02  0.45594000000E+02  0.51100000000E-03 0. -1.
    9900012    2    1    2    0    0  0.21011547069E+02  0.36691975291E+01 -0.37797819200E+02  0.47787271238E+02  0.20000000884E+02 0.  0.
        -12    1    1    2    0    0 -0.21011547069E+02 -0.36691975291E+01  0.37797819200E+02  0.43400728762E+02  0.00000000000E+00 0.  1.
         11    1    3    3    0    0 -0.24310713866E+01  0.87007564943E+00 -0.58883845653E+00  0.26483713319E+01  0.51100000000E-03 0. -1.
        -11    1    3    3    0    0  0.22573457888E+02  0.18138994139E+01 -0.28846569795E+02  0.36673911999E+02  0.51100000000E-03 0.  1.
        -12    1    3    3    0    0  0.86916056766E+00  0.98522246577E+00 -0.83624109488E+01  0.84649879077E+01  0.00000000000E+00 0.  1.
</event>
<event>
 7    1  0.2700100E-010  0.4778727E+02  0.7816164E-02  0.1312668E+00
        -11   -1    0    0    0    0  0.00000000000E+00  0.00000000000E+00  0.45593999997E+02  0.45594000000E+02  0.51100000000E-03 0.  1.
         11   -1    0    0    0    0 -0.00000000000E+00 -0.00000000000E+00 -0.45593999997E+02  0.45594000000E+02  0.51100000000E-03 0. -1.
    9900012    2    1    2    0    0 -0.22581155009E+02 -0.29433730765E+02 -0.22524878184E+02  0.47787271832E+02  0.20000003593E+02 0.  0.
        -12    1    1    2    0    0  0.22581155009E+02  0.29433730765E+02  0.22524878184E+02  0.43400728168E+02  0.00000000000E+00 0.  1.
         11    1    3    3    0    0 -0.18895171072E+02 -0.17416431249E+02 -0.20588112126E+02  0.32927646871E+02  0.51100000000E-03 0. -1.
        -11    1    3    3    0    0 -0.35038805681E+01 -0.13088205125E+02 -0.13270729182E+01  0.13613941943E+02  0.51100000000E-03 0.  1.
         12    1    3    3    0    0 -0.18210336896E+00  0.10709056085E+01 -0.60969313946E+00  0.12456830189E+01  0.00000000000E+00 0. -1.
</event>
<event>
 7    1  0.2700100E-010  0.4778727E+02  0.7816164E-02  0.1312668E+00
        -11   -1    0    0    0    0  0.00000000000E+00  0.00000000000E+00  0.45593999997E+02  0.45594000000E+02  0.51100000000E-03 0. -1.
         11   -1    0    0    0    0 -0.00000000000E+00 -0.00000000000E+00 -0.45593999997E+02  0.45594000000E+02  0.51100000000E-03 0.  1.
    9900012    2    1    2    0    0 -0.18279412000E+02  0.65194378533E+01  0.38819885020E+02  0.47787269062E+02  0.19999990963E+02 0.  0.
        -12    1    1    2    0    0  0.18279412000E+02 -0.65194378533E+01 -0.38819885020E+02  0.43400730938E+02  0.00000000000E+00 0.  1.
         11    1    3    3    0    0 -0.75721160774E+01 -0.19985638232E+01  0.11174856652E+02  0.13645827959E+02  0.51100000000E-03 0. -1.
        -11    1    3    3    0    0 -0.72321667474E+01  0.12480943472E+02  0.22812857424E+02  0.26990825291E+02  0.51100000000E-03 0.  1.
        -12    1    3    3    0    0 -0.34751291751E+01 -0.39629417952E+01  0.48321709446E+01  0.71506158122E+01  0.00000000000E+00 0.  1.
</event>
<event>
 7    1  0.2700100E-010  0.4778727E+02  0.7816164E-02  0.1312668E+00
        -11   -1    0    0    0    0  0.00000000000E+00  0.00000000000E+00  0.45593999997E+02  0.45594000000E+02  0.51100000000E-03 0.  1.
         11   -1    0    0    0    0 -0.00000000000E+00 -0.00000000000E+00 -0.45593999997E+02  0.45594000000E+02  0.51100000000E-03 0. -1.
    9900012    2    1    2    0    0  0.10255143591E+02 -0.72277377543E+01 -0.41547744805E+02  0.47787271187E+02  0.20000000651E+02 0.  0.
        -12    1    1    2    0    0 -0.10255143591E+02  0.72277377543E+01  0.41547744805E+02  0.43400728813E+02  0.00000000000E+00 0.  1.
         11    1    3    3    0    0  0.13492129788E+01  0.55604745185E+01 -0.15692438513E+02  0.16703050000E+02  0.51100000000E-03 0. -1.
        -11    1    3    3    0    0  0.87338972592E+01 -0.74511896580E+01 -0.20651957218E+02  0.23628468547E+02  0.51100000000E-03 0.  1.
         12    1    3    3    0    0  0.17203335332E+00 -0.53370226149E+01 -0.52033490730E+01  0.74557526409E+01  0.00000000000E+00 0. -1.
</event>
<event>
 7    1  0.2700100E-010  0.4778727E+02  0.7816164E-02  0.1312668E+00
        -11   -1    0    0    0    0  0.00000000000E+00  0.00000000000E+00  0.45593999997E+02  0.45594000000E+02  0.51100000000E-03 0. -1.
         11   -1    0    0    0    0 -0.00000000000E+00 -0.00000000000E+00 -0.45593999997E+02  0.45594000000E+02  0.51100000000E-03 0.  1.
    9900012    2    1    2    0    0  0.23743398729E+02 -0.20230257134E+02 -0.30176327358E+02  0.47787273972E+02  0.20000013347E+02 0.  0.
        -12    1    1    2    0    0 -0.23743398729E+02  0.20230257134E+02  0.30176327358E+02  0.43400726028E+02  0.00000000000E+00 0.  1.
         11    1    3    3    0    0  0.27568852262E+01  0.23096829569E+01 -0.15712681061E+01  0.39247847373E+01  0.51100000000E-03 0. -1.
        -11    1    3    3    0    0  0.64844465707E+01 -0.15143868312E+02 -0.10601167606E+02  0.19590037000E+02  0.51100000000E-03 0.  1.
        -12    1    3    3    0    0  0.14502066933E+02 -0.73960717794E+01 -0.18003891646E+02  0.24272452234E+02  0.00000000000E+00 0.  1.
</event>
<event>
 7    1  0.2700100E-010  0.4778728E+02  0.7816164E-02  0.1312668E+00
        -11   -1    0    0    0    0  0.00000000000E+00  0.00000000000E+00  0.45593999997E+02  0.45594000000E+02  0.51100000000E-03 0.  1.
         11   -1    0    0    0    0 -0.00000000000E+00 -0.00000000000E+00 -0.45593999997E+02  0.45594000000E+02  0.51100000000E-03 0. -1.
    9900012    2    1    2    0    0  0.41867825590E+02  0.63938045606E+01 -0.94777113408E+01  0.47787279169E+02  0.20000037045E+02 0.  0.
        -12    1    1    2    0    0 -0.41867825590E+02 -0.63938045606E+01  0.94777113408E+01  0.43400720831E+02  0.00000000000E+00 0.  1.
         11    1    3    3    0    0  0.20593170343E+02  0.48298768137E+01  0.23142221447E+01  0.21278204793E+02  0.51100000000E-03 0. -1.
        -11    1    3    3    0    0  0.92011828758E+01 -0.40702604447E+01 -0.73672730842E+01  0.12470184416E+02  0.51100000000E-03 0.  1.
         12    1    3    3    0    0  0.12073472370E+02  0.56341881915E+01 -0.44246604014E+01  0.14038889961E+02  0.00000000000E+00 0. -1.
</event>
<event>
 7    1  0.2700100E-010  0.4778727E+02  0.7816164E-02  0.1312668E+00
        -11   -1    0    0    0    0  0.00000000000E+00  0.00000000000E+00  0.45593999997E+02  0.45594000000E+02  0.51100000000E-03 0.  1.
         11   -1    0    0    0    0 -0.00000000000E+00 -0.00000000000E+00 -0.45593999997E+02  0.45594000000E+02  0.51100000000E-03 0. -1.
    9900012    2    1    2    0    0  0.51937323790E+01  0.29275643658E+02 -0.31616217205E+02  0.47787270076E+02  0.19999995584E+02 0.  0.
        -12    1    1    2    0    0 -0.51937323790E+01 -0.29275643658E+02  0.31616217205E+02  0.43400729924E+02  0.00000000000E+00 0.  1.
         11    1    3    3    0    0  0.46110370538E+01  0.22363547637E+02 -0.17066133293E+02  0.28506890947E+02  0.51100000000E-03 0. -1.
        -11    1    3    3    0    0  0.52368682067E+01  0.57719574517E+01 -0.80456573352E+01  0.11201467924E+02  0.51100000000E-03 0.  1.
         12    1    3    3    0    0 -0.46541728814E+01  0.11401385692E+01 -0.65044265771E+01  0.80789112053E+01  0.00000000000E+00 0. -1.
</event>
<event>
 7    1  0.2700100E-010  0.4778727E+02  0.7816164E-02  0.1312668E+00
        -11   -1    0    0    0    0  0.00000000000E+00  0.00000000000E+00  0.45593999997E+02  0.45594000000E+02  0.51100000000E-03 0.  1.
         11   -1    0    0    0    0 -0.00000000000E+00 -0.00000000000E+00 -0.45593999997E+02  0.45594000000E+02  0.51100000000E-03 0. -1.
    9900012    2    1    2    0    0 -0.68968969160E+01 -0.39270476555E+01 -0.42668893338E+02  0.47787270178E+02  0.19999996049E+02 0.  0.
        -12    1    1    2    0    0  0.68968969160E+01  0.39270476555E+01  0.42668893338E+02  0.43400729822E+02  0.00000000000E+00 0.  1.
         11    1    3    3    0    0 -0.83139506556E+01 -0.70603435958E+01 -0.30375407354E+02  0.32274379923E+02  0.51100000000E-03 0. -1.
        -11    1    3    3    0    0  0.56054893876E-01 -0.61710265851E+00  0.12493628178E+01  0.13945843660E+01  0.51100000000E-03 0.  1.
         12    1    3    3    0    0  0.13609988458E+01  0.37503985988E+01 -0.13542848802E+02  0.14118305889E+02  0.00000000000E+00 0. -1.
</event>
<event>
 7    1  0.2700100E-010  0.4778727E+02  0.7816164E-02  0.1312668E+00
        -11   -1    0    0    0    0  0.00000000000E+00  0.00000000000E+00  0.45593999997E+02  0.45594000000E+02  0.51100000000E-03 0.  1.
         11   -1    0    0    0    0 -0.00000000000E+00 -0.00000000000E+00 -0.45593999997E+02  0.45594000000E+02  0.51100000000E-03 0. -1.
    9900012    2    1    2    0    0  0.44052946145E+01 -0.39853413210E+02 -0.16610903853E+02  0.47787270836E+02  0.19999999050E+02 0.  0.
        -12    1    1    2    0    0 -0.44052946145E+01  0.39853413210E+02  0.16610903853E+02  0.43400729164E+02  0.00000000000E+00 0.  1.
         11    1    3    3    0    0  0.41741383489E+01 -0.56011469292E+01  0.21353698608E+01  0.73045248019E+01  0.51100000000E-03 0.  1.
        -11    1    3    3    0    0 -0.15401262329E+01 -0.29173225995E+02 -0.11358738704E+02  0.31344378268E+02  0.51100000000E-03 0. -1.
         12    1    3    3    0    0  0.17712824984E+01 -0.50790402854E+01 -0.73875350096E+01  0.91383677661E+01  0.00000000000E+00 0. -1.
</event>
<event>
 7    1  0.2700100E-010  0.4778727E+02  0.7816164E-02  0.1312668E+00
        -11   -1    0    0    0    0  0.00000000000E+00  0.00000000000E+00  0.45593999997E+02  0.45594000000E+02  0.51100000000E-03 0.  1.
         11   -1    0    0    0    0 -0.00000000000E+00 -0.00000000000E+00 -0.45593999997E+02  0.45594000000E+02  0.51100000000E-03 0. -1.
    9900012    2    1    2    0    0  0.19419535192E+02 -0.20362122470E+02 -0.33043746976E+02  0.47787267370E+02  0.19999983248E+02 0.  0.
        -12    1    1    2    0    0 -0.19419535192E+02  0.20362122470E+02  0.33043746976E+02  0.43400732630E+02  0.00000000000E+00 0.  1.
         11    1    3    3    0    0  0.92406402708E+01 -0.13387889773E+02 -0.21423165857E+02  0.26899387740E+02  0.51100000000E-03 0. -1.
        -11    1    3    3    0    0  0.77193593242E+01 -0.24512541379E+01 -0.13213885207E+02  0.15498513405E+02  0.51100000000E-03 0.  1.
         12    1    3    3    0    0  0.24595355972E+01 -0.45229785583E+01  0.15933040880E+01  0.53893662252E+01  0.00000000000E+00 0. -1.
</event>
<event>
 7    1  0.2700100E-010  0.4778727E+02  0.7816164E-02  0.1312668E+00
        -11   -1    0    0    0    0  0.00000000000E+00  0.00000000000E+00  0.45593999997E+02  0.45594000000E+02  0.51100000000E-03 0. -1.
         11   -1    0    0    0    0 -0.00000000000E+00 -0.00000000000E+00 -0.45593999997E+02  0.45594000000E+02  0.51100000000E-03 0.  1.
    9900012    2    1    2    0    0  0.32550333037E+02 -0.25504787857E+02  0.13175918011E+02  0.47787271897E+02  0.20000003888E+02 0.  0.
        -12    1    1    2    0    0 -0.32550333037E+02  0.25504787857E+02 -0.13175918011E+02  0.43400728103E+02  0.00000000000E+00 0.  1.
         11    1    3    3    0    0  0.12137373720E+02 -0.53846022226E+01  0.60186247676E+01  0.14578533063E+02  0.51100000000E-03 0. -1.
        -11    1    3    3    0    0 -0.15631309716E+00 -0.72016415936E+01 -0.16176076880E+01  0.73827319009E+01  0.51100000000E-03 0.  1.
        -12    1    3    3    0    0  0.20569272414E+02 -0.12918544040E+02  0.87749009317E+01  0.25826006934E+02  0.00000000000E+00 0.  1.
</event>
<event>
 7    1  0.2700100E-010  0.4778726E+02  0.7816164E-02  0.1312668E+00
        -11   -1    0    0    0    0  0.00000000000E+00  0.00000000000E+00  0.45593999997E+02  0.45594000000E+02  0.51100000000E-03 0.  1.
         11   -1    0    0    0    0 -0.00000000000E+00 -0.00000000000E+00 -0.45593999997E+02  0.45594000000E+02  0.51100000000E-03 0. -1.
    9900012    2    1    2    0    0  0.30967427734E+02 -0.40675115060E+01 -0.30134658278E+02  0.47787264294E+02  0.19999969222E+02 0.  0.
        -12    1    1    2    0    0 -0.30967427734E+02  0.40675115060E+01  0.30134658278E+02  0.43400735706E+02  0.00000000000E+00 0.  1.
         11    1    3    3    0    0  0.24477047039E+02 -0.51718926956E+01 -0.15639960667E+02  0.29503943393E+02  0.51100000000E-03 0. -1.
        -11    1    3    3    0    0  0.25406858097E+01 -0.17750356773E+01 -0.12144919647E+00  0.31017069829E+01  0.51100000000E-03 0.  1.
         12    1    3    3    0    0  0.39496948854E+01  0.28794168669E+01 -0.14373248414E+02  0.15181613918E+02  0.00000000000E+00 0. -1.
</event>
<event>
 7    1  0.2700100E-010  0.4778725E+02  0.7816164E-02  0.1312668E+00
        -11   -1    0    0    0    0  0.00000000000E+00  0.00000000000E+00  0.45593999997E+02  0.45594000000E+02  0.51100000000E-03 0. -1.
         11   -1    0    0    0    0 -0.00000000000E+00 -0.00000000000E+00 -0.45593999997E+02  0.45594000000E+02  0.51100000000E-03 0.  1.
    9900012    2    1    2    0    0 -0.28717380190E+00 -0.20313449272E+02  0.38352398151E+02  0.47787249614E+02  0.19999902288E+02 0.  0.
        -12    1    1    2    0    0  0.28717380190E+00  0.20313449272E+02 -0.38352398151E+02  0.43400750386E+02  0.00000000000E+00 0.  1.
         11    1    3    3    0    0 -0.28833555451E+01 -0.16583757583E+02  0.22442368160E+02  0.28053424811E+02  0.51100000000E-03 0. -1.
        -11    1    3    3    0    0 -0.91719239521E+00  0.11730496018E+01 -0.99105240865E+00  0.17887069061E+01  0.51100000000E-03 0.  1.
         12    1    3    3    0    0  0.35133741384E+01 -0.49027412916E+01  0.16901082401E+02  0.17945117896E+02  0.00000000000E+00 0. -1.
</event>
<event>
 7    1  0.2700100E-010  0.4778727E+02  0.7816164E-02  0.1312668E+00
        -11   -1    0    0    0    0  0.00000000000E+00  0.00000000000E+00  0.45593999997E+02  0.45594000000E+02  0.51100000000E-03 0. -1.
         11   -1    0    0    0    0 -0.00000000000E+00 -0.00000000000E+00 -0.45593999997E+02  0.45594000000E+02  0.51100000000E-03 0.  1.
    9900012    2    1    2    0    0 -0.41020583584E+01  0.37243164257E+02  0.21903038688E+02  0.47787271084E+02  0.20000000180E+02 0.  0.
        -12    1    1    2    0    0  0.41020583584E+01 -0.37243164257E+02 -0.21903038688E+02  0.43400728916E+02  0.00000000000E+00 0.  1.
         11    1    3    3    0    0 -0.87820749738E+01  0.25995896213E+02  0.10741333941E+02  0.29466722177E+02  0.51100000000E-03 0. -1.
        -11    1    3    3    0    0  0.61855900714E+01  0.10327556349E+02  0.11351392050E+02  0.16546118771E+02  0.51100000000E-03 0.  1.
        -12    1    3    3    0    0 -0.15055734560E+01  0.91971169510E+00 -0.18968730160E+00  0.17744301355E+01  0.00000000000E+00 0.  1.
</event>
<event>
 7    1  0.2700100E-010  0.4778727E+02  0.7816164E-02  0.1312668E+00
        -11   -1    0    0    0    0  0.00000000000E+00  0.00000000000E+00  0.45593999997E+02  0.45594000000E+02  0.51100000000E-03 0.  1.
         11   -1    0    0    0    0 -0.00000000000E+00 -0.00000000000E+00 -0.45593999997E+02  0.45594000000E+02  0.51100000000E-03 0. -1.
    9900012    2    1    2    0    0  0.22919526302E+02  0.20153215803E+02 -0.30857194415E+02  0.47787271431E+02  0.20000001763E+02 0.  0.
        -12    1    1    2    0    0 -0.22919526302E+02 -0.20153215803E+02  0.30857194415E+02  0.43400728569E+02  0.00000000000E+00 0.  1.
         11    1    3    3    0    0  0.73339118481E+00  0.11402712871E+02 -0.74280883346E+01  0.13628507622E+02  0.51100000000E-03 0. -1.
        -11    1    3    3    0    0  0.17641787758E+02  0.94397159990E+01 -0.20809931010E+02  0.28868566683E+02  0.51100000000E-03 0.  1.
         12    1    3    3    0    0  0.45443473594E+01 -0.68921306695E+00 -0.26191750707E+01  0.52901971254E+01  0.00000000000E+00 0. -1.
</event>
<event>
 7    1  0.2700100E-010  0.4778727E+02  0.7816164E-02  0.1312668E+00
        -11   -1    0    0    0    0  0.00000000000E+00  0.00000000000E+00  0.45593999997E+02  0.45594000000E+02  0.51100000000E-03 0. -1.
         11   -1    0    0    0    0 -0.00000000000E+00 -0.00000000000E+00 -0.45593999997E+02  0.45594000000E+02  0.51100000000E-03 0.  1.
    9900012    2    1    2    0    0  0.68923460046E+01 -0.46036358630E+01  0.42601942467E+02  0.47787269608E+02  0.19999993449E+02 0.  0.
        -12    1    1    2    0    0 -0.68923460046E+01  0.46036358630E+01 -0.42601942467E+02  0.43400730392E+02  0.00000000000E+00 0.  1.
         11    1    3    3    0    0  0.74958303472E+01 -0.15186553307E+01  0.30345608838E+02  0.31294564426E+02  0.51100000000E-03 0. -1.
        -11    1    3    3    0    0 -0.15919505269E+01  0.24629157041E+01 -0.76257609714E-01  0.29336113802E+01  0.51100000000E-03 0.  1.
         12    1    3    3    0    0  0.98846618428E+00 -0.55478962365E+01  0.12332591239E+02  0.13559093802E+02  0.00000000000E+00 0. -1.
</event>
<event>
 7    1  0.2700100E-010  0.4778728E+02  0.7816164E-02  0.1312668E+00
        -11   -1    0    0    0    0  0.00000000000E+00  0.00000000000E+00  0.45593999997E+02  0.45594000000E+02  0.51100000000E-03 0.  1.
         11   -1    0    0    0    0 -0.00000000000E+00 -0.00000000000E+00 -0.45593999997E+02  0.45594000000E+02  0.51100000000E-03 0. -1.
    9900012    2    1    2    0    0 -0.15299697027E+02  0.11477603068E+02 -0.38959034016E+02  0.47787280734E+02  0.20000044181E+02 0.  0.
        -12    1    1    2    0    0  0.15299697027E+02 -0.11477603068E+02  0.38959034016E+02  0.43400719266E+02  0.00000000000E+00 0.  1.
         11    1    3    3    0    0 -0.10137080640E+02  0.41255991839E+01 -0.34950386994E+02  0.36623906452E+02  0.51100000000E-03 0. -1.
        -11    1    3    3    0    0 -0.45964233159E+01  0.51678225819E+01 -0.51611952351E+01  0.86296833113E+01  0.51100000000E-03 0.  1.
         12    1    3    3    0    0 -0.56619307062E+00  0.21841813024E+01  0.11525482127E+01  0.25336909713E+01  0.00000000000E+00 0. -1.
</event>
<event>
 7    1  0.2700100E-010  0.4778727E+02  0.7816164E-02  0.1312668E+00
        -11   -1    0    0    0    0  0.00000000000E+00  0.00000000000E+00  0.45593999997E+02  0.45594000000E+02  0.51100000000E-03 0.  1.
         11   -1    0    0    0    0 -0.00000000000E+00 -0.00000000000E+00 -0.45593999997E+02  0.45594000000E+02  0.51100000000E-03 0. -1.
    9900012    2    1    2    0    0  0.64832295147E+00  0.18143194227E+02 -0.39421156761E+02  0.47787269363E+02  0.19999992334E+02 0.  0.
        -12    1    1    2    0    0 -0.64832295147E+00 -0.18143194227E+02  0.39421156761E+02  0.43400730637E+02  0.00000000000E+00 0.  1.
         11    1    3    3    0    0 -0.45777852117E+00  0.97065493301E+01 -0.17627552307E+02  0.20128518616E+02  0.51100000000E-03 0. -1.
        -11    1    3    3    0    0 -0.62006537961E+01  0.41310605795E+01 -0.54017318838E+01  0.92028515481E+01  0.51100000000E-03 0.  1.
        -12    1    3    3    0    0  0.73067552688E+01  0.43055843177E+01 -0.16391872571E+02  0.18455899199E+02  0.00000000000E+00 0.  1.
</event>
<event>
 7    1  0.2700100E-010  0.4778727E+02  0.7816164E-02  0.1312668E+00
        -11   -1    0    0    0    0  0.00000000000E+00  0.00000000000E+00  0.45593999997E+02  0.45594000000E+02  0.51100000000E-03 0.  1.
         11   -1    0    0    0    0 -0.00000000000E+00 -0.00000000000E+00 -0.45593999997E+02  0.45594000000E+02  0.51100000000E-03 0. -1.
    9900012    2    1    2    0    0 -0.25046438247E+02 -0.75571149942E+01 -0.34629306806E+02  0.47787274824E+02  0.20000017232E+02 0.  0.
        -12    1    1    2    0    0  0.25046438247E+02  0.75571149942E+01  0.34629306806E+02  0.43400725176E+02  0.00000000000E+00 0.  1.
         11    1    3    3    0    0 -0.13615601679E+02 -0.65545317671E+01 -0.12613084234E+02  0.19683403921E+02  0.51100000000E-03 0.  1.
        -11    1    3    3    0    0 -0.61270120648E+01  0.55969580377E+01 -0.14850600386E+02  0.17011953098E+02  0.51100000000E-03 0. -1.
         12    1    3    3    0    0 -0.53038245033E+01 -0.65995412648E+01 -0.71656221859E+01  0.11091917804E+02  0.00000000000E+00 0. -1.
</event>
<event>
 7    1  0.2700100E-010  0.4778727E+02  0.7816164E-02  0.1312668E+00
        -11   -1    0    0    0    0  0.00000000000E+00  0.00000000000E+00  0.45593999997E+02  0.45594000000E+02  0.51100000000E-03 0. -1.
         11   -1    0    0    0    0 -0.00000000000E+00 -0.00000000000E+00 -0.45593999997E+02  0.45594000000E+02  0.51100000000E-03 0.  1.
    9900012    2    1    2    0    0  0.78447439583E+01 -0.30954115632E+02  0.29392616011E+02  0.47787272376E+02  0.20000006070E+02 0.  0.
        -12    1    1    2    0    0 -0.78447439583E+01  0.30954115632E+02 -0.29392616011E+02  0.43400727624E+02  0.00000000000E+00 0.  1.
         11    1    3    3    0    0  0.26110818886E+01 -0.28356369303E+02  0.23714381059E+02  0.37057702276E+02  0.51100000000E-03 0. -1.
        -11    1    3    3    0    0  0.40994749969E+01  0.11346937598E+01  0.55414764895E+00  0.42895576761E+01  0.51100000000E-03 0.  1.
        -12    1    3    3    0    0  0.11341870728E+01 -0.37324400886E+01  0.51240873030E+01  0.64400124239E+01  0.00000000000E+00 0.  1.
</event>
<event>
 7    1  0.2700100E-010  0.4778727E+02  0.7816164E-02  0.1312668E+00
        -11   -1    0    0    0    0  0.00000000000E+00  0.00000000000E+00  0.45593999997E+02  0.45594000000E+02  0.51100000000E-03 0. -1.
         11   -1    0    0    0    0 -0.00000000000E+00 -0.00000000000E+00 -0.45593999997E+02  0.45594000000E+02  0.51100000000E-03 0.  1.
    9900012    2    1    2    0    0  0.27080103054E+02  0.30962728575E+02  0.13841985180E+02  0.47787273094E+02  0.20000009345E+02 0.  0.
        -12    1    1    2    0    0 -0.27080103054E+02 -0.30962728575E+02 -0.13841985180E+02  0.43400726906E+02  0.00000000000E+00 0.  1.
         11    1    3    3    0    0  0.74013874277E+01  0.28288742783E+01  0.46749146276E+01  0.91998854653E+01  0.51100000000E-03 0. -1.
        -11    1    3    3    0    0  0.11474172910E+02  0.26713281661E+02  0.81822342936E+01  0.30202731985E+02  0.51100000000E-03 0.  1.
        -12    1    3    3    0    0  0.82045427166E+01  0.14205726355E+01  0.98483625883E+00  0.83846556434E+01  0.00000000000E+00 0.  1.
</event>
<event>
 7    1  0.2700100E-010  0.4778727E+02  0.7816164E-02  0.1312668E+00
        -11   -1    0    0    0    0  0.00000000000E+00  0.00000000000E+00  0.45593999997E+02  0.45594000000E+02  0.51100000000E-03 0.  1.
         11   -1    0    0    0    0 -0.00000000000E+00 -0.00000000000E+00 -0.45593999997E+02  0.45594000000E+02  0.51100000000E-03 0. -1.
    9900012    2    1    2    0    0  0.29082104624E+02 -0.27781773748E+02 -0.16310353591E+02  0.47787269635E+02  0.19999993574E+02 0.  0.
        -12    1    1    2    0    0 -0.29082104624E+02  0.27781773748E+02  0.16310353591E+02  0.43400730365E+02  0.00000000000E+00 0.  1.
         11    1    3    3    0    0  0.36336470039E+01 -0.12257508139E+01 -0.75356213316E+01  0.84552613633E+01  0.51100000000E-03 0. -1.
        -11    1    3    3    0    0  0.13317545471E+01  0.32863840208E-01  0.14877402447E+01  0.19970031304E+01  0.51100000000E-03 0.  1.
         12    1    3    3    0    0  0.24116703073E+02 -0.26588886774E+02 -0.10262472504E+02  0.37335005141E+02  0.00000000000E+00 0. -1.
</event>
<event>
 7    1  0.2700100E-010  0.4778727E+02  0.7816164E-02  0.1312668E+00
        -11   -1    0    0    0    0  0.00000000000E+00  0.00000000000E+00  0.45593999997E+02  0.45594000000E+02  0.51100000000E-03 0.  1.
         11   -1    0    0    0    0 -0.00000000000E+00 -0.00000000000E+00 -0.45593999997E+02  0.45594000000E+02  0.51100000000E-03 0. -1.
    9900012    2    1    2    0    0 -0.32366841049E+02 -0.23307500644E+02 -0.17110551099E+02  0.47787274837E+02  0.20000017293E+02 0.  0.
        -12    1    1    2    0    0  0.32366841049E+02  0.23307500644E+02  0.17110551099E+02  0.43400725163E+02  0.00000000000E+00 0.  1.
         11    1    3    3    0    0 -0.10989384781E+02 -0.70131533418E+01 -0.81687859091E+01  0.15384406428E+02  0.51100000000E-03 0. -1.
        -11    1    3    3    0    0 -0.13785314183E+02 -0.10933290710E+01 -0.17007806404E+01  0.13932799813E+02  0.51100000000E-03 0.  1.
        -12    1    3    3    0    0 -0.75921420848E+01 -0.15201018231E+02 -0.72409845496E+01  0.18470068596E+02  0.00000000000E+00 0.  1.
</event>
<event>
 7    1  0.2700100E-010  0.4778726E+02  0.7816164E-02  0.1312668E+00
        -11   -1    0    0    0    0  0.00000000000E+00  0.00000000000E+00  0.45593999997E+02  0.45594000000E+02  0.51100000000E-03 0.  1.
         11   -1    0    0    0    0 -0.00000000000E+00 -0.00000000000E+00 -0.45593999997E+02  0.45594000000E+02  0.51100000000E-03 0. -1.
    9900012    2    1    2    0    0 -0.33586373668E+02  0.20604440227E+02 -0.18194417525E+02  0.47787259427E+02  0.19999947032E+02 0.  0.
        -12    1    1    2    0    0  0.33586373668E+02 -0.20604440227E+02  0.18194417525E+02  0.43400740573E+02  0.00000000000E+00 0.  1.
         11    1    3    3    0    0 -0.25610935211E+02  0.10524782533E+02 -0.15512291609E+02  0.31738340236E+02  0.51100000000E-03 0. -1.
        -11    1    3    3    0    0 -0.80536445421E+01  0.10610771751E+02 -0.45723858104E+01  0.14083904992E+02  0.51100000000E-03 0.  1.
         12    1    3    3    0    0  0.78206085079E-01 -0.53111405666E+00  0.18902598945E+01  0.19650141989E+01  0.00000000000E+00 0. -1.
</event>
<event>
 7    1  0.2700100E-010  0.4778727E+02  0.7816164E-02  0.1312668E+00
        -11   -1    0    0    0    0  0.00000000000E+00  0.00000000000E+00  0.45593999997E+02  0.45594000000E+02  0.51100000000E-03 0.  1.
         11   -1    0    0    0    0 -0.00000000000E+00 -0.00000000000E+00 -0.45593999997E+02  0.45594000000E+02  0.51100000000E-03 0. -1.
    9900012    2    1    2    0    0 -0.78857113983E+01  0.56958428562E+01 -0.42296527158E+02  0.47787270977E+02  0.19999999694E+02 0.  0.
        -12    1    1    2    0    0  0.78857113983E+01 -0.56958428562E+01  0.42296527158E+02  0.43400729023E+02  0.00000000000E+00 0.  1.
         11    1    3    3    0    0  0.25387158022E+01  0.82490949136E+01 -0.15902941513E+02  0.18094092789E+02  0.51100000000E-03 0. -1.
        -11    1    3    3    0    0 -0.64400309492E+01 -0.17811093437E+01 -0.62649949582E+01  0.91595038735E+01  0.51100000000E-03 0.  1.
         12    1    3    3    0    0 -0.39843962513E+01 -0.77214271366E+00 -0.20128590686E+02  0.20533674315E+02  0.00000000000E+00 0. -1.
</event>
<event>
 7    1  0.2700100E-010  0.4778727E+02  0.7816164E-02  0.1312668E+00
        -11   -1    0    0    0    0  0.00000000000E+00  0.00000000000E+00  0.45593999997E+02  0.45594000000E+02  0.51100000000E-03 0.  1.
         11   -1    0    0    0    0 -0.00000000000E+00 -0.00000000000E+00 -0.45593999997E+02  0.45594000000E+02  0.51100000000E-03 0. -1.
    9900012    2    1    2    0    0  0.23535370701E+02  0.21230436992E+02 -0.29647564750E+02  0.47787271613E+02  0.20000002592E+02 0.  0.
        -12    1    1    2    0    0 -0.23535370701E+02 -0.21230436992E+02  0.29647564750E+02  0.43400728387E+02  0.00000000000E+00 0.  1.
         11    1    3    3    0    0  0.15422197311E+02  0.48686323913E+01 -0.14909183481E+02  0.21996170203E+02  0.51100000000E-03 0. -1.
        -11    1    3    3    0    0  0.33972573528E+00  0.12357157646E+02 -0.95725427173E+01  0.15634843555E+02  0.51100000000E-03 0.  1.
        -12    1    3    3    0    0  0.77734476551E+01  0.40046469552E+01 -0.51658385516E+01  0.10156257855E+02  0.00000000000E+00 0.  1.
</event>
<event>
 7    1  0.2700100E-010  0.4778727E+02  0.7816164E-02  0.1312668E+00
        -11   -1    0    0    0    0  0.00000000000E+00  0.00000000000E+00  0.45593999997E+02  0.45594000000E+02  0.51100000000E-03 0. -1.
         11   -1    0    0    0    0 -0.00000000000E+00 -0.00000000000E+00 -0.45593999997E+02  0.45594000000E+02  0.51100000000E-03 0.  1.
    9900012    2    1    2    0    0  0.43243108569E+02  0.31123017956E+01  0.19925959970E+01  0.47787270743E+02  0.19999998627E+02 0.  0.
        -12    1    1    2    0    0 -0.43243108569E+02 -0.31123017956E+01 -0.19925959970E+01  0.43400729257E+02  0.00000000000E+00 0.  1.
         11    1    3    3    0    0  0.26838603825E+02  0.64655335190E+01 -0.41314167267E+01  0.27913838564E+02  0.51100000000E-03 0. -1.
        -11    1    3    3    0    0  0.66770207212E+01 -0.58347477508E+01  0.29110085975E+01  0.93327840617E+01  0.51100000000E-03 0.  1.
        -12    1    3    3    0    0  0.97274840230E+01  0.24815160274E+01  0.32130041262E+01  0.10540648117E+02  0.00000000000E+00 0.  1.
</event>
<event>
 7    1  0.2700100E-010  0.4778727E+02  0.7816164E-02  0.1312668E+00
        -11   -1    0    0    0    0  0.00000000000E+00  0.00000000000E+00  0.45593999997E+02  0.45594000000E+02  0.51100000000E-03 0.  1.
         11   -1    0    0    0    0 -0.00000000000E+00 -0.00000000000E+00 -0.45593999997E+02  0.45594000000E+02  0.51100000000E-03 0. -1.
    9900012    2    1    2    0    0 -0.19349636545E+02 -0.25618936705E+02 -0.29204193726E+02  0.47787270933E+02  0.19999999494E+02 0.  0.
        -12    1    1    2    0    0  0.19349636545E+02  0.25618936705E+02  0.29204193726E+02  0.43400729067E+02  0.00000000000E+00 0.  1.
         11    1    3    3    0    0 -0.10845792617E+02 -0.78868657395E+01 -0.58734428940E+01  0.14640054657E+02  0.51100000000E-03 0. -1.
        -11    1    3    3    0    0 -0.44809358355E+01 -0.18216918051E+02 -0.21931390997E+02  0.28860367297E+02  0.51100000000E-03 0.  1.
        -12    1    3    3    0    0 -0.40229080928E+01  0.48484708489E+00 -0.13993598351E+01  0.42868489788E+01  0.00000000000E+00 0.  1.
</event>
<event>
 7    1  0.2700100E-010  0.4778727E+02  0.7816164E-02  0.1312668E+00
        -11   -1    0    0    0    0  0.00000000000E+00  0.00000000000E+00  0.45593999997E+02  0.45594000000E+02  0.51100000000E-03 0.  1.
         11   -1    0    0    0    0 -0.00000000000E+00 -0.00000000000E+00 -0.45593999997E+02  0.45594000000E+02  0.51100000000E-03 0. -1.
    9900012    2    1    2    0    0  0.39364291857E+01  0.39632892711E+02 -0.17244179565E+02  0.47787269726E+02  0.19999993991E+02 0.  0.
        -12    1    1    2    0    0 -0.39364291857E+01 -0.39632892711E+02  0.17244179565E+02  0.43400730274E+02  0.00000000000E+00 0.  1.
         11    1    3    3    0    0 -0.54943396326E+01  0.21816848568E+02 -0.11188508772E+02  0.25126587080E+02  0.51100000000E-03 0. -1.
        -11    1    3    3    0    0  0.82928442602E+01  0.79133745781E+01 -0.10614954221E+01  0.11511712989E+02  0.51100000000E-03 0.  1.
         12    1    3    3    0    0  0.11379245581E+01  0.99026695649E+01 -0.49941753706E+01  0.11148969658E+02  0.00000000000E+00 0. -1.
</event>
<event>
 7    1  0.2700100E-010  0.4778728E+02  0.7816164E-02  0.1312668E+00
        -11   -1    0    0    0    0  0.00000000000E+00  0.00000000000E+00  0.45593999997E+02  0.45594000000E+02  0.51100000000E-03 0.  1.
         11   -1    0    0    0    0 -0.00000000000E+00 -0.00000000000E+00 -0.45593999997E+02  0.45594000000E+02  0.51100000000E-03 0. -1.
    9900012    2    1    2    0    0 -0.21843875722E+02  0.29068921209E+02 -0.23695265924E+02  0.47787277494E+02  0.20000029408E+02 0.  0.
        -12    1    1    2    0    0  0.21843875722E+02 -0.29068921209E+02  0.23695265924E+02  0.43400722506E+02  0.00000000000E+00 0.  1.
         11    1    3    3    0    0 -0.73283774845E+01  0.97857410585E+01 -0.17465101839E+02  0.21318903047E+02  0.51100000000E-03 0.  1.
        -11    1    3    3    0    0 -0.14968825305E+01  0.61895540941E+01 -0.47509780485E+01  0.79450003067E+01  0.51100000000E-03 0. -1.
         12    1    3    3    0    0 -0.13018615707E+02  0.13093626056E+02 -0.14791860366E+01  0.18523374141E+02  0.00000000000E+00 0. -1.
</event>
<event>
 7    1  0.2700100E-010  0.4778727E+02  0.7816164E-02  0.1312668E+00
        -11   -1    0    0    0    0  0.00000000000E+00  0.00000000000E+00  0.45593999997E+02  0.45594000000E+02  0.51100000000E-03 0.  1.
         11   -1    0    0    0    0 -0.00000000000E+00 -0.00000000000E+00 -0.45593999997E+02  0.45594000000E+02  0.51100000000E-03 0. -1.
    9900012    2    1    2    0    0 -0.30739760678E+02  0.20161329551E+01 -0.30571648685E+02  0.47787269800E+02  0.19999994325E+02 0.  0.
        -12    1    1    2    0    0  0.30739760678E+02 -0.20161329551E+01  0.30571648685E+02  0.43400730200E+02  0.00000000000E+00 0.  1.
         11    1    3    3    0    0 -0.11862473189E+02 -0.52990783163E+01 -0.61515465668E+01  0.14374979186E+02  0.51100000000E-03 0. -1.
        -11    1    3    3    0    0 -0.76761247014E+00  0.35707964493E+01 -0.75218626828E+01  0.83617124243E+01  0.51100000000E-03 0.  1.
         12    1    3    3    0    0 -0.18109675018E+02  0.37444148221E+01 -0.16898239435E+02  0.25050578190E+02  0.00000000000E+00 0. -1.
</event>
<event>
 7    1  0.2700100E-010  0.4778727E+02  0.7816164E-02  0.1312668E+00
        -11   -1    0    0    0    0  0.00000000000E+00  0.00000000000E+00  0.45593999997E+02  0.45594000000E+02  0.51100000000E-03 0.  1.
         11   -1    0    0    0    0 -0.00000000000E+00 -0.00000000000E+00 -0.45593999997E+02  0.45594000000E+02  0.51100000000E-03 0. -1.
    9900012    2    1    2    0    0  0.27442631043E+02 -0.38523781626E+01 -0.33401858736E+02  0.47787274394E+02  0.20000015274E+02 0.  0.
        -12    1    1    2    0    0 -0.27442631043E+02  0.38523781626E+01  0.33401858736E+02  0.43400725606E+02  0.00000000000E+00 0.  1.
         11    1    3    3    0    0  0.13255036942E+02 -0.11868721233E+01 -0.28080843438E+02  0.31074723462E+02  0.51100000000E-03 0. -1.
        -11    1    3    3    0    0  0.51814231189E+01 -0.19028495520E+01  0.10963869665E+01  0.56276146453E+01  0.51100000000E-03 0.  1.
         12    1    3    3    0    0  0.90061709815E+01 -0.76265648727E+00 -0.64174022644E+01  0.11084936287E+02  0.00000000000E+00 0. -1.
</event>
<event>
 7    1  0.2700100E-010  0.4778726E+02  0.7816164E-02  0.1312668E+00
        -11   -1    0    0    0    0  0.00000000000E+00  0.00000000000E+00  0.45593999997E+02  0.45594000000E+02  0.51100000000E-03 0. -1.
         11   -1    0    0    0    0 -0.00000000000E+00 -0.00000000000E+00 -0.45593999997E+02  0.45594000000E+02  0.51100000000E-03 0.  1.
    9900012    2    1    2    0    0 -0.15242943571E+02  0.24820255374E+02 -0.32175020658E+02  0.47787258533E+02  0.19999942956E+02 0.  0.
        -12    1    1    2    0    0  0.15242943571E+02 -0.24820255374E+02  0.32175020658E+02  0.43400741467E+02  0.00000000000E+00 0.  1.
         11    1    3    3    0    0 -0.10713428675E+02  0.22479014863E+02 -0.13749058852E+02  0.28445039686E+02  0.51100000000E-03 0. -1.
        -11    1    3    3    0    0 -0.39228153929E+01  0.52658713059E+00 -0.12969387406E+02  0.13559896185E+02  0.51100000000E-03 0.  1.
         12    1    3    3    0    0 -0.60669950315E+00  0.18146533806E+01 -0.54565744000E+01  0.57823226615E+01  0.00000000000E+00 0. -1.
</event>
<event>
 7    1  0.2700100E-010  0.4778727E+02  0.7816164E-02  0.1312668E+00
        -11   -1    0    0    0    0  0.00000000000E+00  0.00000000000E+00  0.45593999997E+02  0.45594000000E+02  0.51100000000E-03 0.  1.
         11   -1    0    0    0    0 -0.00000000000E+00 -0.00000000000E+00 -0.45593999997E+02  0.45594000000E+02  0.51100000000E-03 0. -1.
    9900012    2    1    2    0    0 -0.12159008208E+02 -0.28498117426E+02 -0.30391431840E+02  0.47787270666E+02  0.19999998276E+02 0.  0.
        -12    1    1    2    0    0  0.12159008208E+02  0.28498117426E+02  0.30391431840E+02  0.43400729334E+02  0.00000000000E+00 0.  1.
         11    1    3    3    0    0 -0.91564809610E+01 -0.94985342889E+01 -0.81808336833E+01  0.15523831268E+02  0.51100000000E-03 0. -1.
        -11    1    3    3    0    0  0.45094358708E+01 -0.13084406110E+02 -0.13061490949E+02  0.19029956416E+02  0.51100000000E-03 0.  1.
        -12    1    3    3    0    0 -0.75119631181E+01 -0.59151770269E+01 -0.91491072074E+01  0.13233482982E+02  0.00000000000E+00 0.  1.
</event>
<event>
 7    1  0.2700100E-010  0.4778728E+02  0.7816164E-02  0.1312668E+00
        -11   -1    0    0    0    0  0.00000000000E+00  0.00000000000E+00  0.45593999997E+02  0.45594000000E+02  0.51100000000E-03 0.  1.
         11   -1    0    0    0    0 -0.00000000000E+00 -0.00000000000E+00 -0.45593999997E+02  0.45594000000E+02  0.51100000000E-03 0. -1.
    9900012    2    1    2    0    0  0.13468279973E+02  0.18939970707E+02 -0.36653864841E+02  0.47787275771E+02  0.20000021551E+02 0.  0.
        -12    1    1    2    0    0 -0.13468279973E+02 -0.18939970707E+02  0.36653864841E+02  0.43400724229E+02  0.00000000000E+00 0.  1.
         11    1    3    3    0    0 -0.14414238997E+00  0.13695848021E+02 -0.18904421702E+02  0.23344682268E+02  0.51100000000E-03 0. -1.
        -11    1    3    3    0    0  0.99291207267E+01  0.74267212375E+01 -0.14427509109E+02  0.19023581316E+02  0.51100000000E-03 0.  1.
         12    1    3    3    0    0  0.36833016360E+01 -0.21825985516E+01 -0.33219340296E+01  0.54190121864E+01  0.00000000000E+00 0. -1.
</event>
<event>
 7    1  0.2700100E-010  0.4778727E+02  0.7816164E-02  0.1312668E+00
        -11   -1    0    0    0    0  0.00000000000E+00  0.00000000000E+00  0.45593999997E+02  0.45594000000E+02  0.51100000000E-03 0. -1.
         11   -1    0    0    0    0 -0.00000000000E+00 -0.00000000000E+00 -0.45593999997E+02  0.45594000000E+02  0.51100000000E-03 0.  1.
    9900012    2    1    2    0    0 -0.90926272110E+01  0.37256038645E+02 -0.20320811495E+02  0.47787266539E+02  0.19999979457E+02 0.  0.
        -12    1    1    2    0    0  0.90926272110E+01 -0.37256038645E+02  0.20320811495E+02  0.43400733461E+02  0.00000000000E+00 0.  1.
         11    1    3    3    0    0 -0.13393650630E+02  0.16584398664E+02 -0.12842343203E+02  0.24886902890E+02  0.51100000000E-03 0. -1.
        -11    1    3    3    0    0  0.29371221722E+01  0.49147402173E+01 -0.10148745111E+01  0.58147509485E+01  0.51100000000E-03 0.  1.
         12    1    3    3    0    0  0.13639012466E+01  0.15756899764E+02 -0.64635937807E+01  0.17085612701E+02  0.00000000000E+00 0. -1.
</event>
<event>
 7    1  0.2700100E-010  0.4778728E+02  0.7816164E-02  0.1312668E+00
        -11   -1    0    0    0    0  0.00000000000E+00  0.00000000000E+00  0.45593999997E+02  0.45594000000E+02  0.51100000000E-03 0. -1.
         11   -1    0    0    0    0 -0.00000000000E+00 -0.00000000000E+00 -0.45593999997E+02  0.45594000000E+02  0.51100000000E-03 0.  1.
    9900012    2    1    2    0    0  0.73057984602E+01 -0.18742989125E+02  0.38457099897E+02  0.47787275755E+02  0.20000021478E+02 0.  0.
        -12    1    1    2    0    0 -0.73057984602E+01  0.18742989125E+02 -0.38457099897E+02  0.43400724245E+02  0.00000000000E+00 0.  1.
         11    1    3    3    0    0  0.61733475628E+01  0.20487412474E+01  0.65757382461E+01  0.92492104837E+01  0.51100000000E-03 0. -1.
        -11    1    3    3    0    0 -0.19559396482E+01 -0.71570338440E+01  0.13956168584E+02  0.15805805110E+02  0.51100000000E-03 0.  1.
         12    1    3    3    0    0  0.30883905456E+01 -0.13634696529E+02  0.17925193067E+02  0.22732260162E+02  0.00000000000E+00 0. -1.
</event>
<event>
 7    1  0.2700100E-010  0.4778729E+02  0.7816164E-02  0.1312668E+00
        -11   -1    0    0    0    0  0.00000000000E+00  0.00000000000E+00  0.45593999997E+02  0.45594000000E+02  0.51100000000E-03 0. -1.
         11   -1    0    0    0    0 -0.00000000000E+00 -0.00000000000E+00 -0.45593999997E+02  0.45594000000E+02  0.51100000000E-03 0.  1.
    9900012    2    1    2    0    0  0.12623228846E+02 -0.20610191762E+02  0.36048523553E+02  0.47787286166E+02  0.20000068944E+02 0.  0.
        -12    1    1    2    0    0 -0.12623228846E+02  0.20610191762E+02 -0.36048523553E+02  0.43400713834E+02  0.00000000000E+00 0.  1.
         11    1    3    3    0    0  0.13361842208E+02 -0.21082810080E+02  0.28611751951E+02  0.37969146133E+02  0.51100000000E-03 0. -1.
        -11    1    3    3    0    0 -0.26113578124E+01 -0.10214870188E+00  0.56651368675E+00  0.26740534774E+01  0.51100000000E-03 0.  1.
        -12    1    3    3    0    0  0.18727444506E+01  0.57476701930E+00  0.68702579146E+01  0.71440865558E+01  0.00000000000E+00 0.  1.
</event>
<event>
 7    1  0.2700100E-010  0.4778727E+02  0.7816164E-02  0.1312668E+00
        -11   -1    0    0    0    0  0.00000000000E+00  0.00000000000E+00  0.45593999997E+02  0.45594000000E+02  0.51100000000E-03 0.  1.
         11   -1    0    0    0    0 -0.00000000000E+00 -0.00000000000E+00 -0.45593999997E+02  0.45594000000E+02  0.51100000000E-03 0. -1.
    9900012    2    1    2    0    0 -0.87216704548E+01  0.42017366427E+02 -0.64881999057E+01  0.47787270110E+02  0.19999995741E+02 0.  0.
        -12    1    1    2    0    0  0.87216704548E+01 -0.42017366427E+02  0.64881999057E+01  0.43400729890E+02  0.00000000000E+00 0.  1.
         11    1    3    3    0    0  0.30364564115E+00  0.22415855510E+02 -0.14373109932E+00  0.22418372773E+02  0.51100000000E-03 0. -1.
        -11    1    3    3    0    0 -0.11496418135E+02  0.12727588620E+02 -0.55222574132E+01  0.18018170529E+02  0.51100000000E-03 0.  1.
        -12    1    3    3    0    0  0.24711020391E+01  0.68739222965E+01 -0.82221139317E+00  0.73507268077E+01  0.00000000000E+00 0.  1.
</event>
<event>
 7    1  0.2700100E-010  0.4778727E+02  0.7816164E-02  0.1312668E+00
        -11   -1    0    0    0    0  0.00000000000E+00  0.00000000000E+00  0.45593999997E+02  0.45594000000E+02  0.51100000000E-03 0.  1.
         11   -1    0    0    0    0 -0.00000000000E+00 -0.00000000000E+00 -0.45593999997E+02  0.45594000000E+02  0.51100000000E-03 0. -1.
    9900012    2    1    2    0    0  0.14421572722E+02 -0.47803222564E+01 -0.40654518844E+02  0.47787272551E+02  0.20000006868E+02 0.  0.
        -12    1    1    2    0    0 -0.14421572722E+02  0.47803222564E+01  0.40654518844E+02  0.43400727449E+02  0.00000000000E+00 0.  1.
         11    1    3    3    0    0  0.20190602975E+01 -0.40330237421E+01 -0.29587808091E+02  0.29929588585E+02  0.51100000000E-03 0. -1.
        -11    1    3    3    0    0  0.45161219381E+01 -0.31241502477E+01 -0.27088862513E+01  0.61232129731E+01  0.51100000000E-03 0.  1.
         12    1    3    3    0    0  0.78863904863E+01  0.23768517335E+01 -0.83578245026E+01  0.11734470993E+02  0.00000000000E+00 0. -1.
</event>
<event>
 7    1  0.2700100E-010  0.4778727E+02  0.7816164E-02  0.1312668E+00
        -11   -1    0    0    0    0  0.00000000000E+00  0.00000000000E+00  0.45593999997E+02  0.45594000000E+02  0.51100000000E-03 0.  1.
         11   -1    0    0    0    0 -0.00000000000E+00 -0.00000000000E+00 -0.45593999997E+02  0.45594000000E+02  0.51100000000E-03 0. -1.
    9900012    2    1    2    0    0  0.31955450623E+00  0.40766070318E+02 -0.14887884926E+02  0.47787265884E+02  0.19999976470E+02 0.  0.
        -12    1    1    2    0    0 -0.31955450623E+00 -0.40766070318E+02  0.14887884926E+02  0.43400734116E+02  0.00000000000E+00 0.  1.
         11    1    3    3    0    0 -0.53366958801E+00  0.36269515071E+01  0.11784775899E+01  0.38507648793E+01  0.51100000000E-03 0. -1.
        -11    1    3    3    0    0  0.69780992893E+01  0.24534522929E+02 -0.47997881888E+01  0.25955243246E+02  0.51100000000E-03 0.  1.
        -12    1    3    3    0    0 -0.61248751951E+01  0.12604595882E+02 -0.11266574327E+02  0.17981257759E+02  0.00000000000E+00 0.  1.
</event>
<event>
 7    1 -0.6725906E-010  0.4778727E+02  0.7816164E-02  0.1312668E+00
        -11   -1    0    0    0    0  0.00000000000E+00  0.00000000000E+00  0.45593999997E+02  0.45594000000E+02  0.51100000000E-03 0. -1.
         11   -1    0    0    0    0 -0.00000000000E+00 -0.00000000000E+00 -0.45593999997E+02  0.45594000000E+02  0.51100000000E-03 0.  1.
    9900012    2    1    2    0    0 -0.32675255397E+02 -0.28564092022E+02  0.20880114592E+00  0.47787271133E+02  0.20000000402E+02 0.  0.
        -12    1    1    2    0    0  0.32675255397E+02  0.28564092022E+02 -0.20880114592E+00  0.43400728867E+02  0.00000000000E+00 0.  1.
         11    1    3    3    0    0 -0.26454944471E+02 -0.24506368503E+02  0.10900775235E+01  0.36077894249E+02  0.51100000000E-03 0. -1.
        -11    1    3    3    0    0 -0.48614168136E+01 -0.49385636623E+01 -0.41386742003E+01  0.80716422666E+01  0.51100000000E-03 0.  1.
         12    1    3    3    0    0 -0.13588941119E+01  0.88084014369E+00  0.32573978227E+01  0.36377346167E+01  0.00000000000E+00 0. -1.
</event>
<event>
 7    1  0.2700100E-010  0.4778727E+02  0.7816164E-02  0.1312668E+00
        -11   -1    0    0    0    0  0.00000000000E+00  0.00000000000E+00  0.45593999997E+02  0.45594000000E+02  0.51100000000E-03 0.  1.
         11   -1    0    0    0    0 -0.00000000000E+00 -0.00000000000E+00 -0.45593999997E+02  0.45594000000E+02  0.51100000000E-03 0. -1.
    9900012    2    1    2    0    0  0.41589073418E+02  0.64393091216E+01 -0.10606963032E+02  0.47787269655E+02  0.19999993665E+02 0.  0.
        -12    1    1    2    0    0 -0.41589073418E+02 -0.64393091216E+01  0.10606963032E+02  0.43400730345E+02  0.00000000000E+00 0.  1.
         11    1    3    3    0    0  0.35587395456E+02  0.62785339860E+01 -0.15591948372E+02  0.39357230069E+02  0.51100000000E-03 0. -1.
        -11    1    3    3    0    0  0.31712182894E+01  0.68919630755E+00  0.44399836048E+01  0.54995519509E+01  0.51100000000E-03 0.  1.
         12    1    3    3    0    0  0.28304596721E+01 -0.52842117201E+00  0.54500173503E+00  0.29304876354E+01  0.00000000000E+00 0. -1.
</event>
<event>
 7    1  0.3117857E-010  0.4778728E+02  0.7816164E-02  0.1312668E+00
        -11   -1    0    0    0    0  0.00000000000E+00  0.00000000000E+00  0.45593999997E+02  0.45594000000E+02  0.51100000000E-03 0. -1.
         11   -1    0    0    0    0 -0.00000000000E+00 -0.00000000000E+00 -0.45593999997E+02  0.45594000000E+02  0.51100000000E-03 0.  1.
    9900012    2    1    2    0    0 -0.16657588123E+02 -0.22648335297E+02  0.33063574683E+02  0.47787282211E+02  0.20000050911E+02 0.  0.
        -12    1    1    2    0    0  0.16657588123E+02  0.22648335297E+02 -0.33063574683E+02  0.43400717789E+02  0.00000000000E+00 0.  1.
         11    1    3    3    0    0 -0.78993381494E+01 -0.89606820936E+01  0.10124795533E+02  0.15659018221E+02  0.51100000000E-03 0. -1.
        -11    1    3    3    0    0 -0.91181248468E+01 -0.60642656415E+01  0.21821518663E+02  0.24415040355E+02  0.51100000000E-03 0.  1.
        -12    1    3    3    0    0  0.35987487355E+00 -0.76233875624E+01  0.11172604863E+01  0.77132236351E+01  0.00000000000E+00 0.  1.
</event>
<event>
 7    1  0.2700100E-010  0.4778727E+02  0.7816164E-02  0.1312668E+00
        -11   -1    0    0    0    0  0.00000000000E+00  0.00000000000E+00  0.45593999997E+02  0.45594000000E+02  0.51100000000E-03 0.  1.
         11   -1    0    0    0    0 -0.00000000000E+00 -0.00000000000E+00 -0.45593999997E+02  0.45594000000E+02  0.51100000000E-03 0. -1.
    9900012    2    1    2    0    0  0.72445250242E+01  0.32223351858E+02 -0.28156625520E+02  0.47787272950E+02  0.20000008689E+02 0.  0.
        -12    1    1    2    0    0 -0.72445250242E+01 -0.32223351858E+02  0.28156625520E+02  0.43400727050E+02  0.00000000000E+00 0.  1.
         11    1    3    3    0    0 -0.89143778858E+00  0.13012864519E+02 -0.20636071145E+02  0.24412634780E+02  0.51100000000E-03 0. -1.
        -11    1    3    3    0    0  0.75348186345E-01  0.64739320068E+01  0.12063120490E+00  0.64754941994E+01  0.51100000000E-03 0.  1.
         12    1    3    3    0    0  0.80606146264E+01  0.12736555333E+02 -0.76411855795E+01  0.16899143971E+02  0.00000000000E+00 0. -1.
</event>
<event>
 7    1  0.2700100E-010  0.4778727E+02  0.7816164E-02  0.1312668E+00
        -11   -1    0    0    0    0  0.00000000000E+00  0.00000000000E+00  0.45593999997E+02  0.45594000000E+02  0.51100000000E-03 0.  1.
         11   -1    0    0    0    0 -0.00000000000E+00 -0.00000000000E+00 -0.45593999997E+02  0.45594000000E+02  0.51100000000E-03 0. -1.
    9900012    2    1    2    0    0  0.30939541251E+02  0.66864938163E+01 -0.29692737499E+02  0.47787273364E+02  0.20000010576E+02 0.  0.
        -12    1    1    2    0    0 -0.30939541251E+02 -0.66864938163E+01  0.29692737499E+02  0.43400726636E+02  0.00000000000E+00 0.  1.
         11    1    3    3    0    0  0.92880062370E+01 -0.58330263980E+01 -0.14786958654E+02  0.18410469937E+02  0.51100000000E-03 0. -1.
        -11    1    3    3    0    0  0.14552469798E+02  0.63625377644E+01 -0.86170652081E+01  0.18069589842E+02  0.51100000000E-03 0.  1.
         12    1    3    3    0    0  0.70990652161E+01  0.61569824499E+01 -0.62887136367E+01  0.11307213584E+02  0.00000000000E+00 0. -1.
</event>
<event>
 7    1  0.2700100E-010  0.4778727E+02  0.7816164E-02  0.1312668E+00
        -11   -1    0    0    0    0  0.00000000000E+00  0.00000000000E+00  0.45593999997E+02  0.45594000000E+02  0.51100000000E-03 0.  1.
         11   -1    0    0    0    0 -0.00000000000E+00 -0.00000000000E+00 -0.45593999997E+02  0.45594000000E+02  0.51100000000E-03 0. -1.
    9900012    2    1    2    0    0  0.21036069111E+02  0.37297852726E+02  0.70694897512E+01  0.47787266055E+02  0.19999977253E+02 0.  0.
        -12    1    1    2    0    0 -0.21036069111E+02 -0.37297852726E+02 -0.70694897512E+01  0.43400733945E+02  0.00000000000E+00 0.  1.
         11    1    3    3    0    0  0.11690140507E+02  0.11418377304E+02  0.23872878801E+01  0.16514777292E+02  0.51100000000E-03 0. -1.
        -11    1    3    3    0    0 -0.23640647364E+01  0.11475000399E+02 -0.12535236285E+01  0.11782858650E+02  0.51100000000E-03 0.  1.
        -12    1    3    3    0    0  0.11709993340E+02  0.14404475023E+02  0.59357254996E+01  0.19489630113E+02  0.00000000000E+00 0.  1.
</event>
<event>
 7    1  0.2700100E-010  0.4778727E+02  0.7816164E-02  0.1312668E+00
        -11   -1    0    0    0    0  0.00000000000E+00  0.00000000000E+00  0.45593999997E+02  0.45594000000E+02  0.51100000000E-03 0.  1.
         11   -1    0    0    0    0 -0.00000000000E+00 -0.00000000000E+00 -0.45593999997E+02  0.45594000000E+02  0.51100000000E-03 0. -1.
    9900012    2    1    2    0    0  0.19910431086E+02 -0.36377933678E+02 -0.12800148702E+02  0.47787272684E+02  0.20000007477E+02 0.  0.
        -12    1    1    2    0    0 -0.19910431086E+02  0.36377933678E+02  0.12800148702E+02  0.43400727316E+02  0.00000000000E+00 0.  1.
         11    1    3    3    0    0  0.16166346300E+02 -0.22841862789E+02 -0.10835305905E+02  0.30008420530E+02  0.51100000000E-03 0. -1.
        -11    1    3    3    0    0 -0.30656311783E+01 -0.29333529869E+01 -0.29057768485E+01  0.51425862775E+01  0.51100000000E-03 0.  1.
        -12    1    3    3    0    0  0.68097159644E+01 -0.10602717902E+02  0.94093405152E+00  0.12636265877E+02  0.00000000000E+00 0.  1.
</event>
<event>
 7    1  0.2700100E-010  0.4778727E+02  0.7816164E-02  0.1312668E+00
        -11   -1    0    0    0    0  0.00000000000E+00  0.00000000000E+00  0.45593999997E+02  0.45594000000E+02  0.51100000000E-03 0.  1.
         11   -1    0    0    0    0 -0.00000000000E+00 -0.00000000000E+00 -0.45593999997E+02  0.45594000000E+02  0.51100000000E-03 0. -1.
    9900012    2    1    2    0    0  0.99524574806E+01 -0.11755630247E+02 -0.40575569411E+02  0.47787273215E+02  0.20000009897E+02 0.  0.
        -12    1    1    2    0    0 -0.99524574806E+01  0.11755630247E+02  0.40575569411E+02  0.43400726785E+02  0.00000000000E+00 0.  1.
         11    1    3    3    0    0  0.97740962857E+01 -0.46457076090E+00 -0.21485759625E+02  0.23609037488E+02  0.51100000000E-03 0. -1.
        -11    1    3    3    0    0 -0.26696039728E+01 -0.10698585437E+02 -0.17924479966E+02  0.21044559821E+02  0.51100000000E-03 0.  1.
        -12    1    3    3    0    0  0.28479651677E+01 -0.59247404950E+00 -0.11653298198E+01  0.31336759061E+01  0.00000000000E+00 0.  1.
</event>
<event>
 7    1  0.2700100E-010  0.4778728E+02  0.7816164E-02  0.1312668E+00
        -11   -1    0    0    0    0  0.00000000000E+00  0.00000000000E+00  0.45593999997E+02  0.45594000000E+02  0.51100000000E-03 0.  1.
         11   -1    0    0    0    0 -0.00000000000E+00 -0.00000000000E+00 -0.45593999997E+02  0.45594000000E+02  0.51100000000E-03 0. -1.
    9900012    2    1    2    0    0  0.10555126892E+02  0.27550666156E+02 -0.31830373112E+02  0.47787279248E+02  0.20000037404E+02 0.  0.
        -12    1    1    2    0    0 -0.10555126892E+02 -0.27550666156E+02  0.31830373112E+02  0.43400720752E+02  0.00000000000E+00 0.  1.
         11    1    3    3    0    0  0.10629551357E+02  0.23585020822E+02 -0.25436699367E+02  0.36280383738E+02  0.51100000000E-03 0. -1.
        -11    1    3    3    0    0 -0.36122055305E+01 -0.34580372881E+00 -0.10370879230E+01  0.37740112128E+01  0.51100000000E-03 0.  1.
         12    1    3    3    0    0  0.35377810657E+01  0.43114490628E+01 -0.53565858217E+01  0.77328842973E+01  0.00000000000E+00 0. -1.
</event>
<event>
 7    1  0.2700100E-010  0.4778727E+02  0.7816164E-02  0.1312668E+00
        -11   -1    0    0    0    0  0.00000000000E+00  0.00000000000E+00  0.45593999997E+02  0.45594000000E+02  0.51100000000E-03 0.  1.
         11   -1    0    0    0    0 -0.00000000000E+00 -0.00000000000E+00 -0.45593999997E+02  0.45594000000E+02  0.51100000000E-03 0. -1.
    9900012    2    1    2    0    0 -0.22066782171E+02 -0.10752855263E+02 -0.35791847477E+02  0.47787272846E+02  0.20000008212E+02 0.  0.
        -12    1    1    2    0    0  0.22066782171E+02  0.10752855263E+02  0.35791847477E+02  0.43400727154E+02  0.00000000000E+00 0.  1.
         11    1    3    3    0    0  0.10614300472E+01  0.27499472882E+01 -0.17970743414E+01  0.34522920332E+01  0.51100000000E-03 0. -1.
        -11    1    3    3    0    0  0.49228056729E+00 -0.19300512882E+01 -0.37989331099E+01  0.42894441559E+01  0.51100000000E-03 0.  1.
         12    1    3    3    0    0 -0.23620492785E+02 -0.11572751263E+02 -0.30195840026E+02  0.40045536656E+02  0.00000000000E+00 0. -1.
</event>
<event>
 7    1  0.2700100E-010  0.4778727E+02  0.7816164E-02  0.1312668E+00
        -11   -1    0    0    0    0  0.00000000000E+00  0.00000000000E+00  0.45593999997E+02  0.45594000000E+02  0.51100000000E-03 0. -1.
         11   -1    0    0    0    0 -0.00000000000E+00 -0.00000000000E+00 -0.45593999997E+02  0.45594000000E+02  0.51100000000E-03 0.  1.
    9900012    2    1    2    0    0 -0.35297539784E+02 -0.21265590252E+02  0.13619163684E+02  0.47787271170E+02  0.20000000571E+02 0.  0.
        -12    1    1    2    0    0  0.35297539784E+02  0.21265590252E+02 -0.13619163684E+02  0.43400728830E+02  0.00000000000E+00 0.  1.
         11    1    3    3    0    0 -0.22250389462E+02 -0.11380256957E+02  0.13466089828E+02  0.28388829759E+02  0.51100000000E-03 0. -1.
        -11    1    3    3    0    0 -0.47024223856E+01 -0.22399378879E+01 -0.47641543355E+01  0.70588430233E+01  0.51100000000E-03 0.  1.
         12    1    3    3    0    0 -0.83447279364E+01 -0.76453954073E+01  0.49172281915E+01  0.12339598387E+02  0.00000000000E+00 0. -1.
</event>
<event>
 7    1  0.2700100E-010  0.4778727E+02  0.7816164E-02  0.1312668E+00
        -11   -1    0    0    0    0  0.00000000000E+00  0.00000000000E+00  0.45593999997E+02  0.45594000000E+02  0.51100000000E-03 0. -1.
         11   -1    0    0    0    0 -0.00000000000E+00 -0.00000000000E+00 -0.45593999997E+02  0.45594000000E+02  0.51100000000E-03 0.  1.
    9900012    2    1    2    0    0  0.43208270294E+02 -0.35451247005E+01  0.20249796002E+01  0.47787273355E+02  0.20000010534E+02 0.  0.
        -12    1    1    2    0    0 -0.43208270294E+02  0.35451247005E+01 -0.20249796002E+01  0.43400726645E+02  0.00000000000E+00 0.  1.
         11    1    3    3    0    0  0.19521595134E+02 -0.10024923894E+01 -0.42602358651E+01  0.20006180981E+02  0.51100000000E-03 0. -1.
        -11    1    3    3    0    0  0.23003786846E+02 -0.32755353903E+01  0.89764747285E+01  0.24909444799E+02  0.51100000000E-03 0.  1.
        -12    1    3    3    0    0  0.68288831394E+00  0.73290307930E+00 -0.26912592632E+01  0.28716475749E+01  0.00000000000E+00 0.  1.
</event>
<event>
 7    1  0.2700100E-010  0.4778727E+02  0.7816164E-02  0.1312668E+00
        -11   -1    0    0    0    0  0.00000000000E+00  0.00000000000E+00  0.45593999997E+02  0.45594000000E+02  0.51100000000E-03 0.  1.
         11   -1    0    0    0    0 -0.00000000000E+00 -0.00000000000E+00 -0.45593999997E+02  0.45594000000E+02  0.51100000000E-03 0. -1.
    9900012    2    1    2    0    0  0.41177151122E+02  0.75656495114E+01 -0.11437928164E+02  0.47787273880E+02  0.20000012926E+02 0.  0.
        -12    1    1    2    0    0 -0.41177151122E+02 -0.75656495114E+01  0.11437928164E+02  0.43400726120E+02  0.00000000000E+00 0.  1.
         11    1    3    3    0    0  0.60944906220E+01 -0.26853940639E+01 -0.17850611738E+01  0.68949692440E+01  0.51100000000E-03 0. -1.
        -11    1    3    3    0    0  0.25371407579E+02  0.13700784135E+02 -0.10165451577E+02  0.30573783123E+02  0.51100000000E-03 0.  1.
        -12    1    3    3    0    0  0.97112529218E+01 -0.34497405597E+01  0.51258458705E+00  0.10318521512E+02  0.00000000000E+00 0.  1.
</event>
<event>
 7    1  0.2700100E-010  0.4778726E+02  0.7816164E-02  0.1312668E+00
        -11   -1    0    0    0    0  0.00000000000E+00  0.00000000000E+00  0.45593999997E+02  0.45594000000E+02  0.51100000000E-03 0.  1.
         11   -1    0    0    0    0 -0.00000000000E+00 -0.00000000000E+00 -0.45593999997E+02  0.45594000000E+02  0.51100000000E-03 0. -1.
    9900012    2    1    2    0    0 -0.87488561298E+01  0.37294550787E+02  0.20400926548E+02  0.47787264914E+02  0.19999972048E+02 0.  0.
        -12    1    1    2    0    0  0.87488561298E+01 -0.37294550787E+02 -0.20400926548E+02  0.43400735086E+02  0.00000000000E+00 0.  1.
         11    1    3    3    0    0 -0.10274189739E+02  0.11967083606E+02  0.11765763969E+02  0.19677481212E+02  0.51100000000E-03 0. -1.
        -11    1    3    3    0    0  0.13532504230E+01  0.16835350540E+02  0.98148870876E+01  0.19534388224E+02  0.51100000000E-03 0.  1.
         12    1    3    3    0    0  0.17208318610E+00  0.84921166415E+01 -0.11797245084E+01  0.85753954773E+01  0.00000000000E+00 0. -1.
</event>
<event>
 7    1  0.2700100E-010  0.4778727E+02  0.7816164E-02  0.1312668E+00
        -11   -1    0    0    0    0  0.00000000000E+00  0.00000000000E+00  0.45593999997E+02  0.45594000000E+02  0.51100000000E-03 0. -1.
         11   -1    0    0    0    0 -0.00000000000E+00 -0.00000000000E+00 -0.45593999997E+02  0.45594000000E+02  0.51100000000E-03 0.  1.
    9900012    2    1    2    0    0  0.30149831566E+02  0.29243382348E+02  0.10928656722E+02  0.47787270831E+02  0.19999999028E+02 0.  0.
        -12    1    1    2    0    0 -0.30149831566E+02 -0.29243382348E+02 -0.10928656722E+02  0.43400729169E+02  0.00000000000E+00 0.  1.
         11    1    3    3    0    0  0.45906782038E+01 -0.12866807264E+01  0.37255409223E+01  0.60505808884E+01  0.51100000000E-03 0. -1.
        -11    1    3    3    0    0  0.17301625095E+02  0.24810818537E+02  0.17287456305E+01  0.30297054463E+02  0.51100000000E-03 0.  1.
        -12    1    3    3    0    0  0.82575282672E+01  0.57192445378E+01  0.54743701697E+01  0.11439635480E+02  0.00000000000E+00 0.  1.
</event>
<event>
 7    1  0.2700100E-010  0.4778728E+02  0.7816164E-02  0.1312668E+00
        -11   -1    0    0    0    0  0.00000000000E+00  0.00000000000E+00  0.45593999997E+02  0.45594000000E+02  0.51100000000E-03 0.  1.
         11   -1    0    0    0    0 -0.00000000000E+00 -0.00000000000E+00 -0.45593999997E+02  0.45594000000E+02  0.51100000000E-03 0. -1.
    9900012    2    1    2    0    0 -0.35520870274E+02  0.13129320826E+02 -0.21201682406E+02  0.47787278494E+02  0.20000033966E+02 0.  0.
        -12    1    1    2    0    0  0.35520870274E+02 -0.13129320826E+02  0.21201682406E+02  0.43400721506E+02  0.00000000000E+00 0.  1.
         11    1    3    3    0    0 -0.75708649992E+01  0.17537045942E+01 -0.12534190290E+02  0.14747860968E+02  0.51100000000E-03 0. -1.
        -11    1    3    3    0    0 -0.21079264726E+01 -0.18566110795E+01 -0.30057502222E+00  0.28250140388E+01  0.51100000000E-03 0.  1.
         12    1    3    3    0    0 -0.25842078802E+02  0.13232227311E+02 -0.83669170939E+01  0.30214403487E+02  0.00000000000E+00 0. -1.
</event>
<event>
 7    1  0.2700100E-010  0.4778727E+02  0.7816164E-02  0.1312668E+00
        -11   -1    0    0    0    0  0.00000000000E+00  0.00000000000E+00  0.45593999997E+02  0.45594000000E+02  0.51100000000E-03 0.  1.
         11   -1    0    0    0    0 -0.00000000000E+00 -0.00000000000E+00 -0.45593999997E+02  0.45594000000E+02  0.51100000000E-03 0. -1.
    9900012    2    1    2    0    0 -0.44845076515E+01  0.41548330292E+02 -0.11715308642E+02  0.47787274021E+02  0.20000013573E+02 0.  0.
        -12    1    1    2    0    0  0.44845076515E+01 -0.41548330292E+02  0.11715308642E+02  0.43400725979E+02  0.00000000000E+00 0.  1.
         11    1    3    3    0    0 -0.15643718329E+01  0.18096470576E+02  0.34037591148E+01  0.18480126702E+02  0.51100000000E-03 0. -1.
        -11    1    3    3    0    0  0.91307669772E+00  0.15514228034E+02 -0.12950225097E+02  0.20229515834E+02  0.51100000000E-03 0.  1.
         12    1    3    3    0    0 -0.38332125163E+01  0.79376316810E+01 -0.21688426595E+01  0.90776314851E+01  0.00000000000E+00 0. -1.
</event>
<event>
 7    1  0.2700100E-010  0.4778727E+02  0.7816164E-02  0.1312668E+00
        -11   -1    0    0    0    0  0.00000000000E+00  0.00000000000E+00  0.45593999997E+02  0.45594000000E+02  0.51100000000E-03 0.  1.
         11   -1    0    0    0    0 -0.00000000000E+00 -0.00000000000E+00 -0.45593999997E+02  0.45594000000E+02  0.51100000000E-03 0. -1.
    9900012    2    1    2    0    0  0.10733538000E+02 -0.83251971580E+01 -0.41220204831E+02  0.47787273831E+02  0.20000012705E+02 0.  0.
        -12    1    1    2    0    0 -0.10733538000E+02  0.83251971580E+01  0.41220204831E+02  0.43400726169E+02  0.00000000000E+00 0.  1.
         11    1    3    3    0    0  0.73923509579E+01 -0.24754239060E+00 -0.31385126552E+02  0.32244911209E+02  0.51100000000E-03 0.  1.
        -11    1    3    3    0    0  0.10226620890E+01 -0.90738197525E+01 -0.91516520276E+01  0.12927984288E+02  0.51100000000E-03 0. -1.
        -12    1    3    3    0    0  0.23185249526E+01  0.99616498518E+00 -0.68342625075E+00  0.26143783341E+01  0.00000000000E+00 0.  1.
</event>
<event>
 7    1  0.2700100E-010  0.4778727E+02  0.7816164E-02  0.1312668E+00
        -11   -1    0    0    0    0  0.00000000000E+00  0.00000000000E+00  0.45593999997E+02  0.45594000000E+02  0.51100000000E-03 0. -1.
         11   -1    0    0    0    0 -0.00000000000E+00 -0.00000000000E+00 -0.45593999997E+02  0.45594000000E+02  0.51100000000E-03 0.  1.
    9900012    2    1    2    0    0 -0.12519379938E+02 -0.22238133661E+02  0.35104893686E+02  0.47787273929E+02  0.20000013154E+02 0.  0.
        -12    1    1    2    0    0  0.12519379938E+02  0.22238133661E+02 -0.35104893686E+02  0.43400726071E+02  0.00000000000E+00 0.  1.
         11    1    3    3    0    0 -0.44799284744E+01  0.11724655081E+01  0.10689606693E+01  0.47525899967E+01  0.51100000000E-03 0. -1.
        -11    1    3    3    0    0 -0.27528955717E+01 -0.67290556913E+01  0.40664617652E+01  0.83303502972E+01  0.51100000000E-03 0.  1.
         12    1    3    3    0    0 -0.52865558919E+01 -0.16681543478E+02  0.29969471251E+02  0.34704333636E+02  0.00000000000E+00 0. -1.
</event>
<event>
 7    1  0.2700100E-010  0.4778727E+02  0.7816164E-02  0.1312668E+00
        -11   -1    0    0    0    0  0.00000000000E+00  0.00000000000E+00  0.45593999997E+02  0.45594000000E+02  0.51100000000E-03 0.  1.
         11   -1    0    0    0    0 -0.00000000000E+00 -0.00000000000E+00 -0.45593999997E+02  0.45594000000E+02  0.51100000000E-03 0. -1.
    9900012    2    1    2    0    0  0.17662348062E+02  0.26666009856E+02 -0.29335789433E+02  0.47787272330E+02  0.20000005859E+02 0.  0.
        -12    1    1    2    0    0 -0.17662348062E+02 -0.26666009856E+02  0.29335789433E+02  0.43400727670E+02  0.00000000000E+00 0.  1.
         11    1    3    3    0    0  0.35098069696E+01  0.15917799149E+02 -0.63787614564E+01  0.17503818803E+02  0.51100000000E-03 0. -1.
        -11    1    3    3    0    0  0.88161824231E+01  0.36033484502E+01 -0.17224074275E+02  0.19681918796E+02  0.51100000000E-03 0.  1.
        -12    1    3    3    0    0  0.53363586689E+01  0.71448622564E+01 -0.57329537009E+01  0.10601534731E+02  0.00000000000E+00 0.  1.
</event>
<event>
 7    1  0.2700100E-010  0.4778727E+02  0.7816164E-02  0.1312668E+00
        -11   -1    0    0    0    0  0.00000000000E+00  0.00000000000E+00  0.45593999997E+02  0.45594000000E+02  0.51100000000E-03 0.  1.
         11   -1    0    0    0    0 -0.00000000000E+00 -0.00000000000E+00 -0.45593999997E+02  0.45594000000E+02  0.51100000000E-03 0. -1.
    9900012    2    1    2    0    0 -0.33788423213E+02  0.61331887849E+01 -0.26539585713E+02  0.47787272383E+02  0.20000006101E+02 0.  0.
        -12    1    1    2    0    0  0.33788423213E+02 -0.61331887849E+01  0.26539585713E+02  0.43400727617E+02  0.00000000000E+00 0.  1.
         11    1    3    3    0    0 -0.14953667903E+02 -0.15059054729E+00 -0.20303593760E+02  0.25216478364E+02  0.51100000000E-03 0. -1.
        -11    1    3    3    0    0 -0.15534015431E+02  0.23426287151E+01 -0.18593608737E+01  0.15819316288E+02  0.51100000000E-03 0.  1.
         12    1    3    3    0    0 -0.33007398799E+01  0.39411506171E+01 -0.43766310801E+01  0.67514777311E+01  0.00000000000E+00 0. -1.
</event>
<event>
 7    1  0.2700100E-010  0.4778732E+02  0.7816164E-02  0.1312668E+00
        -11   -1    0    0    0    0  0.00000000000E+00  0.00000000000E+00  0.45593999997E+02  0.45594000000E+02  0.51100000000E-03 0.  1.
         11   -1    0    0    0    0 -0.00000000000E+00 -0.00000000000E+00 -0.45593999997E+02  0.45594000000E+02  0.51100000000E-03 0. -1.
    9900012    2    1    2    0    0 -0.24029172022E+02 -0.16093067892E+02 -0.32360949247E+02  0.47787320530E+02  0.20000225624E+02 0.  0.
        -12    1    1    2    0    0  0.24029172022E+02  0.16093067892E+02  0.32360949247E+02  0.43400679470E+02  0.00000000000E+00 0.  1.
         11    1    3    3    0    0 -0.14805410702E+02 -0.32645234878E+01 -0.87597370343E+01  0.17509719953E+02  0.51100000000E-03 0. -1.
        -11    1    3    3    0    0 -0.29231797086E+01  0.97263863628E+00 -0.13907497397E+01  0.33801169543E+01  0.51100000000E-03 0.  1.
         12    1    3    3    0    0 -0.63005816115E+01 -0.13801183041E+02 -0.22210462473E+02  0.26897483623E+02  0.00000000000E+00 0. -1.
</event>
<event>
 7    1  0.2700100E-010  0.4778727E+02  0.7816164E-02  0.1312668E+00
        -11   -1    0    0    0    0  0.00000000000E+00  0.00000000000E+00  0.45593999997E+02  0.45594000000E+02  0.51100000000E-03 0.  1.
         11   -1    0    0    0    0 -0.00000000000E+00 -0.00000000000E+00 -0.45593999997E+02  0.45594000000E+02  0.51100000000E-03 0. -1.
    9900012    2    1    2    0    0  0.87712327152E+01 -0.35168507655E+02 -0.23871845776E+02  0.47787268730E+02  0.19999989447E+02 0.  0.
        -12    1    1    2    0    0 -0.87712327152E+01  0.35168507655E+02  0.23871845776E+02  0.43400731270E+02  0.00000000000E+00 0.  1.
         11    1    3    3    0    0  0.12575486187E+02 -0.24610948096E+02 -0.19021800986E+02  0.33551013875E+02  0.51100000000E-03 0. -1.
        -11    1    3    3    0    0 -0.20763145215E+01 -0.34176223500E+00 -0.30724746572E+01  0.37239742477E+01  0.51100000000E-03 0.  1.
        -12    1    3    3    0    0 -0.17279389502E+01 -0.10215797324E+02 -0.17775701326E+01  0.10512280607E+02  0.00000000000E+00 0.  1.
</event>
<event>
 7    1  0.2700100E-010  0.4778727E+02  0.7816164E-02  0.1312668E+00
        -11   -1    0    0    0    0  0.00000000000E+00  0.00000000000E+00  0.45593999997E+02  0.45594000000E+02  0.51100000000E-03 0.  1.
         11   -1    0    0    0    0 -0.00000000000E+00 -0.00000000000E+00 -0.45593999997E+02  0.45594000000E+02  0.51100000000E-03 0. -1.
    9900012    2    1    2    0    0 -0.27087501409E+02  0.36646651940E+01 -0.33711435927E+02  0.47787269409E+02  0.19999992541E+02 0.  0.
        -12    1    1    2    0    0  0.27087501409E+02 -0.36646651940E+01  0.33711435927E+02  0.43400730591E+02  0.00000000000E+00 0.  1.
         11    1    3    3    0    0 -0.10741239451E+02  0.10360622500E+02 -0.16139609610E+02  0.21981895327E+02  0.51100000000E-03 0. -1.
        -11    1    3    3    0    0 -0.29153286324E+00  0.56628668419E+00  0.30315017178E+00  0.70538805406E+00  0.51100000000E-03 0.  1.
         12    1    3    3    0    0 -0.16054729095E+02 -0.72622439906E+01 -0.17874976489E+02  0.25099986028E+02  0.00000000000E+00 0. -1.
</event>
<event>
 7    1  0.2700100E-010  0.4778727E+02  0.7816164E-02  0.1312668E+00
        -11   -1    0    0    0    0  0.00000000000E+00  0.00000000000E+00  0.45593999997E+02  0.45594000000E+02  0.51100000000E-03 0.  1.
         11   -1    0    0    0    0 -0.00000000000E+00 -0.00000000000E+00 -0.45593999997E+02  0.45594000000E+02  0.51100000000E-03 0. -1.
    9900012    2    1    2    0    0 -0.26340528688E+02  0.24610766823E+02 -0.24168373092E+02  0.47787267828E+02  0.19999985334E+02 0.  0.
        -12    1    1    2    0    0  0.26340528688E+02 -0.24610766823E+02  0.24168373092E+02  0.43400732172E+02  0.00000000000E+00 0.  1.
         11    1    3    3    0    0 -0.26433175532E+01  0.32758372288E+01 -0.98107281437E+01  0.10675608845E+02  0.51100000000E-03 0. -1.
        -11    1    3    3    0    0 -0.19590972845E+02  0.13646733395E+02 -0.51339029687E+01  0.24421230708E+02  0.51100000000E-03 0.  1.
        -12    1    3    3    0    0 -0.41062382897E+01  0.76881961991E+01 -0.92237419797E+01  0.12690428275E+02  0.00000000000E+00 0.  1.
</event>
<event>
 7    1  0.2700100E-010  0.4778727E+02  0.7816164E-02  0.1312668E+00
        -11   -1    0    0    0    0  0.00000000000E+00  0.00000000000E+00  0.45593999997E+02  0.45594000000E+02  0.51100000000E-03 0.  1.
         11   -1    0    0    0    0 -0.00000000000E+00 -0.00000000000E+00 -0.45593999997E+02  0.45594000000E+02  0.51100000000E-03 0. -1.
    9900012    2    1    2    0    0  0.24183366446E+02 -0.18827792338E+02 -0.30729506342E+02  0.47787268013E+02  0.19999986179E+02 0.  0.
        -12    1    1    2    0    0 -0.24183366446E+02  0.18827792338E+02  0.30729506342E+02  0.43400731987E+02  0.00000000000E+00 0.  1.
         11    1    3    3    0    0  0.45818449382E+01 -0.21513377862E+01 -0.30010907564E+01  0.58845648349E+01  0.51100000000E-03 0. -1.
        -11    1    3    3    0    0  0.19630658464E+02 -0.18383378993E+02 -0.18803295826E+02  0.32815778356E+02  0.51100000000E-03 0.  1.
        -12    1    3    3    0    0 -0.29136956005E-01  0.17069244410E+01 -0.89251197588E+01  0.90869248218E+01  0.00000000000E+00 0.  1.
</event>
<event>
 7    1  0.2700100E-010  0.4778732E+02  0.7816164E-02  0.1312668E+00
        -11   -1    0    0    0    0  0.00000000000E+00  0.00000000000E+00  0.45593999997E+02  0.45594000000E+02  0.51100000000E-03 0. -1.
         11   -1    0    0    0    0 -0.00000000000E+00 -0.00000000000E+00 -0.45593999997E+02  0.45594000000E+02  0.51100000000E-03 0.  1.
    9900012    2    1    2    0    0  0.34356001445E+02 -0.13350550185E+01  0.26485877368E+02  0.47787321352E+02  0.20000229370E+02 0.  0.
        -12    1    1    2    0    0 -0.34356001445E+02  0.13350550185E+01 -0.26485877368E+02  0.43400678648E+02  0.00000000000E+00 0.  1.
         11    1    3    3    0    0  0.19527045017E+02 -0.13510376738E+01  0.25083941746E+02  0.31817211123E+02  0.51100000000E-03 0. -1.
        -11    1    3    3    0    0  0.11220965314E+02  0.22311752670E+01  0.22304938865E+01  0.11656041733E+02  0.51100000000E-03 0.  1.
         12    1    3    3    0    0  0.36079911143E+01 -0.22151926117E+01 -0.82855826442E+00  0.43140684957E+01  0.00000000000E+00 0. -1.
</event>
<event>
 7    1  0.2700100E-010  0.4778727E+02  0.7816164E-02  0.1312668E+00
        -11   -1    0    0    0    0  0.00000000000E+00  0.00000000000E+00  0.45593999997E+02  0.45594000000E+02  0.51100000000E-03 0. -1.
         11   -1    0    0    0    0 -0.00000000000E+00 -0.00000000000E+00 -0.45593999997E+02  0.45594000000E+02  0.51100000000E-03 0.  1.
    9900012    2    1    2    0    0 -0.31037755704E+02  0.21433307984E+02  0.21468444770E+02  0.47787273151E+02  0.20000009603E+02 0.  0.
        -12    1    1    2    0    0  0.31037755704E+02 -0.21433307984E+02 -0.21468444770E+02  0.43400726849E+02  0.00000000000E+00 0.  1.
         11    1    3    3    0    0 -0.75933764686E+01  0.13907775386E+02  0.94761454981E+01  0.18463014818E+02  0.51100000000E-03 0.  1.
        -11    1    3    3    0    0 -0.20630274025E+02  0.81451683190E+01  0.13606978087E+02  0.26021180339E+02  0.51100000000E-03 0. -1.
        -12    1    3    3    0    0 -0.28141052099E+01 -0.61963572171E+00 -0.16146788155E+01  0.33030779944E+01  0.00000000000E+00 0.  1.
</event>
<event>
 7    1  0.2700100E-010  0.4778727E+02  0.7816164E-02  0.1312668E+00
        -11   -1    0    0    0    0  0.00000000000E+00  0.00000000000E+00  0.45593999997E+02  0.45594000000E+02  0.51100000000E-03 0. -1.
         11   -1    0    0    0    0 -0.00000000000E+00 -0.00000000000E+00 -0.45593999997E+02  0.45594000000E+02  0.51100000000E-03 0.  1.
    9900012    2    1    2    0    0 -0.39182082306E+02  0.73515410342E+01  0.17156413425E+02  0.47787271308E+02  0.20000001202E+02 0.  0.
        -12    1    1    2    0    0  0.39182082306E+02 -0.73515410342E+01 -0.17156413425E+02  0.43400728692E+02  0.00000000000E+00 0.  1.
         11    1    3    3    0    0 -0.25824999329E+02  0.10945275815E+00  0.14464009010E+02  0.29599833229E+02  0.51100000000E-03 0. -1.
        -11    1    3    3    0    0  0.74301699195E+00  0.32056226798E+01  0.90255734135E+00  0.34121402420E+01  0.51100000000E-03 0.  1.
        -12    1    3    3    0    0 -0.14100099968E+02  0.40364655962E+01  0.17898470731E+01  0.14775297837E+02  0.00000000000E+00 0.  1.
</event>
<event>
 7    1  0.2700100E-010  0.4778727E+02  0.7816164E-02  0.1312668E+00
        -11   -1    0    0    0    0  0.00000000000E+00  0.00000000000E+00  0.45593999997E+02  0.45594000000E+02  0.51100000000E-03 0. -1.
         11   -1    0    0    0    0 -0.00000000000E+00 -0.00000000000E+00 -0.45593999997E+02  0.45594000000E+02  0.51100000000E-03 0.  1.
    9900012    2    1    2    0    0 -0.39765125153E+02  0.69941621614E+01  0.15919793647E+02  0.47787270599E+02  0.19999997968E+02 0.  0.
        -12    1    1    2    0    0  0.39765125153E+02 -0.69941621614E+01 -0.15919793647E+02  0.43400729401E+02  0.00000000000E+00 0.  1.
         11    1    3    3    0    0 -0.14724882836E+02 -0.19638799583E+01  0.12506867696E+02  0.19419081823E+02  0.51100000000E-03 0. -1.
        -11    1    3    3    0    0 -0.25086187069E+02  0.68028639798E+01  0.29098549599E+01  0.26154597992E+02  0.51100000000E-03 0.  1.
        -12    1    3    3    0    0  0.45944751694E-01  0.21551781398E+01  0.50307099121E+00  0.22135907835E+01  0.00000000000E+00 0.  1.
</event>
<event>
 7    1  0.2700100E-010  0.4778727E+02  0.7816164E-02  0.1312668E+00
        -11   -1    0    0    0    0  0.00000000000E+00  0.00000000000E+00  0.45593999997E+02  0.45594000000E+02  0.51100000000E-03 0.  1.
         11   -1    0    0    0    0 -0.00000000000E+00 -0.00000000000E+00 -0.45593999997E+02  0.45594000000E+02  0.51100000000E-03 0. -1.
    9900012    2    1    2    0    0  0.40830055951E+02  0.13026082787E+02  0.68447562991E+01  0.47787274309E+02  0.20000014883E+02 0.  0.
        -12    1    1    2    0    0 -0.40830055951E+02 -0.13026082787E+02 -0.68447562991E+01  0.43400725691E+02  0.00000000000E+00 0.  1.
         11    1    3    3    0    0  0.22558010876E+02  0.13390431058E+02  0.36479183263E+01  0.26485369678E+02  0.51100000000E-03 0. -1.
        -11    1    3    3    0    0  0.33733430690E+01  0.42269750490E+01  0.11006640258E+00  0.54091474745E+01  0.51100000000E-03 0.  1.
         12    1    3    3    0    0  0.14898702006E+02 -0.45913233204E+01  0.30867715702E+01  0.15892757156E+02  0.00000000000E+00 0. -1.
</event>
<event>
 7    1  0.2700100E-010  0.4778726E+02  0.7816164E-02  0.1312668E+00
        -11   -1    0    0    0    0  0.00000000000E+00  0.00000000000E+00  0.45593999997E+02  0.45594000000E+02  0.51100000000E-03 0. -1.
         11   -1    0    0    0    0 -0.00000000000E+00 -0.00000000000E+00 -0.45593999997E+02  0.45594000000E+02  0.51100000000E-03 0.  1.
    9900012    2    1    2    0    0 -0.38857020653E+02 -0.14926195643E+02 -0.12286763104E+02  0.47787263624E+02  0.19999966166E+02 0.  0.
        -12    1    1    2    0    0  0.38857020653E+02  0.14926195643E+02  0.12286763104E+02  0.43400736376E+02  0.00000000000E+00 0.  1.
         11    1    3    3    0    0 -0.22377129940E+02 -0.37240639667E+01 -0.73939067734E+01  0.23859473054E+02  0.51100000000E-03 0. -1.
        -11    1    3    3    0    0 -0.52456235708E+00 -0.67535848598E+01 -0.23493413484E+01  0.71697614436E+01  0.51100000000E-03 0.  1.
        -12    1    3    3    0    0 -0.15955328356E+02 -0.44485468169E+01 -0.25435149822E+01  0.16758029126E+02  0.00000000000E+00 0.  1.
</event>
<event>
 7    1  0.2700100E-010  0.4778728E+02  0.7816164E-02  0.1312668E+00
        -11   -1    0    0    0    0  0.00000000000E+00  0.00000000000E+00  0.45593999997E+02  0.45594000000E+02  0.51100000000E-03 0.  1.
         11   -1    0    0    0    0 -0.00000000000E+00 -0.00000000000E+00 -0.45593999997E+02  0.45594000000E+02  0.51100000000E-03 0. -1.
    9900012    2    1    2    0    0  0.44735112062E+01  0.25405677339E+01 -0.43094729354E+02  0.47787280133E+02  0.20000041437E+02 0.  0.
        -12    1    1    2    0    0 -0.44735112062E+01 -0.25405677339E+01  0.43094729354E+02  0.43400719867E+02  0.00000000000E+00 0.  1.
         11    1    3    3    0    0  0.26183927633E+01  0.29242614347E+01 -0.24642077709E+00  0.39329389852E+01  0.51100000000E-03 0. -1.
        -11    1    3    3    0    0 -0.14792409844E+01 -0.20968786147E+00 -0.84084499317E+00  0.17143930275E+01  0.51100000000E-03 0.  1.
         12    1    3    3    0    0  0.33343594273E+01 -0.17400583929E+00 -0.42007463584E+02  0.42139948120E+02  0.00000000000E+00 0. -1.
</event>
<event>
 7    1  0.2700100E-010  0.4778727E+02  0.7816164E-02  0.1312668E+00
        -11   -1    0    0    0    0  0.00000000000E+00  0.00000000000E+00  0.45593999997E+02  0.45594000000E+02  0.51100000000E-03 0. -1.
         11   -1    0    0    0    0 -0.00000000000E+00 -0.00000000000E+00 -0.45593999997E+02  0.45594000000E+02  0.51100000000E-03 0.  1.
    9900012    2    1    2    0    0 -0.34794406314E+02 -0.15126254715E+02 -0.21075321709E+02  0.47787268697E+02  0.19999989298E+02 0.  0.
        -12    1    1    2    0    0  0.34794406314E+02  0.15126254715E+02  0.21075321709E+02  0.43400731303E+02  0.00000000000E+00 0.  1.
         11    1    3    3    0    0 -0.31385995030E+02 -0.70195390177E+01 -0.12895719432E+02  0.34650457313E+02  0.51100000000E-03 0. -1.
        -11    1    3    3    0    0 -0.22811795413E+00 -0.47114910342E+00  0.78227613196E+00  0.94126270849E+00  0.51100000000E-03 0.  1.
         12    1    3    3    0    0 -0.31802933297E+01 -0.76355665939E+01 -0.89618784094E+01  0.12195548676E+02  0.00000000000E+00 0. -1.
</event>
<event>
 7    1  0.2700100E-010  0.4778727E+02  0.7816164E-02  0.1312668E+00
        -11   -1    0    0    0    0  0.00000000000E+00  0.00000000000E+00  0.45593999997E+02  0.45594000000E+02  0.51100000000E-03 0.  1.
         11   -1    0    0    0    0 -0.00000000000E+00 -0.00000000000E+00 -0.45593999997E+02  0.45594000000E+02  0.51100000000E-03 0. -1.
    9900012    2    1    2    0    0 -0.93045793339E+01  0.22543684933E+02 -0.35900284967E+02  0.47787269734E+02  0.19999994023E+02 0.  0.
        -12    1    1    2    0    0  0.93045793339E+01 -0.22543684933E+02  0.35900284967E+02  0.43400730266E+02  0.00000000000E+00 0.  1.
         11    1    3    3    0    0  0.29393308414E+01  0.10035174758E+02 -0.18317486293E+02  0.21092053067E+02  0.51100000000E-03 0. -1.
        -11    1    3    3    0    0 -0.51217866496E+01  0.35101668246E+01 -0.65425787641E+00  0.62435585406E+01  0.51100000000E-03 0.  1.
        -12    1    3    3    0    0 -0.71221235257E+01  0.89983433504E+01 -0.16928540797E+02  0.20451658126E+02  0.00000000000E+00 0.  1.
</event>
<event>
 7    1  0.2700100E-010  0.4778728E+02  0.7816164E-02  0.1312668E+00
        -11   -1    0    0    0    0  0.00000000000E+00  0.00000000000E+00  0.45593999997E+02  0.45594000000E+02  0.51100000000E-03 0.  1.
         11   -1    0    0    0    0 -0.00000000000E+00 -0.00000000000E+00 -0.45593999997E+02  0.45594000000E+02  0.51100000000E-03 0. -1.
    9900012    2    1    2    0    0  0.50626067403E+01  0.31748436784E+02 -0.29155263511E+02  0.47787278628E+02  0.20000034575E+02 0.  0.
        -12    1    1    2    0    0 -0.50626067403E+01 -0.31748436784E+02  0.29155263511E+02  0.43400721372E+02  0.00000000000E+00 0.  1.
         11    1    3    3    0    0  0.93317603970E+01  0.83425330347E+01 -0.14853342133E+02  0.19424247278E+02  0.51100000000E-03 0. -1.
        -11    1    3    3    0    0 -0.11482494227E+01  0.19278073497E+02 -0.11536093778E+02  0.22495422965E+02  0.51100000000E-03 0.  1.
         12    1    3    3    0    0 -0.31209042341E+01  0.41278302528E+01 -0.27658275996E+01  0.58676083837E+01  0.00000000000E+00 0. -1.
</event>
<event>
 7    1  0.2700100E-010  0.4778727E+02  0.7816164E-02  0.1312668E+00
        -11   -1    0    0    0    0  0.00000000000E+00  0.00000000000E+00  0.45593999997E+02  0.45594000000E+02  0.51100000000E-03 0. -1.
         11   -1    0    0    0    0 -0.00000000000E+00 -0.00000000000E+00 -0.45593999997E+02  0.45594000000E+02  0.51100000000E-03 0.  1.
    9900012    2    1    2    0    0  0.40524351421E+02 -0.10838107093E+02  0.11132646735E+02  0.47787269053E+02  0.19999990918E+02 0.  0.
        -12    1    1    2    0    0 -0.40524351421E+02  0.10838107093E+02 -0.11132646735E+02  0.43400730947E+02  0.00000000000E+00 0.  1.
         11    1    3    3    0    0  0.18653602007E+02 -0.24374700963E+01  0.98514101396E+01  0.21235545915E+02  0.51100000000E-03 0. -1.
        -11    1    3    3    0    0 -0.12372273211E+01 -0.81259804643E-01 -0.13715704925E+01  0.18489295490E+01  0.51100000000E-03 0.  1.
         12    1    3    3    0    0  0.23107976735E+02 -0.83193771917E+01  0.26528070883E+01  0.24702793589E+02  0.00000000000E+00 0. -1.
</event>
<event>
 7    1  0.2700100E-010  0.4778725E+02  0.7816164E-02  0.1312668E+00
        -11   -1    0    0    0    0  0.00000000000E+00  0.00000000000E+00  0.45593999997E+02  0.45594000000E+02  0.51100000000E-03 0.  1.
         11   -1    0    0    0    0 -0.00000000000E+00 -0.00000000000E+00 -0.45593999997E+02  0.45594000000E+02  0.51100000000E-03 0. -1.
    9900012    2    1    2    0    0 -0.13003355011E+02  0.41339342210E+02  0.23656360452E+01  0.47787254732E+02  0.19999925627E+02 0.  0.
        -12    1    1    2    0    0  0.13003355011E+02 -0.41339342210E+02 -0.23656360452E+01  0.43400745268E+02  0.00000000000E+00 0.  1.
         11    1    3    3    0    0 -0.45883001160E+01  0.77616202549E+00  0.91918714428E+00  0.47433986456E+01  0.51100000000E-03 0. -1.
        -11    1    3    3    0    0 -0.22570469739E+01  0.31612878121E+01  0.32946249527E+01  0.50933835035E+01  0.51100000000E-03 0.  1.
         12    1    3    3    0    0 -0.61580079207E+01  0.37401892372E+02 -0.18481760519E+01  0.37950472583E+02  0.00000000000E+00 0. -1.
</event>
<event>
 7    1  0.2700100E-010  0.4778727E+02  0.7816164E-02  0.1312668E+00
        -11   -1    0    0    0    0  0.00000000000E+00  0.00000000000E+00  0.45593999997E+02  0.45594000000E+02  0.51100000000E-03 0.  1.
         11   -1    0    0    0    0 -0.00000000000E+00 -0.00000000000E+00 -0.45593999997E+02  0.45594000000E+02  0.51100000000E-03 0. -1.
    9900012    2    1    2    0    0 -0.12115272846E+02  0.34799619337E+02 -0.22930986134E+02  0.47787268817E+02  0.19999989846E+02 0.  0.
        -12    1    1    2    0    0  0.12115272846E+02 -0.34799619337E+02  0.22930986134E+02  0.43400731183E+02  0.00000000000E+00 0.  1.
         11    1    3    3    0    0 -0.10402997083E+02  0.18363510836E+02 -0.94902099514E+01  0.23140980180E+02  0.51100000000E-03 0. -1.
        -11    1    3    3    0    0  0.70083198295E+00 -0.52964319288E+00 -0.58298479950E+01  0.58956607166E+01  0.51100000000E-03 0.  1.
         12    1    3    3    0    0 -0.24131077463E+01  0.16965751694E+02 -0.76109281875E+01  0.18750627920E+02  0.00000000000E+00 0. -1.
</event>
<event>
 7    1  0.2700100E-010  0.4778727E+02  0.7816164E-02  0.1312668E+00
        -11   -1    0    0    0    0  0.00000000000E+00  0.00000000000E+00  0.45593999997E+02  0.45594000000E+02  0.51100000000E-03 0.  1.
         11   -1    0    0    0    0 -0.00000000000E+00 -0.00000000000E+00 -0.45593999997E+02  0.45594000000E+02  0.51100000000E-03 0. -1.
    9900012    2    1    2    0    0 -0.65134035747E+01 -0.28117847196E+02 -0.32412735526E+02  0.47787272111E+02  0.20000004863E+02 0.  0.
        -12    1    1    2    0    0  0.65134035747E+01  0.28117847196E+02  0.32412735526E+02  0.43400727889E+02  0.00000000000E+00 0.  1.
         11    1    3    3    0    0 -0.43546489038E+01 -0.10731141726E+02 -0.23857724041E+02  0.26520018222E+02  0.51100000000E-03 0. -1.
        -11    1    3    3    0    0 -0.50835129675E+01 -0.91808467874E+01 -0.64045863812E+01  0.12294257961E+02  0.51100000000E-03 0.  1.
         12    1    3    3    0    0  0.29247582965E+01 -0.82058586826E+01 -0.21504251032E+01  0.89729959287E+01  0.00000000000E+00 0. -1.
</event>
<event>
 7    1  0.2700100E-010  0.4778728E+02  0.7816164E-02  0.1312668E+00
        -11   -1    0    0    0    0  0.00000000000E+00  0.00000000000E+00  0.45593999997E+02  0.45594000000E+02  0.51100000000E-03 0.  1.
         11   -1    0    0    0    0 -0.00000000000E+00 -0.00000000000E+00 -0.45593999997E+02  0.45594000000E+02  0.51100000000E-03 0. -1.
    9900012    2    1    2    0    0 -0.88860827561E+01 -0.28972365489E+02 -0.31068663055E+02  0.47787282808E+02  0.20000053634E+02 0.  0.
        -12    1    1    2    0    0  0.88860827561E+01  0.28972365489E+02  0.31068663055E+02  0.43400717192E+02  0.00000000000E+00 0.  1.
         11    1    3    3    0    0 -0.45050924534E+01 -0.10368944406E+02 -0.16059278291E+02  0.19639533742E+02  0.51100000000E-03 0. -1.
        -11    1    3    3    0    0 -0.15336073677E+01 -0.19700235613E+02 -0.96725920415E+01  0.22000233450E+02  0.51100000000E-03 0.  1.
        -12    1    3    3    0    0 -0.28473829350E+01  0.10968145300E+01 -0.53367927222E+01  0.61475156162E+01  0.00000000000E+00 0.  1.
</event>
<event>
 7    1  0.2700100E-010  0.4778727E+02  0.7816164E-02  0.1312668E+00
        -11   -1    0    0    0    0  0.00000000000E+00  0.00000000000E+00  0.45593999997E+02  0.45594000000E+02  0.51100000000E-03 0.  1.
         11   -1    0    0    0    0 -0.00000000000E+00 -0.00000000000E+00 -0.45593999997E+02  0.45594000000E+02  0.51100000000E-03 0. -1.
    9900012    2    1    2    0    0 -0.10301921699E+02  0.22496293944E+02 -0.35656846560E+02  0.47787267996E+02  0.19999986099E+02 0.  0.
        -12    1    1    2    0    0  0.10301921699E+02 -0.22496293944E+02  0.35656846560E+02  0.43400732004E+02  0.00000000000E+00 0.  1.
         11    1    3    3    0    0 -0.86597431688E+01  0.30407199105E+01 -0.13466087297E+02  0.16296399500E+02  0.51100000000E-03 0. -1.
        -11    1    3    3    0    0 -0.34061014760E+01  0.18196000290E+02 -0.14541393993E+02  0.23540350324E+02  0.51100000000E-03 0.  1.
         12    1    3    3    0    0  0.17639229457E+01  0.12595737437E+01 -0.76493652696E+01  0.79505181720E+01  0.00000000000E+00 0. -1.
</event>
<event>
 7    1  0.2700100E-010  0.4778727E+02  0.7816164E-02  0.1312668E+00
        -11   -1    0    0    0    0  0.00000000000E+00  0.00000000000E+00  0.45593999997E+02  0.45594000000E+02  0.51100000000E-03 0. -1.
         11   -1    0    0    0    0 -0.00000000000E+00 -0.00000000000E+00 -0.45593999997E+02  0.45594000000E+02  0.51100000000E-03 0.  1.
    9900012    2    1    2    0    0 -0.61792624629E+01 -0.22086819392E+02  0.36845790667E+02  0.47787272295E+02  0.20000005704E+02 0.  0.
        -12    1    1    2    0    0  0.61792624629E+01  0.22086819392E+02 -0.36845790667E+02  0.43400727705E+02  0.00000000000E+00 0.  1.
         11    1    3    3    0    0 -0.41905171501E+01 -0.29228490976E+00  0.10072556995E+02  0.10913398606E+02  0.51100000000E-03 0.  1.
        -11    1    3    3    0    0  0.50813129179E+01 -0.64197626750E+01  0.64181616156E+01  0.10403167429E+02  0.51100000000E-03 0. -1.
        -12    1    3    3    0    0 -0.70700582307E+01 -0.15374771807E+02  0.20355072056E+02  0.26470706260E+02  0.00000000000E+00 0.  1.
</event>
<event>
 7    1  0.2700100E-010  0.4778726E+02  0.7816164E-02  0.1312668E+00
        -11   -1    0    0    0    0  0.00000000000E+00  0.00000000000E+00  0.45593999997E+02  0.45594000000E+02  0.51100000000E-03 0.  1.
         11   -1    0    0    0    0 -0.00000000000E+00 -0.00000000000E+00 -0.45593999997E+02  0.45594000000E+02  0.51100000000E-03 0. -1.
    9900012    2    1    2    0    0  0.20529640694E+02 -0.38234982987E+02  0.49369297985E+00  0.47787264939E+02  0.19999972164E+02 0.  0.
        -12    1    1    2    0    0 -0.20529640694E+02  0.38234982987E+02 -0.49369297985E+00  0.43400735061E+02  0.00000000000E+00 0.  1.
         11    1    3    3    0    0  0.13851146378E+01 -0.22322807750E+01 -0.96534179269E+00  0.27988399483E+01  0.51100000000E-03 0. -1.
        -11    1    3    3    0    0  0.94451071257E-01 -0.18757199561E+01  0.53894664103E+01  0.57073281671E+01  0.51100000000E-03 0.  1.
        -12    1    3    3    0    0  0.19050074985E+02 -0.34126982256E+02 -0.39304316377E+01  0.39281096824E+02  0.00000000000E+00 0.  1.
</event>
<event>
 7    1  0.2700100E-010  0.4778727E+02  0.7816164E-02  0.1312668E+00
        -11   -1    0    0    0    0  0.00000000000E+00  0.00000000000E+00  0.45593999997E+02  0.45594000000E+02  0.51100000000E-03 0.  1.
         11   -1    0    0    0    0 -0.00000000000E+00 -0.00000000000E+00 -0.45593999997E+02  0.45594000000E+02  0.51100000000E-03 0. -1.
    9900012    2    1    2    0    0 -0.23913483163E+01  0.30299797582E-01 -0.43334790894E+02  0.47787267671E+02  0.19999984620E+02 0.  0.
        -12    1    1    2    0    0  0.23913483163E+01 -0.30299797582E-01  0.43334790894E+02  0.43400732329E+02  0.00000000000E+00 0.  1.
         11    1    3    3    0    0 -0.27597201858E+01  0.12590226659E+01 -0.23917464091E+01  0.38628544788E+01  0.51100000000E-03 0. -1.
        -11    1    3    3    0    0  0.56448834533E+01 -0.35733441577E+01 -0.77464489933E+01  0.10229416891E+02  0.51100000000E-03 0.  1.
        -12    1    3    3    0    0 -0.52765115837E+01  0.23446212894E+01 -0.33196595492E+02  0.33694996301E+02  0.00000000000E+00 0.  1.
</event>
<event>
 7    1  0.2700100E-010  0.4778727E+02  0.7816164E-02  0.1312668E+00
        -11   -1    0    0    0    0  0.00000000000E+00  0.00000000000E+00  0.45593999997E+02  0.45594000000E+02  0.51100000000E-03 0.  1.
         11   -1    0    0    0    0 -0.00000000000E+00 -0.00000000000E+00 -0.45593999997E+02  0.45594000000E+02  0.51100000000E-03 0. -1.
    9900012    2    1    2    0    0 -0.34467630302E+02 -0.22459455636E+02 -0.13826739965E+02  0.47787269313E+02  0.19999992106E+02 0.  0.
        -12    1    1    2    0    0  0.34467630302E+02  0.22459455636E+02  0.13826739965E+02  0.43400730687E+02  0.00000000000E+00 0.  1.
         11    1    3    3    0    0 -0.57879124251E+01 -0.12934676428E+02 -0.64930877338E+01  0.15587365817E+02  0.51100000000E-03 0. -1.
        -11    1    3    3    0    0 -0.13700100365E+02 -0.19974594069E+00 -0.35460351976E+01  0.14152986057E+02  0.51100000000E-03 0.  1.
        -12    1    3    3    0    0 -0.14979617512E+02 -0.93250332670E+01 -0.37876170336E+01  0.18046917438E+02  0.00000000000E+00 0.  1.
</event>
<event>
 7    1  0.2700100E-010  0.4778727E+02  0.7816164E-02  0.1312668E+00
        -11   -1    0    0    0    0  0.00000000000E+00  0.00000000000E+00  0.45593999997E+02  0.45594000000E+02  0.51100000000E-03 0. -1.
         11   -1    0    0    0    0 -0.00000000000E+00 -0.00000000000E+00 -0.45593999997E+02  0.45594000000E+02  0.51100000000E-03 0.  1.
    9900012    2    1    2    0    0  0.38447612281E+02 -0.41749689864E+01  0.19697055551E+02  0.47787271279E+02  0.20000001068E+02 0.  0.
        -12    1    1    2    0    0 -0.38447612281E+02  0.41749689864E+01 -0.19697055551E+02  0.43400728721E+02  0.00000000000E+00 0.  1.
         11    1    3    3    0    0  0.18167572220E+02  0.78908321543E-01  0.14563913292E+02  0.23284640378E+02  0.51100000000E-03 0. -1.
        -11    1    3    3    0    0  0.17084676944E+02 -0.54429305524E+01 -0.47772893317E+00  0.17937109702E+02  0.51100000000E-03 0.  1.
         12    1    3    3    0    0  0.31953631174E+01  0.11890532445E+01  0.56108711929E+01  0.65655211989E+01  0.00000000000E+00 0. -1.
</event>
<event>
 7    1  0.2700100E-010  0.4778727E+02  0.7816164E-02  0.1312668E+00
        -11   -1    0    0    0    0  0.00000000000E+00  0.00000000000E+00  0.45593999997E+02  0.45594000000E+02  0.51100000000E-03 0.  1.
         11   -1    0    0    0    0 -0.00000000000E+00 -0.00000000000E+00 -0.45593999997E+02  0.45594000000E+02  0.51100000000E-03 0. -1.
    9900012    2    1    2    0    0 -0.21466647065E+02 -0.31265479318E+02 -0.21101564311E+02  0.47787272476E+02  0.20000006528E+02 0.  0.
        -12    1    1    2    0    0  0.21466647065E+02  0.31265479318E+02  0.21101564311E+02  0.43400727524E+02  0.00000000000E+00 0.  1.
         11    1    3    3    0    0 -0.19025352896E+01 -0.10985079668E+02  0.91501861584E+00  0.11186101875E+02  0.51100000000E-03 0. -1.
        -11    1    3    3    0    0 -0.12280899441E+02 -0.12702377012E+02 -0.18339893996E+02  0.25466106590E+02  0.51100000000E-03 0.  1.
        -12    1    3    3    0    0 -0.72832123350E+01 -0.75780226386E+01 -0.36766889310E+01  0.11135064011E+02  0.00000000000E+00 0.  1.
</event>
<event>
 7    1  0.2700100E-010  0.4778727E+02  0.7816164E-02  0.1312668E+00
        -11   -1    0    0    0    0  0.00000000000E+00  0.00000000000E+00  0.45593999997E+02  0.45594000000E+02  0.51100000000E-03 0. -1.
         11   -1    0    0    0    0 -0.00000000000E+00 -0.00000000000E+00 -0.45593999997E+02  0.45594000000E+02  0.51100000000E-03 0.  1.
    9900012    2    1    2    0    0  0.37356806966E+02 -0.16653660640E+02  0.14517158813E+02  0.47787270289E+02  0.19999996557E+02 0.  0.
        -12    1    1    2    0    0 -0.37356806966E+02  0.16653660640E+02 -0.14517158813E+02  0.43400729711E+02  0.00000000000E+00 0.  1.
         11    1    3    3    0    0  0.15858120524E+02 -0.14460777455E+02  0.26156799415E+01  0.21620264868E+02  0.51100000000E-03 0. -1.
        -11    1    3    3    0    0  0.17088072487E+02 -0.66069124006E+00  0.12864705578E+02  0.21399518314E+02  0.51100000000E-03 0.  1.
        -12    1    3    3    0    0  0.44106139558E+01 -0.15321919444E+01 -0.96322670652E+00  0.47674871064E+01  0.00000000000E+00 0.  1.
</event>
<event>
 7    1  0.2700100E-010  0.4778727E+02  0.7816164E-02  0.1312668E+00
        -11   -1    0    0    0    0  0.00000000000E+00  0.00000000000E+00  0.45593999997E+02  0.45594000000E+02  0.51100000000E-03 0.  1.
         11   -1    0    0    0    0 -0.00000000000E+00 -0.00000000000E+00 -0.45593999997E+02  0.45594000000E+02  0.51100000000E-03 0. -1.
    9900012    2    1    2    0    0  0.76771683634E+01 -0.57331514986E+01 -0.42329840768E+02  0.47787270056E+02  0.19999995493E+02 0.  0.
        -12    1    1    2    0    0 -0.76771683634E+01  0.57331514986E+01  0.42329840768E+02  0.43400729944E+02  0.00000000000E+00 0.  1.
         11    1    3    3    0    0  0.67237261603E+01 -0.90997646280E+01 -0.38873560381E+02  0.40486638620E+02  0.51100000000E-03 0. -1.
        -11    1    3    3    0    0  0.22325536032E+01 -0.50855312109E+00 -0.77312112061E+00  0.24167412762E+01  0.51100000000E-03 0.  1.
         12    1    3    3    0    0 -0.12791114001E+01  0.38751662505E+01 -0.26831592665E+01  0.48838901597E+01  0.00000000000E+00 0. -1.
</event>
<event>
 7    1  0.2700100E-010  0.4778724E+02  0.7816164E-02  0.1312668E+00
        -11   -1    0    0    0    0  0.00000000000E+00  0.00000000000E+00  0.45593999997E+02  0.45594000000E+02  0.51100000000E-03 0.  1.
         11   -1    0    0    0    0 -0.00000000000E+00 -0.00000000000E+00 -0.45593999997E+02  0.45594000000E+02  0.51100000000E-03 0. -1.
    9900012    2    1    2    0    0 -0.14558653996E+02  0.82354241714E+01 -0.40048088139E+02  0.47787239856E+02  0.19999857800E+02 0.  0.
        -12    1    1    2    0    0  0.14558653996E+02 -0.82354241714E+01  0.40048088139E+02  0.43400760144E+02  0.00000000000E+00 0.  1.
         11    1    3    3    0    0 -0.60629181766E+01 -0.29862159572E+00 -0.22566353683E+01  0.64761528024E+01  0.51100000000E-03 0.  1.
        -11    1    3    3    0    0 -0.33399146624E+01  0.58683665503E+01 -0.33284671526E+02  0.33962657652E+02  0.51100000000E-03 0. -1.
         12    1    3    3    0    0 -0.51558211568E+01  0.26656792168E+01 -0.45067812451E+01  0.73484294022E+01  0.00000000000E+00 0. -1.
</event>
<event>
 7    1  0.2700100E-010  0.4778726E+02  0.7816164E-02  0.1312668E+00
        -11   -1    0    0    0    0  0.00000000000E+00  0.00000000000E+00  0.45593999997E+02  0.45594000000E+02  0.51100000000E-03 0. -1.
         11   -1    0    0    0    0 -0.00000000000E+00 -0.00000000000E+00 -0.45593999997E+02  0.45594000000E+02  0.51100000000E-03 0.  1.
    9900012    2    1    2    0    0 -0.46086293142E+01  0.42646432512E+02  0.66080665042E+01  0.47787260224E+02  0.19999950667E+02 0.  0.
        -12    1    1    2    0    0  0.46086293142E+01 -0.42646432512E+02 -0.66080665042E+01  0.43400739776E+02  0.00000000000E+00 0.  1.
         11    1    3    3    0    0 -0.59091943611E+01  0.39338088285E+02  0.52374717353E+01  0.40122747642E+02  0.51100000000E-03 0. -1.
        -11    1    3    3    0    0 -0.11268619063E+01 -0.87453351502E+00 -0.14761085759E+01  0.20526868767E+01  0.51100000000E-03 0.  1.
         12    1    3    3    0    0  0.24274269532E+01  0.41828777418E+01  0.28467033447E+01  0.56118257055E+01  0.00000000000E+00 0. -1.
</event>
<event>
 7    1  0.2700100E-010  0.4778727E+02  0.7816164E-02  0.1312668E+00
        -11   -1    0    0    0    0  0.00000000000E+00  0.00000000000E+00  0.45593999997E+02  0.45594000000E+02  0.51100000000E-03 0.  1.
         11   -1    0    0    0    0 -0.00000000000E+00 -0.00000000000E+00 -0.45593999997E+02  0.45594000000E+02  0.51100000000E-03 0. -1.
    9900012    2    1    2    0    0 -0.25232166615E+02 -0.30359517395E+02 -0.18034995686E+02  0.47787267311E+02  0.19999982979E+02 0.  0.
        -12    1    1    2    0    0  0.25232166615E+02  0.30359517395E+02  0.18034995686E+02  0.43400732689E+02  0.00000000000E+00 0.  1.
         11    1    3    3    0    0 -0.59341637000E+01 -0.69470470960E+01 -0.13308110123E+02  0.16142538756E+02  0.51100000000E-03 0. -1.
        -11    1    3    3    0    0 -0.77477866935E+01 -0.15352346175E+02 -0.22290876523E+01  0.17340460310E+02  0.51100000000E-03 0.  1.
         12    1    3    3    0    0 -0.11550216221E+02 -0.80601241236E+01 -0.24977979103E+01  0.14304268246E+02  0.00000000000E+00 0. -1.
</event>
<event>
 7    1  0.2700100E-010  0.4778727E+02  0.7816164E-02  0.1312668E+00
        -11   -1    0    0    0    0  0.00000000000E+00  0.00000000000E+00  0.45593999997E+02  0.45594000000E+02  0.51100000000E-03 0.  1.
         11   -1    0    0    0    0 -0.00000000000E+00 -0.00000000000E+00 -0.45593999997E+02  0.45594000000E+02  0.51100000000E-03 0. -1.
    9900012    2    1    2    0    0 -0.38340503961E+02  0.20303212497E+02 -0.11869794183E+01  0.47787267266E+02  0.19999982772E+02 0.  0.
        -12    1    1    2    0    0  0.38340503961E+02 -0.20303212497E+02  0.11869794183E+01  0.43400732734E+02  0.00000000000E+00 0.  1.
         11    1    3    3    0    0 -0.25610574712E+02  0.17661772712E+02  0.75916089812E+01  0.32022996106E+02  0.51100000000E-03 0. -1.
        -11    1    3    3    0    0 -0.82413600340E+01  0.16603811894E+01 -0.47642551556E+01  0.96630744772E+01  0.51100000000E-03 0.  1.
         12    1    3    3    0    0 -0.44885692153E+01  0.98105859620E+00 -0.40143332440E+01  0.61011966829E+01  0.00000000000E+00 0. -1.
</event>
<event>
 7    1  0.2700100E-010  0.4778727E+02  0.7816164E-02  0.1312668E+00
        -11   -1    0    0    0    0  0.00000000000E+00  0.00000000000E+00  0.45593999997E+02  0.45594000000E+02  0.51100000000E-03 0.  1.
         11   -1    0    0    0    0 -0.00000000000E+00 -0.00000000000E+00 -0.45593999997E+02  0.45594000000E+02  0.51100000000E-03 0. -1.
    9900012    2    1    2    0    0 -0.41833960553E+02 -0.34794089132E+01  0.11019827116E+02  0.47787272683E+02  0.20000007471E+02 0.  0.
        -12    1    1    2    0    0  0.41833960553E+02  0.34794089132E+01 -0.11019827116E+02  0.43400727317E+02  0.00000000000E+00 0.  1.
         11    1    3    3    0    0 -0.98798615971E+01 -0.76415213688E+00 -0.44240438337E+00  0.99192396667E+01  0.51100000000E-03 0. -1.
        -11    1    3    3    0    0 -0.71623516054E+01  0.43238371094E+01 -0.22663176554E+01  0.86678165557E+01  0.51100000000E-03 0.  1.
        -12    1    3    3    0    0 -0.24791747351E+02 -0.70390938857E+01  0.13728549155E+02  0.29200216461E+02  0.00000000000E+00 0.  1.
</event>
<event>
 7    1  0.2700100E-010  0.4778727E+02  0.7816164E-02  0.1312668E+00
        -11   -1    0    0    0    0  0.00000000000E+00  0.00000000000E+00  0.45593999997E+02  0.45594000000E+02  0.51100000000E-03 0.  1.
         11   -1    0    0    0    0 -0.00000000000E+00 -0.00000000000E+00 -0.45593999997E+02  0.45594000000E+02  0.51100000000E-03 0. -1.
    9900012    2    1    2    0    0 -0.18955638424E+02 -0.14240518942E+01 -0.39016398979E+02  0.47787267965E+02  0.19999985961E+02 0.  0.
        -12    1    1    2    0    0  0.18955638424E+02  0.14240518942E+01  0.39016398979E+02  0.43400732035E+02  0.00000000000E+00 0.  1.
         11    1    3    3    0    0 -0.11017655295E+02 -0.18318240441E+01 -0.26039020437E+02  0.28333282428E+02  0.51100000000E-03 0. -1.
        -11    1    3    3    0    0 -0.80778138054E+01  0.41413570615E+01 -0.43782143855E+01  0.10078227803E+02  0.51100000000E-03 0.  1.
        -12    1    3    3    0    0  0.13983067652E+00 -0.37335849116E+01 -0.85991641563E+01  0.93757577345E+01  0.00000000000E+00 0.  1.
</event>
<event>
 7    1  0.2700100E-010  0.4778727E+02  0.7816164E-02  0.1312668E+00
        -11   -1    0    0    0    0  0.00000000000E+00  0.00000000000E+00  0.45593999997E+02  0.45594000000E+02  0.51100000000E-03 0.  1.
         11   -1    0    0    0    0 -0.00000000000E+00 -0.00000000000E+00 -0.45593999997E+02  0.45594000000E+02  0.51100000000E-03 0. -1.
    9900012    2    1    2    0    0 -0.14530627800E+02  0.39040766928E+02  0.12177959089E+02  0.47787270580E+02  0.19999997882E+02 0.  0.
        -12    1    1    2    0    0  0.14530627800E+02 -0.39040766928E+02 -0.12177959089E+02  0.43400729420E+02  0.00000000000E+00 0.  1.
         11    1    3    3    0    0 -0.10301080188E+02  0.22598089957E+02  0.14668283878E+01  0.24878454705E+02  0.51100000000E-03 0. -1.
        -11    1    3    3    0    0 -0.89269843828E+00 -0.16325256896E+01  0.78806668495E+00  0.20206682038E+01  0.51100000000E-03 0.  1.
        -12    1    3    3    0    0 -0.33368491736E+01  0.18075202661E+02  0.99230640167E+01  0.20888147671E+02  0.00000000000E+00 0.  1.
</event>
<event>
 7    1  0.2700100E-010  0.4778727E+02  0.7816164E-02  0.1312668E+00
        -11   -1    0    0    0    0  0.00000000000E+00  0.00000000000E+00  0.45593999997E+02  0.45594000000E+02  0.51100000000E-03 0.  1.
         11   -1    0    0    0    0 -0.00000000000E+00 -0.00000000000E+00 -0.45593999997E+02  0.45594000000E+02  0.51100000000E-03 0. -1.
    9900012    2    1    2    0    0  0.50656685334E+01  0.27163897557E+02 -0.33467667173E+02  0.47787273345E+02  0.20000010488E+02 0.  0.
        -12    1    1    2    0    0 -0.50656685334E+01 -0.27163897557E+02  0.33467667173E+02  0.43400726655E+02  0.00000000000E+00 0.  1.
         11    1    3    3    0    0  0.82635457680E+01  0.18406631898E+02 -0.26408886003E+02  0.33234312790E+02  0.51100000000E-03 0. -1.
        -11    1    3    3    0    0 -0.43937954035E+01  0.36871336605E+01 -0.73645596704E+01  0.93347272096E+01  0.51100000000E-03 0.  1.
         12    1    3    3    0    0  0.11959181688E+01  0.50701319986E+01  0.30577849993E+00  0.52182333448E+01  0.00000000000E+00 0. -1.
</event>
<event>
 7    1  0.2700100E-010  0.4778727E+02  0.7816164E-02  0.1312668E+00
        -11   -1    0    0    0    0  0.00000000000E+00  0.00000000000E+00  0.45593999997E+02  0.45594000000E+02  0.51100000000E-03 0.  1.
         11   -1    0    0    0    0 -0.00000000000E+00 -0.00000000000E+00 -0.45593999997E+02  0.45594000000E+02  0.51100000000E-03 0. -1.
    9900012    2    1    2    0    0  0.98545840873E+01 -0.35307820723E+02 -0.23235068303E+02  0.47787269236E+02  0.19999991757E+02 0.  0.
        -12    1    1    2    0    0 -0.98545840873E+01  0.35307820723E+02  0.23235068303E+02  0.43400730764E+02  0.00000000000E+00 0.  1.
         11    1    3    3    0    0  0.98965440513E+01 -0.22223301915E+02 -0.10280412373E+02  0.26410293656E+02  0.51100000000E-03 0. -1.
        -11    1    3    3    0    0  0.11162636631E+01 -0.16291767992E+01 -0.89829060342E+01  0.91974378329E+01  0.51100000000E-03 0.  1.
         12    1    3    3    0    0 -0.11582236270E+01 -0.11455342009E+02 -0.39717498953E+01  0.12179537748E+02  0.00000000000E+00 0. -1.
</event>
<event>
 7    1  0.2700100E-010  0.4778727E+02  0.7816164E-02  0.1312668E+00
        -11   -1    0    0    0    0  0.00000000000E+00  0.00000000000E+00  0.45593999997E+02  0.45594000000E+02  0.51100000000E-03 0.  1.
         11   -1    0    0    0    0 -0.00000000000E+00 -0.00000000000E+00 -0.45593999997E+02  0.45594000000E+02  0.51100000000E-03 0. -1.
    9900012    2    1    2    0    0 -0.34356602192E+02 -0.20935560458E+02 -0.16277271608E+02  0.47787269858E+02  0.19999994589E+02 0.  0.
        -12    1    1    2    0    0  0.34356602192E+02  0.20935560458E+02  0.16277271608E+02  0.43400730142E+02  0.00000000000E+00 0.  1.
         11    1    3    3    0    0 -0.46383672231E+01  0.18093379232E+01  0.13781924508E+01  0.51660012494E+01  0.51100000000E-03 0. -1.
        -11    1    3    3    0    0 -0.67655979234E+01 -0.50200882669E+01 -0.90660395797E+01  0.12376092897E+02  0.51100000000E-03 0.  1.
         12    1    3    3    0    0 -0.22952637046E+02 -0.17724810114E+02 -0.85894244792E+01  0.30245175711E+02  0.00000000000E+00 0. -1.
</event>
<event>
 7    1  0.2700100E-010  0.4778728E+02  0.7816164E-02  0.1312668E+00
        -11   -1    0    0    0    0  0.00000000000E+00  0.00000000000E+00  0.45593999997E+02  0.45594000000E+02  0.51100000000E-03 0.  1.
         11   -1    0    0    0    0 -0.00000000000E+00 -0.00000000000E+00 -0.45593999997E+02  0.45594000000E+02  0.51100000000E-03 0. -1.
    9900012    2    1    2    0    0  0.32894629430E+02 -0.27461161407E+02 -0.68884288140E+01  0.47787280159E+02  0.20000041559E+02 0.  0.
        -12    1    1    2    0    0 -0.32894629430E+02  0.27461161407E+02  0.68884288140E+01  0.43400719841E+02  0.00000000000E+00 0.  1.
         11    1    3    3    0    0 -0.16488074820E+01 -0.28983438303E+01 -0.27773818588E+01  0.43396789423E+01  0.51100000000E-03 0. -1.
        -11    1    3    3    0    0  0.58830478089E+01 -0.58358452401E+01  0.23362660987E+01  0.86096155973E+01  0.51100000000E-03 0.  1.
         12    1    3    3    0    0  0.28660389103E+02 -0.18726972336E+02 -0.64473130539E+01  0.34837985620E+02  0.00000000000E+00 0. -1.
</event>
<event>
 7    1  0.2700100E-010  0.4778727E+02  0.7816164E-02  0.1312668E+00
        -11   -1    0    0    0    0  0.00000000000E+00  0.00000000000E+00  0.45593999997E+02  0.45594000000E+02  0.51100000000E-03 0.  1.
         11   -1    0    0    0    0 -0.00000000000E+00 -0.00000000000E+00 -0.45593999997E+02  0.45594000000E+02  0.51100000000E-03 0. -1.
    9900012    2    1    2    0    0 -0.11275416346E+02  0.18346131262E+02 -0.37681662386E+02  0.47787271593E+02  0.20000002501E+02 0.  0.
        -12    1    1    2    0    0  0.11275416346E+02 -0.18346131262E+02  0.37681662386E+02  0.43400728407E+02  0.00000000000E+00 0.  1.
         11    1    3    3    0    0 -0.60166761794E+01  0.89963323588E+00 -0.16229817744E+02  0.17332533470E+02  0.51100000000E-03 0. -1.
        -11    1    3    3    0    0 -0.34924778486E+01  0.18510156055E+02 -0.16316332818E+02  0.24920794441E+02  0.51100000000E-03 0.  1.
        -12    1    3    3    0    0 -0.17662623183E+01 -0.10636580285E+01 -0.51355118243E+01  0.55339436821E+01  0.00000000000E+00 0.  1.
</event>
<event>
 7    1  0.2700100E-010  0.4778727E+02  0.7816164E-02  0.1312668E+00
        -11   -1    0    0    0    0  0.00000000000E+00  0.00000000000E+00  0.45593999997E+02  0.45594000000E+02  0.51100000000E-03 0. -1.
         11   -1    0    0    0    0 -0.00000000000E+00 -0.00000000000E+00 -0.45593999997E+02  0.45594000000E+02  0.51100000000E-03 0.  1.
    9900012    2    1    2    0    0  0.25959205631E+02 -0.31248572372E+02  0.15273174274E+02  0.47787268616E+02  0.19999988928E+02 0.  0.
        -12    1    1    2    0    0 -0.25959205631E+02  0.31248572372E+02 -0.15273174274E+02  0.43400731384E+02  0.00000000000E+00 0.  1.
         11    1    3    3    0    0  0.88468386066E+01 -0.47295518099E+01  0.19760560878E+01  0.10224480993E+02  0.51100000000E-03 0. -1.
        -11    1    3    3    0    0  0.68375146775E+01 -0.22891161072E+02  0.11517638033E+02  0.26521931459E+02  0.51100000000E-03 0.  1.
        -12    1    3    3    0    0  0.10274852347E+02 -0.36278594902E+01  0.17794801531E+01  0.11040856164E+02  0.00000000000E+00 0.  1.
</event>
<event>
 7    1  0.2700100E-010  0.4778731E+02  0.7816164E-02  0.1312668E+00
        -11   -1    0    0    0    0  0.00000000000E+00  0.00000000000E+00  0.45593999997E+02  0.45594000000E+02  0.51100000000E-03 0.  1.
         11   -1    0    0    0    0 -0.00000000000E+00 -0.00000000000E+00 -0.45593999997E+02  0.45594000000E+02  0.51100000000E-03 0. -1.
    9900012    2    1    2    0    0 -0.17537296075E+02  0.35966391729E+02 -0.16807193118E+02  0.47787310742E+02  0.20000180995E+02 0.  0.
        -12    1    1    2    0    0  0.17537296075E+02 -0.35966391729E+02  0.16807193118E+02  0.43400689258E+02  0.00000000000E+00 0.  1.
         11    1    3    3    0    0 -0.26478275224E+01  0.38709570139E+01 -0.64548038652E+01  0.79787086669E+01  0.51100000000E-03 0. -1.
        -11    1    3    3    0    0 -0.14378451114E+02  0.14076926985E+02 -0.30151219475E+01  0.20346761177E+02  0.51100000000E-03 0.  1.
        -12    1    3    3    0    0 -0.51101743888E+00  0.18018507729E+02 -0.73372673052E+01  0.19461840898E+02  0.00000000000E+00 0.  1.
</event>
