<event>
 7    1  0.7470072E-010  0.4778727E+02  0.7816164E-02  0.1312668E+00
        -11   -1    0    0    0    0  0.00000000000E+00  0.00000000000E+00  0.45593999997E+02  0.45594000000E+02  0.51100000000E-03 0. -1.
         11   -1    0    0    0    0 -0.00000000000E+00 -0.00000000000E+00 -0.45593999997E+02  0.45594000000E+02  0.51100000000E-03 0.  1.
    9900012    2    1    2    0    0 -0.96938244479E+01  0.14554742877E+02 -0.39721687328E+02  0.47787271702E+02  0.20000002999E+02 0.  0.
         12    1    1    2    0    0  0.96938244479E+01 -0.14554742877E+02  0.39721687328E+02  0.43400728298E+02  0.00000000000E+00 0. -1.
         11    1    3    3    0    0 -0.32917595230E+01 -0.10474343668E+01  0.56566608671E+00  0.35003968193E+01  0.51100000000E-03 0. -1.
        -11    1    3    3    0    0 -0.49450414672E+01  0.15167421968E+02 -0.39444307202E+02  0.42548296032E+02  0.51100000000E-03 0.  1.
        -12    1    3    3    0    0 -0.14570234577E+01  0.43475527546E+00 -0.84304621193E+00  0.17385788510E+01  0.00000000000E+00 0.  1.
</event>
<event>
 7    1  0.7470072E-010  0.4778727E+02  0.7816164E-02  0.1312668E+00
        -11   -1    0    0    0    0  0.00000000000E+00  0.00000000000E+00  0.45593999997E+02  0.45594000000E+02  0.51100000000E-03 0. -1.
         11   -1    0    0    0    0 -0.00000000000E+00 -0.00000000000E+00 -0.45593999997E+02  0.45594000000E+02  0.51100000000E-03 0.  1.
    9900012    2    1    2    0    0  0.96093710369E+01 -0.29726666216E+02  0.30126543975E+02  0.47787270192E+02  0.19999996112E+02 0.  0.
        -12    1    1    2    0    0 -0.96093710369E+01  0.29726666216E+02 -0.30126543975E+02  0.43400729808E+02  0.00000000000E+00 0.  1.
         11    1    3    3    0    0  0.47565780174E+01 -0.16549416092E+01  0.93909704048E+01  0.10656180909E+02  0.51100000000E-03 0. -1.
        -11    1    3    3    0    0  0.23031399048E+01 -0.26460881611E+02  0.21319952879E+02  0.34059111851E+02  0.51100000000E-03 0.  1.
        -12    1    3    3    0    0  0.25496531147E+01 -0.16108429955E+01 -0.58437930915E+00  0.30719774313E+01  0.00000000000E+00 0.  1.
</event>
<event>
 7    1  0.7470072E-010  0.4778727E+02  0.7816164E-02  0.1312668E+00
        -11   -1    0    0    0    0  0.00000000000E+00  0.00000000000E+00  0.45593999997E+02  0.45594000000E+02  0.51100000000E-03 0. -1.
         11   -1    0    0    0    0 -0.00000000000E+00 -0.00000000000E+00 -0.45593999997E+02  0.45594000000E+02  0.51100000000E-03 0.  1.
    9900012    2    1    2    0    0 -0.86938879918E+01  0.22821403301E+02 -0.35877899108E+02  0.47787265197E+02  0.19999973337E+02 0.  0.
         12    1    1    2    0    0  0.86938879918E+01 -0.22821403301E+02  0.35877899108E+02  0.43400734803E+02  0.00000000000E+00 0. -1.
         11    1    3    3    0    0 -0.21529351411E+01  0.23036983365E+01 -0.58899928399E+00  0.32076589852E+01  0.51100000000E-03 0. -1.
        -11    1    3    3    0    0  0.53629089855E+01  0.33423614143E+01 -0.74215980143E+01  0.97474247859E+01  0.51100000000E-03 0.  1.
        -12    1    3    3    0    0 -0.11903861836E+02  0.17175343550E+02 -0.27867301810E+02  0.34832181426E+02  0.00000000000E+00 0.  1.
</event>
<event>
 7    1  0.7470072E-010  0.4778727E+02  0.7816164E-02  0.1312668E+00
        -11   -1    0    0    0    0  0.00000000000E+00  0.00000000000E+00  0.45593999997E+02  0.45594000000E+02  0.51100000000E-03 0. -1.
         11   -1    0    0    0    0 -0.00000000000E+00 -0.00000000000E+00 -0.45593999997E+02  0.45594000000E+02  0.51100000000E-03 0.  1.
    9900012    2    1    2    0    0 -0.22048232041E+02 -0.33693173319E+00 -0.37381614763E+02  0.47787272109E+02  0.20000004856E+02 0.  0.
         12    1    1    2    0    0  0.22048232041E+02  0.33693173319E+00  0.37381614763E+02  0.43400727891E+02  0.00000000000E+00 0. -1.
         11    1    3    3    0    0 -0.76982845304E+01 -0.59291728705E+01 -0.69876673765E+01  0.11968549255E+02  0.51100000000E-03 0. -1.
        -11    1    3    3    0    0 -0.69054638009E+01  0.24269219956E+01 -0.25113327635E+02  0.26158260758E+02  0.51100000000E-03 0.  1.
        -12    1    3    3    0    0 -0.74444837094E+01  0.31653191417E+01 -0.52806197514E+01  0.96604620970E+01  0.00000000000E+00 0.  1.
</event>
<event>
 7    1  0.9744873E-010  0.4778727E+02  0.7816164E-02  0.1312668E+00
        -11   -1    0    0    0    0  0.00000000000E+00  0.00000000000E+00  0.45593999997E+02  0.45594000000E+02  0.51100000000E-03 0. -1.
         11   -1    0    0    0    0 -0.00000000000E+00 -0.00000000000E+00 -0.45593999997E+02  0.45594000000E+02  0.51100000000E-03 0.  1.
    9900012    2    1    2    0    0 -0.61503263686E+01 -0.35471906900E+02 -0.24239236536E+02  0.47787270958E+02  0.19999999606E+02 0.  0.
         12    1    1    2    0    0  0.61503263686E+01  0.35471906900E+02  0.24239236536E+02  0.43400729042E+02  0.00000000000E+00 0. -1.
         11    1    3    3    0    0 -0.17073853658E+01 -0.86597489593E+01  0.21252634624E+01  0.90787202772E+01  0.51100000000E-03 0. -1.
        -11    1    3    3    0    0 -0.42261906885E+01 -0.23515863976E+02 -0.18627629440E+02  0.30295958890E+02  0.51100000000E-03 0.  1.
         12    1    3    3    0    0 -0.21675031433E+00 -0.32962939644E+01 -0.77368705587E+01  0.84125917909E+01  0.00000000000E+00 0. -1.
</event>
<event>
 7    1  0.7470072E-010  0.4778727E+02  0.7816164E-02  0.1312668E+00
        -11   -1    0    0    0    0  0.00000000000E+00  0.00000000000E+00  0.45593999997E+02  0.45594000000E+02  0.51100000000E-03 0. -1.
         11   -1    0    0    0    0 -0.00000000000E+00 -0.00000000000E+00 -0.45593999997E+02  0.45594000000E+02  0.51100000000E-03 0.  1.
    9900012    2    1    2    0    0  0.69417088761E+01  0.30542152866E+02 -0.30043517507E+02  0.47787269960E+02  0.19999995056E+02 0.  0.
         12    1    1    2    0    0 -0.69417088761E+01 -0.30542152866E+02  0.30043517507E+02  0.43400730040E+02  0.00000000000E+00 0. -1.
         11    1    3    3    0    0 -0.29222096130E+01  0.80457812293E+01 -0.36975273644E+01  0.93244631740E+01  0.51100000000E-03 0. -1.
        -11    1    3    3    0    0  0.11822638816E+02  0.15066521403E+02 -0.13280779748E+02  0.23305663834E+02  0.51100000000E-03 0.  1.
        -12    1    3    3    0    0 -0.19587203272E+01  0.74298502338E+01 -0.13065210395E+02  0.15157142953E+02  0.00000000000E+00 0.  1.
</event>
<event>
 7    1  0.7470072E-010  0.4778727E+02  0.7816164E-02  0.1312668E+00
        -11   -1    0    0    0    0  0.00000000000E+00  0.00000000000E+00  0.45593999997E+02  0.45594000000E+02  0.51100000000E-03 0. -1.
         11   -1    0    0    0    0 -0.00000000000E+00 -0.00000000000E+00 -0.45593999997E+02  0.45594000000E+02  0.51100000000E-03 0.  1.
    9900012    2    1    2    0    0  0.40061941182E+01 -0.28430940005E+02  0.32546206209E+02  0.47787268676E+02  0.19999989201E+02 0.  0.
        -12    1    1    2    0    0 -0.40061941182E+01  0.28430940005E+02 -0.32546206209E+02  0.43400731324E+02  0.00000000000E+00 0.  1.
         11    1    3    3    0    0  0.14906311669E+01 -0.12946004345E+01  0.65320358193E+01  0.68238891966E+01  0.51100000000E-03 0. -1.
        -11    1    3    3    0    0 -0.55143562065E+01 -0.32364767654E+01  0.60652666696E+01  0.88130792723E+01  0.51100000000E-03 0.  1.
        -12    1    3    3    0    0  0.80299191577E+01 -0.23899862805E+02  0.19948903720E+02  0.32150300207E+02  0.00000000000E+00 0.  1.
</event>
<event>
 7    1  0.7470072E-010  0.4778728E+02  0.7816164E-02  0.1312668E+00
        -11   -1    0    0    0    0  0.00000000000E+00  0.00000000000E+00  0.45593999997E+02  0.45594000000E+02  0.51100000000E-03 0. -1.
         11   -1    0    0    0    0 -0.00000000000E+00 -0.00000000000E+00 -0.45593999997E+02  0.45594000000E+02  0.51100000000E-03 0.  1.
    9900012    2    1    2    0    0 -0.10440854510E+02 -0.55373729089E+01  0.41760614521E+02  0.47787275734E+02  0.20000021382E+02 0.  0.
        -12    1    1    2    0    0  0.10440854510E+02  0.55373729089E+01 -0.41760614521E+02  0.43400724266E+02  0.00000000000E+00 0.  1.
         11    1    3    3    0    0 -0.70243422810E+01 -0.72760346946E+01  0.28152615207E+02  0.29914073755E+02  0.51100000000E-03 0. -1.
        -11    1    3    3    0    0 -0.84749764740E+00  0.10256197731E+01 -0.17988263467E+01  0.22373923814E+01  0.51100000000E-03 0.  1.
         12    1    3    3    0    0 -0.25690145815E+01  0.71304201256E+00  0.15406825661E+02  0.15635809598E+02  0.00000000000E+00 0. -1.
</event>
<event>
 7    1  0.7470072E-010  0.4778727E+02  0.7816164E-02  0.1312668E+00
        -11   -1    0    0    0    0  0.00000000000E+00  0.00000000000E+00  0.45593999997E+02  0.45594000000E+02  0.51100000000E-03 0. -1.
         11   -1    0    0    0    0 -0.00000000000E+00 -0.00000000000E+00 -0.45593999997E+02  0.45594000000E+02  0.51100000000E-03 0.  1.
    9900012    2    1    2    0    0 -0.35422477823E+02  0.21628885756E+02 -0.12691051583E+02  0.47787269309E+02  0.19999992090E+02 0.  0.
         12    1    1    2    0    0  0.35422477823E+02 -0.21628885756E+02  0.12691051583E+02  0.43400730691E+02  0.00000000000E+00 0. -1.
         11    1    3    3    0    0 -0.56012606493E+01  0.73719350052E+01  0.32772156721E+01  0.98213893826E+01  0.51100000000E-03 0. -1.
        -11    1    3    3    0    0 -0.12894205269E+02  0.28937965610E+01 -0.10442816435E+02  0.16843010521E+02  0.51100000000E-03 0.  1.
         12    1    3    3    0    0 -0.16927011905E+02  0.11363154190E+02 -0.55254508206E+01  0.21122869406E+02  0.00000000000E+00 0. -1.
</event>
<event>
 7    1  0.7470072E-010  0.4778728E+02  0.7816164E-02  0.1312668E+00
        -11   -1    0    0    0    0  0.00000000000E+00  0.00000000000E+00  0.45593999997E+02  0.45594000000E+02  0.51100000000E-03 0. -1.
         11   -1    0    0    0    0 -0.00000000000E+00 -0.00000000000E+00 -0.45593999997E+02  0.45594000000E+02  0.51100000000E-03 0.  1.
    9900012    2    1    2    0    0  0.51132052895E+01  0.21630752083E+02 -0.37277182203E+02  0.47787278612E+02  0.20000034501E+02 0.  0.
         12    1    1    2    0    0 -0.51132052895E+01 -0.21630752083E+02  0.37277182203E+02  0.43400721388E+02  0.00000000000E+00 0. -1.
         11    1    3    3    0    0  0.37158621211E+01  0.88462870852E+01 -0.94012821046E+01  0.13433113264E+02  0.51100000000E-03 0.  1.
        -11    1    3    3    0    0  0.11969908569E+01  0.91383621110E+00  0.18262855609E+01  0.23671085618E+01  0.51100000000E-03 0. -1.
        -12    1    3    3    0    0  0.20035231156E+00  0.11870628787E+02 -0.29702185660E+02  0.31987056786E+02  0.00000000000E+00 0.  1.
</event>
<event>
 7    1  0.7470072E-010  0.4778727E+02  0.7816164E-02  0.1312668E+00
        -11   -1    0    0    0    0  0.00000000000E+00  0.00000000000E+00  0.45593999997E+02  0.45594000000E+02  0.51100000000E-03 0. -1.
         11   -1    0    0    0    0 -0.00000000000E+00 -0.00000000000E+00 -0.45593999997E+02  0.45594000000E+02  0.51100000000E-03 0.  1.
    9900012    2    1    2    0    0  0.30116320061E+01 -0.15138114230E+02  0.40563420786E+02  0.47787268029E+02  0.19999986251E+02 0.  0.
        -12    1    1    2    0    0 -0.30116320061E+01  0.15138114230E+02 -0.40563420786E+02  0.43400731971E+02  0.00000000000E+00 0.  1.
         11    1    3    3    0    0 -0.55738584145E-01 -0.17880229845E+01 -0.12192382877E+01  0.21648730323E+01  0.51100000000E-03 0.  1.
        -11    1    3    3    0    0  0.40989368146E-01 -0.14239160267E+02  0.27191470096E+02  0.30694159241E+02  0.51100000000E-03 0. -1.
        -12    1    3    3    0    0  0.30263812221E+01  0.88906902100E+00  0.14591188977E+02  0.14928235756E+02  0.00000000000E+00 0.  1.
</event>
<event>
 7    1  0.7470072E-010  0.4778727E+02  0.7816164E-02  0.1312668E+00
        -11   -1    0    0    0    0  0.00000000000E+00  0.00000000000E+00  0.45593999997E+02  0.45594000000E+02  0.51100000000E-03 0. -1.
         11   -1    0    0    0    0 -0.00000000000E+00 -0.00000000000E+00 -0.45593999997E+02  0.45594000000E+02  0.51100000000E-03 0.  1.
    9900012    2    1    2    0    0  0.13438116514E+01  0.19521410522E+02  0.38739279672E+02  0.47787273185E+02  0.20000009760E+02 0.  0.
        -12    1    1    2    0    0 -0.13438116514E+01 -0.19521410522E+02 -0.38739279672E+02  0.43400726815E+02  0.00000000000E+00 0.  1.
         11    1    3    3    0    0  0.90446993171E+01  0.79159746800E+01  0.15685715059E+02  0.19761348589E+02  0.51100000000E-03 0. -1.
        -11    1    3    3    0    0 -0.24554079340E-02 -0.74649504462E+00 -0.18464637894E-01  0.74672758396E+00  0.51100000000E-03 0.  1.
         12    1    3    3    0    0 -0.76984322578E+01  0.12351930887E+02  0.23072029251E+02  0.27279197012E+02  0.00000000000E+00 0. -1.
</event>
<event>
 7    1  0.7470072E-010  0.4778727E+02  0.7816164E-02  0.1312668E+00
        -11   -1    0    0    0    0  0.00000000000E+00  0.00000000000E+00  0.45593999997E+02  0.45594000000E+02  0.51100000000E-03 0. -1.
         11   -1    0    0    0    0 -0.00000000000E+00 -0.00000000000E+00 -0.45593999997E+02  0.45594000000E+02  0.51100000000E-03 0.  1.
    9900012    2    1    2    0    0 -0.33202762079E+02 -0.29215509479E+01 -0.27796839145E+02  0.47787272632E+02  0.20000007240E+02 0.  0.
         12    1    1    2    0    0  0.33202762079E+02  0.29215509479E+01  0.27796839145E+02  0.43400727368E+02  0.00000000000E+00 0. -1.
         11    1    3    3    0    0 -0.51630839924E+01  0.34249349696E+00 -0.82564490273E+01  0.97439052186E+01  0.51100000000E-03 0. -1.
        -11    1    3    3    0    0 -0.16025988493E+02 -0.89917426634E+01 -0.15757253594E+02  0.24206916045E+02  0.51100000000E-03 0.  1.
        -12    1    3    3    0    0 -0.12013689594E+02  0.57276982185E+01 -0.37831365230E+01  0.13836451369E+02  0.00000000000E+00 0.  1.
</event>
<event>
 7    1  0.7470072E-010  0.4778726E+02  0.7816164E-02  0.1312668E+00
        -11   -1    0    0    0    0  0.00000000000E+00  0.00000000000E+00  0.45593999997E+02  0.45594000000E+02  0.51100000000E-03 0. -1.
         11   -1    0    0    0    0 -0.00000000000E+00 -0.00000000000E+00 -0.45593999997E+02  0.45594000000E+02  0.51100000000E-03 0.  1.
    9900012    2    1    2    0    0 -0.55864492282E+01 -0.36621269675E+02  0.22611902460E+02  0.47787263366E+02  0.19999964989E+02 0.  0.
        -12    1    1    2    0    0  0.55864492282E+01  0.36621269675E+02 -0.22611902460E+02  0.43400736634E+02  0.00000000000E+00 0.  1.
         11    1    3    3    0    0 -0.21635543517E+01 -0.16802562477E+02  0.61429432068E+01  0.18020622207E+02  0.51100000000E-03 0. -1.
        -11    1    3    3    0    0 -0.39190254528E+01  0.92622465673E+00  0.31013127939E+01  0.50827939089E+01  0.51100000000E-03 0.  1.
        -12    1    3    3    0    0  0.49613057618E+00 -0.20744931854E+02  0.13367646459E+02  0.24683847249E+02  0.00000000000E+00 0.  1.
</event>
<event>
 7    1  0.7470072E-010  0.4778727E+02  0.7816164E-02  0.1312668E+00
        -11   -1    0    0    0    0  0.00000000000E+00  0.00000000000E+00  0.45593999997E+02  0.45594000000E+02  0.51100000000E-03 0. -1.
         11   -1    0    0    0    0 -0.00000000000E+00 -0.00000000000E+00 -0.45593999997E+02  0.45594000000E+02  0.51100000000E-03 0.  1.
    9900012    2    1    2    0    0 -0.29553383644E+01 -0.23490234818E+02  0.36374415140E+02  0.47787271510E+02  0.20000002123E+02 0.  0.
        -12    1    1    2    0    0  0.29553383644E+01  0.23490234818E+02 -0.36374415140E+02  0.43400728490E+02  0.00000000000E+00 0.  1.
         11    1    3    3    0    0  0.35079304612E+01 -0.12362466005E+02  0.24810410680E+02  0.27940877227E+02  0.51100000000E-03 0. -1.
        -11    1    3    3    0    0 -0.19014932363E+01 -0.38537666412E+01 -0.12013792425E+01  0.44621190256E+01  0.51100000000E-03 0.  1.
        -12    1    3    3    0    0 -0.45617755893E+01 -0.72740021725E+01  0.12765383702E+02  0.15384275257E+02  0.00000000000E+00 0.  1.
</event>
<event>
 7    1  0.7470072E-010  0.4778727E+02  0.7816164E-02  0.1312668E+00
        -11   -1    0    0    0    0  0.00000000000E+00  0.00000000000E+00  0.45593999997E+02  0.45594000000E+02  0.51100000000E-03 0. -1.
         11   -1    0    0    0    0 -0.00000000000E+00 -0.00000000000E+00 -0.45593999997E+02  0.45594000000E+02  0.51100000000E-03 0.  1.
    9900012    2    1    2    0    0  0.45701160695E+01 -0.36282428544E+02 -0.23373539538E+02  0.47787274978E+02  0.20000017933E+02 0.  0.
         12    1    1    2    0    0 -0.45701160695E+01  0.36282428544E+02  0.23373539538E+02  0.43400725022E+02  0.00000000000E+00 0. -1.
         11    1    3    3    0    0 -0.38187591238E+01 -0.60424331247E+01 -0.56907774554E+01  0.91366770557E+01  0.51100000000E-03 0. -1.
        -11    1    3    3    0    0  0.10036411595E+02 -0.23328118674E+02 -0.79710442013E+01  0.26617066415E+02  0.51100000000E-03 0.  1.
         12    1    3    3    0    0 -0.16475364021E+01 -0.69118767447E+01 -0.97117178815E+01  0.12033531507E+02  0.00000000000E+00 0. -1.
</event>
<event>
 7    1  0.7470072E-010  0.4778728E+02  0.7816164E-02  0.1312668E+00
        -11   -1    0    0    0    0  0.00000000000E+00  0.00000000000E+00  0.45593999997E+02  0.45594000000E+02  0.51100000000E-03 0. -1.
         11   -1    0    0    0    0 -0.00000000000E+00 -0.00000000000E+00 -0.45593999997E+02  0.45594000000E+02  0.51100000000E-03 0.  1.
    9900012    2    1    2    0    0 -0.18389270325E+02  0.29076004870E+02 -0.26458331721E+02  0.47787278350E+02  0.20000033309E+02 0.  0.
         12    1    1    2    0    0  0.18389270325E+02 -0.29076004870E+02  0.26458331721E+02  0.43400721650E+02  0.00000000000E+00 0. -1.
         11    1    3    3    0    0  0.12177126325E+00  0.55175067492E+01  0.25149917928E+01  0.60648901842E+01  0.51100000000E-03 0. -1.
        -11    1    3    3    0    0 -0.90145999846E+01  0.10177811044E+02 -0.12418244668E+02  0.18413681094E+02  0.51100000000E-03 0.  1.
         12    1    3    3    0    0 -0.94964416041E+01  0.13380687076E+02 -0.16555078846E+02  0.23308707072E+02  0.00000000000E+00 0. -1.
</event>
<event>
 7    1  0.7470072E-010  0.4778728E+02  0.7816164E-02  0.1312668E+00
        -11   -1    0    0    0    0  0.00000000000E+00  0.00000000000E+00  0.45593999997E+02  0.45594000000E+02  0.51100000000E-03 0.  1.
         11   -1    0    0    0    0 -0.00000000000E+00 -0.00000000000E+00 -0.45593999997E+02  0.45594000000E+02  0.51100000000E-03 0. -1.
    9900012    2    1    2    0    0 -0.40551861052E+02  0.14797215846E+02 -0.44957522103E+01  0.47787276279E+02  0.20000023866E+02 0.  0.
         12    1    1    2    0    0  0.40551861052E+02 -0.14797215846E+02  0.44957522103E+01  0.43400723721E+02  0.00000000000E+00 0. -1.
         11    1    3    3    0    0 -0.32310117372E+01  0.24141189102E+00  0.52796188317E+01  0.61945211127E+01  0.51100000000E-03 0. -1.
        -11    1    3    3    0    0 -0.24454050474E+02  0.10448094988E+02 -0.39533019395E+01  0.26884788821E+02  0.51100000000E-03 0.  1.
         12    1    3    3    0    0 -0.12866798841E+02  0.41077089667E+01 -0.58220691025E+01  0.14707966345E+02  0.00000000000E+00 0. -1.
</event>
<event>
 7    1  0.7470072E-010  0.4778727E+02  0.7816164E-02  0.1312668E+00
        -11   -1    0    0    0    0  0.00000000000E+00  0.00000000000E+00  0.45593999997E+02  0.45594000000E+02  0.51100000000E-03 0. -1.
         11   -1    0    0    0    0 -0.00000000000E+00 -0.00000000000E+00 -0.45593999997E+02  0.45594000000E+02  0.51100000000E-03 0.  1.
    9900012    2    1    2    0    0 -0.13943162675E+02 -0.23657702788E+02 -0.33608402233E+02  0.47787269738E+02  0.19999994045E+02 0.  0.
         12    1    1    2    0    0  0.13943162675E+02  0.23657702788E+02  0.33608402233E+02  0.43400730262E+02  0.00000000000E+00 0. -1.
         11    1    3    3    0    0 -0.75734514010E+01 -0.22109741719E+02 -0.20995620244E+02  0.31416777598E+02  0.51100000000E-03 0.  1.
        -11    1    3    3    0    0 -0.77099956719E+01 -0.69963960774E-01 -0.70009168297E+01  0.10414497824E+02  0.51100000000E-03 0. -1.
        -12    1    3    3    0    0  0.13402843975E+01 -0.14779971091E+01 -0.56118651593E+01  0.59559943156E+01  0.00000000000E+00 0.  1.
</event>
<event>
 7    1  0.7470072E-010  0.4778727E+02  0.7816164E-02  0.1312668E+00
        -11   -1    0    0    0    0  0.00000000000E+00  0.00000000000E+00  0.45593999997E+02  0.45594000000E+02  0.51100000000E-03 0. -1.
         11   -1    0    0    0    0 -0.00000000000E+00 -0.00000000000E+00 -0.45593999997E+02  0.45594000000E+02  0.51100000000E-03 0.  1.
    9900012    2    1    2    0    0 -0.23490647143E+02  0.36493881231E+02  0.97773256175E-01  0.47787269244E+02  0.19999991792E+02 0.  0.
         12    1    1    2    0    0  0.23490647143E+02 -0.36493881231E+02 -0.97773256175E-01  0.43400730756E+02  0.00000000000E+00 0. -1.
         11    1    3    3    0    0  0.34150966312E+01  0.42970238592E+01  0.12696279665E+01  0.56337602435E+01  0.51100000000E-03 0. -1.
        -11    1    3    3    0    0 -0.20745760372E+02  0.27000360506E+02 -0.15525599807E+01  0.34085429198E+02  0.51100000000E-03 0.  1.
         12    1    3    3    0    0 -0.61599834022E+01  0.51964968663E+01  0.38070527032E+00  0.80680798025E+01  0.00000000000E+00 0. -1.
</event>
<event>
 7    1  0.7470072E-010  0.4778727E+02  0.7816164E-02  0.1312668E+00
        -11   -1    0    0    0    0  0.00000000000E+00  0.00000000000E+00  0.45593999997E+02  0.45594000000E+02  0.51100000000E-03 0. -1.
         11   -1    0    0    0    0 -0.00000000000E+00 -0.00000000000E+00 -0.45593999997E+02  0.45594000000E+02  0.51100000000E-03 0.  1.
    9900012    2    1    2    0    0  0.15193446197E+02 -0.76923761057E+01  0.39920047333E+02  0.47787266866E+02  0.19999980951E+02 0.  0.
        -12    1    1    2    0    0 -0.15193446197E+02  0.76923761057E+01 -0.39920047333E+02  0.43400733134E+02  0.00000000000E+00 0.  1.
         11    1    3    3    0    0  0.54998281306E+01 -0.87620340608E+01  0.14544207044E+02  0.17848117804E+02  0.51100000000E-03 0. -1.
        -11    1    3    3    0    0 -0.89130005117E-01  0.51639960777E+01  0.10086301152E+02  0.11331737326E+02  0.51100000000E-03 0.  1.
         12    1    3    3    0    0  0.97827480716E+01 -0.40943381226E+01  0.15289539137E+02  0.18607411736E+02  0.00000000000E+00 0. -1.
</event>
<event>
 7    1  0.7470072E-010  0.4778727E+02  0.7816164E-02  0.1312668E+00
        -11   -1    0    0    0    0  0.00000000000E+00  0.00000000000E+00  0.45593999997E+02  0.45594000000E+02  0.51100000000E-03 0. -1.
         11   -1    0    0    0    0 -0.00000000000E+00 -0.00000000000E+00 -0.45593999997E+02  0.45594000000E+02  0.51100000000E-03 0.  1.
    9900012    2    1    2    0    0  0.10952914282E+02 -0.12319730456E+01 -0.41977842675E+02  0.47787270001E+02  0.19999995241E+02 0.  0.
         12    1    1    2    0    0 -0.10952914282E+02  0.12319730456E+01  0.41977842675E+02  0.43400729999E+02  0.00000000000E+00 0. -1.
         11    1    3    3    0    0  0.25801454798E+01 -0.19576505922E+01 -0.12811561981E+02  0.13214600531E+02  0.51100000000E-03 0. -1.
        -11    1    3    3    0    0  0.49678580439E+01  0.41809918303E+01 -0.29000812111E+02  0.29718805656E+02  0.51100000000E-03 0.  1.
        -12    1    3    3    0    0  0.34049107585E+01 -0.34553142837E+01 -0.16546858229E+00  0.48538638139E+01  0.00000000000E+00 0.  1.
</event>
<event>
 7    1  0.7470072E-010  0.4778727E+02  0.7816164E-02  0.1312668E+00
        -11   -1    0    0    0    0  0.00000000000E+00  0.00000000000E+00  0.45593999997E+02  0.45594000000E+02  0.51100000000E-03 0. -1.
         11   -1    0    0    0    0 -0.00000000000E+00 -0.00000000000E+00 -0.45593999997E+02  0.45594000000E+02  0.51100000000E-03 0.  1.
    9900012    2    1    2    0    0  0.15042064520E+02  0.19289227870E+02  0.35850873841E+02  0.47787272218E+02  0.20000005351E+02 0.  0.
        -12    1    1    2    0    0 -0.15042064520E+02 -0.19289227870E+02 -0.35850873841E+02  0.43400727782E+02  0.00000000000E+00 0.  1.
         11    1    3    3    0    0  0.37023354846E+01  0.75267429453E+00  0.45242459144E+01  0.58942860457E+01  0.51100000000E-03 0. -1.
        -11    1    3    3    0    0  0.14372585904E+02  0.73197205551E+01  0.16773072423E+02  0.23269840853E+02  0.51100000000E-03 0.  1.
        -12    1    3    3    0    0 -0.30328568684E+01  0.11216833020E+02  0.14553555504E+02  0.18623145319E+02  0.00000000000E+00 0.  1.
</event>
<event>
 7    1  0.7470072E-010  0.4778727E+02  0.7816164E-02  0.1312668E+00
        -11   -1    0    0    0    0  0.00000000000E+00  0.00000000000E+00  0.45593999997E+02  0.45594000000E+02  0.51100000000E-03 0. -1.
         11   -1    0    0    0    0 -0.00000000000E+00 -0.00000000000E+00 -0.45593999997E+02  0.45594000000E+02  0.51100000000E-03 0.  1.
    9900012    2    1    2    0    0  0.10319032507E+02 -0.74630583943E+00 -0.42149545321E+02  0.47787267575E+02  0.19999984180E+02 0.  0.
         12    1    1    2    0    0 -0.10319032507E+02  0.74630583943E+00  0.42149545321E+02  0.43400732425E+02  0.00000000000E+00 0. -1.
         11    1    3    3    0    0  0.70876509017E+01 -0.44804488616E+01 -0.94149248323E+01  0.12607538505E+02  0.51100000000E-03 0. -1.
        -11    1    3    3    0    0 -0.11384913385E+01  0.49367193404E+01 -0.28598582152E+02  0.29043867885E+02  0.51100000000E-03 0.  1.
        -12    1    3    3    0    0  0.43698729443E+01 -0.12025763181E+01 -0.41360383369E+01  0.61358611844E+01  0.00000000000E+00 0.  1.
</event>
<event>
 7    1  0.7470072E-010  0.4778727E+02  0.7816164E-02  0.1312668E+00
        -11   -1    0    0    0    0  0.00000000000E+00  0.00000000000E+00  0.45593999997E+02  0.45594000000E+02  0.51100000000E-03 0. -1.
         11   -1    0    0    0    0 -0.00000000000E+00 -0.00000000000E+00 -0.45593999997E+02  0.45594000000E+02  0.51100000000E-03 0.  1.
    9900012    2    1    2    0    0 -0.21964810900E+02 -0.17784051746E+02  0.32937791428E+02  0.47787268226E+02  0.19999987149E+02 0.  0.
        -12    1    1    2    0    0  0.21964810900E+02  0.17784051746E+02 -0.32937791428E+02  0.43400731774E+02  0.00000000000E+00 0.  1.
         11    1    3    3    0    0 -0.11641072486E+02 -0.26814260639E+01  0.10306605736E+02  0.15777538985E+02  0.51100000000E-03 0. -1.
        -11    1    3    3    0    0 -0.20580564025E+01 -0.12470789712E+02  0.18490329376E+02  0.22397510417E+02  0.51100000000E-03 0.  1.
        -12    1    3    3    0    0 -0.82656820111E+01 -0.26318359707E+01  0.41408563159E+01  0.96122188237E+01  0.00000000000E+00 0.  1.
</event>
<event>
 7    1  0.7470072E-010  0.4778727E+02  0.7816164E-02  0.1312668E+00
        -11   -1    0    0    0    0  0.00000000000E+00  0.00000000000E+00  0.45593999997E+02  0.45594000000E+02  0.51100000000E-03 0. -1.
         11   -1    0    0    0    0 -0.00000000000E+00 -0.00000000000E+00 -0.45593999997E+02  0.45594000000E+02  0.51100000000E-03 0.  1.
    9900012    2    1    2    0    0  0.17618385145E+02 -0.31596804492E+02 -0.23976193797E+02  0.47787269381E+02  0.19999992416E+02 0.  0.
         12    1    1    2    0    0 -0.17618385145E+02  0.31596804492E+02  0.23976193797E+02  0.43400730619E+02  0.00000000000E+00 0. -1.
         11    1    3    3    0    0  0.94663996742E+01 -0.14174419158E+01 -0.83805267493E+01  0.12722228312E+02  0.51100000000E-03 0. -1.
        -11    1    3    3    0    0  0.72692847742E+01 -0.23340622287E+02 -0.11218671381E+02  0.26897690193E+02  0.51100000000E-03 0.  1.
         12    1    3    3    0    0  0.88270069676E+00 -0.68387402891E+01 -0.43769956670E+01  0.81673508760E+01  0.00000000000E+00 0. -1.
</event>
<event>
 7    1  0.7470072E-010  0.4778727E+02  0.7816164E-02  0.1312668E+00
        -11   -1    0    0    0    0  0.00000000000E+00  0.00000000000E+00  0.45593999997E+02  0.45594000000E+02  0.51100000000E-03 0. -1.
         11   -1    0    0    0    0 -0.00000000000E+00 -0.00000000000E+00 -0.45593999997E+02  0.45594000000E+02  0.51100000000E-03 0.  1.
    9900012    2    1    2    0    0 -0.17605220670E+02 -0.11664680146E+02  0.37915893403E+02  0.47787268091E+02  0.19999986532E+02 0.  0.
        -12    1    1    2    0    0  0.17605220670E+02  0.11664680146E+02 -0.37915893403E+02  0.43400731909E+02  0.00000000000E+00 0.  1.
         11    1    3    3    0    0 -0.71178203850E+01  0.13668335613E+01  0.18715193105E+02  0.20069630147E+02  0.51100000000E-03 0. -1.
        -11    1    3    3    0    0 -0.44156269363E+01 -0.87657534756E+00  0.10906368459E+02  0.11798941428E+02  0.51100000000E-03 0.  1.
         12    1    3    3    0    0 -0.60717733484E+01 -0.12154938360E+02  0.82943318388E+01  0.15918696516E+02  0.00000000000E+00 0. -1.
</event>
<event>
 7    1  0.7470072E-010  0.4778727E+02  0.7816164E-02  0.1312668E+00
        -11   -1    0    0    0    0  0.00000000000E+00  0.00000000000E+00  0.45593999997E+02  0.45594000000E+02  0.51100000000E-03 0. -1.
         11   -1    0    0    0    0 -0.00000000000E+00 -0.00000000000E+00 -0.45593999997E+02  0.45594000000E+02  0.51100000000E-03 0.  1.
    9900012    2    1    2    0    0  0.35981313230E+02  0.58369745924E+01 -0.23556269886E+02  0.47787273911E+02  0.20000013069E+02 0.  0.
         12    1    1    2    0    0 -0.35981313230E+02 -0.58369745924E+01  0.23556269886E+02  0.43400726089E+02  0.00000000000E+00 0. -1.
         11    1    3    3    0    0 -0.12783196056E+01  0.89508419517E+00 -0.54079903989E+01  0.56286443436E+01  0.51100000000E-03 0. -1.
        -11    1    3    3    0    0  0.29915846975E+02  0.18080101917E+01 -0.15534517378E+02  0.33757192293E+02  0.51100000000E-03 0.  1.
         12    1    3    3    0    0  0.73437858601E+01  0.31338802056E+01 -0.26137621091E+01  0.84014372738E+01  0.00000000000E+00 0. -1.
</event>
<event>
 7    1  0.7470072E-010  0.4778727E+02  0.7816164E-02  0.1312668E+00
        -11   -1    0    0    0    0  0.00000000000E+00  0.00000000000E+00  0.45593999997E+02  0.45594000000E+02  0.51100000000E-03 0.  1.
         11   -1    0    0    0    0 -0.00000000000E+00 -0.00000000000E+00 -0.45593999997E+02  0.45594000000E+02  0.51100000000E-03 0. -1.
    9900012    2    1    2    0    0 -0.31400477501E+02 -0.26993365120E+02  0.12999674104E+02  0.47787271036E+02  0.19999999963E+02 0.  0.
        -12    1    1    2    0    0  0.31400477501E+02  0.26993365120E+02 -0.12999674104E+02  0.43400728964E+02  0.00000000000E+00 0.  1.
         11    1    3    3    0    0 -0.51678178138E+01  0.59540336793E+00 -0.31962207419E+01  0.61054625885E+01  0.51100000000E-03 0. -1.
        -11    1    3    3    0    0 -0.44658097910E+01 -0.29114868533E+01  0.36737538946E+01  0.64743092856E+01  0.51100000000E-03 0.  1.
         12    1    3    3    0    0 -0.21766849896E+02 -0.24677281634E+02  0.12522140951E+02  0.35207499162E+02  0.00000000000E+00 0. -1.
</event>
<event>
 7    1  0.7470072E-010  0.4778727E+02  0.7816164E-02  0.1312668E+00
        -11   -1    0    0    0    0  0.00000000000E+00  0.00000000000E+00  0.45593999997E+02  0.45594000000E+02  0.51100000000E-03 0. -1.
         11   -1    0    0    0    0 -0.00000000000E+00 -0.00000000000E+00 -0.45593999997E+02  0.45594000000E+02  0.51100000000E-03 0.  1.
    9900012    2    1    2    0    0  0.31365691941E+02  0.12236684216E+01  0.29971972836E+02  0.47787272460E+02  0.20000006455E+02 0.  0.
        -12    1    1    2    0    0 -0.31365691941E+02 -0.12236684216E+01 -0.29971972836E+02  0.43400727540E+02  0.00000000000E+00 0.  1.
         11    1    3    3    0    0  0.16859781260E+02  0.91630643380E+00  0.47073618648E+01  0.17528579452E+02  0.51100000000E-03 0. -1.
        -11    1    3    3    0    0  0.10390512164E+02  0.21087978124E+01  0.22776544176E+02  0.25123310612E+02  0.51100000000E-03 0.  1.
        -12    1    3    3    0    0  0.41153985161E+01 -0.18014358246E+01  0.24880667951E+01  0.51353823960E+01  0.00000000000E+00 0.  1.
</event>
<event>
 7    1  0.7470072E-010  0.4778727E+02  0.7816164E-02  0.1312668E+00
        -11   -1    0    0    0    0  0.00000000000E+00  0.00000000000E+00  0.45593999997E+02  0.45594000000E+02  0.51100000000E-03 0. -1.
         11   -1    0    0    0    0 -0.00000000000E+00 -0.00000000000E+00 -0.45593999997E+02  0.45594000000E+02  0.51100000000E-03 0.  1.
    9900012    2    1    2    0    0 -0.22855753788E+01 -0.13501593980E+02 -0.41183816063E+02  0.47787267283E+02  0.19999982851E+02 0.  0.
         12    1    1    2    0    0  0.22855753788E+01  0.13501593980E+02  0.41183816063E+02  0.43400732717E+02  0.00000000000E+00 0. -1.
         11    1    3    3    0    0  0.30035692274E+01 -0.13173861959E+02 -0.16463444095E+02  0.21298287695E+02  0.51100000000E-03 0. -1.
        -11    1    3    3    0    0  0.94517279087E+00  0.24922996529E+01 -0.74525663905E+01  0.79149008351E+01  0.51100000000E-03 0.  1.
         12    1    3    3    0    0 -0.62343173970E+01 -0.28200316743E+01 -0.17267805577E+02  0.18574078753E+02  0.00000000000E+00 0. -1.
</event>
<event>
 7    1  0.7470072E-010  0.4778727E+02  0.7816164E-02  0.1312668E+00
        -11   -1    0    0    0    0  0.00000000000E+00  0.00000000000E+00  0.45593999997E+02  0.45594000000E+02  0.51100000000E-03 0. -1.
         11   -1    0    0    0    0 -0.00000000000E+00 -0.00000000000E+00 -0.45593999997E+02  0.45594000000E+02  0.51100000000E-03 0.  1.
    9900012    2    1    2    0    0 -0.10942688698E+02 -0.33026110658E+02  0.25945266402E+02  0.47787271091E+02  0.20000000213E+02 0.  0.
        -12    1    1    2    0    0  0.10942688698E+02  0.33026110658E+02 -0.25945266402E+02  0.43400728909E+02  0.00000000000E+00 0.  1.
         11    1    3    3    0    0 -0.83058848898E+01 -0.78588752042E+01  0.43352867739E+00  0.11442796452E+02  0.51100000000E-03 0. -1.
        -11    1    3    3    0    0  0.14510799886E+01 -0.12238719768E+02  0.11926970778E+02  0.17150642171E+02  0.51100000000E-03 0.  1.
         12    1    3    3    0    0 -0.40878837966E+01 -0.12928515686E+02  0.13584766947E+02  0.19193832467E+02  0.00000000000E+00 0. -1.
</event>
<event>
 7    1  0.7470072E-010  0.4778727E+02  0.7816164E-02  0.1312668E+00
        -11   -1    0    0    0    0  0.00000000000E+00  0.00000000000E+00  0.45593999997E+02  0.45594000000E+02  0.51100000000E-03 0.  1.
         11   -1    0    0    0    0 -0.00000000000E+00 -0.00000000000E+00 -0.45593999997E+02  0.45594000000E+02  0.51100000000E-03 0. -1.
    9900012    2    1    2    0    0 -0.39939901557E+02 -0.18023102906E+01 -0.16887249381E+02  0.47787271314E+02  0.20000001231E+02 0.  0.
         12    1    1    2    0    0  0.39939901557E+02  0.18023102906E+01  0.16887249381E+02  0.43400728686E+02  0.00000000000E+00 0. -1.
         11    1    3    3    0    0 -0.11270768617E+02  0.51541375023E+01  0.15994814115E+01  0.12496147393E+02  0.51100000000E-03 0. -1.
        -11    1    3    3    0    0 -0.21084463839E+02 -0.57487183177E+01 -0.10623230320E+02  0.24299288063E+02  0.51100000000E-03 0.  1.
         12    1    3    3    0    0 -0.75846691006E+01 -0.12077294753E+01 -0.78635004725E+01  0.10991835858E+02  0.00000000000E+00 0. -1.
</event>
<event>
 7    1  0.7470072E-010  0.4778726E+02  0.7816164E-02  0.1312668E+00
        -11   -1    0    0    0    0  0.00000000000E+00  0.00000000000E+00  0.45593999997E+02  0.45594000000E+02  0.51100000000E-03 0. -1.
         11   -1    0    0    0    0 -0.00000000000E+00 -0.00000000000E+00 -0.45593999997E+02  0.45594000000E+02  0.51100000000E-03 0.  1.
    9900012    2    1    2    0    0  0.20509870929E+02  0.18533685771E+02 -0.33458514253E+02  0.47787257036E+02  0.19999936130E+02 0.  0.
         12    1    1    2    0    0 -0.20509870929E+02 -0.18533685771E+02  0.33458514253E+02  0.43400742964E+02  0.00000000000E+00 0. -1.
         11    1    3    3    0    0 -0.22517264444E+01  0.70022335367E+00 -0.40333454092E+01  0.46720937680E+01  0.51100000000E-03 0. -1.
        -11    1    3    3    0    0  0.14182616778E+02  0.51807419679E+01 -0.89146390015E+01  0.17534465912E+02  0.51100000000E-03 0.  1.
        -12    1    3    3    0    0  0.85789805951E+01  0.12652720450E+02 -0.20510529842E+02  0.25580697357E+02  0.00000000000E+00 0.  1.
</event>
<event>
 7    1  0.7470072E-010  0.4778727E+02  0.7816164E-02  0.1312668E+00
        -11   -1    0    0    0    0  0.00000000000E+00  0.00000000000E+00  0.45593999997E+02  0.45594000000E+02  0.51100000000E-03 0. -1.
         11   -1    0    0    0    0 -0.00000000000E+00 -0.00000000000E+00 -0.45593999997E+02  0.45594000000E+02  0.51100000000E-03 0.  1.
    9900012    2    1    2    0    0  0.30442679940E+02  0.17580972071E+02 -0.25451442651E+02  0.47787271044E+02  0.19999999998E+02 0.  0.
         12    1    1    2    0    0 -0.30442679940E+02 -0.17580972071E+02  0.25451442651E+02  0.43400728956E+02  0.00000000000E+00 0. -1.
         11    1    3    3    0    0  0.27472316229E+01 -0.23029662062E+01  0.16390383871E+01  0.39417486008E+01  0.51100000000E-03 0. -1.
        -11    1    3    3    0    0  0.23350695617E+02  0.14306238484E+02 -0.20915503784E+02  0.34458406002E+02  0.51100000000E-03 0.  1.
         12    1    3    3    0    0  0.43447527006E+01  0.55776997927E+01 -0.61749772537E+01  0.93871164417E+01  0.00000000000E+00 0. -1.
</event>
<event>
 7    1  0.7470072E-010  0.4778728E+02  0.7816164E-02  0.1312668E+00
        -11   -1    0    0    0    0  0.00000000000E+00  0.00000000000E+00  0.45593999997E+02  0.45594000000E+02  0.51100000000E-03 0. -1.
         11   -1    0    0    0    0 -0.00000000000E+00 -0.00000000000E+00 -0.45593999997E+02  0.45594000000E+02  0.51100000000E-03 0.  1.
    9900012    2    1    2    0    0 -0.69336995643E+01 -0.23296876838E+02  0.35955559392E+02  0.47787275223E+02  0.20000019050E+02 0.  0.
        -12    1    1    2    0    0  0.69336995643E+01  0.23296876838E+02 -0.35955559392E+02  0.43400724777E+02  0.00000000000E+00 0.  1.
         11    1    3    3    0    0  0.11525990536E+01 -0.92091427282E+01  0.19319047020E+02  0.21432740664E+02  0.51100000000E-03 0. -1.
        -11    1    3    3    0    0 -0.19799701201E+01 -0.54767913968E+01 -0.89312780558E+00  0.58917911723E+01  0.51100000000E-03 0.  1.
        -12    1    3    3    0    0 -0.61063284978E+01 -0.86109427127E+01  0.17529640177E+02  0.20462743386E+02  0.00000000000E+00 0.  1.
</event>
<event>
 7    1  0.7470072E-010  0.4778727E+02  0.7816164E-02  0.1312668E+00
        -11   -1    0    0    0    0  0.00000000000E+00  0.00000000000E+00  0.45593999997E+02  0.45594000000E+02  0.51100000000E-03 0. -1.
         11   -1    0    0    0    0 -0.00000000000E+00 -0.00000000000E+00 -0.45593999997E+02  0.45594000000E+02  0.51100000000E-03 0.  1.
    9900012    2    1    2    0    0  0.21680928093E+02 -0.19340488585E+02  0.32241373332E+02  0.47787270790E+02  0.19999998840E+02 0.  0.
        -12    1    1    2    0    0 -0.21680928093E+02  0.19340488585E+02 -0.32241373332E+02  0.43400729210E+02  0.00000000000E+00 0.  1.
         11    1    3    3    0    0  0.15336063808E+02 -0.16744372118E+02  0.15999239684E+02  0.27776690254E+02  0.51100000000E-03 0. -1.
        -11    1    3    3    0    0 -0.20631144809E+01  0.10859303926E+01  0.20262576629E+01  0.30889167286E+01  0.51100000000E-03 0.  1.
        -12    1    3    3    0    0  0.84079787659E+01 -0.36820468591E+01  0.14215875984E+02  0.16921663807E+02  0.00000000000E+00 0.  1.
</event>
<event>
 7    1  0.7470072E-010  0.4778727E+02  0.7816164E-02  0.1312668E+00
        -11   -1    0    0    0    0  0.00000000000E+00  0.00000000000E+00  0.45593999997E+02  0.45594000000E+02  0.51100000000E-03 0. -1.
         11   -1    0    0    0    0 -0.00000000000E+00 -0.00000000000E+00 -0.45593999997E+02  0.45594000000E+02  0.51100000000E-03 0.  1.
    9900012    2    1    2    0    0  0.30608971242E+02  0.22128627222E+02 -0.21378442351E+02  0.47787273502E+02  0.20000011203E+02 0.  0.
         12    1    1    2    0    0 -0.30608971242E+02 -0.22128627222E+02  0.21378442351E+02  0.43400726498E+02  0.00000000000E+00 0. -1.
         11    1    3    3    0    0  0.18134208955E+02  0.48873728110E+01 -0.11876621261E+02  0.22221387901E+02  0.51100000000E-03 0. -1.
        -11    1    3    3    0    0  0.10693673479E+02  0.13738108547E+02 -0.25708474215E+01  0.17598282179E+02  0.51100000000E-03 0.  1.
         12    1    3    3    0    0  0.17810888086E+01  0.35031458642E+01 -0.69309736690E+01  0.79676034220E+01  0.00000000000E+00 0. -1.
</event>
<event>
 7    1  0.7470072E-010  0.4778727E+02  0.7816164E-02  0.1312668E+00
        -11   -1    0    0    0    0  0.00000000000E+00  0.00000000000E+00  0.45593999997E+02  0.45594000000E+02  0.51100000000E-03 0. -1.
         11   -1    0    0    0    0 -0.00000000000E+00 -0.00000000000E+00 -0.45593999997E+02  0.45594000000E+02  0.51100000000E-03 0.  1.
    9900012    2    1    2    0    0  0.26148093163E+02  0.20836706117E+01 -0.34576854363E+02  0.47787270549E+02  0.19999997740E+02 0.  0.
         12    1    1    2    0    0 -0.26148093163E+02 -0.20836706117E+01  0.34576854363E+02  0.43400729451E+02  0.00000000000E+00 0. -1.
         11    1    3    3    0    0  0.19602585807E+01 -0.38313367594E+00 -0.14138649323E+02  0.14279033932E+02  0.51100000000E-03 0.  1.
        -11    1    3    3    0    0  0.55487655589E+00  0.26296163995E+01 -0.86933245095E+00  0.28246255632E+01  0.51100000000E-03 0. -1.
         12    1    3    3    0    0  0.23632958026E+02 -0.16281211186E+00 -0.19568872589E+02  0.30683611053E+02  0.00000000000E+00 0. -1.
</event>
<event>
 7    1  0.7470072E-010  0.4778727E+02  0.7816164E-02  0.1312668E+00
        -11   -1    0    0    0    0  0.00000000000E+00  0.00000000000E+00  0.45593999997E+02  0.45594000000E+02  0.51100000000E-03 0. -1.
         11   -1    0    0    0    0 -0.00000000000E+00 -0.00000000000E+00 -0.45593999997E+02  0.45594000000E+02  0.51100000000E-03 0.  1.
    9900012    2    1    2    0    0  0.79001719493E+01 -0.16058639562E+01 -0.42645420678E+02  0.47787269353E+02  0.19999992287E+02 0.  0.
         12    1    1    2    0    0 -0.79001719493E+01  0.16058639562E+01  0.42645420678E+02  0.43400730647E+02  0.00000000000E+00 0. -1.
         11    1    3    3    0    0  0.89846581708E+01 -0.22494654789E+01 -0.99953062382E+01  0.13626823711E+02  0.51100000000E-03 0. -1.
        -11    1    3    3    0    0 -0.43030570711E+01  0.22793547019E+01 -0.27136490606E+02  0.27569927107E+02  0.51100000000E-03 0.  1.
        -12    1    3    3    0    0  0.32185708496E+01 -0.16357531791E+01 -0.55136238345E+01  0.65905185354E+01  0.00000000000E+00 0.  1.
</event>
<event>
 7    1  0.7470072E-010  0.4778727E+02  0.7816164E-02  0.1312668E+00
        -11   -1    0    0    0    0  0.00000000000E+00  0.00000000000E+00  0.45593999997E+02  0.45594000000E+02  0.51100000000E-03 0. -1.
         11   -1    0    0    0    0 -0.00000000000E+00 -0.00000000000E+00 -0.45593999997E+02  0.45594000000E+02  0.51100000000E-03 0.  1.
    9900012    2    1    2    0    0  0.22562186895E+02 -0.23706938604E+02  0.28505297106E+02  0.47787272143E+02  0.20000005007E+02 0.  0.
        -12    1    1    2    0    0 -0.22562186895E+02  0.23706938604E+02 -0.28505297106E+02  0.43400727857E+02  0.00000000000E+00 0.  1.
         11    1    3    3    0    0  0.20590282790E+02 -0.14518466934E+02  0.17056404238E+02  0.30424768746E+02  0.51100000000E-03 0. -1.
        -11    1    3    3    0    0  0.14799545812E+01 -0.10081471570E+02  0.12343662489E+02  0.16006009449E+02  0.51100000000E-03 0.  1.
        -12    1    3    3    0    0  0.49194952406E+00  0.89299989980E+00 -0.89476962073E+00  0.13564939474E+01  0.00000000000E+00 0.  1.
</event>
<event>
 7    1  0.1110642E-009  0.4778727E+02  0.7816164E-02  0.1312668E+00
        -11   -1    0    0    0    0  0.00000000000E+00  0.00000000000E+00  0.45593999997E+02  0.45594000000E+02  0.51100000000E-03 0.  1.
         11   -1    0    0    0    0 -0.00000000000E+00 -0.00000000000E+00 -0.45593999997E+02  0.45594000000E+02  0.51100000000E-03 0. -1.
    9900012    2    1    2    0    0  0.16674611448E+02  0.15260264562E+02  0.37050032644E+02  0.47787271200E+02  0.20000000708E+02 0.  0.
        -12    1    1    2    0    0 -0.16674611448E+02 -0.15260264562E+02 -0.37050032644E+02  0.43400728800E+02  0.00000000000E+00 0.  1.
         11    1    3    3    0    0  0.18803619087E+02  0.12795101132E+02  0.30496934284E+02  0.38044102102E+02  0.51100000000E-03 0. -1.
        -11    1    3    3    0    0 -0.11389904747E+01  0.15511574837E+00 -0.11587067164E+01  0.16321647321E+01  0.51100000000E-03 0.  1.
         12    1    3    3    0    0 -0.99001716445E+00  0.23100476817E+01  0.77118050771E+01  0.81110043659E+01  0.00000000000E+00 0. -1.
</event>
<event>
 7    1  0.7470072E-010  0.4778727E+02  0.7816164E-02  0.1312668E+00
        -11   -1    0    0    0    0  0.00000000000E+00  0.00000000000E+00  0.45593999997E+02  0.45594000000E+02  0.51100000000E-03 0. -1.
         11   -1    0    0    0    0 -0.00000000000E+00 -0.00000000000E+00 -0.45593999997E+02  0.45594000000E+02  0.51100000000E-03 0.  1.
    9900012    2    1    2    0    0 -0.38881397296E+02 -0.27615333644E+01 -0.19084924577E+02  0.47787268804E+02  0.19999989785E+02 0.  0.
         12    1    1    2    0    0  0.38881397296E+02  0.27615333644E+01  0.19084924577E+02  0.43400731196E+02  0.00000000000E+00 0. -1.
         11    1    3    3    0    0 -0.96105658183E+01 -0.84941899947E+00  0.28181917336E+01  0.10051203554E+02  0.51100000000E-03 0. -1.
        -11    1    3    3    0    0 -0.22041379043E+02  0.20754663604E+01 -0.18319615593E+02  0.28735661928E+02  0.51100000000E-03 0.  1.
         12    1    3    3    0    0 -0.72294524350E+01 -0.39875807253E+01 -0.35835007177E+01  0.90004033212E+01  0.00000000000E+00 0. -1.
</event>
<event>
 7    1  0.7470072E-010  0.4778727E+02  0.7816164E-02  0.1312668E+00
        -11   -1    0    0    0    0  0.00000000000E+00  0.00000000000E+00  0.45593999997E+02  0.45594000000E+02  0.51100000000E-03 0. -1.
         11   -1    0    0    0    0 -0.00000000000E+00 -0.00000000000E+00 -0.45593999997E+02  0.45594000000E+02  0.51100000000E-03 0.  1.
    9900012    2    1    2    0    0  0.69853629283E+01 -0.38146451820E+01 -0.42664702273E+02  0.47787266905E+02  0.19999981126E+02 0.  0.
         12    1    1    2    0    0 -0.69853629283E+01  0.38146451820E+01  0.42664702273E+02  0.43400733095E+02  0.00000000000E+00 0. -1.
         11    1    3    3    0    0 -0.43430515030E+00 -0.28399406330E+01 -0.12582884220E+02  0.12906698234E+02  0.51100000000E-03 0.  1.
        -11    1    3    3    0    0 -0.50343167628E+01  0.60208380453E+00 -0.96360459981E+01  0.10888536766E+02  0.51100000000E-03 0. -1.
        -12    1    3    3    0    0  0.12453984841E+02 -0.15767883536E+01 -0.20445772056E+02  0.23992031904E+02  0.00000000000E+00 0.  1.
</event>
<event>
 7    1  0.7470072E-010  0.4778727E+02  0.7816164E-02  0.1312668E+00
        -11   -1    0    0    0    0  0.00000000000E+00  0.00000000000E+00  0.45593999997E+02  0.45594000000E+02  0.51100000000E-03 0.  1.
         11   -1    0    0    0    0 -0.00000000000E+00 -0.00000000000E+00 -0.45593999997E+02  0.45594000000E+02  0.51100000000E-03 0. -1.
    9900012    2    1    2    0    0 -0.16991999543E+02  0.39305022901E+02 -0.70717921939E+01  0.47787272834E+02  0.20000008158E+02 0.  0.
        -12    1    1    2    0    0  0.16991999543E+02 -0.39305022901E+02  0.70717921939E+01  0.43400727166E+02  0.00000000000E+00 0.  1.
         11    1    3    3    0    0 -0.18113578108E+02  0.29568206564E+02 -0.11192711250E+01  0.34693418964E+02  0.51100000000E-03 0. -1.
        -11    1    3    3    0    0 -0.14031635546E+01  0.48064528376E+01 -0.56456705662E+01  0.75461548648E+01  0.51100000000E-03 0.  1.
         12    1    3    3    0    0  0.25247421206E+01  0.49303635001E+01 -0.30685050269E+00  0.55476990049E+01  0.00000000000E+00 0. -1.
</event>
<event>
 7    1  0.7470072E-010  0.4778728E+02  0.7816164E-02  0.1312668E+00
        -11   -1    0    0    0    0  0.00000000000E+00  0.00000000000E+00  0.45593999997E+02  0.45594000000E+02  0.51100000000E-03 0. -1.
         11   -1    0    0    0    0 -0.00000000000E+00 -0.00000000000E+00 -0.45593999997E+02  0.45594000000E+02  0.51100000000E-03 0.  1.
    9900012    2    1    2    0    0 -0.22744051184E+02  0.32533223055E+02  0.17547661455E+02  0.47787275477E+02  0.20000020210E+02 0.  0.
        -12    1    1    2    0    0  0.22744051184E+02 -0.32533223055E+02 -0.17547661455E+02  0.43400724523E+02  0.00000000000E+00 0.  1.
         11    1    3    3    0    0 -0.53906861355E+01  0.49201237779E+01 -0.33000420481E+01  0.80098310083E+01  0.51100000000E-03 0.  1.
        -11    1    3    3    0    0 -0.84581993907E+01  0.20608424501E+02  0.11361643255E+02  0.25006703803E+02  0.51100000000E-03 0. -1.
         12    1    3    3    0    0 -0.88951656574E+01  0.70046747754E+01  0.94860602488E+01  0.14770740666E+02  0.00000000000E+00 0. -1.
</event>
<event>
 7    1  0.7470072E-010  0.4778727E+02  0.7816164E-02  0.1312668E+00
        -11   -1    0    0    0    0  0.00000000000E+00  0.00000000000E+00  0.45593999997E+02  0.45594000000E+02  0.51100000000E-03 0. -1.
         11   -1    0    0    0    0 -0.00000000000E+00 -0.00000000000E+00 -0.45593999997E+02  0.45594000000E+02  0.51100000000E-03 0.  1.
    9900012    2    1    2    0    0  0.20789886457E+02 -0.27412059358E+01  0.37998548877E+02  0.47787270678E+02  0.19999998331E+02 0.  0.
        -12    1    1    2    0    0 -0.20789886457E+02  0.27412059358E+01 -0.37998548877E+02  0.43400729322E+02  0.00000000000E+00 0.  1.
         11    1    3    3    0    0  0.11984284392E+02  0.79202588084E+01  0.23392662014E+02  0.27451233275E+02  0.51100000000E-03 0. -1.
        -11    1    3    3    0    0  0.16614481758E+01 -0.40270061164E+01  0.52696975174E+01  0.68371705031E+01  0.51100000000E-03 0.  1.
         12    1    3    3    0    0  0.71441538897E+01 -0.66344586277E+01  0.93361893456E+01  0.13498866900E+02  0.00000000000E+00 0. -1.
</event>
<event>
 7    1  0.7470072E-010  0.4778727E+02  0.7816164E-02  0.1312668E+00
        -11   -1    0    0    0    0  0.00000000000E+00  0.00000000000E+00  0.45593999997E+02  0.45594000000E+02  0.51100000000E-03 0. -1.
         11   -1    0    0    0    0 -0.00000000000E+00 -0.00000000000E+00 -0.45593999997E+02  0.45594000000E+02  0.51100000000E-03 0.  1.
    9900012    2    1    2    0    0  0.29450678002E+02  0.21883828094E+02  0.23181430886E+02  0.47787272993E+02  0.20000008884E+02 0.  0.
        -12    1    1    2    0    0 -0.29450678002E+02 -0.21883828094E+02 -0.23181430886E+02  0.43400727007E+02  0.00000000000E+00 0.  1.
         11    1    3    3    0    0  0.22975624612E+02  0.20358079168E+02  0.16391666031E+02  0.34799675706E+02  0.51100000000E-03 0. -1.
        -11    1    3    3    0    0 -0.90311071501E+00  0.33386870988E+01  0.18127108315E+01  0.39049150218E+01  0.51100000000E-03 0.  1.
         12    1    3    3    0    0  0.73781641052E+01 -0.18129381723E+01  0.49770540236E+01  0.90826822654E+01  0.00000000000E+00 0. -1.
</event>
<event>
 7    1  0.7470072E-010  0.4778727E+02  0.7816164E-02  0.1312668E+00
        -11   -1    0    0    0    0  0.00000000000E+00  0.00000000000E+00  0.45593999997E+02  0.45594000000E+02  0.51100000000E-03 0. -1.
         11   -1    0    0    0    0 -0.00000000000E+00 -0.00000000000E+00 -0.45593999997E+02  0.45594000000E+02  0.51100000000E-03 0.  1.
    9900012    2    1    2    0    0  0.39355107895E+02  0.76298984907E+01 -0.16630804119E+02  0.47787268278E+02  0.19999987386E+02 0.  0.
         12    1    1    2    0    0 -0.39355107895E+02 -0.76298984907E+01  0.16630804119E+02  0.43400731722E+02  0.00000000000E+00 0. -1.
         11    1    3    3    0    0  0.37502913109E+01 -0.15767968878E+01  0.29773458604E+01  0.50413849263E+01  0.51100000000E-03 0. -1.
        -11    1    3    3    0    0  0.26948031552E+02  0.33463690957E+01 -0.16761070433E+02  0.31911253078E+02  0.51100000000E-03 0.  1.
        -12    1    3    3    0    0  0.86567850320E+01  0.58603262828E+01 -0.28470795455E+01  0.10834630274E+02  0.00000000000E+00 0.  1.
</event>
<event>
 7    1  0.7470072E-010  0.4778727E+02  0.7816164E-02  0.1312668E+00
        -11   -1    0    0    0    0  0.00000000000E+00  0.00000000000E+00  0.45593999997E+02  0.45594000000E+02  0.51100000000E-03 0. -1.
         11   -1    0    0    0    0 -0.00000000000E+00 -0.00000000000E+00 -0.45593999997E+02  0.45594000000E+02  0.51100000000E-03 0.  1.
    9900012    2    1    2    0    0 -0.33122917367E+02  0.15511058294E+02  0.23364563733E+02  0.47787269329E+02  0.19999992180E+02 0.  0.
        -12    1    1    2    0    0  0.33122917367E+02 -0.15511058294E+02 -0.23364563733E+02  0.43400730671E+02  0.00000000000E+00 0.  1.
         11    1    3    3    0    0 -0.28684729611E+01  0.43868739864E+01 -0.19422703274E+01  0.55897419249E+01  0.51100000000E-03 0. -1.
        -11    1    3    3    0    0 -0.25675883644E+02  0.65635519841E+01  0.16303090739E+02  0.31114658659E+02  0.51100000000E-03 0.  1.
        -12    1    3    3    0    0 -0.45785607625E+01  0.45606323237E+01  0.90037433207E+01  0.11082868746E+02  0.00000000000E+00 0.  1.
</event>
<event>
 7    1  0.7470072E-010  0.4778726E+02  0.7816164E-02  0.1312668E+00
        -11   -1    0    0    0    0  0.00000000000E+00  0.00000000000E+00  0.45593999997E+02  0.45594000000E+02  0.51100000000E-03 0.  1.
         11   -1    0    0    0    0 -0.00000000000E+00 -0.00000000000E+00 -0.45593999997E+02  0.45594000000E+02  0.51100000000E-03 0. -1.
    9900012    2    1    2    0    0  0.19053308700E+02 -0.36181140638E+02 -0.14543756293E+02  0.47787258562E+02  0.19999943090E+02 0.  0.
         12    1    1    2    0    0 -0.19053308700E+02  0.36181140638E+02  0.14543756293E+02  0.43400741438E+02  0.00000000000E+00 0. -1.
         11    1    3    3    0    0  0.11365126461E+02 -0.26045846051E+02 -0.17190211385E+02  0.33212280314E+02  0.51100000000E-03 0. -1.
        -11    1    3    3    0    0  0.58473272824E+01 -0.10762253117E+02  0.15592402852E+01  0.12347006075E+02  0.51100000000E-03 0.  1.
         12    1    3    3    0    0  0.18408549561E+01  0.62695852958E+00  0.10872148069E+01  0.22279721730E+01  0.00000000000E+00 0. -1.
</event>
<event>
 7    1  0.7492963E-010  0.4778727E+02  0.7816164E-02  0.1312668E+00
        -11   -1    0    0    0    0  0.00000000000E+00  0.00000000000E+00  0.45593999997E+02  0.45594000000E+02  0.51100000000E-03 0. -1.
         11   -1    0    0    0    0 -0.00000000000E+00 -0.00000000000E+00 -0.45593999997E+02  0.45594000000E+02  0.51100000000E-03 0.  1.
    9900012    2    1    2    0    0  0.21044237677E+02 -0.32087605632E+01 -0.37821517993E+02  0.47787270662E+02  0.19999998257E+02 0.  0.
         12    1    1    2    0    0 -0.21044237677E+02  0.32087605632E+01  0.37821517993E+02  0.43400729338E+02  0.00000000000E+00 0. -1.
         11    1    3    3    0    0 -0.42156490036E-01 -0.41029309416E+01 -0.10156808599E+02  0.10954295078E+02  0.51100000000E-03 0. -1.
        -11    1    3    3    0    0  0.19075429090E+02 -0.57277747420E-02 -0.15810786279E+02  0.24776056804E+02  0.51100000000E-03 0.  1.
        -12    1    3    3    0    0  0.20109650769E+01  0.89989815307E+00 -0.11853923115E+02  0.12056918779E+02  0.00000000000E+00 0.  1.
</event>
<event>
 7    1  0.7470072E-010  0.4778726E+02  0.7816164E-02  0.1312668E+00
        -11   -1    0    0    0    0  0.00000000000E+00  0.00000000000E+00  0.45593999997E+02  0.45594000000E+02  0.51100000000E-03 0. -1.
         11   -1    0    0    0    0 -0.00000000000E+00 -0.00000000000E+00 -0.45593999997E+02  0.45594000000E+02  0.51100000000E-03 0.  1.
    9900012    2    1    2    0    0  0.26393307848E+02  0.21646973054E+02  0.26803473579E+02  0.47787258792E+02  0.19999944136E+02 0.  0.
        -12    1    1    2    0    0 -0.26393307848E+02 -0.21646973054E+02 -0.26803473579E+02  0.43400741208E+02  0.00000000000E+00 0.  1.
         11    1    3    3    0    0  0.23798372460E+02  0.82108171920E+01  0.13013021814E+02  0.28339350517E+02  0.51100000000E-03 0. -1.
        -11    1    3    3    0    0  0.50000832227E+00  0.25230596965E+01  0.21200313344E+01  0.33332224160E+01  0.51100000000E-03 0.  1.
         12    1    3    3    0    0  0.20949270649E+01  0.10913096165E+02  0.11670420431E+02  0.16114685859E+02  0.00000000000E+00 0. -1.
</event>
<event>
 7    1  0.7470072E-010  0.4778727E+02  0.7816164E-02  0.1312668E+00
        -11   -1    0    0    0    0  0.00000000000E+00  0.00000000000E+00  0.45593999997E+02  0.45594000000E+02  0.51100000000E-03 0. -1.
         11   -1    0    0    0    0 -0.00000000000E+00 -0.00000000000E+00 -0.45593999997E+02  0.45594000000E+02  0.51100000000E-03 0.  1.
    9900012    2    1    2    0    0 -0.83720336041E+01  0.40107234794E+02  0.14315794534E+02  0.47787271865E+02  0.20000003741E+02 0.  0.
        -12    1    1    2    0    0  0.83720336041E+01 -0.40107234794E+02 -0.14315794534E+02  0.43400728135E+02  0.00000000000E+00 0.  1.
         11    1    3    3    0    0 -0.56068605552E+01  0.26234700257E+02  0.63179468102E+01  0.27561074634E+02  0.51100000000E-03 0. -1.
        -11    1    3    3    0    0 -0.68438561720E+01  0.52868159632E+01  0.59657335037E+01  0.10506129964E+02  0.51100000000E-03 0.  1.
        -12    1    3    3    0    0  0.40786831230E+01  0.85857185745E+01  0.20321142201E+01  0.97200672664E+01  0.00000000000E+00 0.  1.
</event>
<event>
 7    1  0.7470072E-010  0.4778727E+02  0.7816164E-02  0.1312668E+00
        -11   -1    0    0    0    0  0.00000000000E+00  0.00000000000E+00  0.45593999997E+02  0.45594000000E+02  0.51100000000E-03 0. -1.
         11   -1    0    0    0    0 -0.00000000000E+00 -0.00000000000E+00 -0.45593999997E+02  0.45594000000E+02  0.51100000000E-03 0.  1.
    9900012    2    1    2    0    0 -0.23809274614E+01 -0.26285415355E+02 -0.34453326475E+02  0.47787267504E+02  0.19999983858E+02 0.  0.
         12    1    1    2    0    0  0.23809274614E+01  0.26285415355E+02  0.34453326475E+02  0.43400732496E+02  0.00000000000E+00 0. -1.
         11    1    3    3    0    0  0.24399298970E+01 -0.18165613598E+02 -0.23794752737E+02  0.30035529517E+02  0.51100000000E-03 0. -1.
        -11    1    3    3    0    0 -0.31331131945E+01 -0.79320225458E+01 -0.12573080762E+02  0.15192621237E+02  0.51100000000E-03 0.  1.
         12    1    3    3    0    0 -0.16877441639E+01 -0.18777921208E+00  0.19145070237E+01  0.25591167498E+01  0.00000000000E+00 0. -1.
</event>
<event>
 7    1  0.7470072E-010  0.4778727E+02  0.7816164E-02  0.1312668E+00
        -11   -1    0    0    0    0  0.00000000000E+00  0.00000000000E+00  0.45593999997E+02  0.45594000000E+02  0.51100000000E-03 0. -1.
         11   -1    0    0    0    0 -0.00000000000E+00 -0.00000000000E+00 -0.45593999997E+02  0.45594000000E+02  0.51100000000E-03 0.  1.
    9900012    2    1    2    0    0 -0.25099295494E+02 -0.14540204770E+02 -0.32283600614E+02  0.47787273535E+02  0.20000011357E+02 0.  0.
         12    1    1    2    0    0  0.25099295494E+02  0.14540204770E+02  0.32283600614E+02  0.43400726465E+02  0.00000000000E+00 0. -1.
         11    1    3    3    0    0 -0.54002034844E+01  0.40867747893E+00 -0.39447906301E+01  0.67000439051E+01  0.51100000000E-03 0. -1.
        -11    1    3    3    0    0 -0.15558928393E+02 -0.84531350152E+01 -0.28301364443E+02  0.33384172506E+02  0.51100000000E-03 0.  1.
        -12    1    3    3    0    0 -0.41401636165E+01 -0.64957472333E+01 -0.37445541450E-01  0.77030571243E+01  0.00000000000E+00 0.  1.
</event>
<event>
 7    1  0.7470072E-010  0.4778727E+02  0.7816164E-02  0.1312668E+00
        -11   -1    0    0    0    0  0.00000000000E+00  0.00000000000E+00  0.45593999997E+02  0.45594000000E+02  0.51100000000E-03 0. -1.
         11   -1    0    0    0    0 -0.00000000000E+00 -0.00000000000E+00 -0.45593999997E+02  0.45594000000E+02  0.51100000000E-03 0.  1.
    9900012    2    1    2    0    0  0.15016526360E+02  0.33161770688E+02  0.23631011178E+02  0.47787265117E+02  0.19999972976E+02 0.  0.
        -12    1    1    2    0    0 -0.15016526360E+02 -0.33161770688E+02 -0.23631011178E+02  0.43400734883E+02  0.00000000000E+00 0.  1.
         11    1    3    3    0    0  0.17293244970E+02  0.24583828948E+02  0.21495233232E+02  0.36952212645E+02  0.51100000000E-03 0. -1.
        -11    1    3    3    0    0 -0.22763985302E+01  0.59342694572E+01  0.40806112957E+01  0.75530744116E+01  0.51100000000E-03 0.  1.
         12    1    3    3    0    0 -0.32008025456E-03  0.26436722818E+01 -0.19448333496E+01  0.32819780612E+01  0.00000000000E+00 0. -1.
</event>
<event>
 7    1  0.7470072E-010  0.4778727E+02  0.7816164E-02  0.1312668E+00
        -11   -1    0    0    0    0  0.00000000000E+00  0.00000000000E+00  0.45593999997E+02  0.45594000000E+02  0.51100000000E-03 0. -1.
         11   -1    0    0    0    0 -0.00000000000E+00 -0.00000000000E+00 -0.45593999997E+02  0.45594000000E+02  0.51100000000E-03 0.  1.
    9900012    2    1    2    0    0  0.31220080771E+02 -0.26040897583E+00 -0.30147338673E+02  0.47787270914E+02  0.19999999405E+02 0.  0.
         12    1    1    2    0    0 -0.31220080771E+02  0.26040897583E+00  0.30147338673E+02  0.43400729086E+02  0.00000000000E+00 0. -1.
         11    1    3    3    0    0  0.43795994533E+01 -0.33219189723E+01 -0.16612852440E+02  0.17498654334E+02  0.51100000000E-03 0. -1.
        -11    1    3    3    0    0  0.11576028953E+02  0.13797987252E+01 -0.46822932878E+01  0.12563127061E+02  0.51100000000E-03 0.  1.
         12    1    3    3    0    0  0.15264452364E+02  0.16817112713E+01 -0.88521929447E+01  0.17725489520E+02  0.00000000000E+00 0. -1.
</event>
<event>
 7    1  0.7470072E-010  0.4778733E+02  0.7816164E-02  0.1312668E+00
        -11   -1    0    0    0    0  0.00000000000E+00  0.00000000000E+00  0.45593999997E+02  0.45594000000E+02  0.51100000000E-03 0. -1.
         11   -1    0    0    0    0 -0.00000000000E+00 -0.00000000000E+00 -0.45593999997E+02  0.45594000000E+02  0.51100000000E-03 0.  1.
    9900012    2    1    2    0    0 -0.63571350724E+01  0.26446401969E+02 -0.33820007113E+02  0.47787329215E+02  0.20000265222E+02 0.  0.
         12    1    1    2    0    0  0.63571350724E+01 -0.26446401969E+02  0.33820007113E+02  0.43400670785E+02  0.00000000000E+00 0. -1.
         11    1    3    3    0    0 -0.98795958946E+00  0.19243498536E+02 -0.12532958023E+02  0.22986155336E+02  0.51100000000E-03 0. -1.
        -11    1    3    3    0    0 -0.19635230787E+01  0.43395415962E+01 -0.22807108152E+01  0.52809739849E+01  0.51100000000E-03 0.  1.
         12    1    3    3    0    0 -0.34056524042E+01  0.28633618367E+01 -0.19006338274E+02  0.19520199894E+02  0.00000000000E+00 0. -1.
</event>
<event>
 7    1  0.7470072E-010  0.4778728E+02  0.7816164E-02  0.1312668E+00
        -11   -1    0    0    0    0  0.00000000000E+00  0.00000000000E+00  0.45593999997E+02  0.45594000000E+02  0.51100000000E-03 0. -1.
         11   -1    0    0    0    0 -0.00000000000E+00 -0.00000000000E+00 -0.45593999997E+02  0.45594000000E+02  0.51100000000E-03 0.  1.
    9900012    2    1    2    0    0  0.68893822125E+01  0.16841972212E+02  0.39401869291E+02  0.47787275134E+02  0.20000018646E+02 0.  0.
        -12    1    1    2    0    0 -0.68893822125E+01 -0.16841972212E+02 -0.39401869291E+02  0.43400724866E+02  0.00000000000E+00 0.  1.
         11    1    3    3    0    0  0.47934420660E+01  0.14899124981E+02  0.11654599043E+02  0.19513858951E+02  0.51100000000E-03 0.  1.
        -11    1    3    3    0    0  0.11261489835E+00 -0.12963751883E+01  0.12187967303E+02  0.12257235332E+02  0.51100000000E-03 0. -1.
        -12    1    3    3    0    0  0.19833252482E+01  0.32392224192E+01  0.15559302945E+02  0.16016180851E+02  0.00000000000E+00 0.  1.
</event>
<event>
 7    1  0.8769405E-010  0.4778727E+02  0.7816164E-02  0.1312668E+00
        -11   -1    0    0    0    0  0.00000000000E+00  0.00000000000E+00  0.45593999997E+02  0.45594000000E+02  0.51100000000E-03 0. -1.
         11   -1    0    0    0    0 -0.00000000000E+00 -0.00000000000E+00 -0.45593999997E+02  0.45594000000E+02  0.51100000000E-03 0.  1.
    9900012    2    1    2    0    0 -0.78087165205E+01  0.99998444053E+01 -0.41504819774E+02  0.47787274127E+02  0.20000014056E+02 0.  0.
         12    1    1    2    0    0  0.78087165205E+01 -0.99998444053E+01  0.41504819774E+02  0.43400725873E+02  0.00000000000E+00 0. -1.
         11    1    3    3    0    0  0.24549351221E+01  0.11753521372E+01  0.28424273984E+00  0.27365952014E+01  0.51100000000E-03 0. -1.
        -11    1    3    3    0    0 -0.10907676742E+02  0.88784140046E+01 -0.28850920783E+02  0.32096405989E+02  0.51100000000E-03 0.  1.
         12    1    3    3    0    0  0.64402509897E+00 -0.53921736558E-01 -0.12938141731E+02  0.12954272937E+02  0.00000000000E+00 0. -1.
</event>
<event>
 7    1  0.7470072E-010  0.4778727E+02  0.7816164E-02  0.1312668E+00
        -11   -1    0    0    0    0  0.00000000000E+00  0.00000000000E+00  0.45593999997E+02  0.45594000000E+02  0.51100000000E-03 0.  1.
         11   -1    0    0    0    0 -0.00000000000E+00 -0.00000000000E+00 -0.45593999997E+02  0.45594000000E+02  0.51100000000E-03 0. -1.
    9900012    2    1    2    0    0 -0.20400597803E+02 -0.37358966275E+02  0.84703323996E+01  0.47787270941E+02  0.19999999530E+02 0.  0.
         12    1    1    2    0    0  0.20400597803E+02  0.37358966275E+02 -0.84703323996E+01  0.43400729059E+02  0.00000000000E+00 0. -1.
         11    1    3    3    0    0 -0.60547055928E+01 -0.19284847141E+01  0.57955291480E+01  0.86003878677E+01  0.51100000000E-03 0. -1.
        -11    1    3    3    0    0 -0.40664469219E+01 -0.45189147938E+01  0.25974515154E+01  0.66108498787E+01  0.51100000000E-03 0.  1.
         12    1    3    3    0    0 -0.10279445288E+02 -0.30911566767E+02  0.77351736271E-01  0.32576033195E+02  0.00000000000E+00 0. -1.
</event>
<event>
 7    1  0.7470072E-010  0.4778727E+02  0.7816164E-02  0.1312668E+00
        -11   -1    0    0    0    0  0.00000000000E+00  0.00000000000E+00  0.45593999997E+02  0.45594000000E+02  0.51100000000E-03 0. -1.
         11   -1    0    0    0    0 -0.00000000000E+00 -0.00000000000E+00 -0.45593999997E+02  0.45594000000E+02  0.51100000000E-03 0.  1.
    9900012    2    1    2    0    0 -0.21663538271E+02 -0.11929461833E+02  0.35665142818E+02  0.47787270026E+02  0.19999995356E+02 0.  0.
        -12    1    1    2    0    0  0.21663538271E+02  0.11929461833E+02 -0.35665142818E+02  0.43400729974E+02  0.00000000000E+00 0.  1.
         11    1    3    3    0    0 -0.61959929756E+01  0.32938598022E+01  0.55480448612E+01  0.89454258363E+01  0.51100000000E-03 0. -1.
        -11    1    3    3    0    0 -0.39681380189E+01  0.10223881838E+01  0.86255255556E+01  0.95494025105E+01  0.51100000000E-03 0.  1.
         12    1    3    3    0    0 -0.11499407276E+02 -0.16245709819E+02  0.21491572401E+02  0.29292441679E+02  0.00000000000E+00 0. -1.
</event>
<event>
 7    1  0.7470072E-010  0.4778727E+02  0.7816164E-02  0.1312668E+00
        -11   -1    0    0    0    0  0.00000000000E+00  0.00000000000E+00  0.45593999997E+02  0.45594000000E+02  0.51100000000E-03 0. -1.
         11   -1    0    0    0    0 -0.00000000000E+00 -0.00000000000E+00 -0.45593999997E+02  0.45594000000E+02  0.51100000000E-03 0.  1.
    9900012    2    1    2    0    0 -0.28108148669E+02 -0.20442905034E+02 -0.25993138462E+02  0.47787266885E+02  0.19999981035E+02 0.  0.
         12    1    1    2    0    0  0.28108148669E+02  0.20442905034E+02  0.25993138462E+02  0.43400733115E+02  0.00000000000E+00 0. -1.
         11    1    3    3    0    0 -0.88473119927E+01 -0.17362422662E+01 -0.14296996725E+02  0.16902472669E+02  0.51100000000E-03 0. -1.
        -11    1    3    3    0    0 -0.18989610908E+02 -0.19013748130E+02 -0.12757601977E+02  0.29747005712E+02  0.51100000000E-03 0.  1.
         12    1    3    3    0    0 -0.27122576852E+00  0.30708536158E+00  0.10614602407E+01  0.11377885038E+01  0.00000000000E+00 0. -1.
</event>
<event>
 7    1  0.7470072E-010  0.4778727E+02  0.7816164E-02  0.1312668E+00
        -11   -1    0    0    0    0  0.00000000000E+00  0.00000000000E+00  0.45593999997E+02  0.45594000000E+02  0.51100000000E-03 0. -1.
         11   -1    0    0    0    0 -0.00000000000E+00 -0.00000000000E+00 -0.45593999997E+02  0.45594000000E+02  0.51100000000E-03 0.  1.
    9900012    2    1    2    0    0 -0.21133549698E+02  0.74977897734E+01  0.37158838484E+02  0.47787273603E+02  0.20000011667E+02 0.  0.
        -12    1    1    2    0    0  0.21133549698E+02 -0.74977897734E+01 -0.37158838484E+02  0.43400726397E+02  0.00000000000E+00 0.  1.
         11    1    3    3    0    0 -0.16272192508E+02  0.11454150587E+01  0.13927241315E+02  0.21449108970E+02  0.51100000000E-03 0. -1.
        -11    1    3    3    0    0 -0.47893752988E+01  0.87672996593E+01  0.18939516829E+02  0.21412822258E+02  0.51100000000E-03 0.  1.
         12    1    3    3    0    0 -0.71981890626E-01 -0.24149249445E+01  0.42920803393E+01  0.49253423759E+01  0.00000000000E+00 0. -1.
</event>
<event>
 7    1  0.7470072E-010  0.4778727E+02  0.7816164E-02  0.1312668E+00
        -11   -1    0    0    0    0  0.00000000000E+00  0.00000000000E+00  0.45593999997E+02  0.45594000000E+02  0.51100000000E-03 0. -1.
         11   -1    0    0    0    0 -0.00000000000E+00 -0.00000000000E+00 -0.45593999997E+02  0.45594000000E+02  0.51100000000E-03 0.  1.
    9900012    2    1    2    0    0  0.39844412714E+01 -0.15890678791E+02 -0.40189971684E+02  0.47787271105E+02  0.20000000276E+02 0.  0.
         12    1    1    2    0    0 -0.39844412714E+01  0.15890678791E+02  0.40189971684E+02  0.43400728895E+02  0.00000000000E+00 0. -1.
         11    1    3    3    0    0  0.37532881206E+01 -0.12941338757E+01 -0.13118209143E+02  0.13705815029E+02  0.51100000000E-03 0.  1.
        -11    1    3    3    0    0  0.38187805013E+01 -0.16268640293E+02 -0.22642126341E+02  0.28141031023E+02  0.51100000000E-03 0. -1.
        -12    1    3    3    0    0 -0.35876273505E+01  0.16720953784E+01 -0.44296361993E+01  0.59404250537E+01  0.00000000000E+00 0.  1.
</event>
<event>
 7    1  0.7470072E-010  0.4778727E+02  0.7816164E-02  0.1312668E+00
        -11   -1    0    0    0    0  0.00000000000E+00  0.00000000000E+00  0.45593999997E+02  0.45594000000E+02  0.51100000000E-03 0. -1.
         11   -1    0    0    0    0 -0.00000000000E+00 -0.00000000000E+00 -0.45593999997E+02  0.45594000000E+02  0.51100000000E-03 0.  1.
    9900012    2    1    2    0    0  0.54079118590E+01  0.23285297990E+01 -0.42999485130E+02  0.47787270938E+02  0.19999999513E+02 0.  0.
         12    1    1    2    0    0 -0.54079118590E+01 -0.23285297990E+01  0.42999485130E+02  0.43400729062E+02  0.00000000000E+00 0. -1.
         11    1    3    3    0    0 -0.54086235181E+01 -0.39151303097E+01 -0.94741848620E+01  0.11590583797E+02  0.51100000000E-03 0. -1.
        -11    1    3    3    0    0  0.60521491936E+01  0.58644774601E+01 -0.25494565180E+02  0.26851321378E+02  0.51100000000E-03 0.  1.
         12    1    3    3    0    0  0.47643861835E+01  0.37918264863E+00 -0.80307350879E+01  0.93453657627E+01  0.00000000000E+00 0. -1.
</event>
<event>
 7    1  0.7470072E-010  0.4778728E+02  0.7816164E-02  0.1312668E+00
        -11   -1    0    0    0    0  0.00000000000E+00  0.00000000000E+00  0.45593999997E+02  0.45594000000E+02  0.51100000000E-03 0. -1.
         11   -1    0    0    0    0 -0.00000000000E+00 -0.00000000000E+00 -0.45593999997E+02  0.45594000000E+02  0.51100000000E-03 0.  1.
    9900012    2    1    2    0    0  0.17339173420E+02  0.22071953254E+02 -0.33102934842E+02  0.47787281682E+02  0.20000048501E+02 0.  0.
         12    1    1    2    0    0 -0.17339173420E+02 -0.22071953254E+02  0.33102934842E+02  0.43400718318E+02  0.00000000000E+00 0. -1.
         11    1    3    3    0    0  0.31883235491E+01  0.13670619210E+02 -0.17610179532E+02  0.22520427616E+02  0.51100000000E-03 0. -1.
        -11    1    3    3    0    0  0.22240831579E+01  0.74694951081E+01 -0.43871697802E+01  0.89435542154E+01  0.51100000000E-03 0.  1.
         12    1    3    3    0    0  0.11926766713E+02  0.93183893685E+00 -0.11105585530E+02  0.16323299850E+02  0.00000000000E+00 0. -1.
</event>
<event>
 7    1  0.7470072E-010  0.4778728E+02  0.7816164E-02  0.1312668E+00
        -11   -1    0    0    0    0  0.00000000000E+00  0.00000000000E+00  0.45593999997E+02  0.45594000000E+02  0.51100000000E-03 0. -1.
         11   -1    0    0    0    0 -0.00000000000E+00 -0.00000000000E+00 -0.45593999997E+02  0.45594000000E+02  0.51100000000E-03 0.  1.
    9900012    2    1    2    0    0 -0.20899453661E+02  0.13767969948E+02 -0.35458125879E+02  0.47787275920E+02  0.20000022229E+02 0.  0.
         12    1    1    2    0    0  0.20899453661E+02 -0.13767969948E+02  0.35458125879E+02  0.43400724080E+02  0.00000000000E+00 0. -1.
         11    1    3    3    0    0 -0.26407862421E+01 -0.26574760957E+01  0.30662794622E-01  0.37465813275E+01  0.51100000000E-03 0. -1.
        -11    1    3    3    0    0 -0.16646438250E+02  0.17362426580E+02 -0.31463078260E+02  0.39604078792E+02  0.51100000000E-03 0.  1.
        -12    1    3    3    0    0 -0.16122291685E+01 -0.93698053636E+00 -0.40257104142E+01  0.44366157999E+01  0.00000000000E+00 0.  1.
</event>
<event>
 7    1  0.7470072E-010  0.4778727E+02  0.7816164E-02  0.1312668E+00
        -11   -1    0    0    0    0  0.00000000000E+00  0.00000000000E+00  0.45593999997E+02  0.45594000000E+02  0.51100000000E-03 0. -1.
         11   -1    0    0    0    0 -0.00000000000E+00 -0.00000000000E+00 -0.45593999997E+02  0.45594000000E+02  0.51100000000E-03 0.  1.
    9900012    2    1    2    0    0  0.17165526679E+02  0.21851654510E+02 -0.33338761433E+02  0.47787272761E+02  0.20000007826E+02 0.  0.
         12    1    1    2    0    0 -0.17165526679E+02 -0.21851654510E+02  0.33338761433E+02  0.43400727239E+02  0.00000000000E+00 0. -1.
         11    1    3    3    0    0  0.17119662594E+02  0.87118762907E+01 -0.20808300940E+02  0.28318986989E+02  0.51100000000E-03 0. -1.
        -11    1    3    3    0    0  0.24839090961E+01  0.15246348803E+01 -0.15568261764E+01  0.33042433204E+01  0.51100000000E-03 0.  1.
         12    1    3    3    0    0 -0.24380450101E+01  0.11615143339E+02 -0.10973634317E+02  0.16164042452E+02  0.00000000000E+00 0. -1.
</event>
<event>
 7    1  0.7470072E-010  0.4778728E+02  0.7816164E-02  0.1312668E+00
        -11   -1    0    0    0    0  0.00000000000E+00  0.00000000000E+00  0.45593999997E+02  0.45594000000E+02  0.51100000000E-03 0. -1.
         11   -1    0    0    0    0 -0.00000000000E+00 -0.00000000000E+00 -0.45593999997E+02  0.45594000000E+02  0.51100000000E-03 0.  1.
    9900012    2    1    2    0    0 -0.29296128972E+02  0.12585343429E+02 -0.29444334976E+02  0.47787275304E+02  0.20000019420E+02 0.  0.
         12    1    1    2    0    0  0.29296128972E+02 -0.12585343429E+02  0.29444334976E+02  0.43400724696E+02  0.00000000000E+00 0. -1.
         11    1    3    3    0    0 -0.29100984655E+01 -0.84512531759E+00  0.25268981656E+01  0.39456462692E+01  0.51100000000E-03 0. -1.
        -11    1    3    3    0    0 -0.17536127553E+02  0.71239151535E+01 -0.22708985739E+02  0.29562881629E+02  0.51100000000E-03 0.  1.
         12    1    3    3    0    0 -0.88499029533E+01  0.63065535934E+01 -0.92622474026E+01  0.14278747405E+02  0.00000000000E+00 0. -1.
</event>
<event>
 7    1  0.7470072E-010  0.4778728E+02  0.7816164E-02  0.1312668E+00
        -11   -1    0    0    0    0  0.00000000000E+00  0.00000000000E+00  0.45593999997E+02  0.45594000000E+02  0.51100000000E-03 0. -1.
         11   -1    0    0    0    0 -0.00000000000E+00 -0.00000000000E+00 -0.45593999997E+02  0.45594000000E+02  0.51100000000E-03 0.  1.
    9900012    2    1    2    0    0  0.26220461018E+02 -0.11867424879E+02  0.32484984244E+02  0.47787279377E+02  0.20000037993E+02 0.  0.
        -12    1    1    2    0    0 -0.26220461018E+02  0.11867424879E+02 -0.32484984244E+02  0.43400720623E+02  0.00000000000E+00 0.  1.
         11    1    3    3    0    0  0.21126265198E+02 -0.49845709877E+01  0.21041044417E+02  0.30230623208E+02  0.51100000000E-03 0. -1.
        -11    1    3    3    0    0 -0.18975404902E+01 -0.24039168289E+01 -0.40365538783E+00  0.30890797927E+01  0.51100000000E-03 0.  1.
         12    1    3    3    0    0  0.69917363105E+01 -0.44789370620E+01  0.11847595215E+02  0.14467576377E+02  0.00000000000E+00 0. -1.
</event>
<event>
 7    1  0.7470072E-010  0.4778727E+02  0.7816164E-02  0.1312668E+00
        -11   -1    0    0    0    0  0.00000000000E+00  0.00000000000E+00  0.45593999997E+02  0.45594000000E+02  0.51100000000E-03 0. -1.
         11   -1    0    0    0    0 -0.00000000000E+00 -0.00000000000E+00 -0.45593999997E+02  0.45594000000E+02  0.51100000000E-03 0.  1.
    9900012    2    1    2    0    0 -0.84475972236E+01  0.52836446856E+01 -0.42241501793E+02  0.47787271046E+02  0.20000000007E+02 0.  0.
         12    1    1    2    0    0  0.84475972236E+01 -0.52836446856E+01  0.42241501793E+02  0.43400728954E+02  0.00000000000E+00 0. -1.
         11    1    3    3    0    0  0.59619423064E+01  0.33821876120E+01 -0.15680535549E+02  0.17113244709E+02  0.51100000000E-03 0. -1.
        -11    1    3    3    0    0 -0.75108540496E+01 -0.11064826201E+01 -0.10718340347E+02  0.13134688896E+02  0.51100000000E-03 0.  1.
         12    1    3    3    0    0 -0.68986854804E+01  0.30079396937E+01 -0.15842625896E+02  0.17539337440E+02  0.00000000000E+00 0. -1.
</event>
<event>
 7    1  0.7470072E-010  0.4778727E+02  0.7816164E-02  0.1312668E+00
        -11   -1    0    0    0    0  0.00000000000E+00  0.00000000000E+00  0.45593999997E+02  0.45594000000E+02  0.51100000000E-03 0. -1.
         11   -1    0    0    0    0 -0.00000000000E+00 -0.00000000000E+00 -0.45593999997E+02  0.45594000000E+02  0.51100000000E-03 0.  1.
    9900012    2    1    2    0    0  0.38189144419E+02 -0.18005174410E+02 -0.10051177160E+02  0.47787271673E+02  0.20000002867E+02 0.  0.
         12    1    1    2    0    0 -0.38189144419E+02  0.18005174410E+02  0.10051177160E+02  0.43400728327E+02  0.00000000000E+00 0. -1.
         11    1    3    3    0    0  0.38982410496E+00 -0.28187062658E+01  0.87737131415E+00  0.29777253952E+01  0.51100000000E-03 0. -1.
        -11    1    3    3    0    0  0.31945996464E+02 -0.97423159924E+01 -0.14042706078E+02  0.36230608679E+02  0.51100000000E-03 0.  1.
        -12    1    3    3    0    0  0.58533238502E+01 -0.54441521519E+01  0.31141576039E+01  0.85789375992E+01  0.00000000000E+00 0.  1.
</event>
<event>
 7    1  0.7470072E-010  0.4778727E+02  0.7816164E-02  0.1312668E+00
        -11   -1    0    0    0    0  0.00000000000E+00  0.00000000000E+00  0.45593999997E+02  0.45594000000E+02  0.51100000000E-03 0. -1.
         11   -1    0    0    0    0 -0.00000000000E+00 -0.00000000000E+00 -0.45593999997E+02  0.45594000000E+02  0.51100000000E-03 0.  1.
    9900012    2    1    2    0    0 -0.22115818115E+02 -0.18318500589E+02  0.32541457405E+02  0.47787270458E+02  0.19999997326E+02 0.  0.
        -12    1    1    2    0    0  0.22115818115E+02  0.18318500589E+02 -0.32541457405E+02  0.43400729542E+02  0.00000000000E+00 0.  1.
         11    1    3    3    0    0 -0.15157318991E+02 -0.15438032593E+02  0.26540735304E+02  0.34241609192E+02  0.51100000000E-03 0. -1.
        -11    1    3    3    0    0 -0.77221901618E+01  0.78412316986E-01  0.11430212636E+01  0.78067193659E+01  0.51100000000E-03 0.  1.
         12    1    3    3    0    0  0.76369103725E+00 -0.29588803128E+01  0.48577008378E+01  0.57389419003E+01  0.00000000000E+00 0. -1.
</event>
<event>
 7    1  0.7470072E-010  0.4778727E+02  0.7816164E-02  0.1312668E+00
        -11   -1    0    0    0    0  0.00000000000E+00  0.00000000000E+00  0.45593999997E+02  0.45594000000E+02  0.51100000000E-03 0. -1.
         11   -1    0    0    0    0 -0.00000000000E+00 -0.00000000000E+00 -0.45593999997E+02  0.45594000000E+02  0.51100000000E-03 0.  1.
    9900012    2    1    2    0    0  0.17353833785E+01  0.14872562824E+02 -0.40735962582E+02  0.47787270422E+02  0.19999997161E+02 0.  0.
         12    1    1    2    0    0 -0.17353833785E+01 -0.14872562824E+02  0.40735962582E+02  0.43400729578E+02  0.00000000000E+00 0. -1.
         11    1    3    3    0    0 -0.72633961800E+01  0.12544659101E+02 -0.28432421137E+02  0.31914384970E+02  0.51100000000E-03 0. -1.
        -11    1    3    3    0    0  0.44092313346E+01 -0.68431120730E-01 -0.80230633314E+01  0.91550832471E+01  0.51100000000E-03 0.  1.
         12    1    3    3    0    0  0.45895482239E+01  0.23963348436E+01 -0.42804781140E+01  0.67178022051E+01  0.00000000000E+00 0. -1.
</event>
<event>
 7    1  0.7470072E-010  0.4778728E+02  0.7816164E-02  0.1312668E+00
        -11   -1    0    0    0    0  0.00000000000E+00  0.00000000000E+00  0.45593999997E+02  0.45594000000E+02  0.51100000000E-03 0. -1.
         11   -1    0    0    0    0 -0.00000000000E+00 -0.00000000000E+00 -0.45593999997E+02  0.45594000000E+02  0.51100000000E-03 0.  1.
    9900012    2    1    2    0    0 -0.35937532179E+02 -0.14538419851E+02 -0.19512838414E+02  0.47787277266E+02  0.20000028365E+02 0.  0.
         12    1    1    2    0    0  0.35937532179E+02  0.14538419851E+02  0.19512838414E+02  0.43400722734E+02  0.00000000000E+00 0. -1.
         11    1    3    3    0    0 -0.30855052719E+01 -0.57186956983E+01 -0.84587314029E+01  0.10666487729E+02  0.51100000000E-03 0. -1.
        -11    1    3    3    0    0 -0.15097152001E+02 -0.33323275707E+01  0.72963360247E-01  0.15460715685E+02  0.51100000000E-03 0.  1.
         12    1    3    3    0    0 -0.17754874905E+02 -0.54873965823E+01 -0.11127070372E+02  0.21660073851E+02  0.00000000000E+00 0. -1.
</event>
<event>
 7    1  0.7470072E-010  0.4778727E+02  0.7816164E-02  0.1312668E+00
        -11   -1    0    0    0    0  0.00000000000E+00  0.00000000000E+00  0.45593999997E+02  0.45594000000E+02  0.51100000000E-03 0. -1.
         11   -1    0    0    0    0 -0.00000000000E+00 -0.00000000000E+00 -0.45593999997E+02  0.45594000000E+02  0.51100000000E-03 0.  1.
    9900012    2    1    2    0    0 -0.61416606400E+01 -0.21036966796E+02  0.37461303227E+02  0.47787271817E+02  0.20000003521E+02 0.  0.
        -12    1    1    2    0    0  0.61416606400E+01  0.21036966796E+02 -0.37461303227E+02  0.43400728183E+02  0.00000000000E+00 0.  1.
         11    1    3    3    0    0  0.71247023798E+01 -0.81755230100E+01  0.16434560360E+02  0.19689980574E+02  0.51100000000E-03 0. -1.
        -11    1    3    3    0    0 -0.33929711359E+00  0.24107387763E-01  0.16516937127E+00  0.37813341529E+00  0.51100000000E-03 0.  1.
         12    1    3    3    0    0 -0.12927065906E+02 -0.12885551173E+02  0.20861573495E+02  0.27719157828E+02  0.00000000000E+00 0. -1.
</event>
<event>
 7    1  0.7470072E-010  0.4778725E+02  0.7816164E-02  0.1312668E+00
        -11   -1    0    0    0    0  0.00000000000E+00  0.00000000000E+00  0.45593999997E+02  0.45594000000E+02  0.51100000000E-03 0. -1.
         11   -1    0    0    0    0 -0.00000000000E+00 -0.00000000000E+00 -0.45593999997E+02  0.45594000000E+02  0.51100000000E-03 0.  1.
    9900012    2    1    2    0    0  0.20450776755E+02 -0.16171067269E+01  0.38246250341E+02  0.47787251514E+02  0.19999910951E+02 0.  0.
        -12    1    1    2    0    0 -0.20450776755E+02  0.16171067269E+01 -0.38246250341E+02  0.43400748486E+02  0.00000000000E+00 0.  1.
         11    1    3    3    0    0  0.99169033911E+00  0.33786119155E+01  0.94593804499E+00  0.36459933147E+01  0.51100000000E-03 0. -1.
        -11    1    3    3    0    0  0.16304586808E+02 -0.67141695694E+01  0.20864744396E+02  0.27317708230E+02  0.51100000000E-03 0.  1.
        -12    1    3    3    0    0  0.31544996086E+01  0.17184509269E+01  0.16435567900E+02  0.16823549969E+02  0.00000000000E+00 0.  1.
</event>
<event>
 7    1  0.7470072E-010  0.4778728E+02  0.7816164E-02  0.1312668E+00
        -11   -1    0    0    0    0  0.00000000000E+00  0.00000000000E+00  0.45593999997E+02  0.45594000000E+02  0.51100000000E-03 0. -1.
         11   -1    0    0    0    0 -0.00000000000E+00 -0.00000000000E+00 -0.45593999997E+02  0.45594000000E+02  0.51100000000E-03 0.  1.
    9900012    2    1    2    0    0 -0.31882164462E+01 -0.19233368559E+02  0.38775450119E+02  0.47787277400E+02  0.20000028980E+02 0.  0.
        -12    1    1    2    0    0  0.31882164462E+01  0.19233368559E+02 -0.38775450119E+02  0.43400722600E+02  0.00000000000E+00 0.  1.
         11    1    3    3    0    0  0.81588616748E+00 -0.96998787040E+01  0.19482488480E+02  0.21778904351E+02  0.51100000000E-03 0. -1.
        -11    1    3    3    0    0 -0.23825674025E+01 -0.13188594071E+01  0.17150658959E+02  0.17365515269E+02  0.51100000000E-03 0.  1.
        -12    1    3    3    0    0 -0.16215352111E+01 -0.82146304480E+01  0.21423026800E+01  0.86428577804E+01  0.00000000000E+00 0.  1.
</event>
<event>
 7    1  0.7470072E-010  0.4778728E+02  0.7816164E-02  0.1312668E+00
        -11   -1    0    0    0    0  0.00000000000E+00  0.00000000000E+00  0.45593999997E+02  0.45594000000E+02  0.51100000000E-03 0. -1.
         11   -1    0    0    0    0 -0.00000000000E+00 -0.00000000000E+00 -0.45593999997E+02  0.45594000000E+02  0.51100000000E-03 0.  1.
    9900012    2    1    2    0    0 -0.42445898262E+01 -0.14038520789E+02  0.40847596521E+02  0.47787277077E+02  0.20000027504E+02 0.  0.
        -12    1    1    2    0    0  0.42445898262E+01  0.14038520789E+02 -0.40847596521E+02  0.43400722923E+02  0.00000000000E+00 0.  1.
         11    1    3    3    0    0  0.49719164029E+01  0.24460758462E+01  0.12259011844E+02  0.13453126455E+02  0.51100000000E-03 0. -1.
        -11    1    3    3    0    0 -0.75422462364E+01 -0.12574240973E+02  0.23531621150E+02  0.27726056491E+02  0.51100000000E-03 0.  1.
        -12    1    3    3    0    0 -0.16742599927E+01 -0.39103556624E+01  0.50569635261E+01  0.66080941302E+01  0.00000000000E+00 0.  1.
</event>
<event>
 7    1  0.7470072E-010  0.4778727E+02  0.7816164E-02  0.1312668E+00
        -11   -1    0    0    0    0  0.00000000000E+00  0.00000000000E+00  0.45593999997E+02  0.45594000000E+02  0.51100000000E-03 0. -1.
         11   -1    0    0    0    0 -0.00000000000E+00 -0.00000000000E+00 -0.45593999997E+02  0.45594000000E+02  0.51100000000E-03 0.  1.
    9900012    2    1    2    0    0  0.34293324192E+02 -0.15210045903E+02  0.21823054151E+02  0.47787271055E+02  0.20000000048E+02 0.  0.
        -12    1    1    2    0    0 -0.34293324192E+02  0.15210045903E+02 -0.21823054151E+02  0.43400728945E+02  0.00000000000E+00 0.  1.
         11    1    3    3    0    0  0.14508100281E+02  0.55029711335E+00  0.13058374915E+01  0.14577140066E+02  0.51100000000E-03 0. -1.
        -11    1    3    3    0    0  0.44093067992E+01 -0.38608780043E+01  0.85957165715E+01  0.10403591161E+02  0.51100000000E-03 0.  1.
         12    1    3    3    0    0  0.15375917112E+02 -0.11899465012E+02  0.11921500088E+02  0.22806539828E+02  0.00000000000E+00 0. -1.
</event>
<event>
 7    1  0.8756089E-010  0.4778728E+02  0.7816164E-02  0.1312668E+00
        -11   -1    0    0    0    0  0.00000000000E+00  0.00000000000E+00  0.45593999997E+02  0.45594000000E+02  0.51100000000E-03 0. -1.
         11   -1    0    0    0    0 -0.00000000000E+00 -0.00000000000E+00 -0.45593999997E+02  0.45594000000E+02  0.51100000000E-03 0.  1.
    9900012    2    1    2    0    0 -0.12845734938E+02  0.33910865913E+02 -0.23846659265E+02  0.47787275453E+02  0.20000020099E+02 0.  0.
         12    1    1    2    0    0  0.12845734938E+02 -0.33910865913E+02  0.23846659265E+02  0.43400724547E+02  0.00000000000E+00 0. -1.
         11    1    3    3    0    0 -0.36368058303E+01  0.46831330419E-01 -0.42270360595E-01  0.36373530026E+01  0.51100000000E-03 0. -1.
        -11    1    3    3    0    0 -0.45149337255E+01  0.21084105436E+02 -0.21296450870E+02  0.30306153641E+02  0.51100000000E-03 0.  1.
        -12    1    3    3    0    0 -0.46939953825E+01  0.12779929147E+02 -0.25079380346E+01  0.13843768809E+02  0.00000000000E+00 0.  1.
</event>
<event>
 7    1  0.7470072E-010  0.4778727E+02  0.7816164E-02  0.1312668E+00
        -11   -1    0    0    0    0  0.00000000000E+00  0.00000000000E+00  0.45593999997E+02  0.45594000000E+02  0.51100000000E-03 0. -1.
         11   -1    0    0    0    0 -0.00000000000E+00 -0.00000000000E+00 -0.45593999997E+02  0.45594000000E+02  0.51100000000E-03 0.  1.
    9900012    2    1    2    0    0 -0.15185149708E+02 -0.92295060161E+01 -0.39596092232E+02  0.47787273358E+02  0.20000010550E+02 0.  0.
         12    1    1    2    0    0  0.15185149708E+02  0.92295060161E+01  0.39596092232E+02  0.43400726642E+02  0.00000000000E+00 0. -1.
         11    1    3    3    0    0 -0.97076038946E+01  0.19668570576E+01 -0.14151280567E+02  0.17273240634E+02  0.51100000000E-03 0. -1.
        -11    1    3    3    0    0 -0.15690555946E+00 -0.11285702443E+02 -0.14794468546E+02  0.18608277696E+02  0.51100000000E-03 0.  1.
        -12    1    3    3    0    0 -0.53206402535E+01  0.89339369700E-01 -0.10650343119E+02  0.11905755028E+02  0.00000000000E+00 0.  1.
</event>
<event>
 7    1  0.7470072E-010  0.4778727E+02  0.7816164E-02  0.1312668E+00
        -11   -1    0    0    0    0  0.00000000000E+00  0.00000000000E+00  0.45593999997E+02  0.45594000000E+02  0.51100000000E-03 0. -1.
         11   -1    0    0    0    0 -0.00000000000E+00 -0.00000000000E+00 -0.45593999997E+02  0.45594000000E+02  0.51100000000E-03 0.  1.
    9900012    2    1    2    0    0  0.27195608912E+02  0.20893270387E+02  0.26598748941E+02  0.47787270319E+02  0.19999996694E+02 0.  0.
        -12    1    1    2    0    0 -0.27195608912E+02 -0.20893270387E+02 -0.26598748941E+02  0.43400729681E+02  0.00000000000E+00 0.  1.
         11    1    3    3    0    0  0.40185746505E+01  0.12292194470E+02  0.77801502895E+01  0.15092306845E+02  0.51100000000E-03 0. -1.
        -11    1    3    3    0    0  0.93430629652E+01 -0.16830026249E+01  0.69845136361E+01  0.11785955812E+02  0.51100000000E-03 0.  1.
         12    1    3    3    0    0  0.13833971296E+02  0.10284078543E+02  0.11834085016E+02  0.20909007663E+02  0.00000000000E+00 0. -1.
</event>
<event>
 7    1  0.7470072E-010  0.4778727E+02  0.7816164E-02  0.1312668E+00
        -11   -1    0    0    0    0  0.00000000000E+00  0.00000000000E+00  0.45593999997E+02  0.45594000000E+02  0.51100000000E-03 0. -1.
         11   -1    0    0    0    0 -0.00000000000E+00 -0.00000000000E+00 -0.45593999997E+02  0.45594000000E+02  0.51100000000E-03 0.  1.
    9900012    2    1    2    0    0 -0.27634399728E+01 -0.15847199974E+02 -0.40309463380E+02  0.47787272063E+02  0.20000004645E+02 0.  0.
         12    1    1    2    0    0  0.27634399728E+01  0.15847199974E+02  0.40309463380E+02  0.43400727937E+02  0.00000000000E+00 0. -1.
         11    1    3    3    0    0 -0.60871981260E+00  0.45580314508E+00  0.16241429098E+01  0.17933590744E+01  0.51100000000E-03 0. -1.
        -11    1    3    3    0    0  0.12624183266E+01 -0.14159404982E+02 -0.36899048763E+02  0.39542663660E+02  0.51100000000E-03 0.  1.
         12    1    3    3    0    0 -0.34171384868E+01 -0.21435981374E+01 -0.50345575269E+01  0.64512493290E+01  0.00000000000E+00 0. -1.
</event>
<event>
 7    1  0.7470072E-010  0.4778727E+02  0.7816164E-02  0.1312668E+00
        -11   -1    0    0    0    0  0.00000000000E+00  0.00000000000E+00  0.45593999997E+02  0.45594000000E+02  0.51100000000E-03 0. -1.
         11   -1    0    0    0    0 -0.00000000000E+00 -0.00000000000E+00 -0.45593999997E+02  0.45594000000E+02  0.51100000000E-03 0.  1.
    9900012    2    1    2    0    0 -0.41784680116E+01 -0.42985100527E+02  0.42947904706E+01  0.47787266280E+02  0.19999978276E+02 0.  0.
         12    1    1    2    0    0  0.41784680116E+01  0.42985100527E+02 -0.42947904706E+01  0.43400733720E+02  0.00000000000E+00 0. -1.
         11    1    3    3    0    0 -0.70215515716E+01 -0.43540237851E+02  0.21888685137E+01  0.44157056562E+02  0.51100000000E-03 0.  1.
        -11    1    3    3    0    0  0.17494832656E+01  0.62797885715E+00  0.12576129978E+01  0.22442459435E+01  0.51100000000E-03 0. -1.
        -12    1    3    3    0    0  0.10936002945E+01 -0.72841533495E-01  0.84830895904E+00  0.13859637741E+01  0.00000000000E+00 0.  1.
</event>
<event>
 7    1  0.7470072E-010  0.4778728E+02  0.7816164E-02  0.1312668E+00
        -11   -1    0    0    0    0  0.00000000000E+00  0.00000000000E+00  0.45593999997E+02  0.45594000000E+02  0.51100000000E-03 0. -1.
         11   -1    0    0    0    0 -0.00000000000E+00 -0.00000000000E+00 -0.45593999997E+02  0.45594000000E+02  0.51100000000E-03 0.  1.
    9900012    2    1    2    0    0  0.23615873104E+02  0.14810003286E+02  0.33265252421E+02  0.47787277904E+02  0.20000031276E+02 0.  0.
        -12    1    1    2    0    0 -0.23615873104E+02 -0.14810003286E+02 -0.33265252421E+02  0.43400722096E+02  0.00000000000E+00 0.  1.
         11    1    3    3    0    0  0.16285369832E+02  0.35974709250E+01  0.95989037988E+01  0.19243025282E+02  0.51100000000E-03 0. -1.
        -11    1    3    3    0    0 -0.12267372405E+01 -0.53894034235E+00  0.29091419274E+01  0.32028811974E+01  0.51100000000E-03 0.  1.
         12    1    3    3    0    0  0.85572405130E+01  0.11751472703E+02  0.20757206695E+02  0.25341371424E+02  0.00000000000E+00 0. -1.
</event>
<event>
 7    1  0.7470072E-010  0.4778727E+02  0.7816164E-02  0.1312668E+00
        -11   -1    0    0    0    0  0.00000000000E+00  0.00000000000E+00  0.45593999997E+02  0.45594000000E+02  0.51100000000E-03 0. -1.
         11   -1    0    0    0    0 -0.00000000000E+00 -0.00000000000E+00 -0.45593999997E+02  0.45594000000E+02  0.51100000000E-03 0.  1.
    9900012    2    1    2    0    0 -0.41548037900E+01 -0.20174905410E+02  0.38201230306E+02  0.47787271898E+02  0.20000003894E+02 0.  0.
        -12    1    1    2    0    0  0.41548037900E+01  0.20174905410E+02 -0.38201230306E+02  0.43400728102E+02  0.00000000000E+00 0.  1.
         11    1    3    3    0    0  0.50664698786E+01 -0.24563705235E+01  0.42511265057E+01  0.70551364273E+01  0.51100000000E-03 0. -1.
        -11    1    3    3    0    0 -0.10073845263E+02 -0.17720943711E+02  0.34225742955E+02  0.39836110321E+02  0.51100000000E-03 0.  1.
        -12    1    3    3    0    0  0.85257159477E+00  0.24088245235E-02 -0.27563915463E+00  0.89602515043E+00  0.00000000000E+00 0.  1.
</event>
<event>
 7    1  0.7470072E-010  0.4778727E+02  0.7816164E-02  0.1312668E+00
        -11   -1    0    0    0    0  0.00000000000E+00  0.00000000000E+00  0.45593999997E+02  0.45594000000E+02  0.51100000000E-03 0. -1.
         11   -1    0    0    0    0 -0.00000000000E+00 -0.00000000000E+00 -0.45593999997E+02  0.45594000000E+02  0.51100000000E-03 0.  1.
    9900012    2    1    2    0    0  0.18865990964E+02  0.18042671443E+02 -0.34672172507E+02  0.47787272423E+02  0.20000006287E+02 0.  0.
         12    1    1    2    0    0 -0.18865990964E+02 -0.18042671443E+02  0.34672172507E+02  0.43400727577E+02  0.00000000000E+00 0. -1.
         11    1    3    3    0    0  0.16524600241E+02  0.15761378303E+02 -0.33315575679E+02  0.40390729657E+02  0.51100000000E-03 0. -1.
        -11    1    3    3    0    0 -0.18295588199E+01  0.14887275133E+01  0.97564454844E+00  0.25525433650E+01  0.51100000000E-03 0.  1.
         12    1    3    3    0    0  0.41709495428E+01  0.79256562594E+00 -0.23322413763E+01  0.48439994011E+01  0.00000000000E+00 0. -1.
</event>
<event>
 7    1  0.7470072E-010  0.4778727E+02  0.7816164E-02  0.1312668E+00
        -11   -1    0    0    0    0  0.00000000000E+00  0.00000000000E+00  0.45593999997E+02  0.45594000000E+02  0.51100000000E-03 0.  1.
         11   -1    0    0    0    0 -0.00000000000E+00 -0.00000000000E+00 -0.45593999997E+02  0.45594000000E+02  0.51100000000E-03 0. -1.
    9900012    2    1    2    0    0 -0.25917719296E+02  0.31073683907E+02  0.15694628534E+02  0.47787269939E+02  0.19999994958E+02 0.  0.
         12    1    1    2    0    0  0.25917719296E+02 -0.31073683907E+02 -0.15694628534E+02  0.43400730061E+02  0.00000000000E+00 0. -1.
         11    1    3    3    0    0 -0.19917507433E+02  0.18881011207E+02  0.12214006131E+02  0.30039667651E+02  0.51100000000E-03 0. -1.
        -11    1    3    3    0    0 -0.84376010046E+01  0.66776493030E+01  0.44433113608E+01  0.11641611874E+02  0.51100000000E-03 0.  1.
         12    1    3    3    0    0  0.24373891418E+01  0.55150233971E+01 -0.96268895768E+00  0.61059904133E+01  0.00000000000E+00 0. -1.
</event>
<event>
 7    1  0.7470072E-010  0.4778727E+02  0.7816164E-02  0.1312668E+00
        -11   -1    0    0    0    0  0.00000000000E+00  0.00000000000E+00  0.45593999997E+02  0.45594000000E+02  0.51100000000E-03 0. -1.
         11   -1    0    0    0    0 -0.00000000000E+00 -0.00000000000E+00 -0.45593999997E+02  0.45594000000E+02  0.51100000000E-03 0.  1.
    9900012    2    1    2    0    0  0.12025115757E+02  0.31280221924E+02  0.27578390080E+02  0.47787270836E+02  0.19999999048E+02 0.  0.
        -12    1    1    2    0    0 -0.12025115757E+02 -0.31280221924E+02 -0.27578390080E+02  0.43400729164E+02  0.00000000000E+00 0.  1.
         11    1    3    3    0    0  0.39663877964E+01  0.21459427417E+02  0.72657784637E+01  0.23000669429E+02  0.51100000000E-03 0. -1.
        -11    1    3    3    0    0  0.37963253242E+01  0.54770902948E+01  0.15986618890E+02  0.17320005423E+02  0.51100000000E-03 0.  1.
         12    1    3    3    0    0  0.42624026365E+01  0.43437042122E+01  0.43259927260E+01  0.74665959837E+01  0.00000000000E+00 0. -1.
</event>
<event>
 7    1  0.7470072E-010  0.4778727E+02  0.7816164E-02  0.1312668E+00
        -11   -1    0    0    0    0  0.00000000000E+00  0.00000000000E+00  0.45593999997E+02  0.45594000000E+02  0.51100000000E-03 0. -1.
         11   -1    0    0    0    0 -0.00000000000E+00 -0.00000000000E+00 -0.45593999997E+02  0.45594000000E+02  0.51100000000E-03 0.  1.
    9900012    2    1    2    0    0 -0.12504416655E+02 -0.28382851424E+02 -0.30359126674E+02  0.47787271167E+02  0.20000000559E+02 0.  0.
         12    1    1    2    0    0  0.12504416655E+02  0.28382851424E+02  0.30359126674E+02  0.43400728833E+02  0.00000000000E+00 0. -1.
         11    1    3    3    0    0 -0.51155095528E+01 -0.97072135832E+01 -0.15406606585E+02  0.18914596486E+02  0.51100000000E-03 0. -1.
        -11    1    3    3    0    0  0.16891715845E+01 -0.10642460965E+02 -0.16941432992E+01  0.10908042804E+02  0.51100000000E-03 0.  1.
        -12    1    3    3    0    0 -0.90780786863E+01 -0.80331768754E+01 -0.13258376790E+02  0.17964631876E+02  0.00000000000E+00 0.  1.
</event>
<event>
 7    1  0.7470072E-010  0.4778723E+02  0.7816164E-02  0.1312668E+00
        -11   -1    0    0    0    0  0.00000000000E+00  0.00000000000E+00  0.45593999997E+02  0.45594000000E+02  0.51100000000E-03 0. -1.
         11   -1    0    0    0    0 -0.00000000000E+00 -0.00000000000E+00 -0.45593999997E+02  0.45594000000E+02  0.51100000000E-03 0.  1.
    9900012    2    1    2    0    0  0.18504811306E+02  0.23522319248E+02  0.31430864525E+02  0.47787230547E+02  0.19999815355E+02 0.  0.
        -12    1    1    2    0    0 -0.18504811306E+02 -0.23522319248E+02 -0.31430864525E+02  0.43400769453E+02  0.00000000000E+00 0.  1.
         11    1    3    3    0    0  0.14950355827E+02  0.13170935290E+02  0.28630958444E+02  0.34881491617E+02  0.51100000000E-03 0. -1.
        -11    1    3    3    0    0  0.44732997597E+01  0.10024529780E+02  0.36944769447E+01  0.11582347266E+02  0.51100000000E-03 0.  1.
         12    1    3    3    0    0 -0.91884427988E+00  0.32685417899E+00 -0.89457086346E+00  0.13233916634E+01  0.00000000000E+00 0. -1.
</event>
<event>
 7    1  0.7470072E-010  0.4778727E+02  0.7816164E-02  0.1312668E+00
        -11   -1    0    0    0    0  0.00000000000E+00  0.00000000000E+00  0.45593999997E+02  0.45594000000E+02  0.51100000000E-03 0. -1.
         11   -1    0    0    0    0 -0.00000000000E+00 -0.00000000000E+00 -0.45593999997E+02  0.45594000000E+02  0.51100000000E-03 0.  1.
    9900012    2    1    2    0    0 -0.19410414946E+02  0.24092998453E+02 -0.30436594701E+02  0.47787273280E+02  0.20000010192E+02 0.  0.
         12    1    1    2    0    0  0.19410414946E+02 -0.24092998453E+02  0.30436594701E+02  0.43400726720E+02  0.00000000000E+00 0. -1.
         11    1    3    3    0    0 -0.85107060807E+01 -0.47295263411E+00 -0.86950413223E+01  0.12176187665E+02  0.51100000000E-03 0. -1.
        -11    1    3    3    0    0 -0.32904821910E+01  0.17347480516E+02 -0.14737524681E+02  0.22999064922E+02  0.51100000000E-03 0.  1.
         12    1    3    3    0    0 -0.76092266744E+01  0.72184705712E+01 -0.70040286974E+01  0.12612020693E+02  0.00000000000E+00 0. -1.
</event>
<event>
 7    1  0.7470072E-010  0.4778727E+02  0.7816164E-02  0.1312668E+00
        -11   -1    0    0    0    0  0.00000000000E+00  0.00000000000E+00  0.45593999997E+02  0.45594000000E+02  0.51100000000E-03 0. -1.
         11   -1    0    0    0    0 -0.00000000000E+00 -0.00000000000E+00 -0.45593999997E+02  0.45594000000E+02  0.51100000000E-03 0.  1.
    9900012    2    1    2    0    0 -0.27718021094E+02 -0.14775288759E+02  0.29950379572E+02  0.47787273188E+02  0.20000009775E+02 0.  0.
        -12    1    1    2    0    0  0.27718021094E+02  0.14775288759E+02 -0.29950379572E+02  0.43400726812E+02  0.00000000000E+00 0.  1.
         11    1    3    3    0    0 -0.19571677719E+02 -0.42131250929E+01  0.10224080446E+02  0.22479608827E+02  0.51100000000E-03 0. -1.
        -11    1    3    3    0    0  0.86746821553E+00 -0.54969194218E+00  0.59534583576E+01  0.60413846933E+01  0.51100000000E-03 0.  1.
        -12    1    3    3    0    0 -0.90138115905E+01 -0.10012471724E+02  0.13772840769E+02  0.19266279668E+02  0.00000000000E+00 0.  1.
</event>
<event>
 7    1  0.7470072E-010  0.4778727E+02  0.7816164E-02  0.1312668E+00
        -11   -1    0    0    0    0  0.00000000000E+00  0.00000000000E+00  0.45593999997E+02  0.45594000000E+02  0.51100000000E-03 0. -1.
         11   -1    0    0    0    0 -0.00000000000E+00 -0.00000000000E+00 -0.45593999997E+02  0.45594000000E+02  0.51100000000E-03 0.  1.
    9900012    2    1    2    0    0  0.87885728136E+01 -0.20815733671E+02 -0.37055228705E+02  0.47787265505E+02  0.19999974742E+02 0.  0.
         12    1    1    2    0    0 -0.87885728136E+01  0.20815733671E+02  0.37055228705E+02  0.43400734495E+02  0.00000000000E+00 0. -1.
         11    1    3    3    0    0  0.66086241893E+00 -0.48161943924E+01 -0.99479494779E+00  0.49620645715E+01  0.51100000000E-03 0.  1.
        -11    1    3    3    0    0 -0.29767210299E+01 -0.70401332301E+01 -0.66295284353E+01  0.10118052753E+02  0.51100000000E-03 0. -1.
        -12    1    3    3    0    0  0.11104431425E+02 -0.89594060488E+01 -0.29430905322E+02  0.32707148180E+02  0.00000000000E+00 0.  1.
</event>
<event>
 7    1  0.7470072E-010  0.4778727E+02  0.7816164E-02  0.1312668E+00
        -11   -1    0    0    0    0  0.00000000000E+00  0.00000000000E+00  0.45593999997E+02  0.45594000000E+02  0.51100000000E-03 0. -1.
         11   -1    0    0    0    0 -0.00000000000E+00 -0.00000000000E+00 -0.45593999997E+02  0.45594000000E+02  0.51100000000E-03 0.  1.
    9900012    2    1    2    0    0  0.26122516427E+02 -0.23015905191E+02  0.25913423130E+02  0.47787271267E+02  0.20000001014E+02 0.  0.
        -12    1    1    2    0    0 -0.26122516427E+02  0.23015905191E+02 -0.25913423130E+02  0.43400728733E+02  0.00000000000E+00 0.  1.
         11    1    3    3    0    0  0.16652951869E+02 -0.13579544581E+02  0.68919829016E+01  0.22565997996E+02  0.51100000000E-03 0. -1.
        -11    1    3    3    0    0  0.25374347630E+01 -0.80790876346E+01  0.14629061359E+02  0.16903244324E+02  0.51100000000E-03 0.  1.
        -12    1    3    3    0    0  0.69321297949E+01 -0.13572729755E+01  0.43923788703E+01  0.83180289471E+01  0.00000000000E+00 0.  1.
</event>
<event>
 7    1  0.7470072E-010  0.4778727E+02  0.7816164E-02  0.1312668E+00
        -11   -1    0    0    0    0  0.00000000000E+00  0.00000000000E+00  0.45593999997E+02  0.45594000000E+02  0.51100000000E-03 0. -1.
         11   -1    0    0    0    0 -0.00000000000E+00 -0.00000000000E+00 -0.45593999997E+02  0.45594000000E+02  0.51100000000E-03 0.  1.
    9900012    2    1    2    0    0 -0.29894043751E+01 -0.12158265863E+00  0.43297480876E+02  0.47787272229E+02  0.20000005399E+02 0.  0.
        -12    1    1    2    0    0  0.29894043751E+01  0.12158265863E+00 -0.43297480876E+02  0.43400727771E+02  0.00000000000E+00 0.  1.
         11    1    3    3    0    0  0.45612365413E+01 -0.12889336742E+01  0.33523044526E+02  0.33856472696E+02  0.51100000000E-03 0. -1.
        -11    1    3    3    0    0 -0.57776167106E+01  0.36483953310E+01  0.61396409323E+01  0.91862306952E+01  0.51100000000E-03 0.  1.
         12    1    3    3    0    0 -0.17730242058E+01 -0.24810443155E+01  0.36347954175E+01  0.47445688378E+01  0.00000000000E+00 0. -1.
</event>
<event>
 7    1  0.7470072E-010  0.4778727E+02  0.7816164E-02  0.1312668E+00
        -11   -1    0    0    0    0  0.00000000000E+00  0.00000000000E+00  0.45593999997E+02  0.45594000000E+02  0.51100000000E-03 0.  1.
         11   -1    0    0    0    0 -0.00000000000E+00 -0.00000000000E+00 -0.45593999997E+02  0.45594000000E+02  0.51100000000E-03 0. -1.
    9900012    2    1    2    0    0 -0.26400852332E+02 -0.34323532846E+02  0.29177568558E+01  0.47787271711E+02  0.20000003040E+02 0.  0.
        -12    1    1    2    0    0  0.26400852332E+02  0.34323532846E+02 -0.29177568558E+01  0.43400728289E+02  0.00000000000E+00 0.  1.
         11    1    3    3    0    0 -0.91585855385E+01 -0.24269221807E+02  0.57483003333E+00  0.25946199066E+02  0.51100000000E-03 0. -1.
        -11    1    3    3    0    0 -0.42963308481E+01  0.41812789904E-01  0.32673081257E+01  0.53977319047E+01  0.51100000000E-03 0.  1.
         12    1    3    3    0    0 -0.12945935946E+02 -0.10096123830E+02 -0.92438130326E+00  0.16443340740E+02  0.00000000000E+00 0. -1.
</event>
<event>
 7    1  0.7711904E-010  0.4778727E+02  0.7816164E-02  0.1312668E+00
        -11   -1    0    0    0    0  0.00000000000E+00  0.00000000000E+00  0.45593999997E+02  0.45594000000E+02  0.51100000000E-03 0. -1.
         11   -1    0    0    0    0 -0.00000000000E+00 -0.00000000000E+00 -0.45593999997E+02  0.45594000000E+02  0.51100000000E-03 0.  1.
    9900012    2    1    2    0    0 -0.26283999947E+01  0.33543836630E+02 -0.27413968457E+02  0.47787272713E+02  0.20000007610E+02 0.  0.
         12    1    1    2    0    0  0.26283999947E+01 -0.33543836630E+02  0.27413968457E+02  0.43400727287E+02  0.00000000000E+00 0. -1.
         11    1    3    3    0    0 -0.64108306032E+00 -0.20682307307E+01 -0.31061516890E+01  0.37863893648E+01  0.51100000000E-03 0. -1.
        -11    1    3    3    0    0  0.17035993087E+01  0.21775724150E+02 -0.18206102297E+02  0.28434953385E+02  0.51100000000E-03 0.  1.
         12    1    3    3    0    0 -0.36909162430E+01  0.13836343211E+02 -0.61017144716E+01  0.15565929964E+02  0.00000000000E+00 0. -1.
</event>
<event>
 7    1  0.7470072E-010  0.4778727E+02  0.7816164E-02  0.1312668E+00
        -11   -1    0    0    0    0  0.00000000000E+00  0.00000000000E+00  0.45593999997E+02  0.45594000000E+02  0.51100000000E-03 0. -1.
         11   -1    0    0    0    0 -0.00000000000E+00 -0.00000000000E+00 -0.45593999997E+02  0.45594000000E+02  0.51100000000E-03 0.  1.
    9900012    2    1    2    0    0 -0.70949378524E+01  0.16022976381E+02 -0.39705784515E+02  0.47787271444E+02  0.20000001822E+02 0.  0.
         12    1    1    2    0    0  0.70949378524E+01 -0.16022976381E+02  0.39705784515E+02  0.43400728556E+02  0.00000000000E+00 0. -1.
         11    1    3    3    0    0 -0.57992361442E+01  0.10819429142E+02 -0.39396668364E+02  0.41264859932E+02  0.51100000000E-03 0. -1.
        -11    1    3    3    0    0  0.77317798487E+00  0.34571388407E+01 -0.10867936354E+01  0.37055004826E+01  0.51100000000E-03 0.  1.
         12    1    3    3    0    0 -0.20688796931E+01  0.17464083981E+01  0.77767748367E+00  0.28169110291E+01  0.00000000000E+00 0. -1.
</event>
<event>
 7    1  0.7470072E-010  0.4778727E+02  0.7816164E-02  0.1312668E+00
        -11   -1    0    0    0    0  0.00000000000E+00  0.00000000000E+00  0.45593999997E+02  0.45594000000E+02  0.51100000000E-03 0. -1.
         11   -1    0    0    0    0 -0.00000000000E+00 -0.00000000000E+00 -0.45593999997E+02  0.45594000000E+02  0.51100000000E-03 0.  1.
    9900012    2    1    2    0    0  0.35158269095E+02  0.18558884952E+02 -0.17409403163E+02  0.47787269420E+02  0.19999992592E+02 0.  0.
         12    1    1    2    0    0 -0.35158269095E+02 -0.18558884952E+02  0.17409403163E+02  0.43400730580E+02  0.00000000000E+00 0. -1.
         11    1    3    3    0    0  0.14145586631E+02  0.16323046816E+02 -0.47783952405E+01  0.22121766201E+02  0.51100000000E-03 0. -1.
        -11    1    3    3    0    0  0.17131179689E+02  0.45506296472E+01 -0.10998762072E+02  0.20860448584E+02  0.51100000000E-03 0.  1.
         12    1    3    3    0    0  0.38815027754E+01 -0.23147915116E+01 -0.16322458499E+01  0.48050546357E+01  0.00000000000E+00 0. -1.
</event>
<event>
 7    1  0.7470072E-010  0.4778727E+02  0.7816164E-02  0.1312668E+00
        -11   -1    0    0    0    0  0.00000000000E+00  0.00000000000E+00  0.45593999997E+02  0.45594000000E+02  0.51100000000E-03 0. -1.
         11   -1    0    0    0    0 -0.00000000000E+00 -0.00000000000E+00 -0.45593999997E+02  0.45594000000E+02  0.51100000000E-03 0.  1.
    9900012    2    1    2    0    0 -0.90352719955E+00  0.65926139220E+01 -0.42887577288E+02  0.47787271834E+02  0.20000003600E+02 0.  0.
         12    1    1    2    0    0  0.90352719955E+00 -0.65926139220E+01  0.42887577288E+02  0.43400728166E+02  0.00000000000E+00 0. -1.
         11    1    3    3    0    0  0.87979811931E+01  0.28045631261E+01 -0.26483744627E+02  0.28047437978E+02  0.51100000000E-03 0. -1.
        -11    1    3    3    0    0 -0.79965056719E+01  0.16196174856E+01 -0.11290750017E+02  0.13930122037E+02  0.51100000000E-03 0.  1.
         12    1    3    3    0    0 -0.17050027207E+01  0.21684333102E+01 -0.51130826434E+01  0.58097118188E+01  0.00000000000E+00 0. -1.
</event>
<event>
 7    1  0.8457135E-010  0.4778727E+02  0.7816164E-02  0.1312668E+00
        -11   -1    0    0    0    0  0.00000000000E+00  0.00000000000E+00  0.45593999997E+02  0.45594000000E+02  0.51100000000E-03 0. -1.
         11   -1    0    0    0    0 -0.00000000000E+00 -0.00000000000E+00 -0.45593999997E+02  0.45594000000E+02  0.51100000000E-03 0.  1.
    9900012    2    1    2    0    0  0.38271977442E+02  0.22466369520E+01 -0.20342847259E+02  0.47787273399E+02  0.20000010733E+02 0.  0.
         12    1    1    2    0    0 -0.38271977442E+02 -0.22466369520E+01  0.20342847259E+02  0.43400726601E+02  0.00000000000E+00 0. -1.
         11    1    3    3    0    0 -0.80526789580E+00 -0.10164203767E+00 -0.65434469245E+00  0.10425712088E+01  0.51100000000E-03 0. -1.
        -11    1    3    3    0    0  0.14138224451E+02 -0.69448918728E+01 -0.81737810751E+01  0.17746312605E+02  0.51100000000E-03 0.  1.
        -12    1    3    3    0    0  0.24939020887E+02  0.92931708624E+01 -0.11514721492E+02  0.28998389585E+02  0.00000000000E+00 0.  1.
</event>
<event>
 7    1  0.7470072E-010  0.4778727E+02  0.7816164E-02  0.1312668E+00
        -11   -1    0    0    0    0  0.00000000000E+00  0.00000000000E+00  0.45593999997E+02  0.45594000000E+02  0.51100000000E-03 0.  1.
         11   -1    0    0    0    0 -0.00000000000E+00 -0.00000000000E+00 -0.45593999997E+02  0.45594000000E+02  0.51100000000E-03 0. -1.
    9900012    2    1    2    0    0  0.39844439835E+02 -0.12291434138E+02 -0.12040126462E+02  0.47787269774E+02  0.19999994208E+02 0.  0.
         12    1    1    2    0    0 -0.39844439835E+02  0.12291434138E+02  0.12040126462E+02  0.43400730226E+02  0.00000000000E+00 0. -1.
         11    1    3    3    0    0  0.14492678334E+02 -0.45954179046E+01 -0.57601582509E+01  0.16258382895E+02  0.51100000000E-03 0. -1.
        -11    1    3    3    0    0  0.11113184005E+02 -0.11511971327E+02 -0.48441295698E+01  0.16718072082E+02  0.51100000000E-03 0.  1.
        -12    1    3    3    0    0  0.14238577495E+02  0.38159550936E+01 -0.14358386417E+01  0.14810814798E+02  0.00000000000E+00 0.  1.
</event>
<event>
 7    1  0.7470072E-010  0.4778727E+02  0.7816164E-02  0.1312668E+00
        -11   -1    0    0    0    0  0.00000000000E+00  0.00000000000E+00  0.45593999997E+02  0.45594000000E+02  0.51100000000E-03 0. -1.
         11   -1    0    0    0    0 -0.00000000000E+00 -0.00000000000E+00 -0.45593999997E+02  0.45594000000E+02  0.51100000000E-03 0.  1.
    9900012    2    1    2    0    0  0.29967539306E+02 -0.22981571489E+02 -0.21387311646E+02  0.47787272591E+02  0.20000007051E+02 0.  0.
         12    1    1    2    0    0 -0.29967539306E+02  0.22981571489E+02  0.21387311646E+02  0.43400727409E+02  0.00000000000E+00 0. -1.
         11    1    3    3    0    0  0.18139879473E+02 -0.68784736208E+01 -0.40286425608E+01  0.19814100732E+02  0.51100000000E-03 0. -1.
        -11    1    3    3    0    0  0.94889568640E+01 -0.57852102413E+01 -0.10962105345E+02  0.15610147781E+02  0.51100000000E-03 0.  1.
         12    1    3    3    0    0  0.23387029689E+01 -0.10317887627E+02 -0.63965637404E+01  0.12363024078E+02  0.00000000000E+00 0. -1.
</event>
<event>
 7    1  0.7470072E-010  0.4778727E+02  0.7816164E-02  0.1312668E+00
        -11   -1    0    0    0    0  0.00000000000E+00  0.00000000000E+00  0.45593999997E+02  0.45594000000E+02  0.51100000000E-03 0. -1.
         11   -1    0    0    0    0 -0.00000000000E+00 -0.00000000000E+00 -0.45593999997E+02  0.45594000000E+02  0.51100000000E-03 0.  1.
    9900012    2    1    2    0    0  0.20420165790E+02  0.83617246853E+01 -0.37372737244E+02  0.47787273051E+02  0.20000009151E+02 0.  0.
         12    1    1    2    0    0 -0.20420165790E+02 -0.83617246853E+01  0.37372737244E+02  0.43400726949E+02  0.00000000000E+00 0. -1.
         11    1    3    3    0    0  0.13172641241E+02  0.34544301415E+01 -0.12715181898E+02  0.18631355716E+02  0.51100000000E-03 0. -1.
        -11    1    3    3    0    0 -0.53274748053E+00  0.72965761083E+01 -0.13359872237E+02  0.15231875434E+02  0.51100000000E-03 0.  1.
        -12    1    3    3    0    0  0.77802720291E+01 -0.23892815645E+01 -0.11297683109E+02  0.13924041901E+02  0.00000000000E+00 0.  1.
</event>
<event>
 7    1  0.7470072E-010  0.4778727E+02  0.7816164E-02  0.1312668E+00
        -11   -1    0    0    0    0  0.00000000000E+00  0.00000000000E+00  0.45593999997E+02  0.45594000000E+02  0.51100000000E-03 0. -1.
         11   -1    0    0    0    0 -0.00000000000E+00 -0.00000000000E+00 -0.45593999997E+02  0.45594000000E+02  0.51100000000E-03 0.  1.
    9900012    2    1    2    0    0 -0.24261875723E+02  0.17185593925E+02 -0.31617091433E+02  0.47787265872E+02  0.19999976418E+02 0.  0.
         12    1    1    2    0    0  0.24261875723E+02 -0.17185593925E+02  0.31617091433E+02  0.43400734128E+02  0.00000000000E+00 0. -1.
         11    1    3    3    0    0 -0.19487181000E+02  0.10910626823E+02 -0.20714577474E+02  0.30461216673E+02  0.51100000000E-03 0. -1.
        -11    1    3    3    0    0 -0.74185531280E+01  0.70569197242E+01 -0.64884186465E+01  0.12121659263E+02  0.51100000000E-03 0.  1.
         12    1    3    3    0    0  0.26438584057E+01 -0.78195262207E+00 -0.44140953128E+01  0.52043899357E+01  0.00000000000E+00 0. -1.
</event>
<event>
 7    1  0.7470072E-010  0.4778727E+02  0.7816164E-02  0.1312668E+00
        -11   -1    0    0    0    0  0.00000000000E+00  0.00000000000E+00  0.45593999997E+02  0.45594000000E+02  0.51100000000E-03 0. -1.
         11   -1    0    0    0    0 -0.00000000000E+00 -0.00000000000E+00 -0.45593999997E+02  0.45594000000E+02  0.51100000000E-03 0.  1.
    9900012    2    1    2    0    0 -0.11218544187E+02 -0.11877790677E+02  0.40208028480E+02  0.47787271903E+02  0.20000003916E+02 0.  0.
        -12    1    1    2    0    0  0.11218544187E+02  0.11877790677E+02 -0.40208028480E+02  0.43400728097E+02  0.00000000000E+00 0.  1.
         11    1    3    3    0    0 -0.95107810810E+01 -0.13364210103E+02  0.16912228984E+02  0.23560147663E+02  0.51100000000E-03 0. -1.
        -11    1    3    3    0    0  0.53970440861E+00  0.29831912506E+01  0.60062502000E+01  0.67279828041E+01  0.51100000000E-03 0.  1.
         12    1    3    3    0    0 -0.22474675143E+01 -0.14967718254E+01  0.17289549297E+02  0.17499141436E+02  0.00000000000E+00 0. -1.
</event>
<event>
 7    1  0.7470072E-010  0.4778727E+02  0.7816164E-02  0.1312668E+00
        -11   -1    0    0    0    0  0.00000000000E+00  0.00000000000E+00  0.45593999997E+02  0.45594000000E+02  0.51100000000E-03 0. -1.
         11   -1    0    0    0    0 -0.00000000000E+00 -0.00000000000E+00 -0.45593999997E+02  0.45594000000E+02  0.51100000000E-03 0.  1.
    9900012    2    1    2    0    0  0.30817191548E+01 -0.10664337982E+02 -0.41957100562E+02  0.47787269763E+02  0.19999994158E+02 0.  0.
         12    1    1    2    0    0 -0.30817191548E+01  0.10664337982E+02  0.41957100562E+02  0.43400730237E+02  0.00000000000E+00 0. -1.
         11    1    3    3    0    0 -0.23337515762E+01 -0.12716545895E+02 -0.22715897884E+02  0.26137500891E+02  0.51100000000E-03 0. -1.
        -11    1    3    3    0    0 -0.49574226624E+00  0.20451990699E+01 -0.12534118779E+02  0.12709552842E+02  0.51100000000E-03 0.  1.
         12    1    3    3    0    0  0.59112129972E+01  0.70088428729E-02 -0.67070838995E+01  0.89402160296E+01  0.00000000000E+00 0. -1.
</event>
<event>
 7    1  0.7470072E-010  0.4778726E+02  0.7816164E-02  0.1312668E+00
        -11   -1    0    0    0    0  0.00000000000E+00  0.00000000000E+00  0.45593999997E+02  0.45594000000E+02  0.51100000000E-03 0. -1.
         11   -1    0    0    0    0 -0.00000000000E+00 -0.00000000000E+00 -0.45593999997E+02  0.45594000000E+02  0.51100000000E-03 0.  1.
    9900012    2    1    2    0    0 -0.12624523248E+02  0.30767385886E+02 -0.27885725311E+02  0.47787259250E+02  0.19999946226E+02 0.  0.
         12    1    1    2    0    0  0.12624523248E+02 -0.30767385886E+02  0.27885725311E+02  0.43400740750E+02  0.00000000000E+00 0. -1.
         11    1    3    3    0    0 -0.96958067305E+01  0.13497677829E+02 -0.42820613850E+01  0.17161935348E+02  0.51100000000E-03 0.  1.
        -11    1    3    3    0    0 -0.90541575742E+00  0.35884668979E+00 -0.61947094118E+01  0.62708032658E+01  0.51100000000E-03 0. -1.
         12    1    3    3    0    0 -0.20233007605E+01  0.16910861367E+02 -0.17408954515E+02  0.24354520637E+02  0.00000000000E+00 0. -1.
</event>
<event>
 7    1  0.7470072E-010  0.4778727E+02  0.7816164E-02  0.1312668E+00
        -11   -1    0    0    0    0  0.00000000000E+00  0.00000000000E+00  0.45593999997E+02  0.45594000000E+02  0.51100000000E-03 0. -1.
         11   -1    0    0    0    0 -0.00000000000E+00 -0.00000000000E+00 -0.45593999997E+02  0.45594000000E+02  0.51100000000E-03 0.  1.
    9900012    2    1    2    0    0 -0.17539085212E+02  0.89171104385E+01  0.38684482444E+02  0.47787267857E+02  0.19999985466E+02 0.  0.
        -12    1    1    2    0    0  0.17539085212E+02 -0.89171104385E+01 -0.38684482444E+02  0.43400732143E+02  0.00000000000E+00 0.  1.
         11    1    3    3    0    0 -0.39916879404E+01  0.64549367428E+01  0.26990493261E+02  0.28037234309E+02  0.51100000000E-03 0. -1.
        -11    1    3    3    0    0 -0.67713047133E+01 -0.10104629737E+01  0.14700279781E+01  0.70023271459E+01  0.51100000000E-03 0.  1.
        -12    1    3    3    0    0 -0.67760925578E+01  0.34726366695E+01  0.10223961204E+02  0.12747706401E+02  0.00000000000E+00 0.  1.
</event>
<event>
 7    1  0.7470072E-010  0.4778727E+02  0.7816164E-02  0.1312668E+00
        -11   -1    0    0    0    0  0.00000000000E+00  0.00000000000E+00  0.45593999997E+02  0.45594000000E+02  0.51100000000E-03 0. -1.
         11   -1    0    0    0    0 -0.00000000000E+00 -0.00000000000E+00 -0.45593999997E+02  0.45594000000E+02  0.51100000000E-03 0.  1.
    9900012    2    1    2    0    0 -0.13090559677E+01  0.64753779375E+01  0.42894974647E+02  0.47787274236E+02  0.20000014549E+02 0.  0.
        -12    1    1    2    0    0  0.13090559677E+01 -0.64753779375E+01 -0.42894974647E+02  0.43400725764E+02  0.00000000000E+00 0.  1.
         11    1    3    3    0    0 -0.59853184849E+01 -0.40822095667E+01  0.95782957318E+01  0.12009672006E+02  0.51100000000E-03 0. -1.
        -11    1    3    3    0    0 -0.11698591338E+01  0.71433958760E+00  0.19224322265E+01  0.23610585266E+01  0.51100000000E-03 0.  1.
         12    1    3    3    0    0  0.58461216510E+01  0.98432479167E+01  0.31394246688E+02  0.33416543703E+02  0.00000000000E+00 0. -1.
</event>
<event>
 7    1  0.7470072E-010  0.4778726E+02  0.7816164E-02  0.1312668E+00
        -11   -1    0    0    0    0  0.00000000000E+00  0.00000000000E+00  0.45593999997E+02  0.45594000000E+02  0.51100000000E-03 0. -1.
         11   -1    0    0    0    0 -0.00000000000E+00 -0.00000000000E+00 -0.45593999997E+02  0.45594000000E+02  0.51100000000E-03 0.  1.
    9900012    2    1    2    0    0 -0.20640359581E+02  0.20471509235E+02 -0.32226025332E+02  0.47787264492E+02  0.19999970124E+02 0.  0.
         12    1    1    2    0    0  0.20640359581E+02 -0.20471509235E+02  0.32226025332E+02  0.43400735508E+02  0.00000000000E+00 0. -1.
         11    1    3    3    0    0 -0.66766960067E+00 -0.37440905748E+00  0.39159623102E+00  0.85983295311E+00  0.51100000000E-03 0. -1.
        -11    1    3    3    0    0 -0.99329028147E+01  0.16059141290E+02 -0.92045182528E+01  0.21006706877E+02  0.51100000000E-03 0.  1.
        -12    1    3    3    0    0 -0.10039787165E+02  0.47867770025E+01 -0.23413103310E+02  0.25920724662E+02  0.00000000000E+00 0.  1.
</event>
<event>
 7    1  0.7470072E-010  0.4778729E+02  0.7816164E-02  0.1312668E+00
        -11   -1    0    0    0    0  0.00000000000E+00  0.00000000000E+00  0.45593999997E+02  0.45594000000E+02  0.51100000000E-03 0. -1.
         11   -1    0    0    0    0 -0.00000000000E+00 -0.00000000000E+00 -0.45593999997E+02  0.45594000000E+02  0.51100000000E-03 0.  1.
    9900012    2    1    2    0    0 -0.23047923924E+02 -0.13969542931E+02  0.34018623909E+02  0.47787289181E+02  0.20000082692E+02 0.  0.
        -12    1    1    2    0    0  0.23047923924E+02  0.13969542931E+02 -0.34018623909E+02  0.43400710819E+02  0.00000000000E+00 0.  1.
         11    1    3    3    0    0 -0.13508999378E+02 -0.39352003689E+01  0.28921756663E+02  0.32162818204E+02  0.51100000000E-03 0. -1.
        -11    1    3    3    0    0 -0.24583171717E+01 -0.45984252065E+01 -0.24777234559E+00  0.52201751975E+01  0.51100000000E-03 0.  1.
         12    1    3    3    0    0 -0.70806073743E+01 -0.54359173561E+01  0.53446395920E+01  0.10404295779E+02  0.00000000000E+00 0. -1.
</event>
<event>
 7    1  0.7470072E-010  0.4778728E+02  0.7816164E-02  0.1312668E+00
        -11   -1    0    0    0    0  0.00000000000E+00  0.00000000000E+00  0.45593999997E+02  0.45594000000E+02  0.51100000000E-03 0. -1.
         11   -1    0    0    0    0 -0.00000000000E+00 -0.00000000000E+00 -0.45593999997E+02  0.45594000000E+02  0.51100000000E-03 0.  1.
    9900012    2    1    2    0    0 -0.69152551496E+01 -0.20912534661E+02  0.37396089419E+02  0.47787281532E+02  0.20000047818E+02 0.  0.
        -12    1    1    2    0    0  0.69152551496E+01  0.20912534661E+02 -0.37396089419E+02  0.43400718468E+02  0.00000000000E+00 0.  1.
         11    1    3    3    0    0 -0.60473433072E+01 -0.39929705419E+01  0.34838668611E+01  0.80406158589E+01  0.51100000000E-03 0. -1.
        -11    1    3    3    0    0 -0.57918836255E+00 -0.50879137234E+01  0.23281688833E+02  0.23838191215E+02  0.51100000000E-03 0.  1.
        -12    1    3    3    0    0 -0.28872347986E+00 -0.11831650395E+02  0.10630533724E+02  0.15908474458E+02  0.00000000000E+00 0.  1.
</event>
<event>
 7    1  0.7470072E-010  0.4778727E+02  0.7816164E-02  0.1312668E+00
        -11   -1    0    0    0    0  0.00000000000E+00  0.00000000000E+00  0.45593999997E+02  0.45594000000E+02  0.51100000000E-03 0. -1.
         11   -1    0    0    0    0 -0.00000000000E+00 -0.00000000000E+00 -0.45593999997E+02  0.45594000000E+02  0.51100000000E-03 0.  1.
    9900012    2    1    2    0    0 -0.84908446570E+01  0.31820124130E+02 -0.28266733095E+02  0.47787274861E+02  0.20000017403E+02 0.  0.
         12    1    1    2    0    0  0.84908446570E+01 -0.31820124130E+02  0.28266733095E+02  0.43400725139E+02  0.00000000000E+00 0. -1.
         11    1    3    3    0    0  0.18209956445E+01  0.24839849028E+01 -0.33914354191E+01  0.45812706313E+01  0.51100000000E-03 0. -1.
        -11    1    3    3    0    0 -0.68516340355E+00  0.15395334448E+01  0.25048907200E+01  0.30189551003E+01  0.51100000000E-03 0.  1.
        -12    1    3    3    0    0 -0.96266768980E+01  0.27796605783E+02 -0.27380188396E+02  0.40187049130E+02  0.00000000000E+00 0.  1.
</event>
<event>
 7    1  0.7470072E-010  0.4778727E+02  0.7816164E-02  0.1312668E+00
        -11   -1    0    0    0    0  0.00000000000E+00  0.00000000000E+00  0.45593999997E+02  0.45594000000E+02  0.51100000000E-03 0. -1.
         11   -1    0    0    0    0 -0.00000000000E+00 -0.00000000000E+00 -0.45593999997E+02  0.45594000000E+02  0.51100000000E-03 0.  1.
    9900012    2    1    2    0    0 -0.94330192916E+01 -0.31268424436E+02  0.28581934963E+02  0.47787271597E+02  0.20000002520E+02 0.  0.
        -12    1    1    2    0    0  0.94330192916E+01  0.31268424436E+02 -0.28581934963E+02  0.43400728403E+02  0.00000000000E+00 0.  1.
         11    1    3    3    0    0  0.92845560997E-01 -0.17434857408E+01  0.89589897854E+01  0.91275331313E+01  0.51100000000E-03 0.  1.
        -11    1    3    3    0    0 -0.24850192798E+01 -0.26729463950E+01  0.75549185161E+01  0.83902775459E+01  0.51100000000E-03 0. -1.
        -12    1    3    3    0    0 -0.70408455728E+01 -0.26851992300E+02  0.12068026662E+02  0.30269460920E+02  0.00000000000E+00 0.  1.
</event>
<event>
 7    1  0.7470072E-010  0.4778727E+02  0.7816164E-02  0.1312668E+00
        -11   -1    0    0    0    0  0.00000000000E+00  0.00000000000E+00  0.45593999997E+02  0.45594000000E+02  0.51100000000E-03 0.  1.
         11   -1    0    0    0    0 -0.00000000000E+00 -0.00000000000E+00 -0.45593999997E+02  0.45594000000E+02  0.51100000000E-03 0. -1.
    9900012    2    1    2    0    0  0.38001809967E+01 -0.43197811106E+02 -0.17694595516E+01  0.47787271354E+02  0.20000001409E+02 0.  0.
         12    1    1    2    0    0 -0.38001809967E+01  0.43197811106E+02  0.17694595516E+01  0.43400728646E+02  0.00000000000E+00 0. -1.
         11    1    3    3    0    0 -0.25433280129E+01 -0.71735825040E+01  0.19772708423E+01  0.78637397953E+01  0.51100000000E-03 0. -1.
        -11    1    3    3    0    0 -0.28094155847E+01 -0.17352262986E+02 -0.69139235598E+01  0.18889049365E+02  0.51100000000E-03 0.  1.
        -12    1    3    3    0    0  0.91529245943E+01 -0.18671965616E+02  0.31671931658E+01  0.21034482193E+02  0.00000000000E+00 0.  1.
</event>
<event>
 7    1 -0.2237339E-009  0.4778727E+02  0.7816164E-02  0.1312668E+00
        -11   -1    0    0    0    0  0.00000000000E+00  0.00000000000E+00  0.45593999997E+02  0.45594000000E+02  0.51100000000E-03 0.  1.
         11   -1    0    0    0    0 -0.00000000000E+00 -0.00000000000E+00 -0.45593999997E+02  0.45594000000E+02  0.51100000000E-03 0. -1.
    9900012    2    1    2    0    0  0.13521885362E+02  0.40469634694E+02  0.79366669815E+01  0.47787269606E+02  0.19999993441E+02 0.  0.
        -12    1    1    2    0    0 -0.13521885362E+02 -0.40469634694E+02 -0.79366669815E+01  0.43400730394E+02  0.00000000000E+00 0.  1.
         11    1    3    3    0    0  0.16432719988E+01  0.25207369702E+02  0.79427083812E+01  0.26480151942E+02  0.51100000000E-03 0. -1.
        -11    1    3    3    0    0  0.15094487106E+01 -0.71734644038E+00  0.14361339590E+01  0.22035204412E+01  0.51100000000E-03 0.  1.
         12    1    3    3    0    0  0.10369164652E+02  0.15979611432E+02 -0.14421753587E+01  0.19103597223E+02  0.00000000000E+00 0. -1.
</event>
<event>
 7    1  0.7470072E-010  0.4778728E+02  0.7816164E-02  0.1312668E+00
        -11   -1    0    0    0    0  0.00000000000E+00  0.00000000000E+00  0.45593999997E+02  0.45594000000E+02  0.51100000000E-03 0. -1.
         11   -1    0    0    0    0 -0.00000000000E+00 -0.00000000000E+00 -0.45593999997E+02  0.45594000000E+02  0.51100000000E-03 0.  1.
    9900012    2    1    2    0    0  0.10410741317E+02 -0.21103266788E+02  0.36467675018E+02  0.47787277366E+02  0.20000028825E+02 0.  0.
        -12    1    1    2    0    0 -0.10410741317E+02  0.21103266788E+02 -0.36467675018E+02  0.43400722634E+02  0.00000000000E+00 0.  1.
         11    1    3    3    0    0  0.75367471202E+01 -0.17530475190E+02  0.24309596854E+02  0.30904313890E+02  0.51100000000E-03 0. -1.
        -11    1    3    3    0    0  0.39459167790E+01  0.26856036253E+01  0.26783290734E+01  0.54732232684E+01  0.51100000000E-03 0.  1.
         12    1    3    3    0    0 -0.10719225826E+01 -0.62583952238E+01  0.94797490907E+01  0.11409740208E+02  0.00000000000E+00 0. -1.
</event>
<event>
 7    1  0.7470072E-010  0.4778727E+02  0.7816164E-02  0.1312668E+00
        -11   -1    0    0    0    0  0.00000000000E+00  0.00000000000E+00  0.45593999997E+02  0.45594000000E+02  0.51100000000E-03 0. -1.
         11   -1    0    0    0    0 -0.00000000000E+00 -0.00000000000E+00 -0.45593999997E+02  0.45594000000E+02  0.51100000000E-03 0.  1.
    9900012    2    1    2    0    0  0.41361254528E+02 -0.47152776448E+01 -0.12273386354E+02  0.47787271527E+02  0.20000002200E+02 0.  0.
         12    1    1    2    0    0 -0.41361254528E+02  0.47152776448E+01  0.12273386354E+02  0.43400728473E+02  0.00000000000E+00 0. -1.
         11    1    3    3    0    0  0.69932232332E+01  0.41361946629E+01  0.10218319701E+01  0.81888594025E+01  0.51100000000E-03 0. -1.
        -11    1    3    3    0    0  0.23269149483E+02 -0.10381464793E+02 -0.12460357861E+02  0.28363509078E+02  0.51100000000E-03 0.  1.
         12    1    3    3    0    0  0.11098881812E+02  0.15299924848E+01 -0.83486046308E+00  0.11234903047E+02  0.00000000000E+00 0. -1.
</event>
<event>
 7    1  0.7470072E-010  0.4778728E+02  0.7816164E-02  0.1312668E+00
        -11   -1    0    0    0    0  0.00000000000E+00  0.00000000000E+00  0.45593999997E+02  0.45594000000E+02  0.51100000000E-03 0. -1.
         11   -1    0    0    0    0 -0.00000000000E+00 -0.00000000000E+00 -0.45593999997E+02  0.45594000000E+02  0.51100000000E-03 0.  1.
    9900012    2    1    2    0    0  0.38503594033E+02 -0.14106317649E+02  0.14216465888E+02  0.47787275888E+02  0.20000022084E+02 0.  0.
        -12    1    1    2    0    0 -0.38503594033E+02  0.14106317649E+02 -0.14216465888E+02  0.43400724112E+02  0.00000000000E+00 0.  1.
         11    1    3    3    0    0  0.91867837805E+01  0.38072441556E+01  0.34715762623E+01  0.10532993226E+02  0.51100000000E-03 0. -1.
        -11    1    3    3    0    0  0.12720443076E+02 -0.11579015046E+02  0.89756951326E+01  0.19402225771E+02  0.51100000000E-03 0.  1.
         12    1    3    3    0    0  0.16596367177E+02 -0.63345467592E+01  0.17691944935E+01  0.17852056892E+02  0.00000000000E+00 0. -1.
</event>
<event>
 7    1  0.7470072E-010  0.4778727E+02  0.7816164E-02  0.1312668E+00
        -11   -1    0    0    0    0  0.00000000000E+00  0.00000000000E+00  0.45593999997E+02  0.45594000000E+02  0.51100000000E-03 0. -1.
         11   -1    0    0    0    0 -0.00000000000E+00 -0.00000000000E+00 -0.45593999997E+02  0.45594000000E+02  0.51100000000E-03 0.  1.
    9900012    2    1    2    0    0 -0.33553129419E+02 -0.20124790566E+02  0.18783058727E+02  0.47787274381E+02  0.20000015214E+02 0.  0.
        -12    1    1    2    0    0  0.33553129419E+02  0.20124790566E+02 -0.18783058727E+02  0.43400725619E+02  0.00000000000E+00 0.  1.
         11    1    3    3    0    0 -0.10204638629E+02 -0.14021567811E+02  0.30562349109E+01  0.17609076793E+02  0.51100000000E-03 0. -1.
        -11    1    3    3    0    0 -0.13383333916E+02 -0.63613521121E+00  0.12593521493E+02  0.18387905769E+02  0.51100000000E-03 0.  1.
        -12    1    3    3    0    0 -0.99651568736E+01 -0.54670875434E+01  0.31333023232E+01  0.11790291819E+02  0.00000000000E+00 0.  1.
</event>
<event>
 7    1  0.7470072E-010  0.4778727E+02  0.7816164E-02  0.1312668E+00
        -11   -1    0    0    0    0  0.00000000000E+00  0.00000000000E+00  0.45593999997E+02  0.45594000000E+02  0.51100000000E-03 0. -1.
         11   -1    0    0    0    0 -0.00000000000E+00 -0.00000000000E+00 -0.45593999997E+02  0.45594000000E+02  0.51100000000E-03 0.  1.
    9900012    2    1    2    0    0  0.27774852485E+02  0.57258082393E+01  0.32854165083E+02  0.47787268740E+02  0.19999989494E+02 0.  0.
        -12    1    1    2    0    0 -0.27774852485E+02 -0.57258082393E+01 -0.32854165083E+02  0.43400731260E+02  0.00000000000E+00 0.  1.
         11    1    3    3    0    0  0.87080683014E+01  0.68464073973E+01  0.37857838643E+01  0.11706233703E+02  0.51100000000E-03 0.  1.
        -11    1    3    3    0    0  0.11752991748E+02  0.27447053709E+01  0.22443464457E+02  0.25482843634E+02  0.51100000000E-03 0. -1.
         12    1    3    3    0    0  0.73137924362E+01 -0.38653045289E+01  0.66249167625E+01  0.10598191403E+02  0.00000000000E+00 0. -1.
</event>
<event>
 7    1  0.7470072E-010  0.4778727E+02  0.7816164E-02  0.1312668E+00
        -11   -1    0    0    0    0  0.00000000000E+00  0.00000000000E+00  0.45593999997E+02  0.45594000000E+02  0.51100000000E-03 0. -1.
         11   -1    0    0    0    0 -0.00000000000E+00 -0.00000000000E+00 -0.45593999997E+02  0.45594000000E+02  0.51100000000E-03 0.  1.
    9900012    2    1    2    0    0  0.86981193489E+01  0.35093078501E+02 -0.24009204220E+02  0.47787270442E+02  0.19999997253E+02 0.  0.
         12    1    1    2    0    0 -0.86981193489E+01 -0.35093078501E+02  0.24009204220E+02  0.43400729558E+02  0.00000000000E+00 0. -1.
         11    1    3    3    0    0 -0.36615690303E+01  0.80991372480E+01 -0.15190603580E+01  0.90172421814E+01  0.51100000000E-03 0. -1.
        -11    1    3    3    0    0  0.80203965696E+01  0.25834347881E+02 -0.18603580383E+02  0.32830374577E+02  0.51100000000E-03 0.  1.
        -12    1    3    3    0    0  0.43392918096E+01  0.11595933720E+01 -0.38865634792E+01  0.59396536831E+01  0.00000000000E+00 0.  1.
</event>
<event>
 7    1  0.7470072E-010  0.4778727E+02  0.7816164E-02  0.1312668E+00
        -11   -1    0    0    0    0  0.00000000000E+00  0.00000000000E+00  0.45593999997E+02  0.45594000000E+02  0.51100000000E-03 0.  1.
         11   -1    0    0    0    0 -0.00000000000E+00 -0.00000000000E+00 -0.45593999997E+02  0.45594000000E+02  0.51100000000E-03 0. -1.
    9900012    2    1    2    0    0  0.13023094791E+02 -0.40588271827E+02  0.81617682263E+01  0.47787271107E+02  0.20000000287E+02 0.  0.
        -12    1    1    2    0    0 -0.13023094791E+02  0.40588271827E+02 -0.81617682263E+01  0.43400728893E+02  0.00000000000E+00 0.  1.
         11    1    3    3    0    0 -0.28535949036E+01 -0.69265594477E+00  0.12100526289E+01  0.31760043699E+01  0.51100000000E-03 0. -1.
        -11    1    3    3    0    0  0.15737282276E+02 -0.32547894231E+02  0.84119095418E+01  0.37118562670E+02  0.51100000000E-03 0.  1.
        -12    1    3    3    0    0  0.13940741948E+00 -0.73477216514E+01 -0.14601939443E+01  0.74927040679E+01  0.00000000000E+00 0.  1.
</event>
<event>
 7    1  0.7470072E-010  0.4778725E+02  0.7816164E-02  0.1312668E+00
        -11   -1    0    0    0    0  0.00000000000E+00  0.00000000000E+00  0.45593999997E+02  0.45594000000E+02  0.51100000000E-03 0. -1.
         11   -1    0    0    0    0 -0.00000000000E+00 -0.00000000000E+00 -0.45593999997E+02  0.45594000000E+02  0.51100000000E-03 0.  1.
    9900012    2    1    2    0    0  0.24141965022E+02  0.61733170944E+01  0.35534223039E+02  0.47787247402E+02  0.19999892204E+02 0.  0.
        -12    1    1    2    0    0 -0.24141965022E+02 -0.61733170944E+01 -0.35534223039E+02  0.43400752598E+02  0.00000000000E+00 0.  1.
         11    1    3    3    0    0  0.73106803957E+00  0.66816382524E+01  0.11044080392E+02  0.12928668230E+02  0.51100000000E-03 0. -1.
        -11    1    3    3    0    0  0.11830445884E+02 -0.34698609500E+01  0.88622617298E+01  0.15183513034E+02  0.51100000000E-03 0.  1.
         12    1    3    3    0    0  0.11580451098E+02  0.29615397920E+01  0.15627880917E+02  0.19675066138E+02  0.00000000000E+00 0. -1.
</event>
<event>
 7    1  0.7470072E-010  0.4778727E+02  0.7816164E-02  0.1312668E+00
        -11   -1    0    0    0    0  0.00000000000E+00  0.00000000000E+00  0.45593999997E+02  0.45594000000E+02  0.51100000000E-03 0. -1.
         11   -1    0    0    0    0 -0.00000000000E+00 -0.00000000000E+00 -0.45593999997E+02  0.45594000000E+02  0.51100000000E-03 0.  1.
    9900012    2    1    2    0    0  0.21400001177E+01  0.31332645698E+02  0.29955113319E+02  0.47787273037E+02  0.20000009084E+02 0.  0.
        -12    1    1    2    0    0 -0.21400001177E+01 -0.31332645698E+02 -0.29955113319E+02  0.43400726963E+02  0.00000000000E+00 0.  1.
         11    1    3    3    0    0 -0.53113662744E+01  0.17690496543E+02  0.98978004103E+01  0.20955446377E+02  0.51100000000E-03 0. -1.
        -11    1    3    3    0    0 -0.17548335118E+01  0.80434611825E+00  0.13991556468E+01  0.23841246019E+01  0.51100000000E-03 0.  1.
         12    1    3    3    0    0  0.92061999039E+01  0.12837803037E+02  0.18658157262E+02  0.24447702058E+02  0.00000000000E+00 0. -1.
</event>
<event>
 7    1  0.7470072E-010  0.4778727E+02  0.7816164E-02  0.1312668E+00
        -11   -1    0    0    0    0  0.00000000000E+00  0.00000000000E+00  0.45593999997E+02  0.45594000000E+02  0.51100000000E-03 0. -1.
         11   -1    0    0    0    0 -0.00000000000E+00 -0.00000000000E+00 -0.45593999997E+02  0.45594000000E+02  0.51100000000E-03 0.  1.
    9900012    2    1    2    0    0  0.36437246002E+01 -0.27352033099E+01 -0.43160922535E+02  0.47787270741E+02  0.19999998616E+02 0.  0.
         12    1    1    2    0    0 -0.36437246002E+01  0.27352033099E+01  0.43160922535E+02  0.43400729259E+02  0.00000000000E+00 0. -1.
         11    1    3    3    0    0  0.30343589069E+01 -0.85191188336E+01 -0.99202777599E+01  0.13423659366E+02  0.51100000000E-03 0. -1.
        -11    1    3    3    0    0 -0.23063731580E+01  0.45363724293E+01 -0.25419927559E+02  0.25924327365E+02  0.51100000000E-03 0.  1.
         12    1    3    3    0    0  0.29157388512E+01  0.12475430944E+01 -0.78207172161E+01  0.84392840096E+01  0.00000000000E+00 0. -1.
</event>
<event>
 7    1  0.7470072E-010  0.4778727E+02  0.7816164E-02  0.1312668E+00
        -11   -1    0    0    0    0  0.00000000000E+00  0.00000000000E+00  0.45593999997E+02  0.45594000000E+02  0.51100000000E-03 0. -1.
         11   -1    0    0    0    0 -0.00000000000E+00 -0.00000000000E+00 -0.45593999997E+02  0.45594000000E+02  0.51100000000E-03 0.  1.
    9900012    2    1    2    0    0  0.11806108145E+02  0.32072128118E+02 -0.26751031046E+02  0.47787271278E+02  0.20000001064E+02 0.  0.
         12    1    1    2    0    0 -0.11806108145E+02 -0.32072128118E+02  0.26751031046E+02  0.43400728722E+02  0.00000000000E+00 0. -1.
         11    1    3    3    0    0  0.15777504671E+02  0.20263992348E+02 -0.11981881057E+02  0.28339451538E+02  0.51100000000E-03 0. -1.
        -11    1    3    3    0    0 -0.13328840794E+01  0.28096237090E+01 -0.51363754613E+01  0.60044082552E+01  0.51100000000E-03 0.  1.
         12    1    3    3    0    0 -0.26385124467E+01  0.89985120619E+01 -0.96327745273E+01  0.13443411485E+02  0.00000000000E+00 0. -1.
</event>
<event>
 7    1  0.7470072E-010  0.4778727E+02  0.7816164E-02  0.1312668E+00
        -11   -1    0    0    0    0  0.00000000000E+00  0.00000000000E+00  0.45593999997E+02  0.45594000000E+02  0.51100000000E-03 0. -1.
         11   -1    0    0    0    0 -0.00000000000E+00 -0.00000000000E+00 -0.45593999997E+02  0.45594000000E+02  0.51100000000E-03 0.  1.
    9900012    2    1    2    0    0  0.16503848315E+01  0.93072752019E+01  0.42358870010E+02  0.47787274081E+02  0.20000013846E+02 0.  0.
        -12    1    1    2    0    0 -0.16503848315E+01 -0.93072752019E+01 -0.42358870010E+02  0.43400725919E+02  0.00000000000E+00 0.  1.
         11    1    3    3    0    0  0.21595766750E+01  0.86334592003E+01  0.13486066870E+02  0.16157796541E+02  0.51100000000E-03 0. -1.
        -11    1    3    3    0    0 -0.95678333050E+00 -0.48431924094E+01  0.23139445040E+02  0.23660216907E+02  0.51100000000E-03 0.  1.
        -12    1    3    3    0    0  0.44759148701E+00  0.55170084109E+01  0.57333580996E+01  0.79692606334E+01  0.00000000000E+00 0.  1.
</event>
<event>
 7    1  0.7470072E-010  0.4778727E+02  0.7816164E-02  0.1312668E+00
        -11   -1    0    0    0    0  0.00000000000E+00  0.00000000000E+00  0.45593999997E+02  0.45594000000E+02  0.51100000000E-03 0. -1.
         11   -1    0    0    0    0 -0.00000000000E+00 -0.00000000000E+00 -0.45593999997E+02  0.45594000000E+02  0.51100000000E-03 0.  1.
    9900012    2    1    2    0    0  0.99192357149E+01 -0.33928902831E+02 -0.25180582902E+02  0.47787269133E+02  0.19999991287E+02 0.  0.
         12    1    1    2    0    0 -0.99192357149E+01  0.33928902831E+02  0.25180582902E+02  0.43400730867E+02  0.00000000000E+00 0. -1.
         11    1    3    3    0    0  0.63383779188E+01 -0.11647684219E+01 -0.88822579608E+01  0.10973888411E+02  0.51100000000E-03 0. -1.
        -11    1    3    3    0    0  0.23538782878E+01 -0.16606447723E+02 -0.74755688891E+01  0.18362978501E+02  0.51100000000E-03 0.  1.
         12    1    3    3    0    0  0.12269795083E+01 -0.16157686686E+02 -0.88227560522E+01  0.18450402221E+02  0.00000000000E+00 0. -1.
</event>
<event>
 7    1  0.7470072E-010  0.4778727E+02  0.7816164E-02  0.1312668E+00
        -11   -1    0    0    0    0  0.00000000000E+00  0.00000000000E+00  0.45593999997E+02  0.45594000000E+02  0.51100000000E-03 0. -1.
         11   -1    0    0    0    0 -0.00000000000E+00 -0.00000000000E+00 -0.45593999997E+02  0.45594000000E+02  0.51100000000E-03 0.  1.
    9900012    2    1    2    0    0  0.23858073328E+01 -0.45793137596E+01  0.43092471120E+02  0.47787271223E+02  0.20000000816E+02 0.  0.
        -12    1    1    2    0    0 -0.23858073328E+01  0.45793137596E+01 -0.43092471120E+02  0.43400728777E+02  0.00000000000E+00 0.  1.
         11    1    3    3    0    0  0.12356318067E+01 -0.78826363943E+01  0.32541949152E+02  0.33505838258E+02  0.51100000000E-03 0. -1.
        -11    1    3    3    0    0  0.21921936346E+01  0.56863331637E+01  0.41512250187E+01  0.73737892021E+01  0.51100000000E-03 0.  1.
        -12    1    3    3    0    0 -0.10420181085E+01 -0.23830105290E+01  0.63992969492E+01  0.69076437636E+01  0.00000000000E+00 0.  1.
</event>
<event>
 7    1  0.7470072E-010  0.4778727E+02  0.7816164E-02  0.1312668E+00
        -11   -1    0    0    0    0  0.00000000000E+00  0.00000000000E+00  0.45593999997E+02  0.45594000000E+02  0.51100000000E-03 0. -1.
         11   -1    0    0    0    0 -0.00000000000E+00 -0.00000000000E+00 -0.45593999997E+02  0.45594000000E+02  0.51100000000E-03 0.  1.
    9900012    2    1    2    0    0 -0.23731568388E+02 -0.14835589254E+02 -0.33171396503E+02  0.47787267372E+02  0.19999983255E+02 0.  0.
         12    1    1    2    0    0  0.23731568388E+02  0.14835589254E+02  0.33171396503E+02  0.43400732628E+02  0.00000000000E+00 0. -1.
         11    1    3    3    0    0 -0.18466101658E+02 -0.76517302802E+01 -0.14621232259E+02  0.24765425895E+02  0.51100000000E-03 0. -1.
        -11    1    3    3    0    0 -0.33531419177E+01 -0.32042006074E+01 -0.17981616170E+02  0.18570109924E+02  0.51100000000E-03 0.  1.
        -12    1    3    3    0    0 -0.19123248124E+01 -0.39796583666E+01 -0.56854807434E+00  0.44517315525E+01  0.00000000000E+00 0.  1.
</event>
<event>
 7    1  0.7470072E-010  0.4778728E+02  0.7816164E-02  0.1312668E+00
        -11   -1    0    0    0    0  0.00000000000E+00  0.00000000000E+00  0.45593999997E+02  0.45594000000E+02  0.51100000000E-03 0.  1.
         11   -1    0    0    0    0 -0.00000000000E+00 -0.00000000000E+00 -0.45593999997E+02  0.45594000000E+02  0.51100000000E-03 0. -1.
    9900012    2    1    2    0    0  0.54026717377E+01 -0.36655997645E+02  0.22600258486E+02  0.47787277553E+02  0.20000029677E+02 0.  0.
         12    1    1    2    0    0 -0.54026717377E+01  0.36655997645E+02 -0.22600258486E+02  0.43400722447E+02  0.00000000000E+00 0. -1.
         11    1    3    3    0    0 -0.45310097727E+00 -0.40482019071E+00 -0.27777595686E+01  0.28434360137E+01  0.51100000000E-03 0. -1.
        -11    1    3    3    0    0  0.87681561439E+00 -0.18256692069E+02  0.10571220149E+02  0.21114599372E+02  0.51100000000E-03 0.  1.
         12    1    3    3    0    0  0.49789571005E+01 -0.17994485385E+02  0.14806797906E+02  0.23829242168E+02  0.00000000000E+00 0. -1.
</event>
<event>
 7    1  0.7470072E-010  0.4778727E+02  0.7816164E-02  0.1312668E+00
        -11   -1    0    0    0    0  0.00000000000E+00  0.00000000000E+00  0.45593999997E+02  0.45594000000E+02  0.51100000000E-03 0. -1.
         11   -1    0    0    0    0 -0.00000000000E+00 -0.00000000000E+00 -0.45593999997E+02  0.45594000000E+02  0.51100000000E-03 0.  1.
    9900012    2    1    2    0    0  0.33647358946E+02  0.14044050622E+02 -0.23542374831E+02  0.47787268041E+02  0.19999986306E+02 0.  0.
         12    1    1    2    0    0 -0.33647358946E+02 -0.14044050622E+02  0.23542374831E+02  0.43400731959E+02  0.00000000000E+00 0. -1.
         11    1    3    3    0    0  0.12505894340E+02  0.14998070835E+02 -0.77337453426E+01  0.21003579202E+02  0.51100000000E-03 0. -1.
        -11    1    3    3    0    0  0.93359345258E+01 -0.15612390466E+01 -0.47257390084E+01  0.10579685736E+02  0.51100000000E-03 0.  1.
         12    1    3    3    0    0  0.11805530080E+02  0.60721883395E+00 -0.11082890480E+02  0.16204003103E+02  0.00000000000E+00 0. -1.
</event>
<event>
 7    1  0.7470072E-010  0.4778727E+02  0.7816164E-02  0.1312668E+00
        -11   -1    0    0    0    0  0.00000000000E+00  0.00000000000E+00  0.45593999997E+02  0.45594000000E+02  0.51100000000E-03 0. -1.
         11   -1    0    0    0    0 -0.00000000000E+00 -0.00000000000E+00 -0.45593999997E+02  0.45594000000E+02  0.51100000000E-03 0.  1.
    9900012    2    1    2    0    0 -0.37981068166E+02  0.59454963021E+01 -0.20142308530E+02  0.47787273528E+02  0.20000011326E+02 0.  0.
         12    1    1    2    0    0  0.37981068166E+02 -0.59454963021E+01  0.20142308530E+02  0.43400726472E+02  0.00000000000E+00 0. -1.
         11    1    3    3    0    0 -0.12067056329E+02 -0.15097687625E+01 -0.15611683419E+02  0.19789338281E+02  0.51100000000E-03 0. -1.
        -11    1    3    3    0    0 -0.19500144168E+02  0.28473934796E+01 -0.26996819127E+01  0.19890991802E+02  0.51100000000E-03 0.  1.
         12    1    3    3    0    0 -0.64138676700E+01  0.46078715850E+01 -0.18309431986E+01  0.81069434455E+01  0.00000000000E+00 0. -1.
</event>
<event>
 7    1  0.7470072E-010  0.4778730E+02  0.7816164E-02  0.1312668E+00
        -11   -1    0    0    0    0  0.00000000000E+00  0.00000000000E+00  0.45593999997E+02  0.45594000000E+02  0.51100000000E-03 0. -1.
         11   -1    0    0    0    0 -0.00000000000E+00 -0.00000000000E+00 -0.45593999997E+02  0.45594000000E+02  0.51100000000E-03 0.  1.
    9900012    2    1    2    0    0 -0.13946107038E+02 -0.34921823073E+02  0.21670088248E+02  0.47787304696E+02  0.20000153429E+02 0.  0.
        -12    1    1    2    0    0  0.13946107038E+02  0.34921823073E+02 -0.21670088248E+02  0.43400695304E+02  0.00000000000E+00 0.  1.
         11    1    3    3    0    0 -0.13088738914E+02 -0.13937880495E+02  0.15084945148E+02  0.24354366537E+02  0.51100000000E-03 0. -1.
        -11    1    3    3    0    0 -0.27352605151E+01 -0.56357125353E+01 -0.76728624807E+00  0.63112308081E+01  0.51100000000E-03 0.  1.
         12    1    3    3    0    0  0.18778923913E+01 -0.15348230043E+02  0.73524293481E+01  0.17121707350E+02  0.00000000000E+00 0. -1.
</event>
<event>
 7    1  0.7470072E-010  0.4778728E+02  0.7816164E-02  0.1312668E+00
        -11   -1    0    0    0    0  0.00000000000E+00  0.00000000000E+00  0.45593999997E+02  0.45594000000E+02  0.51100000000E-03 0. -1.
         11   -1    0    0    0    0 -0.00000000000E+00 -0.00000000000E+00 -0.45593999997E+02  0.45594000000E+02  0.51100000000E-03 0.  1.
    9900012    2    1    2    0    0 -0.20231559389E+02  0.27800494629E+02 -0.26484701732E+02  0.47787275090E+02  0.20000018445E+02 0.  0.
         12    1    1    2    0    0  0.20231559389E+02 -0.27800494629E+02  0.26484701732E+02  0.43400724910E+02  0.00000000000E+00 0. -1.
         11    1    3    3    0    0 -0.96304237612E+01  0.32550744122E+01 -0.23092269969E+00  0.10168278950E+02  0.51100000000E-03 0. -1.
        -11    1    3    3    0    0 -0.86824975031E+01  0.20879170949E+02 -0.20429380488E+02  0.30474335592E+02  0.51100000000E-03 0.  1.
         12    1    3    3    0    0 -0.19186381245E+01  0.36662492677E+01 -0.58243985440E+01  0.71446605479E+01  0.00000000000E+00 0. -1.
</event>
<event>
 7    1  0.1726578E-009  0.4778727E+02  0.7816164E-02  0.1312668E+00
        -11   -1    0    0    0    0  0.00000000000E+00  0.00000000000E+00  0.45593999997E+02  0.45594000000E+02  0.51100000000E-03 0. -1.
         11   -1    0    0    0    0 -0.00000000000E+00 -0.00000000000E+00 -0.45593999997E+02  0.45594000000E+02  0.51100000000E-03 0.  1.
    9900012    2    1    2    0    0  0.17132227793E+02  0.40147754459E+01 -0.39673561283E+02  0.47787272865E+02  0.20000008299E+02 0.  0.
         12    1    1    2    0    0 -0.17132227793E+02 -0.40147754459E+01  0.39673561283E+02  0.43400727135E+02  0.00000000000E+00 0. -1.
         11    1    3    3    0    0  0.24420268530E+01 -0.24477416076E+01  0.13647981777E+00  0.34602833887E+01  0.51100000000E-03 0. -1.
        -11    1    3    3    0    0  0.15056158451E+02  0.24027363769E+01 -0.28804140253E+02  0.32590482435E+02  0.51100000000E-03 0.  1.
        -12    1    3    3    0    0 -0.36595751115E+00  0.40597806766E+01 -0.11005900848E+02  0.11736507040E+02  0.00000000000E+00 0.  1.
</event>
<event>
 7    1  0.7470072E-010  0.4778727E+02  0.7816164E-02  0.1312668E+00
        -11   -1    0    0    0    0  0.00000000000E+00  0.00000000000E+00  0.45593999997E+02  0.45594000000E+02  0.51100000000E-03 0. -1.
         11   -1    0    0    0    0 -0.00000000000E+00 -0.00000000000E+00 -0.45593999997E+02  0.45594000000E+02  0.51100000000E-03 0.  1.
    9900012    2    1    2    0    0  0.26437000434E+02 -0.26636226400E+02  0.21799535730E+02  0.47787270665E+02  0.19999998270E+02 0.  0.
        -12    1    1    2    0    0 -0.26437000434E+02  0.26636226400E+02 -0.21799535730E+02  0.43400729335E+02  0.00000000000E+00 0.  1.
         11    1    3    3    0    0  0.18723519382E+01 -0.12485642166E+02  0.58792020775E+01  0.13927023351E+02  0.51100000000E-03 0. -1.
        -11    1    3    3    0    0  0.19935639021E+02 -0.12955456496E+02  0.16647655140E+02  0.29024437602E+02  0.51100000000E-03 0.  1.
         12    1    3    3    0    0  0.46290094747E+01 -0.11951277376E+01 -0.72732148758E+00  0.48358097122E+01  0.00000000000E+00 0. -1.
</event>
<event>
 7    1  0.7470072E-010  0.4778727E+02  0.7816164E-02  0.1312668E+00
        -11   -1    0    0    0    0  0.00000000000E+00  0.00000000000E+00  0.45593999997E+02  0.45594000000E+02  0.51100000000E-03 0. -1.
         11   -1    0    0    0    0 -0.00000000000E+00 -0.00000000000E+00 -0.45593999997E+02  0.45594000000E+02  0.51100000000E-03 0.  1.
    9900012    2    1    2    0    0  0.41793304889E+01 -0.40722154715E+02  0.14417441671E+02  0.47787270602E+02  0.19999997984E+02 0.  0.
         12    1    1    2    0    0 -0.41793304889E+01  0.40722154715E+02 -0.14417441671E+02  0.43400729398E+02  0.00000000000E+00 0. -1.
         11    1    3    3    0    0 -0.33111653924E+01 -0.30071425533E+02  0.91452481281E+01  0.31605221300E+02  0.51100000000E-03 0. -1.
        -11    1    3    3    0    0  0.70563614396E+01 -0.11043454480E+02  0.24910922004E+01  0.13340002408E+02  0.51100000000E-03 0.  1.
         12    1    3    3    0    0  0.43413444169E+00  0.39272529872E+00  0.27811013423E+01  0.28420468944E+01  0.00000000000E+00 0. -1.
</event>
<event>
 7    1  0.7470072E-010  0.4778728E+02  0.7816164E-02  0.1312668E+00
        -11   -1    0    0    0    0  0.00000000000E+00  0.00000000000E+00  0.45593999997E+02  0.45594000000E+02  0.51100000000E-03 0. -1.
         11   -1    0    0    0    0 -0.00000000000E+00 -0.00000000000E+00 -0.45593999997E+02  0.45594000000E+02  0.51100000000E-03 0.  1.
    9900012    2    1    2    0    0 -0.60511279309E+01  0.60732821376E+01 -0.42545528218E+02  0.47787275622E+02  0.20000020873E+02 0.  0.
         12    1    1    2    0    0  0.60511279309E+01 -0.60732821376E+01  0.42545528218E+02  0.43400724378E+02  0.00000000000E+00 0. -1.
         11    1    3    3    0    0 -0.48864626707E+01  0.98780638546E+01 -0.10146835729E+02  0.14980385126E+02  0.51100000000E-03 0. -1.
        -11    1    3    3    0    0 -0.21005432812E+01 -0.13056309838E+01 -0.14248132403E+02  0.14461197446E+02  0.51100000000E-03 0.  1.
         12    1    3    3    0    0  0.93587802099E+00 -0.24991507333E+01 -0.18150560087E+02  0.18345693051E+02  0.00000000000E+00 0. -1.
</event>
<event>
 7    1  0.7470072E-010  0.4778727E+02  0.7816164E-02  0.1312668E+00
        -11   -1    0    0    0    0  0.00000000000E+00  0.00000000000E+00  0.45593999997E+02  0.45594000000E+02  0.51100000000E-03 0. -1.
         11   -1    0    0    0    0 -0.00000000000E+00 -0.00000000000E+00 -0.45593999997E+02  0.45594000000E+02  0.51100000000E-03 0.  1.
    9900012    2    1    2    0    0  0.11398154310E+02 -0.30248848018E+02 -0.28960532516E+02  0.47787272221E+02  0.20000005366E+02 0.  0.
         12    1    1    2    0    0 -0.11398154310E+02  0.30248848018E+02  0.28960532516E+02  0.43400727779E+02  0.00000000000E+00 0. -1.
         11    1    3    3    0    0  0.42495846867E+01 -0.24036539245E+02 -0.13721126144E+02  0.28001490885E+02  0.51100000000E-03 0.  1.
        -11    1    3    3    0    0  0.81034042398E+01 -0.21805001272E+01 -0.90950907860E+01  0.12374991626E+02  0.51100000000E-03 0. -1.
         12    1    3    3    0    0 -0.95483461643E+00 -0.40318086463E+01 -0.61443155859E+01  0.74107897099E+01  0.00000000000E+00 0. -1.
</event>
<event>
 7    1  0.7470072E-010  0.4778727E+02  0.7816164E-02  0.1312668E+00
        -11   -1    0    0    0    0  0.00000000000E+00  0.00000000000E+00  0.45593999997E+02  0.45594000000E+02  0.51100000000E-03 0. -1.
         11   -1    0    0    0    0 -0.00000000000E+00 -0.00000000000E+00 -0.45593999997E+02  0.45594000000E+02  0.51100000000E-03 0.  1.
    9900012    2    1    2    0    0 -0.20970972880E+02  0.37997585381E+02  0.15899574703E+00  0.47787268693E+02  0.19999989281E+02 0.  0.
        -12    1    1    2    0    0  0.20970972880E+02 -0.37997585381E+02 -0.15899574703E+00  0.43400731307E+02  0.00000000000E+00 0.  1.
         11    1    3    3    0    0 -0.14030682160E+02  0.16055525139E+02 -0.29574439141E+01  0.21526411780E+02  0.51100000000E-03 0. -1.
        -11    1    3    3    0    0 -0.58049579277E+01  0.23408609493E+02  0.34903197487E+01  0.24368891381E+02  0.51100000000E-03 0.  1.
        -12    1    3    3    0    0 -0.11353327919E+01 -0.14665492512E+01 -0.37388008754E+00  0.18919655320E+01  0.00000000000E+00 0.  1.
</event>
<event>
 7    1  0.7470072E-010  0.4778727E+02  0.7816164E-02  0.1312668E+00
        -11   -1    0    0    0    0  0.00000000000E+00  0.00000000000E+00  0.45593999997E+02  0.45594000000E+02  0.51100000000E-03 0. -1.
         11   -1    0    0    0    0 -0.00000000000E+00 -0.00000000000E+00 -0.45593999997E+02  0.45594000000E+02  0.51100000000E-03 0.  1.
    9900012    2    1    2    0    0 -0.15533106109E+02 -0.29283470078E+02  0.28014709633E+02  0.47787274649E+02  0.20000016435E+02 0.  0.
        -12    1    1    2    0    0  0.15533106109E+02  0.29283470078E+02 -0.28014709633E+02  0.43400725351E+02  0.00000000000E+00 0.  1.
         11    1    3    3    0    0 -0.44515813787E+01 -0.16131277978E+02  0.21511988266E+02  0.27254363787E+02  0.51100000000E-03 0. -1.
        -11    1    3    3    0    0 -0.14561552212E+01  0.13844837067E+01  0.32016738202E+00  0.20346229567E+01  0.51100000000E-03 0.  1.
         12    1    3    3    0    0 -0.96253695088E+01 -0.14536675806E+02  0.61825539844E+01  0.18498287906E+02  0.00000000000E+00 0. -1.
</event>
<event>
 7    1  0.7470072E-010  0.4778727E+02  0.7816164E-02  0.1312668E+00
        -11   -1    0    0    0    0  0.00000000000E+00  0.00000000000E+00  0.45593999997E+02  0.45594000000E+02  0.51100000000E-03 0. -1.
         11   -1    0    0    0    0 -0.00000000000E+00 -0.00000000000E+00 -0.45593999997E+02  0.45594000000E+02  0.51100000000E-03 0.  1.
    9900012    2    1    2    0    0 -0.18993275656E+02  0.53916762633E+01 -0.38649819233E+02  0.47787271667E+02  0.20000002840E+02 0.  0.
         12    1    1    2    0    0  0.18993275656E+02 -0.53916762633E+01  0.38649819233E+02  0.43400728333E+02  0.00000000000E+00 0. -1.
         11    1    3    3    0    0 -0.45781358798E+01 -0.33476348389E+01 -0.47307310544E+01  0.73855130979E+01  0.51100000000E-03 0. -1.
        -11    1    3    3    0    0 -0.10355478647E+02  0.85038873302E+01 -0.11624211257E+02  0.17739062132E+02  0.51100000000E-03 0.  1.
        -12    1    3    3    0    0 -0.40596611291E+01  0.23542377193E+00 -0.22294876922E+02  0.22662696437E+02  0.00000000000E+00 0.  1.
</event>
<event>
 7    1  0.7470072E-010  0.4778727E+02  0.7816164E-02  0.1312668E+00
        -11   -1    0    0    0    0  0.00000000000E+00  0.00000000000E+00  0.45593999997E+02  0.45594000000E+02  0.51100000000E-03 0. -1.
         11   -1    0    0    0    0 -0.00000000000E+00 -0.00000000000E+00 -0.45593999997E+02  0.45594000000E+02  0.51100000000E-03 0.  1.
    9900012    2    1    2    0    0  0.12740118420E+02  0.17038543333E+02 -0.37828565729E+02  0.47787274645E+02  0.20000016414E+02 0.  0.
         12    1    1    2    0    0 -0.12740118420E+02 -0.17038543333E+02  0.37828565729E+02  0.43400725355E+02  0.00000000000E+00 0. -1.
         11    1    3    3    0    0  0.22648936439E+01  0.15004692066E+02 -0.18248738299E+02  0.23733667584E+02  0.51100000000E-03 0.  1.
        -11    1    3    3    0    0  0.77373478756E+01 -0.14578786155E+01 -0.63987589794E+01  0.10145741912E+02  0.51100000000E-03 0. -1.
        -12    1    3    3    0    0  0.27378769000E+01  0.34917298824E+01 -0.13181068450E+02  0.13907865148E+02  0.00000000000E+00 0.  1.
</event>
<event>
 7    1  0.7470072E-010  0.4778727E+02  0.7816164E-02  0.1312668E+00
        -11   -1    0    0    0    0  0.00000000000E+00  0.00000000000E+00  0.45593999997E+02  0.45594000000E+02  0.51100000000E-03 0. -1.
         11   -1    0    0    0    0 -0.00000000000E+00 -0.00000000000E+00 -0.45593999997E+02  0.45594000000E+02  0.51100000000E-03 0.  1.
    9900012    2    1    2    0    0 -0.22906545685E+02 -0.24391830317E+02  0.27639690560E+02  0.47787265954E+02  0.19999976793E+02 0.  0.
        -12    1    1    2    0    0  0.22906545685E+02  0.24391830317E+02 -0.27639690560E+02  0.43400734046E+02  0.00000000000E+00 0.  1.
         11    1    3    3    0    0 -0.11371868182E+02 -0.86926142360E+01  0.19441503880E+02  0.24142348717E+02  0.51100000000E-03 0. -1.
        -11    1    3    3    0    0 -0.30084773092E+01 -0.22228365155E+01 -0.24482651140E+01  0.44705637479E+01  0.51100000000E-03 0.  1.
         12    1    3    3    0    0 -0.85262001945E+01 -0.13476379565E+02  0.10646451794E+02  0.19174353490E+02  0.00000000000E+00 0. -1.
</event>
<event>
 7    1  0.7470072E-010  0.4778727E+02  0.7816164E-02  0.1312668E+00
        -11   -1    0    0    0    0  0.00000000000E+00  0.00000000000E+00  0.45593999997E+02  0.45594000000E+02  0.51100000000E-03 0. -1.
         11   -1    0    0    0    0 -0.00000000000E+00 -0.00000000000E+00 -0.45593999997E+02  0.45594000000E+02  0.51100000000E-03 0.  1.
    9900012    2    1    2    0    0  0.11420989371E+02 -0.10390761673E+02  0.40561265774E+02  0.47787271809E+02  0.20000003484E+02 0.  0.
        -12    1    1    2    0    0 -0.11420989371E+02  0.10390761673E+02 -0.40561265774E+02  0.43400728191E+02  0.00000000000E+00 0.  1.
         11    1    3    3    0    0  0.31394153808E+01 -0.27972813313E+01  0.92557100255E+01  0.10166065125E+02  0.51100000000E-03 0. -1.
        -11    1    3    3    0    0  0.15955713966E+01 -0.10747461018E+02  0.26909627267E+02  0.29020368817E+02  0.51100000000E-03 0.  1.
        -12    1    3    3    0    0  0.66860025937E+01  0.31539806763E+01  0.43959284819E+01  0.86008378666E+01  0.00000000000E+00 0.  1.
</event>
<event>
 7    1  0.7470072E-010  0.4778727E+02  0.7816164E-02  0.1312668E+00
        -11   -1    0    0    0    0  0.00000000000E+00  0.00000000000E+00  0.45593999997E+02  0.45594000000E+02  0.51100000000E-03 0. -1.
         11   -1    0    0    0    0 -0.00000000000E+00 -0.00000000000E+00 -0.45593999997E+02  0.45594000000E+02  0.51100000000E-03 0.  1.
    9900012    2    1    2    0    0 -0.13177471775E+02 -0.17457663522E+02  0.37486096391E+02  0.47787271887E+02  0.20000003844E+02 0.  0.
        -12    1    1    2    0    0  0.13177471775E+02  0.17457663522E+02 -0.37486096391E+02  0.43400728113E+02  0.00000000000E+00 0.  1.
         11    1    3    3    0    0 -0.43551074130E+01  0.23324510875E+00  0.20380966024E+02  0.20842388063E+02  0.51100000000E-03 0. -1.
        -11    1    3    3    0    0 -0.85574584595E+01 -0.10386358856E+02  0.10159978643E+02  0.16862138413E+02  0.51100000000E-03 0.  1.
         12    1    3    3    0    0 -0.26490590258E+00 -0.73045497746E+01  0.69451517245E+01  0.10082745411E+02  0.00000000000E+00 0. -1.
</event>
<event>
 7    1  0.7470072E-010  0.4778729E+02  0.7816164E-02  0.1312668E+00
        -11   -1    0    0    0    0  0.00000000000E+00  0.00000000000E+00  0.45593999997E+02  0.45594000000E+02  0.51100000000E-03 0. -1.
         11   -1    0    0    0    0 -0.00000000000E+00 -0.00000000000E+00 -0.45593999997E+02  0.45594000000E+02  0.51100000000E-03 0.  1.
    9900012    2    1    2    0    0  0.14943354968E+02  0.35690341280E+02 -0.19660051840E+02  0.47787286218E+02  0.20000069184E+02 0.  0.
         12    1    1    2    0    0 -0.14943354968E+02 -0.35690341280E+02  0.19660051840E+02  0.43400713782E+02  0.00000000000E+00 0. -1.
         11    1    3    3    0    0  0.69119140136E+01  0.59818137565E+01 -0.63842008342E+01  0.11149648950E+02  0.51100000000E-03 0. -1.
        -11    1    3    3    0    0  0.82950631981E+01  0.29471382897E+02 -0.15547863615E+02  0.34338120895E+02  0.51100000000E-03 0.  1.
        -12    1    3    3    0    0 -0.26362224343E+00  0.23714462645E+00  0.22720126086E+01  0.22995163741E+01  0.00000000000E+00 0.  1.
</event>
<event>
 7    1  0.7470072E-010  0.4778727E+02  0.7816164E-02  0.1312668E+00
        -11   -1    0    0    0    0  0.00000000000E+00  0.00000000000E+00  0.45593999997E+02  0.45594000000E+02  0.51100000000E-03 0. -1.
         11   -1    0    0    0    0 -0.00000000000E+00 -0.00000000000E+00 -0.45593999997E+02  0.45594000000E+02  0.51100000000E-03 0.  1.
    9900012    2    1    2    0    0  0.33469220153E+02  0.72486841935E+01 -0.26662545918E+02  0.47787268727E+02  0.19999989436E+02 0.  0.
         12    1    1    2    0    0 -0.33469220153E+02 -0.72486841935E+01  0.26662545918E+02  0.43400731273E+02  0.00000000000E+00 0. -1.
         11    1    3    3    0    0  0.56156193834E+01  0.80091358325E+01 -0.10555155628E+01  0.98384730120E+01  0.51100000000E-03 0. -1.
        -11    1    3    3    0    0  0.17591620457E+02  0.23346571063E+00 -0.17696747910E+02  0.24953847466E+02  0.51100000000E-03 0.  1.
        -12    1    3    3    0    0  0.10261980313E+02 -0.99391734964E+00 -0.79102824450E+01  0.12994948249E+02  0.00000000000E+00 0.  1.
</event>
<event>
 7    1  0.7470072E-010  0.4778727E+02  0.7816164E-02  0.1312668E+00
        -11   -1    0    0    0    0  0.00000000000E+00  0.00000000000E+00  0.45593999997E+02  0.45594000000E+02  0.51100000000E-03 0. -1.
         11   -1    0    0    0    0 -0.00000000000E+00 -0.00000000000E+00 -0.45593999997E+02  0.45594000000E+02  0.51100000000E-03 0.  1.
    9900012    2    1    2    0    0  0.23186716217E+02 -0.32086196624E+02  0.17789763349E+02  0.47787268407E+02  0.19999987976E+02 0.  0.
        -12    1    1    2    0    0 -0.23186716217E+02  0.32086196624E+02 -0.17789763349E+02  0.43400731593E+02  0.00000000000E+00 0.  1.
         11    1    3    3    0    0 -0.29235852630E+01 -0.43047620749E+01  0.61002131684E+00  0.52393180453E+01  0.51100000000E-03 0.  1.
        -11    1    3    3    0    0  0.22627437680E+02 -0.19352665186E+02  0.12427389240E+02  0.32264013844E+02  0.51100000000E-03 0. -1.
         12    1    3    3    0    0  0.34828638004E+01 -0.84287693640E+01  0.47523527916E+01  0.10283936518E+02  0.00000000000E+00 0. -1.
</event>
<event>
 7    1  0.7470072E-010  0.4778727E+02  0.7816164E-02  0.1312668E+00
        -11   -1    0    0    0    0  0.00000000000E+00  0.00000000000E+00  0.45593999997E+02  0.45594000000E+02  0.51100000000E-03 0. -1.
         11   -1    0    0    0    0 -0.00000000000E+00 -0.00000000000E+00 -0.45593999997E+02  0.45594000000E+02  0.51100000000E-03 0.  1.
    9900012    2    1    2    0    0 -0.31271195752E+02  0.19588158573E+02 -0.22848188757E+02  0.47787269943E+02  0.19999994976E+02 0.  0.
         12    1    1    2    0    0  0.31271195752E+02 -0.19588158573E+02  0.22848188757E+02  0.43400730057E+02  0.00000000000E+00 0. -1.
         11    1    3    3    0    0 -0.67387012378E+01  0.13026836876E+02 -0.56374596358E+01  0.15712718567E+02  0.51100000000E-03 0. -1.
        -11    1    3    3    0    0 -0.11155974121E+02  0.45229400849E+01 -0.13408695292E+02  0.18019596425E+02  0.51100000000E-03 0.  1.
         12    1    3    3    0    0 -0.13376520393E+02  0.20383816115E+01 -0.38020338292E+01  0.14054954951E+02  0.00000000000E+00 0. -1.
</event>
<event>
 7    1  0.7470072E-010  0.4778727E+02  0.7816164E-02  0.1312668E+00
        -11   -1    0    0    0    0  0.00000000000E+00  0.00000000000E+00  0.45593999997E+02  0.45594000000E+02  0.51100000000E-03 0. -1.
         11   -1    0    0    0    0 -0.00000000000E+00 -0.00000000000E+00 -0.45593999997E+02  0.45594000000E+02  0.51100000000E-03 0.  1.
    9900012    2    1    2    0    0  0.98832471930E+01 -0.11918970264E+02  0.40544824875E+02  0.47787271304E+02  0.20000001182E+02 0.  0.
        -12    1    1    2    0    0 -0.98832471930E+01  0.11918970264E+02 -0.40544824875E+02  0.43400728696E+02  0.00000000000E+00 0.  1.
         11    1    3    3    0    0  0.13708167675E+02 -0.13377992168E+02  0.32990376680E+02  0.38147732425E+02  0.51100000000E-03 0. -1.
        -11    1    3    3    0    0 -0.39965437605E+01  0.19997213403E+01  0.38700623885E+01  0.59117366840E+01  0.51100000000E-03 0.  1.
        -12    1    3    3    0    0  0.17162327873E+00 -0.54069943701E+00  0.36843858063E+01  0.37278021944E+01  0.00000000000E+00 0.  1.
</event>
<event>
 7    1  0.7470072E-010  0.4778726E+02  0.7816164E-02  0.1312668E+00
        -11   -1    0    0    0    0  0.00000000000E+00  0.00000000000E+00  0.45593999997E+02  0.45594000000E+02  0.51100000000E-03 0.  1.
         11   -1    0    0    0    0 -0.00000000000E+00 -0.00000000000E+00 -0.45593999997E+02  0.45594000000E+02  0.51100000000E-03 0. -1.
    9900012    2    1    2    0    0  0.22240151370E+02 -0.35272841967E+02 -0.12034392148E+02  0.47787259133E+02  0.19999945692E+02 0.  0.
         12    1    1    2    0    0 -0.22240151370E+02  0.35272841967E+02  0.12034392148E+02  0.43400740867E+02  0.00000000000E+00 0. -1.
         11    1    3    3    0    0  0.13057370792E+02 -0.56470843577E+01 -0.47267244476E+01  0.14990877827E+02  0.51100000000E-03 0. -1.
        -11    1    3    3    0    0 -0.25493293663E+00 -0.90215710890E+01 -0.13703450750E+00  0.90262126295E+01  0.51100000000E-03 0.  1.
         12    1    3    3    0    0  0.94377135143E+01 -0.20604186520E+02 -0.71706331933E+01  0.23770168677E+02  0.00000000000E+00 0. -1.
</event>
<event>
 7    1  0.7470072E-010  0.4778721E+02  0.7816164E-02  0.1312668E+00
        -11   -1    0    0    0    0  0.00000000000E+00  0.00000000000E+00  0.45593999997E+02  0.45594000000E+02  0.51100000000E-03 0. -1.
         11   -1    0    0    0    0 -0.00000000000E+00 -0.00000000000E+00 -0.45593999997E+02  0.45594000000E+02  0.51100000000E-03 0.  1.
    9900012    2    1    2    0    0 -0.96752616265E+01 -0.21405234533E+02 -0.36494296133E+02  0.47787211952E+02  0.19999730570E+02 0.  0.
         12    1    1    2    0    0  0.96752616265E+01  0.21405234533E+02  0.36494296133E+02  0.43400788048E+02  0.00000000000E+00 0. -1.
         11    1    3    3    0    0 -0.50622080624E+01 -0.11050243506E+02 -0.28291395783E+02  0.30791831833E+02  0.51100000000E-03 0.  1.
        -11    1    3    3    0    0  0.10238302085E+01 -0.59407540560E+01 -0.77540560294E+01  0.98217194125E+01  0.51100000000E-03 0. -1.
         12    1    3    3    0    0 -0.56368837725E+01 -0.44142369715E+01 -0.44884432082E+00  0.71736607063E+01  0.00000000000E+00 0. -1.
</event>
<event>
 7    1  0.7470072E-010  0.4778727E+02  0.7816164E-02  0.1312668E+00
        -11   -1    0    0    0    0  0.00000000000E+00  0.00000000000E+00  0.45593999997E+02  0.45594000000E+02  0.51100000000E-03 0. -1.
         11   -1    0    0    0    0 -0.00000000000E+00 -0.00000000000E+00 -0.45593999997E+02  0.45594000000E+02  0.51100000000E-03 0.  1.
    9900012    2    1    2    0    0 -0.16142380321E+02 -0.16097782458E+02  0.36931125736E+02  0.47787273155E+02  0.20000009624E+02 0.  0.
        -12    1    1    2    0    0  0.16142380321E+02  0.16097782458E+02 -0.36931125736E+02  0.43400726845E+02  0.00000000000E+00 0.  1.
         11    1    3    3    0    0 -0.49988141268E+01 -0.38055896929E+01  0.11048891540E+02  0.12710179390E+02  0.51100000000E-03 0. -1.
        -11    1    3    3    0    0 -0.90493365423E+01 -0.14049400643E+02  0.27291386079E+02  0.32001498475E+02  0.51100000000E-03 0.  1.
        -12    1    3    3    0    0 -0.20942296520E+01  0.17572078777E+01 -0.14091518831E+01  0.30755952904E+01  0.00000000000E+00 0.  1.
</event>
<event>
 7    1  0.7470072E-010  0.4778728E+02  0.7816164E-02  0.1312668E+00
        -11   -1    0    0    0    0  0.00000000000E+00  0.00000000000E+00  0.45593999997E+02  0.45594000000E+02  0.51100000000E-03 0. -1.
         11   -1    0    0    0    0 -0.00000000000E+00 -0.00000000000E+00 -0.45593999997E+02  0.45594000000E+02  0.51100000000E-03 0.  1.
    9900012    2    1    2    0    0  0.10391345957E+01  0.11505868987E+02  0.41834890560E+02  0.47787275466E+02  0.20000020162E+02 0.  0.
        -12    1    1    2    0    0 -0.10391345957E+01 -0.11505868987E+02 -0.41834890560E+02  0.43400724534E+02  0.00000000000E+00 0.  1.
         11    1    3    3    0    0  0.95019330178E+01  0.32966584944E+01  0.18604155287E+02  0.21148741866E+02  0.51100000000E-03 0. -1.
        -11    1    3    3    0    0 -0.41602838265E+01  0.13066840314E+01  0.47555703421E+01  0.64521960769E+01  0.51100000000E-03 0.  1.
         12    1    3    3    0    0 -0.43025145956E+01  0.69025264614E+01  0.18475164931E+02  0.20186337524E+02  0.00000000000E+00 0. -1.
</event>
<event>
 7    1  0.7470072E-010  0.4778727E+02  0.7816164E-02  0.1312668E+00
        -11   -1    0    0    0    0  0.00000000000E+00  0.00000000000E+00  0.45593999997E+02  0.45594000000E+02  0.51100000000E-03 0. -1.
         11   -1    0    0    0    0 -0.00000000000E+00 -0.00000000000E+00 -0.45593999997E+02  0.45594000000E+02  0.51100000000E-03 0.  1.
    9900012    2    1    2    0    0 -0.12044218463E+02  0.18961878903E+02  0.37134984874E+02  0.47787272454E+02  0.20000006426E+02 0.  0.
        -12    1    1    2    0    0  0.12044218463E+02 -0.18961878903E+02 -0.37134984874E+02  0.43400727546E+02  0.00000000000E+00 0.  1.
         11    1    3    3    0    0 -0.56190391950E+01  0.16417677216E+02  0.18201346131E+02  0.25147618732E+02  0.51100000000E-03 0. -1.
        -11    1    3    3    0    0 -0.57847557760E+01 -0.31800351884E+01  0.90792539370E+01  0.11225367500E+02  0.51100000000E-03 0.  1.
        -12    1    3    3    0    0 -0.64042349224E+00  0.57242368764E+01  0.98543848057E+01  0.11414286222E+02  0.00000000000E+00 0.  1.
</event>
<event>
 7    1  0.7470072E-010  0.4778728E+02  0.7816164E-02  0.1312668E+00
        -11   -1    0    0    0    0  0.00000000000E+00  0.00000000000E+00  0.45593999997E+02  0.45594000000E+02  0.51100000000E-03 0. -1.
         11   -1    0    0    0    0 -0.00000000000E+00 -0.00000000000E+00 -0.45593999997E+02  0.45594000000E+02  0.51100000000E-03 0.  1.
    9900012    2    1    2    0    0 -0.22804043623E+02  0.66514059894E+01 -0.36322947968E+02  0.47787283920E+02  0.20000058706E+02 0.  0.
         12    1    1    2    0    0  0.22804043623E+02 -0.66514059894E+01  0.36322947968E+02  0.43400716080E+02  0.00000000000E+00 0. -1.
         11    1    3    3    0    0 -0.49304288510E+01 -0.65551231403E+01 -0.12893016575E+02  0.15280989651E+02  0.51100000000E-03 0. -1.
        -11    1    3    3    0    0 -0.12228320331E+02  0.95347306919E+01 -0.18617277957E+02  0.24229031063E+02  0.51100000000E-03 0.  1.
         12    1    3    3    0    0 -0.56452944411E+01  0.36717984377E+01 -0.48126534351E+01  0.82772632060E+01  0.00000000000E+00 0. -1.
</event>
<event>
 7    1  0.7470072E-010  0.4778727E+02  0.7816164E-02  0.1312668E+00
        -11   -1    0    0    0    0  0.00000000000E+00  0.00000000000E+00  0.45593999997E+02  0.45594000000E+02  0.51100000000E-03 0. -1.
         11   -1    0    0    0    0 -0.00000000000E+00 -0.00000000000E+00 -0.45593999997E+02  0.45594000000E+02  0.51100000000E-03 0.  1.
    9900012    2    1    2    0    0  0.13093857205E+02  0.38394521872E+02 -0.15428382863E+02  0.47787269545E+02  0.19999993163E+02 0.  0.
         12    1    1    2    0    0 -0.13093857205E+02 -0.38394521872E+02  0.15428382863E+02  0.43400730455E+02  0.00000000000E+00 0. -1.
         11    1    3    3    0    0 -0.25356049540E+01  0.80438000368E+01 -0.24200726076E+01  0.87743240880E+01  0.51100000000E-03 0. -1.
        -11    1    3    3    0    0  0.12120626062E+02  0.23706701238E+02 -0.34395313399E+01  0.26846743486E+02  0.51100000000E-03 0.  1.
        -12    1    3    3    0    0  0.35088360970E+01  0.66440205971E+01 -0.95687789156E+01  0.12166201970E+02  0.00000000000E+00 0.  1.
</event>
<event>
 7    1  0.7470072E-010  0.4778726E+02  0.7816164E-02  0.1312668E+00
        -11   -1    0    0    0    0  0.00000000000E+00  0.00000000000E+00  0.45593999997E+02  0.45594000000E+02  0.51100000000E-03 0.  1.
         11   -1    0    0    0    0 -0.00000000000E+00 -0.00000000000E+00 -0.45593999997E+02  0.45594000000E+02  0.51100000000E-03 0. -1.
    9900012    2    1    2    0    0 -0.40202810517E+02  0.16349070036E+02  0.25788285738E+00  0.47787256135E+02  0.19999932020E+02 0.  0.
        -12    1    1    2    0    0  0.40202810517E+02 -0.16349070036E+02 -0.25788285738E+00  0.43400743865E+02  0.00000000000E+00 0.  1.
         11    1    3    3    0    0 -0.85202435050E+01  0.12833740725E+02 -0.28227416009E+01  0.15661012764E+02  0.51100000000E-03 0. -1.
        -11    1    3    3    0    0 -0.18798731185E+02  0.32215051357E+01  0.13057484143E+01  0.19117410093E+02  0.51100000000E-03 0.  1.
         12    1    3    3    0    0 -0.12883835827E+02  0.29382417560E+00  0.17748760440E+01  0.13008833277E+02  0.00000000000E+00 0. -1.
</event>
<event>
 7    1  0.7470072E-010  0.4778727E+02  0.7816164E-02  0.1312668E+00
        -11   -1    0    0    0    0  0.00000000000E+00  0.00000000000E+00  0.45593999997E+02  0.45594000000E+02  0.51100000000E-03 0. -1.
         11   -1    0    0    0    0 -0.00000000000E+00 -0.00000000000E+00 -0.45593999997E+02  0.45594000000E+02  0.51100000000E-03 0.  1.
    9900012    2    1    2    0    0  0.15940290599E+02  0.21686843127E+02  0.34047192826E+02  0.47787269954E+02  0.19999995030E+02 0.  0.
        -12    1    1    2    0    0 -0.15940290599E+02 -0.21686843127E+02 -0.34047192826E+02  0.43400730046E+02  0.00000000000E+00 0.  1.
         11    1    3    3    0    0  0.41996006537E+01  0.85195041312E+01  0.23741830576E+02  0.25571333865E+02  0.51100000000E-03 0. -1.
        -11    1    3    3    0    0  0.11656883783E+02  0.13715010649E+02  0.11173807662E+02  0.21185807385E+02  0.51100000000E-03 0.  1.
         12    1    3    3    0    0  0.83806162326E-01 -0.54767165365E+00 -0.86844541198E+00  0.10301287039E+01  0.00000000000E+00 0. -1.
</event>
<event>
 7    1  0.7470072E-010  0.4778727E+02  0.7816164E-02  0.1312668E+00
        -11   -1    0    0    0    0  0.00000000000E+00  0.00000000000E+00  0.45593999997E+02  0.45594000000E+02  0.51100000000E-03 0. -1.
         11   -1    0    0    0    0 -0.00000000000E+00 -0.00000000000E+00 -0.45593999997E+02  0.45594000000E+02  0.51100000000E-03 0.  1.
    9900012    2    1    2    0    0  0.21089360576E+01 -0.20565572395E+02  0.38160617595E+02  0.47787272880E+02  0.20000008371E+02 0.  0.
        -12    1    1    2    0    0 -0.21089360576E+01  0.20565572395E+02 -0.38160617595E+02  0.43400727120E+02  0.00000000000E+00 0.  1.
         11    1    3    3    0    0  0.51241531413E+01  0.68264052708E+00  0.41435971607E+01  0.66251295230E+01  0.51100000000E-03 0. -1.
        -11    1    3    3    0    0  0.12505882115E+00 -0.39707682932E+00  0.64095922482E+01  0.64230975990E+01  0.51100000000E-03 0.  1.
         12    1    3    3    0    0 -0.31402759048E+01 -0.20851136093E+02  0.27607428186E+02  0.34739045758E+02  0.00000000000E+00 0. -1.
</event>
<event>
 7    1  0.7470072E-010  0.4778727E+02  0.7816164E-02  0.1312668E+00
        -11   -1    0    0    0    0  0.00000000000E+00  0.00000000000E+00  0.45593999997E+02  0.45594000000E+02  0.51100000000E-03 0.  1.
         11   -1    0    0    0    0 -0.00000000000E+00 -0.00000000000E+00 -0.45593999997E+02  0.45594000000E+02  0.51100000000E-03 0. -1.
    9900012    2    1    2    0    0 -0.40922306061E+02 -0.12574038205E+02 -0.71331411576E+01  0.47787271055E+02  0.20000000049E+02 0.  0.
        -12    1    1    2    0    0  0.40922306061E+02  0.12574038205E+02  0.71331411576E+01  0.43400728945E+02  0.00000000000E+00 0.  1.
         11    1    3    3    0    0 -0.22544687605E+02 -0.53198384254E+01 -0.64752871442E+01  0.24051880674E+02  0.51100000000E-03 0. -1.
        -11    1    3    3    0    0 -0.45888833517E+01 -0.50319620610E+01  0.52216756541E+01  0.85816309346E+01  0.51100000000E-03 0.  1.
        -12    1    3    3    0    0 -0.13788735104E+02 -0.22222377188E+01 -0.58795296675E+01  0.15153759447E+02  0.00000000000E+00 0.  1.
</event>
<event>
 7    1  0.7470072E-010  0.4778727E+02  0.7816164E-02  0.1312668E+00
        -11   -1    0    0    0    0  0.00000000000E+00  0.00000000000E+00  0.45593999997E+02  0.45594000000E+02  0.51100000000E-03 0. -1.
         11   -1    0    0    0    0 -0.00000000000E+00 -0.00000000000E+00 -0.45593999997E+02  0.45594000000E+02  0.51100000000E-03 0.  1.
    9900012    2    1    2    0    0 -0.29733616062E+02 -0.78949337944E+01 -0.30613811870E+02  0.47787269811E+02  0.19999994374E+02 0.  0.
         12    1    1    2    0    0  0.29733616062E+02  0.78949337944E+01  0.30613811870E+02  0.43400730189E+02  0.00000000000E+00 0. -1.
         11    1    3    3    0    0 -0.14500466983E+02  0.33763868285E+01 -0.77137036696E+01  0.16767968133E+02  0.51100000000E-03 0. -1.
        -11    1    3    3    0    0 -0.10887624137E+02 -0.42983098034E+01 -0.85931483921E+01  0.14520951279E+02  0.51100000000E-03 0.  1.
         12    1    3    3    0    0 -0.43455249429E+01 -0.69730108195E+01 -0.14306959808E+02  0.16498350398E+02  0.00000000000E+00 0. -1.
</event>
<event>
 7    1  0.7470072E-010  0.4778727E+02  0.7816164E-02  0.1312668E+00
        -11   -1    0    0    0    0  0.00000000000E+00  0.00000000000E+00  0.45593999997E+02  0.45594000000E+02  0.51100000000E-03 0. -1.
         11   -1    0    0    0    0 -0.00000000000E+00 -0.00000000000E+00 -0.45593999997E+02  0.45594000000E+02  0.51100000000E-03 0.  1.
    9900012    2    1    2    0    0 -0.64632097273E+01  0.23468174417E+02  0.35931812927E+02  0.47787268777E+02  0.19999989664E+02 0.  0.
        -12    1    1    2    0    0  0.64632097273E+01 -0.23468174417E+02 -0.35931812927E+02  0.43400731223E+02  0.00000000000E+00 0.  1.
         11    1    3    3    0    0  0.82450028006E+00  0.23960718522E+02  0.27632988117E+02  0.36583847055E+02  0.51100000000E-03 0. -1.
        -11    1    3    3    0    0 -0.44475127467E+01  0.54473336061E+00  0.53696277890E+01  0.69935689687E+01  0.51100000000E-03 0.  1.
         12    1    3    3    0    0 -0.28401972607E+01 -0.10372774659E+01  0.29291970208E+01  0.42098527537E+01  0.00000000000E+00 0. -1.
</event>
<event>
 7    1  0.7879026E-010  0.4778727E+02  0.7816164E-02  0.1312668E+00
        -11   -1    0    0    0    0  0.00000000000E+00  0.00000000000E+00  0.45593999997E+02  0.45594000000E+02  0.51100000000E-03 0. -1.
         11   -1    0    0    0    0 -0.00000000000E+00 -0.00000000000E+00 -0.45593999997E+02  0.45594000000E+02  0.51100000000E-03 0.  1.
    9900012    2    1    2    0    0  0.21945755569E+02  0.66709307796E+01 -0.36844344800E+02  0.47787271334E+02  0.20000001322E+02 0.  0.
         12    1    1    2    0    0 -0.21945755569E+02 -0.66709307796E+01  0.36844344800E+02  0.43400728666E+02  0.00000000000E+00 0. -1.
         11    1    3    3    0    0  0.78149594864E+01 -0.94420825390E+00 -0.15694938330E+01  0.80267323460E+01  0.51100000000E-03 0.  1.
        -11    1    3    3    0    0  0.66429103192E+01  0.84906941515E+01 -0.19691671440E+02  0.22449544963E+02  0.51100000000E-03 0. -1.
        -12    1    3    3    0    0  0.74878857634E+01 -0.87555511805E+00 -0.15583179528E+02  0.17310994026E+02  0.00000000000E+00 0.  1.
</event>
<event>
 7    1  0.7470072E-010  0.4778727E+02  0.7816164E-02  0.1312668E+00
        -11   -1    0    0    0    0  0.00000000000E+00  0.00000000000E+00  0.45593999997E+02  0.45594000000E+02  0.51100000000E-03 0. -1.
         11   -1    0    0    0    0 -0.00000000000E+00 -0.00000000000E+00 -0.45593999997E+02  0.45594000000E+02  0.51100000000E-03 0.  1.
    9900012    2    1    2    0    0  0.39265724325E+02  0.12814632808E+02 -0.13327088762E+02  0.47787271715E+02  0.20000003058E+02 0.  0.
         12    1    1    2    0    0 -0.39265724325E+02 -0.12814632808E+02  0.13327088762E+02  0.43400728285E+02  0.00000000000E+00 0. -1.
         11    1    3    3    0    0 -0.17214550735E+01  0.13904377249E+01  0.10927691844E+01  0.24679686766E+01  0.51100000000E-03 0. -1.
        -11    1    3    3    0    0  0.23990946822E+02  0.47156514838E+01 -0.58654526327E+01  0.25143715580E+02  0.51100000000E-03 0.  1.
        -12    1    3    3    0    0  0.16996232577E+02  0.67085435995E+01 -0.85544053142E+01  0.20175587459E+02  0.00000000000E+00 0.  1.
</event>
<event>
 7    1  0.7470072E-010  0.4778727E+02  0.7816164E-02  0.1312668E+00
        -11   -1    0    0    0    0  0.00000000000E+00  0.00000000000E+00  0.45593999997E+02  0.45594000000E+02  0.51100000000E-03 0. -1.
         11   -1    0    0    0    0 -0.00000000000E+00 -0.00000000000E+00 -0.45593999997E+02  0.45594000000E+02  0.51100000000E-03 0.  1.
    9900012    2    1    2    0    0 -0.18778362054E+02 -0.16336245356E+01  0.39093833007E+02  0.47787269710E+02  0.19999993915E+02 0.  0.
        -12    1    1    2    0    0  0.18778362054E+02  0.16336245356E+01 -0.39093833007E+02  0.43400730290E+02  0.00000000000E+00 0.  1.
         11    1    3    3    0    0 -0.98916756701E+01 -0.73170175661E+01  0.31739053884E+02  0.34040439705E+02  0.51100000000E-03 0. -1.
        -11    1    3    3    0    0 -0.38101056846E+01  0.33494240507E+01  0.80315537060E+00  0.51362053707E+01  0.51100000000E-03 0.  1.
         12    1    3    3    0    0 -0.50765806991E+01  0.23339689798E+01  0.65516237527E+01  0.86106246342E+01  0.00000000000E+00 0. -1.
</event>
<event>
 7    1  0.7470072E-010  0.4778727E+02  0.7816164E-02  0.1312668E+00
        -11   -1    0    0    0    0  0.00000000000E+00  0.00000000000E+00  0.45593999997E+02  0.45594000000E+02  0.51100000000E-03 0. -1.
         11   -1    0    0    0    0 -0.00000000000E+00 -0.00000000000E+00 -0.45593999997E+02  0.45594000000E+02  0.51100000000E-03 0.  1.
    9900012    2    1    2    0    0  0.82437414604E+00 -0.43312886300E+02 -0.26339100649E+01  0.47787271957E+02  0.20000004163E+02 0.  0.
         12    1    1    2    0    0 -0.82437414604E+00  0.43312886300E+02  0.26339100649E+01  0.43400728043E+02  0.00000000000E+00 0. -1.
         11    1    3    3    0    0  0.15919583358E+01 -0.83476866571E+01  0.37486038126E+01  0.92881771448E+01  0.51100000000E-03 0. -1.
        -11    1    3    3    0    0 -0.44904893312E+01 -0.21864930743E+02  0.21554015471E+01  0.22425107512E+02  0.51100000000E-03 0.  1.
        -12    1    3    3    0    0  0.37229051414E+01 -0.13100268900E+02 -0.85379154246E+01  0.16073987300E+02  0.00000000000E+00 0.  1.
</event>
<event>
 7    1  0.7470072E-010  0.4778728E+02  0.7816164E-02  0.1312668E+00
        -11   -1    0    0    0    0  0.00000000000E+00  0.00000000000E+00  0.45593999997E+02  0.45594000000E+02  0.51100000000E-03 0. -1.
         11   -1    0    0    0    0 -0.00000000000E+00 -0.00000000000E+00 -0.45593999997E+02  0.45594000000E+02  0.51100000000E-03 0.  1.
    9900012    2    1    2    0    0  0.35753296460E+02  0.23602230644E+02  0.69468982918E+01  0.47787275409E+02  0.20000019901E+02 0.  0.
        -12    1    1    2    0    0 -0.35753296460E+02 -0.23602230644E+02 -0.69468982918E+01  0.43400724591E+02  0.00000000000E+00 0.  1.
         11    1    3    3    0    0  0.20673136082E+02  0.73199187783E+01  0.10701534297E+02  0.24402512226E+02  0.51100000000E-03 0. -1.
        -11    1    3    3    0    0  0.13868585560E+02  0.14382434489E+02 -0.12546507050E+01  0.20019146733E+02  0.51100000000E-03 0.  1.
         12    1    3    3    0    0  0.12115748181E+01  0.18998773768E+01 -0.24999853003E+01  0.33656164500E+01  0.00000000000E+00 0. -1.
</event>
<event>
 7    1  0.7470072E-010  0.4778727E+02  0.7816164E-02  0.1312668E+00
        -11   -1    0    0    0    0  0.00000000000E+00  0.00000000000E+00  0.45593999997E+02  0.45594000000E+02  0.51100000000E-03 0. -1.
         11   -1    0    0    0    0 -0.00000000000E+00 -0.00000000000E+00 -0.45593999997E+02  0.45594000000E+02  0.51100000000E-03 0.  1.
    9900012    2    1    2    0    0  0.19992749313E+01  0.22183725924E+01  0.43297861849E+02  0.47787272841E+02  0.20000008191E+02 0.  0.
        -12    1    1    2    0    0 -0.19992749313E+01 -0.22183725924E+01 -0.43297861849E+02  0.43400727159E+02  0.00000000000E+00 0.  1.
         11    1    3    3    0    0  0.20261719146E+01 -0.73152019013E+01  0.95135851845E+01  0.12170696562E+02  0.51100000000E-03 0. -1.
        -11    1    3    3    0    0  0.27799263030E+01  0.54109403784E+01  0.21875749771E+02  0.22705829523E+02  0.51100000000E-03 0.  1.
        -12    1    3    3    0    0 -0.28068232863E+01  0.41226341153E+01  0.11908526894E+02  0.12910746756E+02  0.00000000000E+00 0.  1.
</event>
<event>
 7    1  0.7470072E-010  0.4778727E+02  0.7816164E-02  0.1312668E+00
        -11   -1    0    0    0    0  0.00000000000E+00  0.00000000000E+00  0.45593999997E+02  0.45594000000E+02  0.51100000000E-03 0. -1.
         11   -1    0    0    0    0 -0.00000000000E+00 -0.00000000000E+00 -0.45593999997E+02  0.45594000000E+02  0.51100000000E-03 0.  1.
    9900012    2    1    2    0    0 -0.20004999145E+02 -0.22681490529E+02  0.31128334219E+02  0.47787271957E+02  0.20000004161E+02 0.  0.
        -12    1    1    2    0    0  0.20004999145E+02  0.22681490529E+02 -0.31128334219E+02  0.43400728043E+02  0.00000000000E+00 0.  1.
         11    1    3    3    0    0 -0.83994038099E+01 -0.98361023337E+01  0.19248626776E+02  0.23190699137E+02  0.51100000000E-03 0. -1.
        -11    1    3    3    0    0 -0.58534104843E+00 -0.14229717268E+01 -0.26591752400E+01  0.30722444395E+01  0.51100000000E-03 0.  1.
        -12    1    3    3    0    0 -0.11020254287E+02 -0.11422416468E+02  0.14538882684E+02  0.21524328380E+02  0.00000000000E+00 0.  1.
</event>
<event>
 7    1  0.7470072E-010  0.4778727E+02  0.7816164E-02  0.1312668E+00
        -11   -1    0    0    0    0  0.00000000000E+00  0.00000000000E+00  0.45593999997E+02  0.45594000000E+02  0.51100000000E-03 0. -1.
         11   -1    0    0    0    0 -0.00000000000E+00 -0.00000000000E+00 -0.45593999997E+02  0.45594000000E+02  0.51100000000E-03 0.  1.
    9900012    2    1    2    0    0 -0.13027464760E+02 -0.36209665383E+02 -0.20069105301E+02  0.47787266218E+02  0.19999977995E+02 0.  0.
         12    1    1    2    0    0  0.13027464760E+02  0.36209665383E+02  0.20069105301E+02  0.43400733782E+02  0.00000000000E+00 0. -1.
         11    1    3    3    0    0 -0.13274853857E+01 -0.22136178442E+02 -0.81843729548E+01  0.23638032372E+02  0.51100000000E-03 0.  1.
        -11    1    3    3    0    0  0.61084321353E+00 -0.61509338719E+01 -0.51006070873E+01  0.80139447121E+01  0.51100000000E-03 0. -1.
         12    1    3    3    0    0 -0.12310822588E+02 -0.79225530686E+01 -0.67841252594E+01  0.16135289135E+02  0.00000000000E+00 0. -1.
</event>
<event>
 7    1  0.7470072E-010  0.4778727E+02  0.7816164E-02  0.1312668E+00
        -11   -1    0    0    0    0  0.00000000000E+00  0.00000000000E+00  0.45593999997E+02  0.45594000000E+02  0.51100000000E-03 0. -1.
         11   -1    0    0    0    0 -0.00000000000E+00 -0.00000000000E+00 -0.45593999997E+02  0.45594000000E+02  0.51100000000E-03 0.  1.
    9900012    2    1    2    0    0 -0.20915647997E+02 -0.93119533832E+01  0.36870673268E+02  0.47787270120E+02  0.19999995783E+02 0.  0.
        -12    1    1    2    0    0  0.20915647997E+02  0.93119533832E+01 -0.36870673268E+02  0.43400729880E+02  0.00000000000E+00 0.  1.
         11    1    3    3    0    0 -0.12175174726E+02  0.36272360977E+01  0.14257106248E+02  0.19095989111E+02  0.51100000000E-03 0. -1.
        -11    1    3    3    0    0 -0.61731462060E+01 -0.10508001478E+02  0.10546618844E+02  0.16116978576E+02  0.51100000000E-03 0.  1.
         12    1    3    3    0    0 -0.25673270648E+01 -0.24311880033E+01  0.12066948176E+02  0.12574302432E+02  0.00000000000E+00 0. -1.
</event>
<event>
 7    1  0.7470072E-010  0.4778727E+02  0.7816164E-02  0.1312668E+00
        -11   -1    0    0    0    0  0.00000000000E+00  0.00000000000E+00  0.45593999997E+02  0.45594000000E+02  0.51100000000E-03 0. -1.
         11   -1    0    0    0    0 -0.00000000000E+00 -0.00000000000E+00 -0.45593999997E+02  0.45594000000E+02  0.51100000000E-03 0.  1.
    9900012    2    1    2    0    0  0.25356858524E+02 -0.33791248061E+02  0.99400465857E+01  0.47787271367E+02  0.20000001471E+02 0.  0.
        -12    1    1    2    0    0 -0.25356858524E+02  0.33791248061E+02 -0.99400465857E+01  0.43400728633E+02  0.00000000000E+00 0.  1.
         11    1    3    3    0    0  0.21597389274E+02 -0.33051334141E+02  0.27399924866E+01  0.39577082649E+02  0.51100000000E-03 0. -1.
        -11    1    3    3    0    0  0.26097317762E+01 -0.36114395319E+00  0.57241643504E+01  0.63013635565E+01  0.51100000000E-03 0.  1.
         12    1    3    3    0    0  0.11497374734E+01 -0.37876996719E+00  0.14758897487E+01  0.19088251612E+01  0.00000000000E+00 0. -1.
</event>
<event>
 7    1  0.7470072E-010  0.4778730E+02  0.7816164E-02  0.1312668E+00
        -11   -1    0    0    0    0  0.00000000000E+00  0.00000000000E+00  0.45593999997E+02  0.45594000000E+02  0.51100000000E-03 0. -1.
         11   -1    0    0    0    0 -0.00000000000E+00 -0.00000000000E+00 -0.45593999997E+02  0.45594000000E+02  0.51100000000E-03 0.  1.
    9900012    2    1    2    0    0 -0.16135237671E-01  0.37811024166E+02 -0.21306040233E+02  0.47787295407E+02  0.20000111076E+02 0.  0.
         12    1    1    2    0    0  0.16135237671E-01 -0.37811024166E+02  0.21306040233E+02  0.43400704593E+02  0.00000000000E+00 0. -1.
         11    1    3    3    0    0 -0.42912242227E+01  0.10997697972E+02  0.56529424043E+00  0.11818778441E+02  0.51100000000E-03 0. -1.
        -11    1    3    3    0    0  0.61145737615E+01  0.14912297857E+02 -0.95231249031E+01  0.18720431294E+02  0.51100000000E-03 0.  1.
         12    1    3    3    0    0 -0.18394847765E+01  0.11901028337E+02 -0.12348209570E+02  0.17248085671E+02  0.00000000000E+00 0. -1.
</event>
<event>
 7    1  0.7470072E-010  0.4778727E+02  0.7816164E-02  0.1312668E+00
        -11   -1    0    0    0    0  0.00000000000E+00  0.00000000000E+00  0.45593999997E+02  0.45594000000E+02  0.51100000000E-03 0. -1.
         11   -1    0    0    0    0 -0.00000000000E+00 -0.00000000000E+00 -0.45593999997E+02  0.45594000000E+02  0.51100000000E-03 0.  1.
    9900012    2    1    2    0    0 -0.31267532600E+02  0.27664297192E+01 -0.29971843574E+02  0.47787272638E+02  0.20000007265E+02 0.  0.
         12    1    1    2    0    0  0.31267532600E+02 -0.27664297192E+01  0.29971843574E+02  0.43400727362E+02  0.00000000000E+00 0. -1.
         11    1    3    3    0    0 -0.36449398580E+01 -0.12852251411E+01 -0.12698878854E+02  0.13273993922E+02  0.51100000000E-03 0. -1.
        -11    1    3    3    0    0 -0.83193827111E+01 -0.27987113898E+01 -0.85402779286E+01  0.12246683694E+02  0.51100000000E-03 0.  1.
         12    1    3    3    0    0 -0.19303210031E+02  0.68503662500E+01 -0.87326867917E+01  0.22266595022E+02  0.00000000000E+00 0. -1.
</event>
<event>
 7    1  0.7470072E-010  0.4778727E+02  0.7816164E-02  0.1312668E+00
        -11   -1    0    0    0    0  0.00000000000E+00  0.00000000000E+00  0.45593999997E+02  0.45594000000E+02  0.51100000000E-03 0.  1.
         11   -1    0    0    0    0 -0.00000000000E+00 -0.00000000000E+00 -0.45593999997E+02  0.45594000000E+02  0.51100000000E-03 0. -1.
    9900012    2    1    2    0    0  0.36711180837E+02  0.20951370229E+02 -0.98464444216E+01  0.47787272118E+02  0.20000004897E+02 0.  0.
         12    1    1    2    0    0 -0.36711180837E+02 -0.20951370229E+02  0.98464444216E+01  0.43400727882E+02  0.00000000000E+00 0. -1.
         11    1    3    3    0    0  0.67499433238E+01 -0.16235580634E+01 -0.14307295272E-01  0.69424693459E+01  0.51100000000E-03 0. -1.
        -11    1    3    3    0    0  0.12267030863E+02  0.17239317569E+02 -0.55470272625E+01  0.21873354296E+02  0.51100000000E-03 0.  1.
        -12    1    3    3    0    0  0.17694206650E+02  0.53356107238E+01 -0.42851098639E+01  0.18971448477E+02  0.00000000000E+00 0.  1.
</event>
<event>
 7    1  0.7470072E-010  0.4778727E+02  0.7816164E-02  0.1312668E+00
        -11   -1    0    0    0    0  0.00000000000E+00  0.00000000000E+00  0.45593999997E+02  0.45594000000E+02  0.51100000000E-03 0. -1.
         11   -1    0    0    0    0 -0.00000000000E+00 -0.00000000000E+00 -0.45593999997E+02  0.45594000000E+02  0.51100000000E-03 0.  1.
    9900012    2    1    2    0    0 -0.20580577275E+02  0.13998820207E+02  0.35554129359E+02  0.47787271405E+02  0.20000001642E+02 0.  0.
        -12    1    1    2    0    0  0.20580577275E+02 -0.13998820207E+02 -0.35554129359E+02  0.43400728595E+02  0.00000000000E+00 0.  1.
         11    1    3    3    0    0 -0.21872172674E+02  0.10531989849E+02  0.34735961086E+02  0.42378080897E+02  0.51100000000E-03 0. -1.
        -11    1    3    3    0    0  0.23575157181E+01  0.14589841626E+01  0.13362259511E+01  0.30776639195E+01  0.51100000000E-03 0.  1.
         12    1    3    3    0    0 -0.10659203189E+01  0.20078461956E+01 -0.51805767885E+00  0.23315265879E+01  0.00000000000E+00 0. -1.
</event>
<event>
 7    1  0.7470072E-010  0.4778727E+02  0.7816164E-02  0.1312668E+00
        -11   -1    0    0    0    0  0.00000000000E+00  0.00000000000E+00  0.45593999997E+02  0.45594000000E+02  0.51100000000E-03 0. -1.
         11   -1    0    0    0    0 -0.00000000000E+00 -0.00000000000E+00 -0.45593999997E+02  0.45594000000E+02  0.51100000000E-03 0.  1.
    9900012    2    1    2    0    0  0.13394833555E+02  0.36365221942E+02 -0.19538990939E+02  0.47787273050E+02  0.20000009144E+02 0.  0.
         12    1    1    2    0    0 -0.13394833555E+02 -0.36365221942E+02  0.19538990939E+02  0.43400726950E+02  0.00000000000E+00 0. -1.
         11    1    3    3    0    0  0.81174844391E+01  0.33274636750E+01 -0.50974591921E+01  0.10146411119E+02  0.51100000000E-03 0. -1.
        -11    1    3    3    0    0  0.37734499069E+01  0.26212353475E+02 -0.69166191215E+01  0.27370897304E+02  0.51100000000E-03 0.  1.
        -12    1    3    3    0    0  0.15038992093E+01  0.68254047917E+01 -0.75249126257E+01  0.10269964626E+02  0.00000000000E+00 0.  1.
</event>
<event>
 7    1  0.7470072E-010  0.4778727E+02  0.7816164E-02  0.1312668E+00
        -11   -1    0    0    0    0  0.00000000000E+00  0.00000000000E+00  0.45593999997E+02  0.45594000000E+02  0.51100000000E-03 0. -1.
         11   -1    0    0    0    0 -0.00000000000E+00 -0.00000000000E+00 -0.45593999997E+02  0.45594000000E+02  0.51100000000E-03 0.  1.
    9900012    2    1    2    0    0  0.21399946993E+02 -0.15519683286E+02  0.34420997813E+02  0.47787269694E+02  0.19999993844E+02 0.  0.
        -12    1    1    2    0    0 -0.21399946993E+02  0.15519683286E+02 -0.34420997813E+02  0.43400730306E+02  0.00000000000E+00 0.  1.
         11    1    3    3    0    0  0.15036236388E+02 -0.15608659324E+02  0.24339870621E+02  0.32590611420E+02  0.51100000000E-03 0. -1.
        -11    1    3    3    0    0  0.83808372708E+01  0.19224187560E+01  0.82243279075E+01  0.11898474567E+02  0.51100000000E-03 0.  1.
        -12    1    3    3    0    0 -0.20171266655E+01 -0.18334427175E+01  0.18567992851E+01  0.32981837074E+01  0.00000000000E+00 0.  1.
</event>
<event>
 7    1  0.7470072E-010  0.4778727E+02  0.7816164E-02  0.1312668E+00
        -11   -1    0    0    0    0  0.00000000000E+00  0.00000000000E+00  0.45593999997E+02  0.45594000000E+02  0.51100000000E-03 0. -1.
         11   -1    0    0    0    0 -0.00000000000E+00 -0.00000000000E+00 -0.45593999997E+02  0.45594000000E+02  0.51100000000E-03 0.  1.
    9900012    2    1    2    0    0 -0.10134635834E+02 -0.24441035849E+01 -0.42130020965E+02  0.47787272445E+02  0.20000006386E+02 0.  0.
         12    1    1    2    0    0  0.10134635834E+02  0.24441035849E+01  0.42130020965E+02  0.43400727555E+02  0.00000000000E+00 0. -1.
         11    1    3    3    0    0  0.57960043490E+01 -0.30332503821E+01 -0.10691626277E+02  0.12534159206E+02  0.51100000000E-03 0. -1.
        -11    1    3    3    0    0 -0.96956578589E+01  0.16339631063E+00 -0.18746441088E+02  0.21105959666E+02  0.51100000000E-03 0.  1.
         12    1    3    3    0    0 -0.62349823236E+01  0.42575048659E+00 -0.12691953600E+02  0.14147153573E+02  0.00000000000E+00 0. -1.
</event>
<event>
 7    1  0.7470072E-010  0.4778727E+02  0.7816164E-02  0.1312668E+00
        -11   -1    0    0    0    0  0.00000000000E+00  0.00000000000E+00  0.45593999997E+02  0.45594000000E+02  0.51100000000E-03 0. -1.
         11   -1    0    0    0    0 -0.00000000000E+00 -0.00000000000E+00 -0.45593999997E+02  0.45594000000E+02  0.51100000000E-03 0.  1.
    9900012    2    1    2    0    0 -0.31171512985E+02  0.19918683903E+02  0.22698147150E+02  0.47787273344E+02  0.20000010485E+02 0.  0.
        -12    1    1    2    0    0  0.31171512985E+02 -0.19918683903E+02 -0.22698147150E+02  0.43400726656E+02  0.00000000000E+00 0.  1.
         11    1    3    3    0    0 -0.96885328225E+01  0.41268134562E+01  0.79248057824E+01  0.13179560103E+02  0.51100000000E-03 0. -1.
        -11    1    3    3    0    0 -0.14258725816E+02  0.56478696191E+00  0.85868553672E+01  0.16654258661E+02  0.51100000000E-03 0.  1.
        -12    1    3    3    0    0 -0.72242543470E+01  0.15227083485E+02  0.61864860007E+01  0.17953454580E+02  0.00000000000E+00 0.  1.
</event>
<event>
 7    1  0.7470072E-010  0.4778725E+02  0.7816164E-02  0.1312668E+00
        -11   -1    0    0    0    0  0.00000000000E+00  0.00000000000E+00  0.45593999997E+02  0.45594000000E+02  0.51100000000E-03 0. -1.
         11   -1    0    0    0    0 -0.00000000000E+00 -0.00000000000E+00 -0.45593999997E+02  0.45594000000E+02  0.51100000000E-03 0.  1.
    9900012    2    1    2    0    0 -0.20679647737E+02  0.24872326682E+02 -0.28936903594E+02  0.47787252833E+02  0.19999916964E+02 0.  0.
         12    1    1    2    0    0  0.20679647737E+02 -0.24872326682E+02  0.28936903594E+02  0.43400747167E+02  0.00000000000E+00 0. -1.
         11    1    3    3    0    0 -0.51429961824E+01  0.92985006232E+00 -0.48713407494E+01  0.71445777922E+01  0.51100000000E-03 0. -1.
        -11    1    3    3    0    0 -0.34794350968E+01  0.82508427076E+00  0.17240841333E+01  0.39698487385E+01  0.51100000000E-03 0.  1.
        -12    1    3    3    0    0 -0.12057216458E+02  0.23117392349E+02 -0.25789646977E+02  0.36672826302E+02  0.00000000000E+00 0.  1.
</event>
<event>
 7    1  0.7470072E-010  0.4778727E+02  0.7816164E-02  0.1312668E+00
        -11   -1    0    0    0    0  0.00000000000E+00  0.00000000000E+00  0.45593999997E+02  0.45594000000E+02  0.51100000000E-03 0. -1.
         11   -1    0    0    0    0 -0.00000000000E+00 -0.00000000000E+00 -0.45593999997E+02  0.45594000000E+02  0.51100000000E-03 0.  1.
    9900012    2    1    2    0    0 -0.13554432135E+02 -0.14893543430E+02  0.38445844778E+02  0.47787271353E+02  0.20000001408E+02 0.  0.
        -12    1    1    2    0    0  0.13554432135E+02  0.14893543430E+02 -0.38445844778E+02  0.43400728647E+02  0.00000000000E+00 0.  1.
         11    1    3    3    0    0 -0.12290475104E+00 -0.15652169815E+01  0.17417807762E+02  0.17488425809E+02  0.51100000000E-03 0. -1.
        -11    1    3    3    0    0 -0.14942538525E+02 -0.10413257367E+02  0.15728113799E+02  0.24064267088E+02  0.51100000000E-03 0.  1.
        -12    1    3    3    0    0  0.15110111412E+01 -0.29150690812E+01  0.52999232168E+01  0.62345784557E+01  0.00000000000E+00 0.  1.
</event>
<event>
 7    1  0.7470072E-010  0.4778727E+02  0.7816164E-02  0.1312668E+00
        -11   -1    0    0    0    0  0.00000000000E+00  0.00000000000E+00  0.45593999997E+02  0.45594000000E+02  0.51100000000E-03 0. -1.
         11   -1    0    0    0    0 -0.00000000000E+00 -0.00000000000E+00 -0.45593999997E+02  0.45594000000E+02  0.51100000000E-03 0.  1.
    9900012    2    1    2    0    0 -0.21826419658E+02  0.87649781932E+01  0.36474724400E+02  0.47787274685E+02  0.20000016599E+02 0.  0.
        -12    1    1    2    0    0  0.21826419658E+02 -0.87649781932E+01 -0.36474724400E+02  0.43400725315E+02  0.00000000000E+00 0.  1.
         11    1    3    3    0    0 -0.12123996349E+02  0.10719540904E+02  0.33275027855E+02  0.37001720551E+02  0.51100000000E-03 0. -1.
        -11    1    3    3    0    0 -0.68350726690E+01 -0.47424243634E+00  0.31921166320E+01  0.75586197902E+01  0.51100000000E-03 0.  1.
         12    1    3    3    0    0 -0.28673506398E+01 -0.14803202746E+01  0.75799128105E-02  0.32269343442E+01  0.00000000000E+00 0. -1.
</event>
<event>
 7    1  0.9041697E-010  0.4778727E+02  0.7816164E-02  0.1312668E+00
        -11   -1    0    0    0    0  0.00000000000E+00  0.00000000000E+00  0.45593999997E+02  0.45594000000E+02  0.51100000000E-03 0. -1.
         11   -1    0    0    0    0 -0.00000000000E+00 -0.00000000000E+00 -0.45593999997E+02  0.45594000000E+02  0.51100000000E-03 0.  1.
    9900012    2    1    2    0    0  0.14647302113E+02  0.16569900269E+02  0.37343247660E+02  0.47787271896E+02  0.20000003883E+02 0.  0.
        -12    1    1    2    0    0 -0.14647302113E+02 -0.16569900269E+02 -0.37343247660E+02  0.43400728104E+02  0.00000000000E+00 0.  1.
         11    1    3    3    0    0  0.12680427060E+02  0.32116066549E+01  0.16260497916E+02  0.20868910860E+02  0.51100000000E-03 0. -1.
        -11    1    3    3    0    0 -0.36677036458E+01  0.31812962633E+01  0.42221108634E+01  0.64341989674E+01  0.51100000000E-03 0.  1.
         12    1    3    3    0    0  0.56345786988E+01  0.10176997351E+02  0.16860638880E+02  0.20484162069E+02  0.00000000000E+00 0. -1.
</event>
<event>
 7    1  0.7470072E-010  0.4778729E+02  0.7816164E-02  0.1312668E+00
        -11   -1    0    0    0    0  0.00000000000E+00  0.00000000000E+00  0.45593999997E+02  0.45594000000E+02  0.51100000000E-03 0. -1.
         11   -1    0    0    0    0 -0.00000000000E+00 -0.00000000000E+00 -0.45593999997E+02  0.45594000000E+02  0.51100000000E-03 0.  1.
    9900012    2    1    2    0    0  0.18772279453E+01 -0.71544019937E+01  0.42765782752E+02  0.47787290017E+02  0.20000086504E+02 0.  0.
        -12    1    1    2    0    0 -0.18772279453E+01  0.71544019937E+01 -0.42765782752E+02  0.43400709983E+02  0.00000000000E+00 0.  1.
         11    1    3    3    0    0 -0.72249558008E+01 -0.41517452190E+01  0.11923735078E+02  0.14546904590E+02  0.51100000000E-03 0. -1.
        -11    1    3    3    0    0  0.12875390042E+01 -0.36374571832E+01  0.55393246685E+01  0.67507754733E+01  0.51100000000E-03 0.  1.
         12    1    3    3    0    0  0.78146447419E+01  0.63480040854E+00  0.25302723006E+02  0.26489609954E+02  0.00000000000E+00 0. -1.
</event>
<event>
 7    1  0.7470072E-010  0.4778727E+02  0.7816164E-02  0.1312668E+00
        -11   -1    0    0    0    0  0.00000000000E+00  0.00000000000E+00  0.45593999997E+02  0.45594000000E+02  0.51100000000E-03 0.  1.
         11   -1    0    0    0    0 -0.00000000000E+00 -0.00000000000E+00 -0.45593999997E+02  0.45594000000E+02  0.51100000000E-03 0. -1.
    9900012    2    1    2    0    0  0.16794580269E+02 -0.38267997864E+02  0.11710069268E+02  0.47787270637E+02  0.19999998143E+02 0.  0.
        -12    1    1    2    0    0 -0.16794580269E+02  0.38267997864E+02 -0.11710069268E+02  0.43400729363E+02  0.00000000000E+00 0.  1.
         11    1    3    3    0    0  0.14312879161E+02 -0.20352415858E+02  0.23365608313E+01  0.24990775456E+02  0.51100000000E-03 0. -1.
        -11    1    3    3    0    0  0.15848269327E+01 -0.17603817995E+02  0.11067777238E+02  0.20854298781E+02  0.51100000000E-03 0.  1.
         12    1    3    3    0    0  0.89687417479E+00 -0.31176401177E+00 -0.16942688009E+01  0.19421963995E+01  0.00000000000E+00 0. -1.
</event>
<event>
 7    1  0.7470072E-010  0.4778727E+02  0.7816164E-02  0.1312668E+00
        -11   -1    0    0    0    0  0.00000000000E+00  0.00000000000E+00  0.45593999997E+02  0.45594000000E+02  0.51100000000E-03 0. -1.
         11   -1    0    0    0    0 -0.00000000000E+00 -0.00000000000E+00 -0.45593999997E+02  0.45594000000E+02  0.51100000000E-03 0.  1.
    9900012    2    1    2    0    0  0.17603561471E+02 -0.14233917816E+02  0.37028817647E+02  0.47787272711E+02  0.20000007599E+02 0.  0.
        -12    1    1    2    0    0 -0.17603561471E+02  0.14233917816E+02 -0.37028817647E+02  0.43400727289E+02  0.00000000000E+00 0.  1.
         11    1    3    3    0    0 -0.16160945111E+01 -0.35382004245E+01  0.15830263541E+02  0.16301161546E+02  0.51100000000E-03 0. -1.
        -11    1    3    3    0    0  0.24453666782E-01 -0.12997261733E+01 -0.11269146794E+00  0.13048316886E+01  0.51100000000E-03 0.  1.
         12    1    3    3    0    0  0.19195202316E+02 -0.93959912186E+01  0.21311245574E+02  0.30181279476E+02  0.00000000000E+00 0. -1.
</event>
<event>
 7    1  0.7470072E-010  0.4778729E+02  0.7816164E-02  0.1312668E+00
        -11   -1    0    0    0    0  0.00000000000E+00  0.00000000000E+00  0.45593999997E+02  0.45594000000E+02  0.51100000000E-03 0. -1.
         11   -1    0    0    0    0 -0.00000000000E+00 -0.00000000000E+00 -0.45593999997E+02  0.45594000000E+02  0.51100000000E-03 0.  1.
    9900012    2    1    2    0    0  0.78848001770E+01  0.94611038793E+01  0.41616567329E+02  0.47787294514E+02  0.20000107008E+02 0.  0.
        -12    1    1    2    0    0 -0.78848001770E+01 -0.94611038793E+01 -0.41616567329E+02  0.43400705486E+02  0.00000000000E+00 0.  1.
         11    1    3    3    0    0  0.43234362578E+01  0.39891829712E+01  0.15221905584E+02  0.16319071411E+02  0.51100000000E-03 0. -1.
        -11    1    3    3    0    0 -0.39964724008E+00  0.31015455809E+01  0.26661648356E+02  0.26844418344E+02  0.51100000000E-03 0.  1.
        -12    1    3    3    0    0  0.39610111593E+01  0.23703753271E+01 -0.26698661177E+00  0.46238047587E+01  0.00000000000E+00 0.  1.
</event>
<event>
 7    1  0.7470072E-010  0.4778727E+02  0.7816164E-02  0.1312668E+00
        -11   -1    0    0    0    0  0.00000000000E+00  0.00000000000E+00  0.45593999997E+02  0.45594000000E+02  0.51100000000E-03 0. -1.
         11   -1    0    0    0    0 -0.00000000000E+00 -0.00000000000E+00 -0.45593999997E+02  0.45594000000E+02  0.51100000000E-03 0.  1.
    9900012    2    1    2    0    0 -0.42136071844E+02  0.28061496445E-01 -0.10400665499E+02  0.47787272117E+02  0.20000004892E+02 0.  0.
         12    1    1    2    0    0  0.42136071844E+02 -0.28061496445E-01  0.10400665499E+02  0.43400727883E+02  0.00000000000E+00 0. -1.
         11    1    3    3    0    0 -0.35210878307E+01 -0.31743878636E+01 -0.81012790547E+00  0.48094807728E+01  0.51100000000E-03 0. -1.
        -11    1    3    3    0    0 -0.16785690747E+02  0.99198731828E+00  0.38463985394E+01  0.17249296643E+02  0.51100000000E-03 0.  1.
        -12    1    3    3    0    0 -0.21829293267E+02  0.22104620418E+01 -0.13436936133E+02  0.25728494702E+02  0.00000000000E+00 0.  1.
</event>
<event>
 7    1  0.7470072E-010  0.4778724E+02  0.7816164E-02  0.1312668E+00
        -11   -1    0    0    0    0  0.00000000000E+00  0.00000000000E+00  0.45593999997E+02  0.45594000000E+02  0.51100000000E-03 0.  1.
         11   -1    0    0    0    0 -0.00000000000E+00 -0.00000000000E+00 -0.45593999997E+02  0.45594000000E+02  0.51100000000E-03 0. -1.
    9900012    2    1    2    0    0 -0.49254309047E+01 -0.38179112114E+02  0.20043000019E+02  0.47787235938E+02  0.19999839934E+02 0.  0.
        -12    1    1    2    0    0  0.49254309047E+01  0.38179112114E+02 -0.20043000019E+02  0.43400764062E+02  0.00000000000E+00 0.  1.
         11    1    3    3    0    0 -0.41992559196E+01 -0.32049449917E+02  0.12611241262E+02  0.34696460867E+02  0.51100000000E-03 0. -1.
        -11    1    3    3    0    0  0.38201527917E+01 -0.38917292884E+01  0.24284132350E+01  0.59696160100E+01  0.51100000000E-03 0.  1.
         12    1    3    3    0    0 -0.45463277768E+01 -0.22379329088E+01  0.50033455218E+01  0.71211590608E+01  0.00000000000E+00 0. -1.
</event>
<event>
 7    1  0.7470072E-010  0.4778727E+02  0.7816164E-02  0.1312668E+00
        -11   -1    0    0    0    0  0.00000000000E+00  0.00000000000E+00  0.45593999997E+02  0.45594000000E+02  0.51100000000E-03 0. -1.
         11   -1    0    0    0    0 -0.00000000000E+00 -0.00000000000E+00 -0.45593999997E+02  0.45594000000E+02  0.51100000000E-03 0.  1.
    9900012    2    1    2    0    0 -0.37430440927E+02  0.18477041134E+02 -0.11882096497E+02  0.47787272193E+02  0.20000005236E+02 0.  0.
         12    1    1    2    0    0  0.37430440927E+02 -0.18477041134E+02  0.11882096497E+02  0.43400727807E+02  0.00000000000E+00 0. -1.
         11    1    3    3    0    0 -0.34256939794E+02  0.14141525568E+02 -0.11236556374E+02  0.38727004388E+02  0.51100000000E-03 0.  1.
        -11    1    3    3    0    0 -0.30400031352E+00  0.40627599630E+01 -0.32219899728E+01  0.51941942930E+01  0.51100000000E-03 0. -1.
         12    1    3    3    0    0 -0.28695008196E+01  0.27275560246E+00  0.25764498499E+01  0.38660735122E+01  0.00000000000E+00 0. -1.
</event>
<event>
 7    1  0.7470072E-010  0.4778727E+02  0.7816164E-02  0.1312668E+00
        -11   -1    0    0    0    0  0.00000000000E+00  0.00000000000E+00  0.45593999997E+02  0.45594000000E+02  0.51100000000E-03 0.  1.
         11   -1    0    0    0    0 -0.00000000000E+00 -0.00000000000E+00 -0.45593999997E+02  0.45594000000E+02  0.51100000000E-03 0. -1.
    9900012    2    1    2    0    0  0.36026191672E+02  0.24185736808E+02 -0.88730595258E+00  0.47787266559E+02  0.19999979550E+02 0.  0.
         12    1    1    2    0    0 -0.36026191672E+02 -0.24185736808E+02  0.88730595258E+00  0.43400733441E+02  0.00000000000E+00 0. -1.
         11    1    3    3    0    0  0.52293552742E+01  0.76031067453E+00 -0.60773664004E+00  0.53191703291E+01  0.51100000000E-03 0. -1.
        -11    1    3    3    0    0  0.23191711250E+02  0.69039795834E+01  0.11448891672E+01  0.24224598578E+02  0.51100000000E-03 0.  1.
        -12    1    3    3    0    0  0.76051251476E+01  0.16521446550E+02 -0.14244584797E+01  0.18243497652E+02  0.00000000000E+00 0.  1.
</event>
<event>
 7    1  0.7470072E-010  0.4778726E+02  0.7816164E-02  0.1312668E+00
        -11   -1    0    0    0    0  0.00000000000E+00  0.00000000000E+00  0.45593999997E+02  0.45594000000E+02  0.51100000000E-03 0. -1.
         11   -1    0    0    0    0 -0.00000000000E+00 -0.00000000000E+00 -0.45593999997E+02  0.45594000000E+02  0.51100000000E-03 0.  1.
    9900012    2    1    2    0    0  0.28025087746E+02  0.19423923979E+02  0.26850138604E+02  0.47787259120E+02  0.19999945631E+02 0.  0.
        -12    1    1    2    0    0 -0.28025087746E+02 -0.19423923979E+02 -0.26850138604E+02  0.43400740880E+02  0.00000000000E+00 0.  1.
         11    1    3    3    0    0  0.33504767103E+01 -0.15459394625E+01  0.11141203758E+02  0.11736355672E+02  0.51100000000E-03 0. -1.
        -11    1    3    3    0    0  0.19972275820E+02  0.16944791025E+02  0.11776863453E+02  0.28717803839E+02  0.51100000000E-03 0.  1.
         12    1    3    3    0    0  0.47023352159E+01  0.40250724158E+01  0.39320713926E+01  0.73330996087E+01  0.00000000000E+00 0. -1.
</event>
<event>
 7    1  0.7470072E-010  0.4778727E+02  0.7816164E-02  0.1312668E+00
        -11   -1    0    0    0    0  0.00000000000E+00  0.00000000000E+00  0.45593999997E+02  0.45594000000E+02  0.51100000000E-03 0. -1.
         11   -1    0    0    0    0 -0.00000000000E+00 -0.00000000000E+00 -0.45593999997E+02  0.45594000000E+02  0.51100000000E-03 0.  1.
    9900012    2    1    2    0    0  0.11941044120E+02  0.39202337674E+02 -0.14290267942E+02  0.47787267614E+02  0.19999984361E+02 0.  0.
         12    1    1    2    0    0 -0.11941044120E+02 -0.39202337674E+02  0.14290267942E+02  0.43400732386E+02  0.00000000000E+00 0. -1.
         11    1    3    3    0    0  0.22458273373E+01  0.56967993294E+01  0.38362037565E+01  0.72259063481E+01  0.51100000000E-03 0. -1.
        -11    1    3    3    0    0  0.13551669497E+01  0.21632737305E+02 -0.12332604771E+02  0.24938022004E+02  0.51100000000E-03 0.  1.
         12    1    3    3    0    0  0.83400498325E+01  0.11872801040E+02 -0.57938669274E+01  0.15623339262E+02  0.00000000000E+00 0. -1.
</event>
<event>
 7    1  0.7470072E-010  0.4778727E+02  0.7816164E-02  0.1312668E+00
        -11   -1    0    0    0    0  0.00000000000E+00  0.00000000000E+00  0.45593999997E+02  0.45594000000E+02  0.51100000000E-03 0. -1.
         11   -1    0    0    0    0 -0.00000000000E+00 -0.00000000000E+00 -0.45593999997E+02  0.45594000000E+02  0.51100000000E-03 0.  1.
    9900012    2    1    2    0    0 -0.17242256255E+02 -0.39770516207E+02  0.21526668735E+01  0.47787270342E+02  0.19999996798E+02 0.  0.
         12    1    1    2    0    0  0.17242256255E+02  0.39770516207E+02 -0.21526668735E+01  0.43400729658E+02  0.00000000000E+00 0. -1.
         11    1    3    3    0    0  0.21095190426E+01  0.22660883090E+00 -0.75595527656E+00  0.22523078819E+01  0.51100000000E-03 0. -1.
        -11    1    3    3    0    0 -0.19098369084E+02 -0.33766167842E+02  0.46228415662E+01  0.39067537122E+02  0.51100000000E-03 0.  1.
        -12    1    3    3    0    0 -0.25340621315E+00 -0.62309571968E+01 -0.17142194162E+01  0.64674253381E+01  0.00000000000E+00 0.  1.
</event>
<event>
 7    1  0.7470072E-010  0.4778727E+02  0.7816164E-02  0.1312668E+00
        -11   -1    0    0    0    0  0.00000000000E+00  0.00000000000E+00  0.45593999997E+02  0.45594000000E+02  0.51100000000E-03 0.  1.
         11   -1    0    0    0    0 -0.00000000000E+00 -0.00000000000E+00 -0.45593999997E+02  0.45594000000E+02  0.51100000000E-03 0. -1.
    9900012    2    1    2    0    0  0.31981164136E+02  0.98530308383E+01  0.27635964851E+02  0.47787266949E+02  0.19999981325E+02 0.  0.
        -12    1    1    2    0    0 -0.31981164136E+02 -0.98530308383E+01 -0.27635964851E+02  0.43400733051E+02  0.00000000000E+00 0.  1.
         11    1    3    3    0    0  0.13663300515E+02  0.81495103700E+01  0.10297445887E+02  0.18950928534E+02  0.51100000000E-03 0. -1.
        -11    1    3    3    0    0 -0.17746529726E+01 -0.16476957202E+01  0.33171107145E+01  0.41070084140E+01  0.51100000000E-03 0.  1.
        -12    1    3    3    0    0  0.20092516593E+02  0.33512161885E+01  0.14021408249E+02  0.24729330001E+02  0.00000000000E+00 0.  1.
</event>
<event>
 7    1  0.7470072E-010  0.4778727E+02  0.7816164E-02  0.1312668E+00
        -11   -1    0    0    0    0  0.00000000000E+00  0.00000000000E+00  0.45593999997E+02  0.45594000000E+02  0.51100000000E-03 0.  1.
         11   -1    0    0    0    0 -0.00000000000E+00 -0.00000000000E+00 -0.45593999997E+02  0.45594000000E+02  0.51100000000E-03 0. -1.
    9900012    2    1    2    0    0  0.18622725507E+02 -0.38375793276E+02  0.80072203276E+01  0.47787274288E+02  0.20000014790E+02 0.  0.
         12    1    1    2    0    0 -0.18622725507E+02  0.38375793276E+02 -0.80072203276E+01  0.43400725712E+02  0.00000000000E+00 0. -1.
         11    1    3    3    0    0  0.13518474323E+02 -0.33196851088E+02  0.78906185424E+01  0.36702069852E+02  0.51100000000E-03 0.  1.
        -11    1    3    3    0    0  0.15679159068E+01 -0.68029455018E+01 -0.96155824012E+00  0.70471996070E+01  0.51100000000E-03 0. -1.
         12    1    3    3    0    0  0.35363352780E+01  0.16240033135E+01  0.10781600253E+01  0.40380048293E+01  0.00000000000E+00 0. -1.
</event>
<event>
 7    1  0.7470072E-010  0.4778727E+02  0.7816164E-02  0.1312668E+00
        -11   -1    0    0    0    0  0.00000000000E+00  0.00000000000E+00  0.45593999997E+02  0.45594000000E+02  0.51100000000E-03 0. -1.
         11   -1    0    0    0    0 -0.00000000000E+00 -0.00000000000E+00 -0.45593999997E+02  0.45594000000E+02  0.51100000000E-03 0.  1.
    9900012    2    1    2    0    0  0.26075719086E+02  0.12663378305E+02 -0.32300448219E+02  0.47787271537E+02  0.20000002247E+02 0.  0.
         12    1    1    2    0    0 -0.26075719086E+02 -0.12663378305E+02  0.32300448219E+02  0.43400728463E+02  0.00000000000E+00 0. -1.
         11    1    3    3    0    0  0.15388723656E+01  0.10014924326E+02 -0.68689506193E+01  0.12241295695E+02  0.51100000000E-03 0. -1.
        -11    1    3    3    0    0  0.21388071242E+02  0.14133344153E+01 -0.22410365053E+02  0.31010829845E+02  0.51100000000E-03 0.  1.
         12    1    3    3    0    0  0.31487754788E+01  0.12351195637E+01 -0.30211325465E+01  0.45351459972E+01  0.00000000000E+00 0. -1.
</event>
<event>
 7    1  0.7470072E-010  0.4778727E+02  0.7816164E-02  0.1312668E+00
        -11   -1    0    0    0    0  0.00000000000E+00  0.00000000000E+00  0.45593999997E+02  0.45594000000E+02  0.51100000000E-03 0.  1.
         11   -1    0    0    0    0 -0.00000000000E+00 -0.00000000000E+00 -0.45593999997E+02  0.45594000000E+02  0.51100000000E-03 0. -1.
    9900012    2    1    2    0    0  0.25170769154E+02 -0.28658931517E+02 -0.20705584692E+02  0.47787271746E+02  0.20000003200E+02 0.  0.
         12    1    1    2    0    0 -0.25170769154E+02  0.28658931517E+02  0.20705584692E+02  0.43400728254E+02  0.00000000000E+00 0. -1.
         11    1    3    3    0    0 -0.56840586849E+00 -0.12834612124E+01  0.29800907858E+01  0.32941310338E+01  0.51100000000E-03 0. -1.
        -11    1    3    3    0    0  0.22576294568E+02 -0.23428737406E+02 -0.19533341687E+02  0.37949258894E+02  0.51100000000E-03 0.  1.
         12    1    3    3    0    0  0.31628804541E+01 -0.39467328992E+01 -0.41523337911E+01  0.65438818187E+01  0.00000000000E+00 0. -1.
</event>
<event>
 7    1  0.7470072E-010  0.4778727E+02  0.7816164E-02  0.1312668E+00
        -11   -1    0    0    0    0  0.00000000000E+00  0.00000000000E+00  0.45593999997E+02  0.45594000000E+02  0.51100000000E-03 0. -1.
         11   -1    0    0    0    0 -0.00000000000E+00 -0.00000000000E+00 -0.45593999997E+02  0.45594000000E+02  0.51100000000E-03 0.  1.
    9900012    2    1    2    0    0 -0.30839357662E+02 -0.84183879210E+01  0.29354522347E+02  0.47787271684E+02  0.20000002916E+02 0.  0.
        -12    1    1    2    0    0  0.30839357662E+02  0.84183879210E+01 -0.29354522347E+02  0.43400728316E+02  0.00000000000E+00 0.  1.
         11    1    3    3    0    0 -0.68295351206E+01  0.24017456617E+01  0.16904853997E+02  0.18389807533E+02  0.51100000000E-03 0. -1.
        -11    1    3    3    0    0 -0.23826735480E+02 -0.10449235267E+02  0.12659379748E+02  0.28933712813E+02  0.51100000000E-03 0.  1.
         12    1    3    3    0    0 -0.18308706135E+00 -0.37089831546E+00 -0.20971139857E+00  0.46375133761E+00  0.00000000000E+00 0. -1.
</event>
<event>
 7    1  0.7470072E-010  0.4778727E+02  0.7816164E-02  0.1312668E+00
        -11   -1    0    0    0    0  0.00000000000E+00  0.00000000000E+00  0.45593999997E+02  0.45594000000E+02  0.51100000000E-03 0. -1.
         11   -1    0    0    0    0 -0.00000000000E+00 -0.00000000000E+00 -0.45593999997E+02  0.45594000000E+02  0.51100000000E-03 0.  1.
    9900012    2    1    2    0    0  0.24842073367E+02  0.85843838696E+01  0.34536977161E+02  0.47787273659E+02  0.20000011919E+02 0.  0.
        -12    1    1    2    0    0 -0.24842073367E+02 -0.85843838696E+01 -0.34536977161E+02  0.43400726341E+02  0.00000000000E+00 0.  1.
         11    1    3    3    0    0  0.17191088703E+02  0.13450934006E+02  0.25916299646E+02  0.33883856688E+02  0.51100000000E-03 0. -1.
        -11    1    3    3    0    0  0.37834613770E+01 -0.26094664460E+01  0.49123239641E+00  0.46222510374E+01  0.51100000000E-03 0.  1.
         12    1    3    3    0    0  0.38675232862E+01 -0.22570836900E+01  0.81294451184E+01  0.92811659336E+01  0.00000000000E+00 0. -1.
</event>
<event>
 7    1  0.7470072E-010  0.4778727E+02  0.7816164E-02  0.1312668E+00
        -11   -1    0    0    0    0  0.00000000000E+00  0.00000000000E+00  0.45593999997E+02  0.45594000000E+02  0.51100000000E-03 0. -1.
         11   -1    0    0    0    0 -0.00000000000E+00 -0.00000000000E+00 -0.45593999997E+02  0.45594000000E+02  0.51100000000E-03 0.  1.
    9900012    2    1    2    0    0 -0.33281090161E+01  0.27476248055E+02  0.33430565790E+02  0.47787271367E+02  0.20000001471E+02 0.  0.
        -12    1    1    2    0    0  0.33281090161E+01 -0.27476248055E+02 -0.33430565790E+02  0.43400728633E+02  0.00000000000E+00 0.  1.
         11    1    3    3    0    0 -0.37294884240E+00  0.15024877162E+02  0.13214581708E+02  0.20012775783E+02  0.51100000000E-03 0. -1.
        -11    1    3    3    0    0 -0.19831416415E+01  0.58830573517E+00 -0.18031408706E+01  0.27441340471E+01  0.51100000000E-03 0.  1.
        -12    1    3    3    0    0 -0.97201853224E+00  0.11863065158E+02  0.22019124953E+02  0.25030361537E+02  0.00000000000E+00 0.  1.
</event>
<event>
 7    1  0.7470072E-010  0.4778727E+02  0.7816164E-02  0.1312668E+00
        -11   -1    0    0    0    0  0.00000000000E+00  0.00000000000E+00  0.45593999997E+02  0.45594000000E+02  0.51100000000E-03 0. -1.
         11   -1    0    0    0    0 -0.00000000000E+00 -0.00000000000E+00 -0.45593999997E+02  0.45594000000E+02  0.51100000000E-03 0.  1.
    9900012    2    1    2    0    0  0.16618183340E+02  0.30019181215E+02 -0.26576454668E+02  0.47787271884E+02  0.20000003826E+02 0.  0.
         12    1    1    2    0    0 -0.16618183340E+02 -0.30019181215E+02  0.26576454668E+02  0.43400728116E+02  0.00000000000E+00 0. -1.
         11    1    3    3    0    0  0.63519391963E+00  0.18625685209E+01  0.57756663991E+00  0.20509062131E+01  0.51100000000E-03 0. -1.
        -11    1    3    3    0    0  0.42623702873E+01  0.52769260614E+01 -0.16626857257E+02  0.17957341998E+02  0.51100000000E-03 0.  1.
        -12    1    3    3    0    0  0.11720619133E+02  0.22879686632E+02 -0.10527164051E+02  0.27779023673E+02  0.00000000000E+00 0.  1.
</event>
<event>
 7    1  0.7470072E-010  0.4778727E+02  0.7816164E-02  0.1312668E+00
        -11   -1    0    0    0    0  0.00000000000E+00  0.00000000000E+00  0.45593999997E+02  0.45594000000E+02  0.51100000000E-03 0. -1.
         11   -1    0    0    0    0 -0.00000000000E+00 -0.00000000000E+00 -0.45593999997E+02  0.45594000000E+02  0.51100000000E-03 0.  1.
    9900012    2    1    2    0    0 -0.13979175818E+02 -0.22888500203E+01 -0.41023983418E+02  0.47787269517E+02  0.19999993038E+02 0.  0.
         12    1    1    2    0    0  0.13979175818E+02  0.22888500203E+01  0.41023983418E+02  0.43400730483E+02  0.00000000000E+00 0. -1.
         11    1    3    3    0    0 -0.11268750967E+02  0.78047987880E+01 -0.20878896192E+02  0.24976547779E+02  0.51100000000E-03 0. -1.
        -11    1    3    3    0    0 -0.10825796995E+01 -0.76148232070E+01 -0.13578527501E+02  0.15605573384E+02  0.51100000000E-03 0.  1.
         12    1    3    3    0    0 -0.16278451509E+01 -0.24788256012E+01 -0.65665597254E+01  0.72051483554E+01  0.00000000000E+00 0. -1.
</event>
<event>
 7    1  0.7470072E-010  0.4778727E+02  0.7816164E-02  0.1312668E+00
        -11   -1    0    0    0    0  0.00000000000E+00  0.00000000000E+00  0.45593999997E+02  0.45594000000E+02  0.51100000000E-03 0. -1.
         11   -1    0    0    0    0 -0.00000000000E+00 -0.00000000000E+00 -0.45593999997E+02  0.45594000000E+02  0.51100000000E-03 0.  1.
    9900012    2    1    2    0    0 -0.13290786588E+02 -0.40820359465E+02  0.63778176135E+01  0.47787270600E+02  0.19999997972E+02 0.  0.
        -12    1    1    2    0    0  0.13290786588E+02  0.40820359465E+02 -0.63778176135E+01  0.43400729400E+02  0.00000000000E+00 0.  1.
         11    1    3    3    0    0 -0.56406896138E+01 -0.15718190150E+02  0.18701090123E+01  0.16804052752E+02  0.51100000000E-03 0. -1.
        -11    1    3    3    0    0 -0.88959673216E+01 -0.12620710447E+02  0.87426245026E+01  0.17744127204E+02  0.51100000000E-03 0.  1.
        -12    1    3    3    0    0  0.12458703470E+01 -0.12481458867E+02 -0.42349159014E+01  0.13239090644E+02  0.00000000000E+00 0.  1.
</event>
<event>
 7    1  0.7470072E-010  0.4778727E+02  0.7816164E-02  0.1312668E+00
        -11   -1    0    0    0    0  0.00000000000E+00  0.00000000000E+00  0.45593999997E+02  0.45594000000E+02  0.51100000000E-03 0. -1.
         11   -1    0    0    0    0 -0.00000000000E+00 -0.00000000000E+00 -0.45593999997E+02  0.45594000000E+02  0.51100000000E-03 0.  1.
    9900012    2    1    2    0    0 -0.42746539269E+02 -0.74396119072E+01 -0.10045836365E+01  0.47787266906E+02  0.19999981133E+02 0.  0.
        -12    1    1    2    0    0  0.42746539269E+02  0.74396119072E+01  0.10045836365E+01  0.43400733094E+02  0.00000000000E+00 0.  1.
         11    1    3    3    0    0 -0.10027367494E+02  0.84015195909E-01  0.26275773921E+01  0.10366258757E+02  0.51100000000E-03 0. -1.
        -11    1    3    3    0    0 -0.26390350004E+02 -0.10350421867E+02  0.21017349666E+01  0.28425324911E+02  0.51100000000E-03 0.  1.
        -12    1    3    3    0    0 -0.63288217707E+01  0.28267947634E+01 -0.57338959952E+01  0.89956832383E+01  0.00000000000E+00 0.  1.
</event>
<event>
 7    1  0.7470072E-010  0.4778728E+02  0.7816164E-02  0.1312668E+00
        -11   -1    0    0    0    0  0.00000000000E+00  0.00000000000E+00  0.45593999997E+02  0.45594000000E+02  0.51100000000E-03 0.  1.
         11   -1    0    0    0    0 -0.00000000000E+00 -0.00000000000E+00 -0.45593999997E+02  0.45594000000E+02  0.51100000000E-03 0. -1.
    9900012    2    1    2    0    0 -0.11162587483E+01 -0.43287963395E+02 -0.29204458402E+01  0.47787276361E+02  0.20000024242E+02 0.  0.
        -12    1    1    2    0    0  0.11162587483E+01  0.43287963395E+02  0.29204458402E+01  0.43400723639E+02  0.00000000000E+00 0.  1.
         11    1    3    3    0    0  0.14008586122E+01  0.12700964507E+01 -0.12654411821E+00  0.18951420845E+01  0.51100000000E-03 0.  1.
        -11    1    3    3    0    0 -0.26220699973E+01 -0.20643745251E+02  0.36438721640E+01  0.21126222418E+02  0.51100000000E-03 0. -1.
         12    1    3    3    0    0  0.10495263678E+00 -0.23914314595E+02 -0.64377738860E+01  0.24765911859E+02  0.00000000000E+00 0. -1.
</event>
<event>
 7    1  0.7470072E-010  0.4778727E+02  0.7816164E-02  0.1312668E+00
        -11   -1    0    0    0    0  0.00000000000E+00  0.00000000000E+00  0.45593999997E+02  0.45594000000E+02  0.51100000000E-03 0. -1.
         11   -1    0    0    0    0 -0.00000000000E+00 -0.00000000000E+00 -0.45593999997E+02  0.45594000000E+02  0.51100000000E-03 0.  1.
    9900012    2    1    2    0    0  0.16709063857E+02 -0.32084563286E+02  0.23979389620E+02  0.47787272554E+02  0.20000006884E+02 0.  0.
        -12    1    1    2    0    0 -0.16709063857E+02  0.32084563286E+02 -0.23979389620E+02  0.43400727446E+02  0.00000000000E+00 0.  1.
         11    1    3    3    0    0  0.96073322286E+01 -0.18128404029E+02  0.10741084428E+02  0.23158384230E+02  0.51100000000E-03 0. -1.
        -11    1    3    3    0    0 -0.26028636330E+01 -0.32222850407E+01  0.84089093435E+01  0.93737813386E+01  0.51100000000E-03 0.  1.
        -12    1    3    3    0    0  0.97045952613E+01 -0.10733874217E+02  0.48293958485E+01  0.15255106986E+02  0.00000000000E+00 0.  1.
</event>
<event>
 7    1  0.7470072E-010  0.4778727E+02  0.7816164E-02  0.1312668E+00
        -11   -1    0    0    0    0  0.00000000000E+00  0.00000000000E+00  0.45593999997E+02  0.45594000000E+02  0.51100000000E-03 0.  1.
         11   -1    0    0    0    0 -0.00000000000E+00 -0.00000000000E+00 -0.45593999997E+02  0.45594000000E+02  0.51100000000E-03 0. -1.
    9900012    2    1    2    0    0 -0.16815674160E+02  0.30454243601E+02  0.25949865477E+02  0.47787269948E+02  0.19999995003E+02 0.  0.
        -12    1    1    2    0    0  0.16815674160E+02 -0.30454243601E+02 -0.25949865477E+02  0.43400730052E+02  0.00000000000E+00 0.  1.
         11    1    3    3    0    0  0.16557983541E+01  0.10559196283E+02  0.27075907516E+01  0.11025848824E+02  0.51100000000E-03 0.  1.
        -11    1    3    3    0    0 -0.33143827498E+01  0.50700493230E+01  0.11953511882E+01  0.61740908540E+01  0.51100000000E-03 0. -1.
         12    1    3    3    0    0 -0.15157089765E+02  0.14824997994E+02  0.22046923537E+02  0.30587330271E+02  0.00000000000E+00 0. -1.
</event>
<event>
 7    1  0.7470072E-010  0.4778727E+02  0.7816164E-02  0.1312668E+00
        -11   -1    0    0    0    0  0.00000000000E+00  0.00000000000E+00  0.45593999997E+02  0.45594000000E+02  0.51100000000E-03 0. -1.
         11   -1    0    0    0    0 -0.00000000000E+00 -0.00000000000E+00 -0.45593999997E+02  0.45594000000E+02  0.51100000000E-03 0.  1.
    9900012    2    1    2    0    0 -0.20193534412E+02 -0.28423015493E+02  0.25845244852E+02  0.47787270476E+02  0.19999997407E+02 0.  0.
        -12    1    1    2    0    0  0.20193534412E+02  0.28423015493E+02 -0.25845244852E+02  0.43400729524E+02  0.00000000000E+00 0.  1.
         11    1    3    3    0    0 -0.39272351451E+01 -0.11629791993E+02  0.72435941644E+01  0.14252890737E+02  0.51100000000E-03 0. -1.
        -11    1    3    3    0    0 -0.39267630641E+01 -0.79038888329E+01  0.15760334788E+02  0.18063196830E+02  0.51100000000E-03 0.  1.
        -12    1    3    3    0    0 -0.12339536203E+02 -0.88893346677E+01  0.28413158993E+01  0.15471182908E+02  0.00000000000E+00 0.  1.
</event>
<event>
 7    1  0.7470072E-010  0.4778727E+02  0.7816164E-02  0.1312668E+00
        -11   -1    0    0    0    0  0.00000000000E+00  0.00000000000E+00  0.45593999997E+02  0.45594000000E+02  0.51100000000E-03 0. -1.
         11   -1    0    0    0    0 -0.00000000000E+00 -0.00000000000E+00 -0.45593999997E+02  0.45594000000E+02  0.51100000000E-03 0.  1.
    9900012    2    1    2    0    0  0.18452052339E+02 -0.71934871389E+01  0.38618636314E+02  0.47787267707E+02  0.19999984785E+02 0.  0.
        -12    1    1    2    0    0 -0.18452052339E+02  0.71934871389E+01 -0.38618636314E+02  0.43400732293E+02  0.00000000000E+00 0.  1.
         11    1    3    3    0    0  0.10726518356E+02 -0.25128281216E+01  0.20403375825E+02  0.23187717580E+02  0.51100000000E-03 0. -1.
        -11    1    3    3    0    0  0.94815383286E+01  0.19417223670E+01  0.10415182648E+02  0.14217801682E+02  0.51100000000E-03 0.  1.
        -12    1    3    3    0    0 -0.17560043457E+01 -0.66223813842E+01  0.78000778411E+01  0.10381748446E+02  0.00000000000E+00 0.  1.
</event>
<event>
 7    1  0.7470072E-010  0.4778727E+02  0.7816164E-02  0.1312668E+00
        -11   -1    0    0    0    0  0.00000000000E+00  0.00000000000E+00  0.45593999997E+02  0.45594000000E+02  0.51100000000E-03 0. -1.
         11   -1    0    0    0    0 -0.00000000000E+00 -0.00000000000E+00 -0.45593999997E+02  0.45594000000E+02  0.51100000000E-03 0.  1.
    9900012    2    1    2    0    0  0.81360080394E+01  0.27190659860E+02 -0.32834377479E+02  0.47787274719E+02  0.20000016754E+02 0.  0.
         12    1    1    2    0    0 -0.81360080394E+01 -0.27190659860E+02  0.32834377479E+02  0.43400725281E+02  0.00000000000E+00 0. -1.
         11    1    3    3    0    0 -0.10400247903E+01  0.48118852010E+01  0.19957464125E+01  0.53121459652E+01  0.51100000000E-03 0. -1.
        -11    1    3    3    0    0  0.34161607115E+01  0.91146660200E+01 -0.16076996907E+02  0.18794071418E+02  0.51100000000E-03 0.  1.
         12    1    3    3    0    0  0.57598721182E+01  0.13264108639E+02 -0.18753126985E+02  0.23681057336E+02  0.00000000000E+00 0. -1.
</event>
<event>
 7    1  0.7470072E-010  0.4778727E+02  0.7816164E-02  0.1312668E+00
        -11   -1    0    0    0    0  0.00000000000E+00  0.00000000000E+00  0.45593999997E+02  0.45594000000E+02  0.51100000000E-03 0. -1.
         11   -1    0    0    0    0 -0.00000000000E+00 -0.00000000000E+00 -0.45593999997E+02  0.45594000000E+02  0.51100000000E-03 0.  1.
    9900012    2    1    2    0    0 -0.11113376129E+02 -0.14627484231E+02 -0.39321148971E+02  0.47787272123E+02  0.20000004916E+02 0.  0.
         12    1    1    2    0    0  0.11113376129E+02  0.14627484231E+02  0.39321148971E+02  0.43400727877E+02  0.00000000000E+00 0. -1.
         11    1    3    3    0    0 -0.29601356469E+01  0.32618937626E+01 -0.98081962071E+01  0.10751886675E+02  0.51100000000E-03 0. -1.
        -11    1    3    3    0    0 -0.21136567166E+01 -0.15250216167E+02 -0.17309849954E+02  0.23166086064E+02  0.51100000000E-03 0.  1.
         12    1    3    3    0    0 -0.60395837655E+01 -0.26391618273E+01 -0.12203102809E+02  0.13869299383E+02  0.00000000000E+00 0. -1.
</event>
<event>
 7    1  0.7470072E-010  0.4778727E+02  0.7816164E-02  0.1312668E+00
        -11   -1    0    0    0    0  0.00000000000E+00  0.00000000000E+00  0.45593999997E+02  0.45594000000E+02  0.51100000000E-03 0. -1.
         11   -1    0    0    0    0 -0.00000000000E+00 -0.00000000000E+00 -0.45593999997E+02  0.45594000000E+02  0.51100000000E-03 0.  1.
    9900012    2    1    2    0    0  0.38906771969E+02  0.11162293867E+02 -0.15661712704E+02  0.47787274727E+02  0.20000016789E+02 0.  0.
         12    1    1    2    0    0 -0.38906771969E+02 -0.11162293867E+02  0.15661712704E+02  0.43400725273E+02  0.00000000000E+00 0. -1.
         11    1    3    3    0    0  0.18866917618E+01  0.58591195733E+00  0.90329704300E+00  0.21722901360E+01  0.51100000000E-03 0. -1.
        -11    1    3    3    0    0  0.16594753434E+02  0.16394808702E+01 -0.16299674256E+02  0.23318514536E+02  0.51100000000E-03 0.  1.
        -12    1    3    3    0    0  0.20425326773E+02  0.89369010396E+01 -0.26533549144E+00  0.22296470055E+02  0.00000000000E+00 0.  1.
</event>
<event>
 7    1  0.7470072E-010  0.4778727E+02  0.7816164E-02  0.1312668E+00
        -11   -1    0    0    0    0  0.00000000000E+00  0.00000000000E+00  0.45593999997E+02  0.45594000000E+02  0.51100000000E-03 0. -1.
         11   -1    0    0    0    0 -0.00000000000E+00 -0.00000000000E+00 -0.45593999997E+02  0.45594000000E+02  0.51100000000E-03 0.  1.
    9900012    2    1    2    0    0 -0.10520653506E+02  0.26964886768E+02 -0.32339357781E+02  0.47787270395E+02  0.19999997038E+02 0.  0.
         12    1    1    2    0    0  0.10520653506E+02 -0.26964886768E+02  0.32339357781E+02  0.43400729605E+02  0.00000000000E+00 0. -1.
         11    1    3    3    0    0 -0.14458276516E+01  0.75857032255E+00  0.24897735117E+01  0.29773845793E+01  0.51100000000E-03 0. -1.
        -11    1    3    3    0    0 -0.85187856911E+01  0.26143043452E+02 -0.33318754005E+02  0.43199164336E+02  0.51100000000E-03 0.  1.
        -12    1    3    3    0    0 -0.55604016344E+00  0.63272992639E-01 -0.15103772871E+01  0.16107214794E+01  0.00000000000E+00 0.  1.
</event>
<event>
 7    1  0.7470072E-010  0.4778727E+02  0.7816164E-02  0.1312668E+00
        -11   -1    0    0    0    0  0.00000000000E+00  0.00000000000E+00  0.45593999997E+02  0.45594000000E+02  0.51100000000E-03 0. -1.
         11   -1    0    0    0    0 -0.00000000000E+00 -0.00000000000E+00 -0.45593999997E+02  0.45594000000E+02  0.51100000000E-03 0.  1.
    9900012    2    1    2    0    0 -0.13796769076E+02  0.20867319701E+02 -0.35465861559E+02  0.47787271843E+02  0.20000003640E+02 0.  0.
         12    1    1    2    0    0  0.13796769076E+02 -0.20867319701E+02  0.35465861559E+02  0.43400728157E+02  0.00000000000E+00 0. -1.
         11    1    3    3    0    0  0.30548955122E+01  0.18969880348E+01 -0.17602258482E+01  0.40036665061E+01  0.51100000000E-03 0. -1.
        -11    1    3    3    0    0 -0.14191788157E+02  0.15699839040E+02 -0.33421236938E+02  0.39558448853E+02  0.51100000000E-03 0.  1.
        -12    1    3    3    0    0 -0.26598764308E+01  0.32704926266E+01 -0.28439877359E+00  0.42251564835E+01  0.00000000000E+00 0.  1.
</event>
<event>
 7    1  0.7470072E-010  0.4778727E+02  0.7816164E-02  0.1312668E+00
        -11   -1    0    0    0    0  0.00000000000E+00  0.00000000000E+00  0.45593999997E+02  0.45594000000E+02  0.51100000000E-03 0.  1.
         11   -1    0    0    0    0 -0.00000000000E+00 -0.00000000000E+00 -0.45593999997E+02  0.45594000000E+02  0.51100000000E-03 0. -1.
    9900012    2    1    2    0    0  0.40754408692E+02 -0.10653384452E+02  0.10450211039E+02  0.47787270296E+02  0.19999996587E+02 0.  0.
        -12    1    1    2    0    0 -0.40754408692E+02  0.10653384452E+02 -0.10450211039E+02  0.43400729704E+02  0.00000000000E+00 0.  1.
         11    1    3    3    0    0  0.23516046996E+02 -0.88667281865E+01  0.70866764682E+01  0.26112148871E+02  0.51100000000E-03 0. -1.
        -11    1    3    3    0    0  0.39200925719E+01 -0.12091237818E+01 -0.45867315777E+01  0.61536341229E+01  0.51100000000E-03 0.  1.
        -12    1    3    3    0    0  0.13318269124E+02 -0.57753248416E+00  0.79502661484E+01  0.15521487302E+02  0.00000000000E+00 0.  1.
</event>
<event>
 7    1  0.7470072E-010  0.4778727E+02  0.7816164E-02  0.1312668E+00
        -11   -1    0    0    0    0  0.00000000000E+00  0.00000000000E+00  0.45593999997E+02  0.45594000000E+02  0.51100000000E-03 0. -1.
         11   -1    0    0    0    0 -0.00000000000E+00 -0.00000000000E+00 -0.45593999997E+02  0.45594000000E+02  0.51100000000E-03 0.  1.
    9900012    2    1    2    0    0 -0.73737829280E+01 -0.30329283442E+02  0.30156010565E+02  0.47787273255E+02  0.20000010081E+02 0.  0.
        -12    1    1    2    0    0  0.73737829280E+01  0.30329283442E+02 -0.30156010565E+02  0.43400726745E+02  0.00000000000E+00 0.  1.
         11    1    3    3    0    0  0.44601104313E+01 -0.48561935226E-01  0.32264527164E+01  0.55049923445E+01  0.51100000000E-03 0. -1.
        -11    1    3    3    0    0 -0.45142072276E+01 -0.14281207436E+02  0.11554139471E+02  0.18916371003E+02  0.51100000000E-03 0.  1.
         12    1    3    3    0    0 -0.73196861317E+01 -0.15999514071E+02  0.15375418377E+02  0.23365909908E+02  0.00000000000E+00 0. -1.
</event>
<event>
 7    1  0.7470072E-010  0.4778726E+02  0.7816164E-02  0.1312668E+00
        -11   -1    0    0    0    0  0.00000000000E+00  0.00000000000E+00  0.45593999997E+02  0.45594000000E+02  0.51100000000E-03 0. -1.
         11   -1    0    0    0    0 -0.00000000000E+00 -0.00000000000E+00 -0.45593999997E+02  0.45594000000E+02  0.51100000000E-03 0.  1.
    9900012    2    1    2    0    0  0.44679701329E+01 -0.24148994765E+02 -0.35783896362E+02  0.47787263323E+02  0.19999964794E+02 0.  0.
         12    1    1    2    0    0 -0.44679701329E+01  0.24148994765E+02  0.35783896362E+02  0.43400736677E+02  0.00000000000E+00 0. -1.
         11    1    3    3    0    0 -0.17650388355E+01 -0.17226214283E+02 -0.13772855052E+02  0.22125762296E+02  0.51100000000E-03 0. -1.
        -11    1    3    3    0    0  0.82308971503E+01 -0.29801438167E+01 -0.13980190496E+02  0.16494685557E+02  0.51100000000E-03 0.  1.
         12    1    3    3    0    0 -0.19978881819E+01 -0.39426366653E+01 -0.80308508144E+01  0.91668154702E+01  0.00000000000E+00 0. -1.
</event>
<event>
 7    1  0.7470072E-010  0.4778727E+02  0.7816164E-02  0.1312668E+00
        -11   -1    0    0    0    0  0.00000000000E+00  0.00000000000E+00  0.45593999997E+02  0.45594000000E+02  0.51100000000E-03 0. -1.
         11   -1    0    0    0    0 -0.00000000000E+00 -0.00000000000E+00 -0.45593999997E+02  0.45594000000E+02  0.51100000000E-03 0.  1.
    9900012    2    1    2    0    0  0.20069549683E+02  0.98721534345E+01 -0.37193775793E+02  0.47787271945E+02  0.20000004108E+02 0.  0.
         12    1    1    2    0    0 -0.20069549683E+02 -0.98721534345E+01  0.37193775793E+02  0.43400728055E+02  0.00000000000E+00 0. -1.
         11    1    3    3    0    0  0.22223312990E+01 -0.57747517932E+00  0.14011803598E+01  0.26898960290E+01  0.51100000000E-03 0. -1.
        -11    1    3    3    0    0  0.16107507821E+02  0.47123834497E+01 -0.23693799674E+02  0.29035400966E+02  0.51100000000E-03 0.  1.
         12    1    3    3    0    0  0.17397105636E+01  0.57372451641E+01 -0.14901156478E+02  0.16061974951E+02  0.00000000000E+00 0. -1.
</event>
<event>
 7    1  0.7470072E-010  0.4778727E+02  0.7816164E-02  0.1312668E+00
        -11   -1    0    0    0    0  0.00000000000E+00  0.00000000000E+00  0.45593999997E+02  0.45594000000E+02  0.51100000000E-03 0. -1.
         11   -1    0    0    0    0 -0.00000000000E+00 -0.00000000000E+00 -0.45593999997E+02  0.45594000000E+02  0.51100000000E-03 0.  1.
    9900012    2    1    2    0    0 -0.15398750420E+02 -0.24436531154E+02 -0.32393790688E+02  0.47787271383E+02  0.20000001543E+02 0.  0.
         12    1    1    2    0    0  0.15398750420E+02  0.24436531154E+02  0.32393790688E+02  0.43400728617E+02  0.00000000000E+00 0. -1.
         11    1    3    3    0    0 -0.71457871378E+00  0.29039193469E+01 -0.68812069382E+01  0.75029580499E+01  0.51100000000E-03 0. -1.
        -11    1    3    3    0    0 -0.23903819261E+01 -0.31831370965E+01 -0.43444319314E+01  0.58923999011E+01  0.51100000000E-03 0.  1.
         12    1    3    3    0    0 -0.12293789781E+02 -0.24157313404E+02 -0.21168151819E+02  0.34391913432E+02  0.00000000000E+00 0. -1.
</event>
<event>
 7    1  0.7470072E-010  0.4778727E+02  0.7816164E-02  0.1312668E+00
        -11   -1    0    0    0    0  0.00000000000E+00  0.00000000000E+00  0.45593999997E+02  0.45594000000E+02  0.51100000000E-03 0. -1.
         11   -1    0    0    0    0 -0.00000000000E+00 -0.00000000000E+00 -0.45593999997E+02  0.45594000000E+02  0.51100000000E-03 0.  1.
    9900012    2    1    2    0    0  0.18594556067E+02  0.31762063949E+02 -0.23000814879E+02  0.47787266058E+02  0.19999977264E+02 0.  0.
         12    1    1    2    0    0 -0.18594556067E+02 -0.31762063949E+02  0.23000814879E+02  0.43400733942E+02  0.00000000000E+00 0. -1.
         11    1    3    3    0    0  0.12098467763E+02  0.27564870347E+02 -0.18962272035E+02  0.35577559788E+02  0.51100000000E-03 0.  1.
        -11    1    3    3    0    0  0.56647373326E+01 -0.42535261312E-01 -0.52489825407E+01  0.77228800502E+01  0.51100000000E-03 0. -1.
        -12    1    3    3    0    0  0.83135097184E+00  0.42397288628E+01  0.12104396964E+01  0.44868262199E+01  0.00000000000E+00 0.  1.
</event>
<event>
 7    1  0.7470072E-010  0.4778727E+02  0.7816164E-02  0.1312668E+00
        -11   -1    0    0    0    0  0.00000000000E+00  0.00000000000E+00  0.45593999997E+02  0.45594000000E+02  0.51100000000E-03 0. -1.
         11   -1    0    0    0    0 -0.00000000000E+00 -0.00000000000E+00 -0.45593999997E+02  0.45594000000E+02  0.51100000000E-03 0.  1.
    9900012    2    1    2    0    0  0.38651035655E+01  0.41032534542E+01 -0.43033097280E+02  0.47787272172E+02  0.20000005141E+02 0.  0.
         12    1    1    2    0    0 -0.38651035655E+01 -0.41032534542E+01  0.43033097280E+02  0.43400727828E+02  0.00000000000E+00 0. -1.
         11    1    3    3    0    0  0.28270929945E+01  0.41463022363E+00  0.12815940178E+01  0.31315900928E+01  0.51100000000E-03 0. -1.
        -11    1    3    3    0    0 -0.14083864592E+01  0.63448948223E+00 -0.15430849007E+02  0.15507973132E+02  0.51100000000E-03 0.  1.
         12    1    3    3    0    0  0.24463970302E+01  0.30541337483E+01 -0.28883842291E+02  0.29147708947E+02  0.00000000000E+00 0. -1.
</event>
<event>
 7    1  0.7470072E-010  0.4778727E+02  0.7816164E-02  0.1312668E+00
        -11   -1    0    0    0    0  0.00000000000E+00  0.00000000000E+00  0.45593999997E+02  0.45594000000E+02  0.51100000000E-03 0. -1.
         11   -1    0    0    0    0 -0.00000000000E+00 -0.00000000000E+00 -0.45593999997E+02  0.45594000000E+02  0.51100000000E-03 0.  1.
    9900012    2    1    2    0    0 -0.26998717529E+02 -0.80373872781E+01  0.33016553989E+02  0.47787272129E+02  0.20000004945E+02 0.  0.
        -12    1    1    2    0    0  0.26998717529E+02  0.80373872781E+01 -0.33016553989E+02  0.43400727871E+02  0.00000000000E+00 0.  1.
         11    1    3    3    0    0 -0.20738701646E+02 -0.66812150154E+01  0.17034385375E+02  0.27656873746E+02  0.51100000000E-03 0. -1.
        -11    1    3    3    0    0  0.91715433748E+00 -0.26648275391E+01  0.10851328306E+02  0.11211324818E+02  0.51100000000E-03 0.  1.
         12    1    3    3    0    0 -0.71771702204E+01  0.13086552763E+01  0.51308403072E+01  0.89190735653E+01  0.00000000000E+00 0. -1.
</event>
<event>
 7    1  0.7470072E-010  0.4778727E+02  0.7816164E-02  0.1312668E+00
        -11   -1    0    0    0    0  0.00000000000E+00  0.00000000000E+00  0.45593999997E+02  0.45594000000E+02  0.51100000000E-03 0. -1.
         11   -1    0    0    0    0 -0.00000000000E+00 -0.00000000000E+00 -0.45593999997E+02  0.45594000000E+02  0.51100000000E-03 0.  1.
    9900012    2    1    2    0    0 -0.14565878987E+02 -0.13175325473E+02 -0.38702313885E+02  0.47787272678E+02  0.20000007448E+02 0.  0.
         12    1    1    2    0    0  0.14565878987E+02  0.13175325473E+02  0.38702313885E+02  0.43400727322E+02  0.00000000000E+00 0. -1.
         11    1    3    3    0    0 -0.86694641522E+01  0.35313594673E+01 -0.14556780579E+02  0.17306934143E+02  0.51100000000E-03 0. -1.
        -11    1    3    3    0    0 -0.51379734006E+01 -0.16374753107E+02 -0.24180414922E+02  0.29651707809E+02  0.51100000000E-03 0.  1.
         12    1    3    3    0    0 -0.75844143436E+00 -0.33193183389E+00  0.34881614834E-01  0.82863072520E+00  0.00000000000E+00 0. -1.
</event>
<event>
 7    1  0.7470072E-010  0.4778727E+02  0.7816164E-02  0.1312668E+00
        -11   -1    0    0    0    0  0.00000000000E+00  0.00000000000E+00  0.45593999997E+02  0.45594000000E+02  0.51100000000E-03 0. -1.
         11   -1    0    0    0    0 -0.00000000000E+00 -0.00000000000E+00 -0.45593999997E+02  0.45594000000E+02  0.51100000000E-03 0.  1.
    9900012    2    1    2    0    0 -0.15397212490E+02  0.32449410970E+02 -0.24363593501E+02  0.47787272897E+02  0.20000008449E+02 0.  0.
         12    1    1    2    0    0  0.15397212490E+02 -0.32449410970E+02  0.24363593501E+02  0.43400727103E+02  0.00000000000E+00 0. -1.
         11    1    3    3    0    0 -0.51862333608E-01  0.13402631895E+01  0.16034298862E+01  0.20904503773E+01  0.51100000000E-03 0. -1.
        -11    1    3    3    0    0 -0.13551075890E+02  0.30054511801E+02 -0.27643719483E+02  0.43024185809E+02  0.51100000000E-03 0.  1.
        -12    1    3    3    0    0 -0.17942742661E+01  0.10546359796E+01  0.16766960964E+01  0.26726367114E+01  0.00000000000E+00 0.  1.
</event>
<event>
 7    1  0.7470072E-010  0.4778727E+02  0.7816164E-02  0.1312668E+00
        -11   -1    0    0    0    0  0.00000000000E+00  0.00000000000E+00  0.45593999997E+02  0.45594000000E+02  0.51100000000E-03 0. -1.
         11   -1    0    0    0    0 -0.00000000000E+00 -0.00000000000E+00 -0.45593999997E+02  0.45594000000E+02  0.51100000000E-03 0.  1.
    9900012    2    1    2    0    0  0.27924961909E+02  0.13637682954E+02 -0.30295763371E+02  0.47787272216E+02  0.20000005340E+02 0.  0.
         12    1    1    2    0    0 -0.27924961909E+02 -0.13637682954E+02  0.30295763371E+02  0.43400727784E+02  0.00000000000E+00 0. -1.
         11    1    3    3    0    0  0.16130664156E+02  0.13090798538E+02 -0.16013603929E+02  0.26229808301E+02  0.51100000000E-03 0. -1.
        -11    1    3    3    0    0  0.74451079097E+01 -0.35806665314E+01 -0.30153315667E+01  0.87944885760E+01  0.51100000000E-03 0.  1.
        -12    1    3    3    0    0  0.43491898441E+01  0.41275509473E+01 -0.11266827875E+02  0.12762975338E+02  0.00000000000E+00 0.  1.
</event>
<event>
 7    1  0.7470072E-010  0.4778729E+02  0.7816164E-02  0.1312668E+00
        -11   -1    0    0    0    0  0.00000000000E+00  0.00000000000E+00  0.45593999997E+02  0.45594000000E+02  0.51100000000E-03 0. -1.
         11   -1    0    0    0    0 -0.00000000000E+00 -0.00000000000E+00 -0.45593999997E+02  0.45594000000E+02  0.51100000000E-03 0.  1.
    9900012    2    1    2    0    0 -0.25429177805E+02  0.32981297084E+02 -0.12215265999E+02  0.47787288432E+02  0.20000079278E+02 0.  0.
         12    1    1    2    0    0  0.25429177805E+02 -0.32981297084E+02  0.12215265999E+02  0.43400711568E+02  0.00000000000E+00 0. -1.
         11    1    3    3    0    0 -0.16183708623E+02  0.19886865093E+02  0.20890072299E+01  0.25724769766E+02  0.51100000000E-03 0. -1.
        -11    1    3    3    0    0 -0.89348764225E+01  0.11787956571E+02 -0.10814384510E+02  0.18323177928E+02  0.51100000000E-03 0.  1.
         12    1    3    3    0    0 -0.31059275872E+00  0.13064754196E+01 -0.34898887192E+01  0.37393407381E+01  0.00000000000E+00 0. -1.
</event>
<event>
 7    1  0.7470072E-010  0.4778727E+02  0.7816164E-02  0.1312668E+00
        -11   -1    0    0    0    0  0.00000000000E+00  0.00000000000E+00  0.45593999997E+02  0.45594000000E+02  0.51100000000E-03 0. -1.
         11   -1    0    0    0    0 -0.00000000000E+00 -0.00000000000E+00 -0.45593999997E+02  0.45594000000E+02  0.51100000000E-03 0.  1.
    9900012    2    1    2    0    0  0.31958791649E+02 -0.15366995790E+02  0.25022277217E+02  0.47787270969E+02  0.19999999658E+02 0.  0.
        -12    1    1    2    0    0 -0.31958791649E+02  0.15366995790E+02 -0.25022277217E+02  0.43400729031E+02  0.00000000000E+00 0.  1.
         11    1    3    3    0    0  0.24167631224E+02 -0.10648183560E+02  0.10465403626E+02  0.28407444190E+02  0.51100000000E-03 0. -1.
        -11    1    3    3    0    0  0.56545215214E+01  0.17144740349E+01  0.80294949155E+01  0.99692438887E+01  0.51100000000E-03 0.  1.
         12    1    3    3    0    0  0.21366389038E+01 -0.64332862649E+01  0.65273786753E+01  0.94105828907E+01  0.00000000000E+00 0. -1.
</event>
<event>
 7    1  0.7470072E-010  0.4778727E+02  0.7816164E-02  0.1312668E+00
        -11   -1    0    0    0    0  0.00000000000E+00  0.00000000000E+00  0.45593999997E+02  0.45594000000E+02  0.51100000000E-03 0.  1.
         11   -1    0    0    0    0 -0.00000000000E+00 -0.00000000000E+00 -0.45593999997E+02  0.45594000000E+02  0.51100000000E-03 0. -1.
    9900012    2    1    2    0    0 -0.62800841803E+00  0.37813027719E+02  0.21293287056E+02  0.47787268054E+02  0.19999986363E+02 0.  0.
        -12    1    1    2    0    0  0.62800841803E+00 -0.37813027719E+02 -0.21293287056E+02  0.43400731946E+02  0.00000000000E+00 0.  1.
         11    1    3    3    0    0  0.19233671670E+01  0.94660083858E+01  0.69861489477E+00  0.96846641166E+01  0.51100000000E-03 0. -1.
        -11    1    3    3    0    0 -0.36853478371E+01  0.27411527647E+02  0.22529373556E+02  0.35672767060E+02  0.51100000000E-03 0.  1.
        -12    1    3    3    0    0  0.11339722520E+01  0.93549168605E+00 -0.19347013947E+01  0.24298368772E+01  0.00000000000E+00 0.  1.
</event>
<event>
 7    1  0.7470072E-010  0.4778728E+02  0.7816164E-02  0.1312668E+00
        -11   -1    0    0    0    0  0.00000000000E+00  0.00000000000E+00  0.45593999997E+02  0.45594000000E+02  0.51100000000E-03 0. -1.
         11   -1    0    0    0    0 -0.00000000000E+00 -0.00000000000E+00 -0.45593999997E+02  0.45594000000E+02  0.51100000000E-03 0.  1.
    9900012    2    1    2    0    0  0.34720453197E+02 -0.19684045553E+02  0.17048495521E+02  0.47787277436E+02  0.20000029143E+02 0.  0.
        -12    1    1    2    0    0 -0.34720453197E+02  0.19684045553E+02 -0.17048495521E+02  0.43400722564E+02  0.00000000000E+00 0.  1.
         11    1    3    3    0    0  0.26184686397E+02 -0.13186509331E+02  0.10261403015E+02  0.31061523178E+02  0.51100000000E-03 0. -1.
        -11    1    3    3    0    0  0.16299301465E+01 -0.53829428258E+01  0.78431230180E+01  0.96512861674E+01  0.51100000000E-03 0.  1.
        -12    1    3    3    0    0  0.69058366537E+01 -0.11145933957E+01 -0.10560305120E+01  0.70744680908E+01  0.00000000000E+00 0.  1.
</event>
<event>
 7    1  0.7470072E-010  0.4778727E+02  0.7816164E-02  0.1312668E+00
        -11   -1    0    0    0    0  0.00000000000E+00  0.00000000000E+00  0.45593999997E+02  0.45594000000E+02  0.51100000000E-03 0. -1.
         11   -1    0    0    0    0 -0.00000000000E+00 -0.00000000000E+00 -0.45593999997E+02  0.45594000000E+02  0.51100000000E-03 0.  1.
    9900012    2    1    2    0    0  0.30093252365E+02 -0.27728888501E+02  0.14461280425E+02  0.47787265825E+02  0.19999976202E+02 0.  0.
        -12    1    1    2    0    0 -0.30093252365E+02  0.27728888501E+02 -0.14461280425E+02  0.43400734175E+02  0.00000000000E+00 0.  1.
         11    1    3    3    0    0  0.22602556155E+02 -0.23181447749E+02  0.15255566972E+02  0.35790884152E+02  0.51100000000E-03 0. -1.
        -11    1    3    3    0    0 -0.17242676629E+01 -0.10582617925E+01  0.42660676245E+00  0.20676098727E+01  0.51100000000E-03 0.  1.
         12    1    3    3    0    0  0.92149638726E+01 -0.34891789597E+01 -0.12208933096E+01  0.99287718002E+01  0.00000000000E+00 0. -1.
</event>
<event>
 7    1  0.7470072E-010  0.4778727E+02  0.7816164E-02  0.1312668E+00
        -11   -1    0    0    0    0  0.00000000000E+00  0.00000000000E+00  0.45593999997E+02  0.45594000000E+02  0.51100000000E-03 0.  1.
         11   -1    0    0    0    0 -0.00000000000E+00 -0.00000000000E+00 -0.45593999997E+02  0.45594000000E+02  0.51100000000E-03 0. -1.
    9900012    2    1    2    0    0  0.14293906679E+02 -0.35688693962E+02  0.20140125730E+02  0.47787270637E+02  0.19999998140E+02 0.  0.
        -12    1    1    2    0    0 -0.14293906679E+02  0.35688693962E+02 -0.20140125730E+02  0.43400729363E+02  0.00000000000E+00 0.  1.
         11    1    3    3    0    0 -0.26396240449E+01 -0.36855703296E+01  0.59691450814E+01  0.74954477529E+01  0.51100000000E-03 0.  1.
        -11    1    3    3    0    0  0.78581315601E+01 -0.10860330570E+02  0.26509131475E+00  0.13407732298E+02  0.51100000000E-03 0. -1.
         12    1    3    3    0    0  0.90753991642E+01 -0.21142793062E+02  0.13905889334E+02  0.26884090586E+02  0.00000000000E+00 0. -1.
</event>
<event>
 7    1  0.7470072E-010  0.4778729E+02  0.7816164E-02  0.1312668E+00
        -11   -1    0    0    0    0  0.00000000000E+00  0.00000000000E+00  0.45593999997E+02  0.45594000000E+02  0.51100000000E-03 0. -1.
         11   -1    0    0    0    0 -0.00000000000E+00 -0.00000000000E+00 -0.45593999997E+02  0.45594000000E+02  0.51100000000E-03 0.  1.
    9900012    2    1    2    0    0 -0.26720334800E+02 -0.24532726275E+02  0.23828354796E+02  0.47787292141E+02  0.20000096189E+02 0.  0.
        -12    1    1    2    0    0  0.26720334800E+02  0.24532726275E+02 -0.23828354796E+02  0.43400707859E+02  0.00000000000E+00 0.  1.
         11    1    3    3    0    0 -0.15438702596E+02 -0.17261094016E+02  0.17389738845E+02  0.28960350858E+02  0.51100000000E-03 0. -1.
        -11    1    3    3    0    0 -0.26034927957E+01 -0.39737597995E+01 -0.29752782714E+01  0.56054636503E+01  0.51100000000E-03 0.  1.
        -12    1    3    3    0    0 -0.86781394083E+01 -0.32978724600E+01  0.94138942228E+01  0.13221477633E+02  0.00000000000E+00 0.  1.
</event>
<event>
 7    1  0.7470072E-010  0.4778727E+02  0.7816164E-02  0.1312668E+00
        -11   -1    0    0    0    0  0.00000000000E+00  0.00000000000E+00  0.45593999997E+02  0.45594000000E+02  0.51100000000E-03 0. -1.
         11   -1    0    0    0    0 -0.00000000000E+00 -0.00000000000E+00 -0.45593999997E+02  0.45594000000E+02  0.51100000000E-03 0.  1.
    9900012    2    1    2    0    0  0.28779394770E+02  0.51896937747E+01  0.32069253725E+02  0.47787268218E+02  0.19999987111E+02 0.  0.
        -12    1    1    2    0    0 -0.28779394770E+02 -0.51896937747E+01 -0.32069253725E+02  0.43400731782E+02  0.00000000000E+00 0.  1.
         11    1    3    3    0    0  0.24351935054E+01 -0.93960372366E+00  0.90967731717E+01  0.94638419769E+01  0.51100000000E-03 0. -1.
        -11    1    3    3    0    0  0.11350824689E+02 -0.27761254276E+01  0.35319457679E+01  0.12207486829E+02  0.51100000000E-03 0.  1.
        -12    1    3    3    0    0  0.14993376576E+02  0.89054229260E+01  0.19440534785E+02  0.26115939412E+02  0.00000000000E+00 0.  1.
</event>
<event>
 7    1  0.7470072E-010  0.4778727E+02  0.7816164E-02  0.1312668E+00
        -11   -1    0    0    0    0  0.00000000000E+00  0.00000000000E+00  0.45593999997E+02  0.45594000000E+02  0.51100000000E-03 0.  1.
         11   -1    0    0    0    0 -0.00000000000E+00 -0.00000000000E+00 -0.45593999997E+02  0.45594000000E+02  0.51100000000E-03 0. -1.
    9900012    2    1    2    0    0 -0.29347500410E+02  0.10214193229E+02 -0.30298808533E+02  0.47787270488E+02  0.19999997463E+02 0.  0.
         12    1    1    2    0    0  0.29347500410E+02 -0.10214193229E+02  0.30298808533E+02  0.43400729512E+02  0.00000000000E+00 0. -1.
         11    1    3    3    0    0 -0.19624487456E+01 -0.15777781614E+01 -0.26049512348E+01  0.36230319074E+01  0.51100000000E-03 0. -1.
        -11    1    3    3    0    0  0.16581530118E+01 -0.13969298736E+01 -0.44707146589E+00  0.22137654887E+01  0.51100000000E-03 0.  1.
        -12    1    3    3    0    0 -0.29043204677E+02  0.13188901264E+02 -0.27246785832E+02  0.41950473092E+02  0.00000000000E+00 0.  1.
</event>
<event>
 7    1  0.7470072E-010  0.4778728E+02  0.7816164E-02  0.1312668E+00
        -11   -1    0    0    0    0  0.00000000000E+00  0.00000000000E+00  0.45593999997E+02  0.45594000000E+02  0.51100000000E-03 0. -1.
         11   -1    0    0    0    0 -0.00000000000E+00 -0.00000000000E+00 -0.45593999997E+02  0.45594000000E+02  0.51100000000E-03 0.  1.
    9900012    2    1    2    0    0 -0.13801496471E+02 -0.26841105356E+02 -0.31188079032E+02  0.47787279784E+02  0.20000039846E+02 0.  0.
         12    1    1    2    0    0  0.13801496471E+02  0.26841105356E+02  0.31188079032E+02  0.43400720216E+02  0.00000000000E+00 0. -1.
         11    1    3    3    0    0  0.22272505791E+01  0.16680727655E+01 -0.51948196976E+00  0.28307196384E+01  0.51100000000E-03 0. -1.
        -11    1    3    3    0    0 -0.14752988762E+02 -0.23917437273E+02 -0.25964907879E+02  0.38260566182E+02  0.51100000000E-03 0.  1.
         12    1    3    3    0    0 -0.12757582882E+01 -0.45917408483E+01 -0.47036891837E+01  0.66959939639E+01  0.00000000000E+00 0. -1.
</event>
<event>
 7    1  0.7470072E-010  0.4778725E+02  0.7816164E-02  0.1312668E+00
        -11   -1    0    0    0    0  0.00000000000E+00  0.00000000000E+00  0.45593999997E+02  0.45594000000E+02  0.51100000000E-03 0. -1.
         11   -1    0    0    0    0 -0.00000000000E+00 -0.00000000000E+00 -0.45593999997E+02  0.45594000000E+02  0.51100000000E-03 0.  1.
    9900012    2    1    2    0    0  0.86223723480E+01 -0.27769833555E+02 -0.32219805064E+02  0.47787253475E+02  0.19999919895E+02 0.  0.
         12    1    1    2    0    0 -0.86223723480E+01  0.27769833555E+02  0.32219805064E+02  0.43400746525E+02  0.00000000000E+00 0. -1.
         11    1    3    3    0    0  0.38795637394E+01 -0.12453654175E+02 -0.51946968549E+01  0.14040277518E+02  0.51100000000E-03 0. -1.
        -11    1    3    3    0    0 -0.15847648776E+01 -0.13037495987E+02 -0.20698165011E+02  0.24513298766E+02  0.51100000000E-03 0.  1.
        -12    1    3    3    0    0  0.63275734861E+01 -0.22786833927E+01 -0.63269431978E+01  0.92336771903E+01  0.00000000000E+00 0.  1.
</event>
<event>
 7    1  0.7470072E-010  0.4778727E+02  0.7816164E-02  0.1312668E+00
        -11   -1    0    0    0    0  0.00000000000E+00  0.00000000000E+00  0.45593999997E+02  0.45594000000E+02  0.51100000000E-03 0. -1.
         11   -1    0    0    0    0 -0.00000000000E+00 -0.00000000000E+00 -0.45593999997E+02  0.45594000000E+02  0.51100000000E-03 0.  1.
    9900012    2    1    2    0    0  0.70694554678E+01  0.19978137991E+02 -0.37875061430E+02  0.47787268710E+02  0.19999989355E+02 0.  0.
         12    1    1    2    0    0 -0.70694554678E+01 -0.19978137991E+02  0.37875061430E+02  0.43400731290E+02  0.00000000000E+00 0. -1.
         11    1    3    3    0    0 -0.34822019860E+01  0.13886981905E+02 -0.18538690104E+02  0.23423429043E+02  0.51100000000E-03 0. -1.
        -11    1    3    3    0    0  0.77658159119E+01  0.73883853442E+01 -0.18131655523E+02  0.21063073542E+02  0.51100000000E-03 0.  1.
         12    1    3    3    0    0  0.27858415419E+01 -0.12972292582E+01 -0.12047158034E+01  0.33007661250E+01  0.00000000000E+00 0. -1.
</event>
<event>
 7    1  0.7470072E-010  0.4778728E+02  0.7816164E-02  0.1312668E+00
        -11   -1    0    0    0    0  0.00000000000E+00  0.00000000000E+00  0.45593999997E+02  0.45594000000E+02  0.51100000000E-03 0. -1.
         11   -1    0    0    0    0 -0.00000000000E+00 -0.00000000000E+00 -0.45593999997E+02  0.45594000000E+02  0.51100000000E-03 0.  1.
    9900012    2    1    2    0    0  0.34195917074E+02  0.51407455592E+01  0.26226601851E+02  0.47787278185E+02  0.20000032558E+02 0.  0.
        -12    1    1    2    0    0 -0.34195917074E+02 -0.51407455592E+01 -0.26226601851E+02  0.43400721815E+02  0.00000000000E+00 0.  1.
         11    1    3    3    0    0  0.12101670274E+02  0.51325829721E+01 -0.18773416683E+00  0.13146447268E+02  0.51100000000E-03 0. -1.
        -11    1    3    3    0    0  0.17145928305E+02 -0.12981726854E+01  0.21659664756E+02  0.27655183734E+02  0.51100000000E-03 0.  1.
         12    1    3    3    0    0  0.49483184950E+01  0.13063352724E+01  0.47546712615E+01  0.69856471838E+01  0.00000000000E+00 0. -1.
</event>
<event>
 7    1  0.8549910E-010  0.4778727E+02  0.7816164E-02  0.1312668E+00
        -11   -1    0    0    0    0  0.00000000000E+00  0.00000000000E+00  0.45593999997E+02  0.45594000000E+02  0.51100000000E-03 0. -1.
         11   -1    0    0    0    0 -0.00000000000E+00 -0.00000000000E+00 -0.45593999997E+02  0.45594000000E+02  0.51100000000E-03 0.  1.
    9900012    2    1    2    0    0 -0.18713667657E+02  0.12920407707E+02 -0.36965997801E+02  0.47787270906E+02  0.19999999368E+02 0.  0.
         12    1    1    2    0    0  0.18713667657E+02 -0.12920407707E+02  0.36965997801E+02  0.43400729094E+02  0.00000000000E+00 0. -1.
         11    1    3    3    0    0 -0.65356631704E+00  0.44305482525E+01 -0.15641916244E+01  0.47437962064E+01  0.51100000000E-03 0. -1.
        -11    1    3    3    0    0 -0.53765035961E+01  0.51846360903E+01 -0.25625681522E+02  0.26691998727E+02  0.51100000000E-03 0.  1.
        -12    1    3    3    0    0 -0.12683597743E+02  0.33052233636E+01 -0.97761246545E+01  0.16351475972E+02  0.00000000000E+00 0.  1.
</event>
<event>
 7    1  0.7470072E-010  0.4778728E+02  0.7816164E-02  0.1312668E+00
        -11   -1    0    0    0    0  0.00000000000E+00  0.00000000000E+00  0.45593999997E+02  0.45594000000E+02  0.51100000000E-03 0. -1.
         11   -1    0    0    0    0 -0.00000000000E+00 -0.00000000000E+00 -0.45593999997E+02  0.45594000000E+02  0.51100000000E-03 0.  1.
    9900012    2    1    2    0    0 -0.15861271910E+02 -0.28150679264E+02  0.28975541829E+02  0.47787277496E+02  0.20000029414E+02 0.  0.
        -12    1    1    2    0    0  0.15861271910E+02  0.28150679264E+02 -0.28975541829E+02  0.43400722504E+02  0.00000000000E+00 0.  1.
         11    1    3    3    0    0 -0.10121964778E+02 -0.53890544989E+01  0.44141913430E+01  0.12287439312E+02  0.51100000000E-03 0. -1.
        -11    1    3    3    0    0  0.28892241184E+01 -0.65840017646E+01  0.84200853393E+01  0.11072241536E+02  0.51100000000E-03 0.  1.
        -12    1    3    3    0    0 -0.86285312502E+01 -0.16177623000E+02  0.16141265147E+02  0.24427596648E+02  0.00000000000E+00 0.  1.
</event>
<event>
 7    1  0.7470072E-010  0.4778728E+02  0.7816164E-02  0.1312668E+00
        -11   -1    0    0    0    0  0.00000000000E+00  0.00000000000E+00  0.45593999997E+02  0.45594000000E+02  0.51100000000E-03 0. -1.
         11   -1    0    0    0    0 -0.00000000000E+00 -0.00000000000E+00 -0.45593999997E+02  0.45594000000E+02  0.51100000000E-03 0.  1.
    9900012    2    1    2    0    0  0.24849179240E+02 -0.21791421740E+02 -0.28129611168E+02  0.47787276563E+02  0.20000025163E+02 0.  0.
         12    1    1    2    0    0 -0.24849179240E+02  0.21791421740E+02  0.28129611168E+02  0.43400723437E+02  0.00000000000E+00 0. -1.
         11    1    3    3    0    0  0.36523961433E+01 -0.11534826555E+01 -0.65152906738E+00  0.38852297500E+01  0.51100000000E-03 0. -1.
        -11    1    3    3    0    0  0.21964324969E+02 -0.11383917728E+02 -0.17711464870E+02  0.30425665848E+02  0.51100000000E-03 0.  1.
        -12    1    3    3    0    0 -0.76754187254E+00 -0.92540213565E+01 -0.97666172304E+01  0.13476380965E+02  0.00000000000E+00 0.  1.
</event>
<event>
 7    1  0.7470072E-010  0.4778726E+02  0.7816164E-02  0.1312668E+00
        -11   -1    0    0    0    0  0.00000000000E+00  0.00000000000E+00  0.45593999997E+02  0.45594000000E+02  0.51100000000E-03 0.  1.
         11   -1    0    0    0    0 -0.00000000000E+00 -0.00000000000E+00 -0.45593999997E+02  0.45594000000E+02  0.51100000000E-03 0. -1.
    9900012    2    1    2    0    0 -0.40566301325E+02  0.13063506348E+02  0.82063300547E+01  0.47787264358E+02  0.19999969513E+02 0.  0.
        -12    1    1    2    0    0  0.40566301325E+02 -0.13063506348E+02 -0.82063300547E+01  0.43400735642E+02  0.00000000000E+00 0.  1.
         11    1    3    3    0    0 -0.83135192799E+01  0.20341536098E+01  0.73114278543E+01  0.11256525274E+02  0.51100000000E-03 0. -1.
        -11    1    3    3    0    0 -0.23821364572E+02  0.54384715078E+01 -0.48292410209E+01  0.24906945849E+02  0.51100000000E-03 0.  1.
        -12    1    3    3    0    0 -0.84314174731E+01  0.55908812304E+01  0.57241432213E+01  0.11623793234E+02  0.00000000000E+00 0.  1.
</event>
<event>
 7    1  0.7470072E-010  0.4778727E+02  0.7816164E-02  0.1312668E+00
        -11   -1    0    0    0    0  0.00000000000E+00  0.00000000000E+00  0.45593999997E+02  0.45594000000E+02  0.51100000000E-03 0. -1.
         11   -1    0    0    0    0 -0.00000000000E+00 -0.00000000000E+00 -0.45593999997E+02  0.45594000000E+02  0.51100000000E-03 0.  1.
    9900012    2    1    2    0    0  0.26230387162E+02 -0.16173217665E+02 -0.30561693495E+02  0.47787270864E+02  0.19999999178E+02 0.  0.
         12    1    1    2    0    0 -0.26230387162E+02  0.16173217665E+02  0.30561693495E+02  0.43400729136E+02  0.00000000000E+00 0. -1.
         11    1    3    3    0    0  0.12283565367E+02 -0.16940159135E+02 -0.23285695169E+02  0.31306206564E+02  0.51100000000E-03 0. -1.
        -11    1    3    3    0    0  0.10996286410E+02 -0.12213819909E+01 -0.44024791743E+01  0.11907640905E+02  0.51100000000E-03 0.  1.
         12    1    3    3    0    0  0.29505353840E+01  0.19883234611E+01 -0.28735191511E+01  0.45734233951E+01  0.00000000000E+00 0. -1.
</event>
<event>
 7    1  0.7470072E-010  0.4778727E+02  0.7816164E-02  0.1312668E+00
        -11   -1    0    0    0    0  0.00000000000E+00  0.00000000000E+00  0.45593999997E+02  0.45594000000E+02  0.51100000000E-03 0. -1.
         11   -1    0    0    0    0 -0.00000000000E+00 -0.00000000000E+00 -0.45593999997E+02  0.45594000000E+02  0.51100000000E-03 0.  1.
    9900012    2    1    2    0    0  0.21673805859E+01  0.37726500241E+01  0.43182089059E+02  0.47787271408E+02  0.20000001657E+02 0.  0.
        -12    1    1    2    0    0 -0.21673805859E+01 -0.37726500241E+01 -0.43182089059E+02  0.43400728592E+02  0.00000000000E+00 0.  1.
         11    1    3    3    0    0  0.42728747715E+01 -0.10243642118E+01  0.18360272570E+02  0.18878728505E+02  0.51100000000E-03 0. -1.
        -11    1    3    3    0    0  0.62694631739E+00  0.94168472180E+01  0.15231049402E+02  0.17918006009E+02  0.51100000000E-03 0.  1.
        -12    1    3    3    0    0 -0.27324405030E+01 -0.46198329821E+01  0.95907670874E+01  0.10990536894E+02  0.00000000000E+00 0.  1.
</event>
<event>
 7    1  0.9584151E-010  0.4778727E+02  0.7816164E-02  0.1312668E+00
        -11   -1    0    0    0    0  0.00000000000E+00  0.00000000000E+00  0.45593999997E+02  0.45594000000E+02  0.51100000000E-03 0. -1.
         11   -1    0    0    0    0 -0.00000000000E+00 -0.00000000000E+00 -0.45593999997E+02  0.45594000000E+02  0.51100000000E-03 0.  1.
    9900012    2    1    2    0    0 -0.12158391965E+02 -0.86100909253E+00 -0.41653996930E+02  0.47787270834E+02  0.19999999042E+02 0.  0.
         12    1    1    2    0    0  0.12158391965E+02  0.86100909253E+00  0.41653996930E+02  0.43400729166E+02  0.00000000000E+00 0. -1.
         11    1    3    3    0    0  0.13350653214E+01  0.57981287537E+01 -0.58567878643E+01  0.83488119398E+01  0.51100000000E-03 0. -1.
        -11    1    3    3    0    0 -0.58857448102E+01 -0.26464385310E+01 -0.23911913935E+02  0.24767423305E+02  0.51100000000E-03 0.  1.
         12    1    3    3    0    0 -0.76077124765E+01 -0.40126993153E+01 -0.11885295131E+02  0.14671035590E+02  0.00000000000E+00 0. -1.
</event>
<event>
 7    1  0.7470072E-010  0.4778726E+02  0.7816164E-02  0.1312668E+00
        -11   -1    0    0    0    0  0.00000000000E+00  0.00000000000E+00  0.45593999997E+02  0.45594000000E+02  0.51100000000E-03 0. -1.
         11   -1    0    0    0    0 -0.00000000000E+00 -0.00000000000E+00 -0.45593999997E+02  0.45594000000E+02  0.51100000000E-03 0.  1.
    9900012    2    1    2    0    0  0.14792316734E+02  0.83617344877E+01 -0.39936107563E+02  0.47787263540E+02  0.19999965783E+02 0.  0.
         12    1    1    2    0    0 -0.14792316734E+02 -0.83617344877E+01  0.39936107563E+02  0.43400736460E+02  0.00000000000E+00 0. -1.
         11    1    3    3    0    0  0.47708754412E+01 -0.14607618609E+01 -0.23699398565E+02  0.24218929999E+02  0.51100000000E-03 0. -1.
        -11    1    3    3    0    0  0.11583792001E+02  0.10236661283E+02 -0.14480658838E+02  0.21181665468E+02  0.51100000000E-03 0.  1.
        -12    1    3    3    0    0 -0.15623507079E+01 -0.41416493427E+00 -0.17560501599E+01  0.23866680731E+01  0.00000000000E+00 0.  1.
</event>
<event>
 7    1  0.7470072E-010  0.4778727E+02  0.7816164E-02  0.1312668E+00
        -11   -1    0    0    0    0  0.00000000000E+00  0.00000000000E+00  0.45593999997E+02  0.45594000000E+02  0.51100000000E-03 0.  1.
         11   -1    0    0    0    0 -0.00000000000E+00 -0.00000000000E+00 -0.45593999997E+02  0.45594000000E+02  0.51100000000E-03 0. -1.
    9900012    2    1    2    0    0  0.43020263970E+02  0.31629528878E+00  0.57254121937E+01  0.47787268445E+02  0.19999988147E+02 0.  0.
        -12    1    1    2    0    0 -0.43020263970E+02 -0.31629528878E+00 -0.57254121937E+01  0.43400731555E+02  0.00000000000E+00 0.  1.
         11    1    3    3    0    0  0.94993356907E+01 -0.21080527615E+01  0.34458955444E+01  0.10322570483E+02  0.51100000000E-03 0. -1.
        -11    1    3    3    0    0  0.13265395819E+02  0.41104253608E+01  0.84089108451E+01  0.16235027094E+02  0.51100000000E-03 0.  1.
        -12    1    3    3    0    0  0.20255532461E+02 -0.16860773105E+01 -0.61293941958E+01  0.21229670868E+02  0.00000000000E+00 0.  1.
</event>
<event>
 7    1  0.7470072E-010  0.4778727E+02  0.7816164E-02  0.1312668E+00
        -11   -1    0    0    0    0  0.00000000000E+00  0.00000000000E+00  0.45593999997E+02  0.45594000000E+02  0.51100000000E-03 0. -1.
         11   -1    0    0    0    0 -0.00000000000E+00 -0.00000000000E+00 -0.45593999997E+02  0.45594000000E+02  0.51100000000E-03 0.  1.
    9900012    2    1    2    0    0 -0.20609811664E+02  0.14709198718E+02  0.35249091793E+02  0.47787270329E+02  0.19999996737E+02 0.  0.
        -12    1    1    2    0    0  0.20609811664E+02 -0.14709198718E+02 -0.35249091793E+02  0.43400729671E+02  0.00000000000E+00 0.  1.
         11    1    3    3    0    0 -0.89705884171E+01  0.33855373169E+01  0.87719201265E+01  0.12995380042E+02  0.51100000000E-03 0. -1.
        -11    1    3    3    0    0 -0.94538877078E+01  0.13566851237E+02  0.13222819100E+02  0.21172585824E+02  0.51100000000E-03 0.  1.
        -12    1    3    3    0    0 -0.21853355396E+01 -0.22431898364E+01  0.13254352567E+02  0.13619304462E+02  0.00000000000E+00 0.  1.
</event>
<event>
 7    1  0.7470072E-010  0.4778727E+02  0.7816164E-02  0.1312668E+00
        -11   -1    0    0    0    0  0.00000000000E+00  0.00000000000E+00  0.45593999997E+02  0.45594000000E+02  0.51100000000E-03 0. -1.
         11   -1    0    0    0    0 -0.00000000000E+00 -0.00000000000E+00 -0.45593999997E+02  0.45594000000E+02  0.51100000000E-03 0.  1.
    9900012    2    1    2    0    0 -0.72432869321E+01  0.32915565516E+02  0.27344531145E+02  0.47787273711E+02  0.20000012159E+02 0.  0.
        -12    1    1    2    0    0  0.72432869321E+01 -0.32915565516E+02 -0.27344531145E+02  0.43400726289E+02  0.00000000000E+00 0.  1.
         11    1    3    3    0    0 -0.41462740578E+01  0.55449829384E+01  0.45361302101E+01  0.82773728860E+01  0.51100000000E-03 0. -1.
        -11    1    3    3    0    0 -0.25659972447E+01  0.88176762849E+01  0.18200254042E+02  0.20385902098E+02  0.51100000000E-03 0.  1.
        -12    1    3    3    0    0 -0.53101562956E+00  0.18552906293E+02  0.46081468938E+01  0.19123998727E+02  0.00000000000E+00 0.  1.
</event>
<event>
 7    1  0.7470072E-010  0.4778727E+02  0.7816164E-02  0.1312668E+00
        -11   -1    0    0    0    0  0.00000000000E+00  0.00000000000E+00  0.45593999997E+02  0.45594000000E+02  0.51100000000E-03 0. -1.
         11   -1    0    0    0    0 -0.00000000000E+00 -0.00000000000E+00 -0.45593999997E+02  0.45594000000E+02  0.51100000000E-03 0.  1.
    9900012    2    1    2    0    0  0.29706656336E+02  0.11070367975E+02 -0.29640929801E+02  0.47787271927E+02  0.20000004025E+02 0.  0.
         12    1    1    2    0    0 -0.29706656336E+02 -0.11070367975E+02  0.29640929801E+02  0.43400728073E+02  0.00000000000E+00 0. -1.
         11    1    3    3    0    0  0.66097852905E+00 -0.79827202078E+00 -0.20514301343E+00  0.10565106493E+01  0.51100000000E-03 0. -1.
        -11    1    3    3    0    0  0.96054787521E+01 -0.44111135425E+01 -0.57508521900E+01  0.12033097935E+02  0.51100000000E-03 0.  1.
        -12    1    3    3    0    0  0.19440199055E+02  0.16279753539E+02 -0.23684934597E+02  0.34697663343E+02  0.00000000000E+00 0.  1.
</event>
<event>
 7    1  0.7470072E-010  0.4778728E+02  0.7816164E-02  0.1312668E+00
        -11   -1    0    0    0    0  0.00000000000E+00  0.00000000000E+00  0.45593999997E+02  0.45594000000E+02  0.51100000000E-03 0. -1.
         11   -1    0    0    0    0 -0.00000000000E+00 -0.00000000000E+00 -0.45593999997E+02  0.45594000000E+02  0.51100000000E-03 0.  1.
    9900012    2    1    2    0    0 -0.97299554100E+01 -0.17364451031E+02  0.38567171235E+02  0.47787275478E+02  0.20000020216E+02 0.  0.
        -12    1    1    2    0    0  0.97299554100E+01  0.17364451031E+02 -0.38567171235E+02  0.43400724522E+02  0.00000000000E+00 0.  1.
         11    1    3    3    0    0 -0.19100044353E+01 -0.45171518522E+01  0.86509302586E+01  0.99444141305E+01  0.51100000000E-03 0. -1.
        -11    1    3    3    0    0 -0.11919384665E+02 -0.60542294277E+01  0.10939343751E+02  0.17274103934E+02  0.51100000000E-03 0.  1.
        -12    1    3    3    0    0  0.40994336904E+01 -0.67930697516E+01  0.18976897226E+02  0.20568757414E+02  0.00000000000E+00 0.  1.
</event>
<event>
 7    1  0.7470072E-010  0.4778727E+02  0.7816164E-02  0.1312668E+00
        -11   -1    0    0    0    0  0.00000000000E+00  0.00000000000E+00  0.45593999997E+02  0.45594000000E+02  0.51100000000E-03 0. -1.
         11   -1    0    0    0    0 -0.00000000000E+00 -0.00000000000E+00 -0.45593999997E+02  0.45594000000E+02  0.51100000000E-03 0.  1.
    9900012    2    1    2    0    0 -0.65398908290E+01 -0.10130998883E+02  0.41691914250E+02  0.47787273920E+02  0.20000013110E+02 0.  0.
        -12    1    1    2    0    0  0.65398908290E+01  0.10130998883E+02 -0.41691914250E+02  0.43400726080E+02  0.00000000000E+00 0.  1.
         11    1    3    3    0    0 -0.24309163190E+01 -0.12491240130E+02  0.36091694323E+02  0.38269450395E+02  0.51100000000E-03 0. -1.
        -11    1    3    3    0    0 -0.12050216199E+01  0.38317014656E+00 -0.12758439911E+01  0.17962946908E+01  0.51100000000E-03 0.  1.
         12    1    3    3    0    0 -0.29039528901E+01  0.19770711010E+01  0.68760639182E+01  0.77215288340E+01  0.00000000000E+00 0. -1.
</event>
<event>
 7    1  0.7470072E-010  0.4778727E+02  0.7816164E-02  0.1312668E+00
        -11   -1    0    0    0    0  0.00000000000E+00  0.00000000000E+00  0.45593999997E+02  0.45594000000E+02  0.51100000000E-03 0. -1.
         11   -1    0    0    0    0 -0.00000000000E+00 -0.00000000000E+00 -0.45593999997E+02  0.45594000000E+02  0.51100000000E-03 0.  1.
    9900012    2    1    2    0    0 -0.20832451406E+02  0.10302244698E+02  0.36653728114E+02  0.47787273485E+02  0.20000011126E+02 0.  0.
        -12    1    1    2    0    0  0.20832451406E+02 -0.10302244698E+02 -0.36653728114E+02  0.43400726515E+02  0.00000000000E+00 0.  1.
         11    1    3    3    0    0 -0.14042012852E+02  0.22437388927E+01  0.29501317222E+02  0.32749659651E+02  0.51100000000E-03 0. -1.
        -11    1    3    3    0    0 -0.27414663828E+00  0.63348649631E+01  0.45849147819E+01  0.78247756708E+01  0.51100000000E-03 0.  1.
        -12    1    3    3    0    0 -0.65162919163E+01  0.17236408417E+01  0.25674961101E+01  0.72128381629E+01  0.00000000000E+00 0.  1.
</event>
<event>
 7    1  0.7470072E-010  0.4778728E+02  0.7816164E-02  0.1312668E+00
        -11   -1    0    0    0    0  0.00000000000E+00  0.00000000000E+00  0.45593999997E+02  0.45594000000E+02  0.51100000000E-03 0. -1.
         11   -1    0    0    0    0 -0.00000000000E+00 -0.00000000000E+00 -0.45593999997E+02  0.45594000000E+02  0.51100000000E-03 0.  1.
    9900012    2    1    2    0    0  0.11691581691E+02  0.15285963018E+02 -0.38900751013E+02  0.47787283679E+02  0.20000057606E+02 0.  0.
         12    1    1    2    0    0 -0.11691581691E+02 -0.15285963018E+02  0.38900751013E+02  0.43400716321E+02  0.00000000000E+00 0. -1.
         11    1    3    3    0    0 -0.67514402673E+00  0.30195557662E+01  0.14002448496E+01  0.33962070581E+01  0.51100000000E-03 0. -1.
        -11    1    3    3    0    0  0.62326614221E+01  0.27012401090E+01 -0.20056402078E+02  0.21175505451E+02  0.51100000000E-03 0.  1.
         12    1    3    3    0    0  0.61340642960E+01  0.95651671429E+01 -0.20244593784E+02  0.23215571170E+02  0.00000000000E+00 0. -1.
</event>
<event>
 7    1  0.7470072E-010  0.4778727E+02  0.7816164E-02  0.1312668E+00
        -11   -1    0    0    0    0  0.00000000000E+00  0.00000000000E+00  0.45593999997E+02  0.45594000000E+02  0.51100000000E-03 0. -1.
         11   -1    0    0    0    0 -0.00000000000E+00 -0.00000000000E+00 -0.45593999997E+02  0.45594000000E+02  0.51100000000E-03 0.  1.
    9900012    2    1    2    0    0 -0.35391492198E+02  0.35764250352E+01 -0.24865138250E+02  0.47787266870E+02  0.19999980966E+02 0.  0.
         12    1    1    2    0    0  0.35391492198E+02 -0.35764250352E+01  0.24865138250E+02  0.43400733130E+02  0.00000000000E+00 0. -1.
         11    1    3    3    0    0 -0.11884622100E+02  0.85233465046E+01 -0.79954397038E+01  0.16667895321E+02  0.51100000000E-03 0.  1.
        -11    1    3    3    0    0 -0.65352251433E+01 -0.32634375656E+01 -0.25481564312E+00  0.73091807812E+01  0.51100000000E-03 0. -1.
         12    1    3    3    0    0 -0.16971644955E+02 -0.16834839038E+01 -0.16614882903E+02  0.23810190768E+02  0.00000000000E+00 0. -1.
</event>
<event>
 7    1  0.7470072E-010  0.4778727E+02  0.7816164E-02  0.1312668E+00
        -11   -1    0    0    0    0  0.00000000000E+00  0.00000000000E+00  0.45593999997E+02  0.45594000000E+02  0.51100000000E-03 0. -1.
         11   -1    0    0    0    0 -0.00000000000E+00 -0.00000000000E+00 -0.45593999997E+02  0.45594000000E+02  0.51100000000E-03 0.  1.
    9900012    2    1    2    0    0 -0.31780372735E+00 -0.18650374291E+02  0.39187826615E+02  0.47787271721E+02  0.20000003083E+02 0.  0.
        -12    1    1    2    0    0  0.31780372735E+00  0.18650374291E+02 -0.39187826615E+02  0.43400728279E+02  0.00000000000E+00 0.  1.
         11    1    3    3    0    0  0.79683955457E+01 -0.15840426083E+02  0.29642970711E+02  0.34541571170E+02  0.51100000000E-03 0. -1.
        -11    1    3    3    0    0 -0.31026478823E+01 -0.25929845734E+00  0.18433592401E+01  0.36182361892E+01  0.51100000000E-03 0.  1.
         12    1    3    3    0    0 -0.51835513907E+01 -0.25506497504E+01  0.77014966636E+01  0.96274643613E+01  0.00000000000E+00 0. -1.
</event>
<event>
 7    1  0.7470072E-010  0.4778727E+02  0.7816164E-02  0.1312668E+00
        -11   -1    0    0    0    0  0.00000000000E+00  0.00000000000E+00  0.45593999997E+02  0.45594000000E+02  0.51100000000E-03 0. -1.
         11   -1    0    0    0    0 -0.00000000000E+00 -0.00000000000E+00 -0.45593999997E+02  0.45594000000E+02  0.51100000000E-03 0.  1.
    9900012    2    1    2    0    0 -0.11365145824E+02  0.34388077470E+02  0.23914784463E+02  0.47787270426E+02  0.19999997178E+02 0.  0.
        -12    1    1    2    0    0  0.11365145824E+02 -0.34388077470E+02 -0.23914784463E+02  0.43400729574E+02  0.00000000000E+00 0.  1.
         11    1    3    3    0    0 -0.12625905970E+02  0.24674933970E+02  0.12238362342E+02  0.30299230701E+02  0.51100000000E-03 0. -1.
        -11    1    3    3    0    0  0.10946648381E+01  0.75863700423E+01  0.12917218250E+02  0.15020180729E+02  0.51100000000E-03 0.  1.
         12    1    3    3    0    0  0.16609530731E+00  0.21267734569E+01 -0.12407961295E+01  0.24678589957E+01  0.00000000000E+00 0. -1.
</event>
<event>
 7    1  0.7470072E-010  0.4778727E+02  0.7816164E-02  0.1312668E+00
        -11   -1    0    0    0    0  0.00000000000E+00  0.00000000000E+00  0.45593999997E+02  0.45594000000E+02  0.51100000000E-03 0. -1.
         11   -1    0    0    0    0 -0.00000000000E+00 -0.00000000000E+00 -0.45593999997E+02  0.45594000000E+02  0.51100000000E-03 0.  1.
    9900012    2    1    2    0    0 -0.13508157780E+02  0.18101468813E+02  0.37060625178E+02  0.47787269149E+02  0.19999991360E+02 0.  0.
        -12    1    1    2    0    0  0.13508157780E+02 -0.18101468813E+02 -0.37060625178E+02  0.43400730851E+02  0.00000000000E+00 0.  1.
         11    1    3    3    0    0 -0.62956561393E+01 -0.19464414241E+01  0.11434432911E+02  0.13197354913E+02  0.51100000000E-03 0. -1.
        -11    1    3    3    0    0 -0.83708854447E+01  0.14016905828E+02  0.14288373124E+02  0.21695690330E+02  0.51100000000E-03 0.  1.
         12    1    3    3    0    0  0.11583838044E+01  0.60310044092E+01  0.11337819143E+02  0.12894223906E+02  0.00000000000E+00 0. -1.
</event>
<event>
 7    1  0.7470072E-010  0.4778727E+02  0.7816164E-02  0.1312668E+00
        -11   -1    0    0    0    0  0.00000000000E+00  0.00000000000E+00  0.45593999997E+02  0.45594000000E+02  0.51100000000E-03 0. -1.
         11   -1    0    0    0    0 -0.00000000000E+00 -0.00000000000E+00 -0.45593999997E+02  0.45594000000E+02  0.51100000000E-03 0.  1.
    9900012    2    1    2    0    0 -0.36432986777E+02 -0.13184045586E+02 -0.19556128963E+02  0.47787265403E+02  0.19999974280E+02 0.  0.
         12    1    1    2    0    0  0.36432986777E+02  0.13184045586E+02  0.19556128963E+02  0.43400734597E+02  0.00000000000E+00 0. -1.
         11    1    3    3    0    0 -0.82572536863E+01  0.11363935036E+01  0.25953212955E+01  0.87297950447E+01  0.51100000000E-03 0. -1.
        -11    1    3    3    0    0 -0.27744142789E+02 -0.14539572126E+02 -0.20744400913E+02  0.37569492760E+02  0.51100000000E-03 0.  1.
        -12    1    3    3    0    0 -0.43159030163E+00  0.21913303623E+00 -0.14070493448E+01  0.14879775989E+01  0.00000000000E+00 0.  1.
</event>
<event>
 7    1  0.7470072E-010  0.4778727E+02  0.7816164E-02  0.1312668E+00
        -11   -1    0    0    0    0  0.00000000000E+00  0.00000000000E+00  0.45593999997E+02  0.45594000000E+02  0.51100000000E-03 0. -1.
         11   -1    0    0    0    0 -0.00000000000E+00 -0.00000000000E+00 -0.45593999997E+02  0.45594000000E+02  0.51100000000E-03 0.  1.
    9900012    2    1    2    0    0 -0.34993742452E+02 -0.17314727724E+02 -0.18954198194E+02  0.47787269175E+02  0.19999991477E+02 0.  0.
         12    1    1    2    0    0  0.34993742452E+02  0.17314727724E+02  0.18954198194E+02  0.43400730825E+02  0.00000000000E+00 0. -1.
         11    1    3    3    0    0 -0.10409498816E+02 -0.58815152320E+01 -0.15247806046E+02  0.19376415471E+02  0.51100000000E-03 0.  1.
        -11    1    3    3    0    0 -0.10788745924E+02 -0.85639161543E+01  0.24453207839E+00  0.13776701155E+02  0.51100000000E-03 0. -1.
        -12    1    3    3    0    0 -0.13795497712E+02 -0.28692963379E+01 -0.39509242266E+01  0.14634152549E+02  0.00000000000E+00 0.  1.
</event>
<event>
 7    1  0.7470072E-010  0.4778727E+02  0.7816164E-02  0.1312668E+00
        -11   -1    0    0    0    0  0.00000000000E+00  0.00000000000E+00  0.45593999997E+02  0.45594000000E+02  0.51100000000E-03 0. -1.
         11   -1    0    0    0    0 -0.00000000000E+00 -0.00000000000E+00 -0.45593999997E+02  0.45594000000E+02  0.51100000000E-03 0.  1.
    9900012    2    1    2    0    0 -0.21425017105E+01 -0.41717442415E+01  0.43146601368E+02  0.47787274508E+02  0.20000015791E+02 0.  0.
        -12    1    1    2    0    0  0.21425017105E+01  0.41717442415E+01 -0.43146601368E+02  0.43400725492E+02  0.00000000000E+00 0.  1.
         11    1    3    3    0    0 -0.82579513999E+01 -0.39581265350E+00  0.25986260394E+02  0.27269693040E+02  0.51100000000E-03 0. -1.
        -11    1    3    3    0    0  0.37925474941E+01 -0.35326211859E+01  0.26512032920E+01  0.58216585347E+01  0.51100000000E-03 0.  1.
        -12    1    3    3    0    0  0.23229021953E+01 -0.24331040208E+00  0.14509137683E+02  0.14695922933E+02  0.00000000000E+00 0.  1.
</event>
<event>
 7    1  0.7470072E-010  0.4778727E+02  0.7816164E-02  0.1312668E+00
        -11   -1    0    0    0    0  0.00000000000E+00  0.00000000000E+00  0.45593999997E+02  0.45594000000E+02  0.51100000000E-03 0. -1.
         11   -1    0    0    0    0 -0.00000000000E+00 -0.00000000000E+00 -0.45593999997E+02  0.45594000000E+02  0.51100000000E-03 0.  1.
    9900012    2    1    2    0    0  0.20203304422E+02  0.33448364516E+02  0.18885350270E+02  0.47787273587E+02  0.20000011594E+02 0.  0.
        -12    1    1    2    0    0 -0.20203304422E+02 -0.33448364516E+02 -0.18885350270E+02  0.43400726413E+02  0.00000000000E+00 0.  1.
         11    1    3    3    0    0  0.42401632763E+01  0.11232375657E+02  0.30531102024E+01  0.12388168940E+02  0.51100000000E-03 0. -1.
        -11    1    3    3    0    0  0.11693333899E+01  0.40597934833E+01  0.10586864852E+02  0.11398726743E+02  0.51100000000E-03 0.  1.
        -12    1    3    3    0    0  0.14793807756E+02  0.18156195375E+02  0.52453752158E+01  0.24000377905E+02  0.00000000000E+00 0.  1.
</event>
<event>
 7    1  0.7470072E-010  0.4778727E+02  0.7816164E-02  0.1312668E+00
        -11   -1    0    0    0    0  0.00000000000E+00  0.00000000000E+00  0.45593999997E+02  0.45594000000E+02  0.51100000000E-03 0. -1.
         11   -1    0    0    0    0 -0.00000000000E+00 -0.00000000000E+00 -0.45593999997E+02  0.45594000000E+02  0.51100000000E-03 0.  1.
    9900012    2    1    2    0    0  0.10022442391E+02  0.17551448684E+01  0.42191149780E+02  0.47787274145E+02  0.20000014138E+02 0.  0.
        -12    1    1    2    0    0 -0.10022442391E+02 -0.17551448684E+01 -0.42191149780E+02  0.43400725855E+02  0.00000000000E+00 0.  1.
         11    1    3    3    0    0  0.11577279474E+02  0.74886621488E+01  0.38220021683E+02  0.40631065928E+02  0.51100000000E-03 0. -1.
        -11    1    3    3    0    0 -0.11650688068E+01 -0.43082656119E+01  0.31810004571E+01  0.54806297153E+01  0.51100000000E-03 0.  1.
         12    1    3    3    0    0 -0.38976827623E+00 -0.14252516685E+01  0.79012763980E+00  0.16755785016E+01  0.00000000000E+00 0. -1.
</event>
<event>
 7    1  0.7470072E-010  0.4778726E+02  0.7816164E-02  0.1312668E+00
        -11   -1    0    0    0    0  0.00000000000E+00  0.00000000000E+00  0.45593999997E+02  0.45594000000E+02  0.51100000000E-03 0. -1.
         11   -1    0    0    0    0 -0.00000000000E+00 -0.00000000000E+00 -0.45593999997E+02  0.45594000000E+02  0.51100000000E-03 0.  1.
    9900012    2    1    2    0    0  0.26546915584E+02  0.22666316800E+01  0.34259999377E+02  0.47787263791E+02  0.19999966928E+02 0.  0.
        -12    1    1    2    0    0 -0.26546915584E+02 -0.22666316800E+01 -0.34259999377E+02  0.43400736209E+02  0.00000000000E+00 0.  1.
         11    1    3    3    0    0  0.47665771391E+01 -0.52761265646E+01  0.45023842767E+01  0.84160105504E+01  0.51100000000E-03 0. -1.
        -11    1    3    3    0    0  0.18051012903E+02  0.53630863476E+01  0.15241650043E+02  0.24226218407E+02  0.51100000000E-03 0.  1.
        -12    1    3    3    0    0  0.37293255418E+01  0.21796718970E+01  0.14515965057E+02  0.15145034834E+02  0.00000000000E+00 0.  1.
</event>
<event>
 7    1  0.7470072E-010  0.4778727E+02  0.7816164E-02  0.1312668E+00
        -11   -1    0    0    0    0  0.00000000000E+00  0.00000000000E+00  0.45593999997E+02  0.45594000000E+02  0.51100000000E-03 0. -1.
         11   -1    0    0    0    0 -0.00000000000E+00 -0.00000000000E+00 -0.45593999997E+02  0.45594000000E+02  0.51100000000E-03 0.  1.
    9900012    2    1    2    0    0 -0.12968888133E+02  0.38636311047E+02 -0.14922021617E+02  0.47787270515E+02  0.19999997585E+02 0.  0.
         12    1    1    2    0    0  0.12968888133E+02 -0.38636311047E+02  0.14922021617E+02  0.43400729485E+02  0.00000000000E+00 0. -1.
         11    1    3    3    0    0 -0.80596400612E+01  0.15383819588E+02  0.15185851114E+01  0.17433467929E+02  0.51100000000E-03 0.  1.
        -11    1    3    3    0    0 -0.51812046058E+01  0.15865083521E+02 -0.15718274337E+02  0.22926183823E+02  0.51100000000E-03 0. -1.
        -12    1    3    3    0    0  0.27195653418E+00  0.73874079381E+01 -0.72233239104E+00  0.74276187626E+01  0.00000000000E+00 0.  1.
</event>
<event>
 7    1  0.7470072E-010  0.4778726E+02  0.7816164E-02  0.1312668E+00
        -11   -1    0    0    0    0  0.00000000000E+00  0.00000000000E+00  0.45593999997E+02  0.45594000000E+02  0.51100000000E-03 0. -1.
         11   -1    0    0    0    0 -0.00000000000E+00 -0.00000000000E+00 -0.45593999997E+02  0.45594000000E+02  0.51100000000E-03 0.  1.
    9900012    2    1    2    0    0 -0.17200976314E+02 -0.28017864095E+02 -0.28332846958E+02  0.47787256788E+02  0.19999934999E+02 0.  0.
         12    1    1    2    0    0  0.17200976314E+02  0.28017864095E+02  0.28332846958E+02  0.43400743212E+02  0.00000000000E+00 0. -1.
         11    1    3    3    0    0 -0.54363895195E+01 -0.13001202453E+02 -0.35691205401E+01  0.14536994803E+02  0.51100000000E-03 0. -1.
        -11    1    3    3    0    0 -0.11090828393E+02 -0.16884501315E+02 -0.22427167293E+02  0.30183947590E+02  0.51100000000E-03 0.  1.
         12    1    3    3    0    0 -0.67375840185E+00  0.18678396718E+01 -0.23365591249E+01  0.30663143948E+01  0.00000000000E+00 0. -1.
</event>
<event>
 7    1  0.7470072E-010  0.4778727E+02  0.7816164E-02  0.1312668E+00
        -11   -1    0    0    0    0  0.00000000000E+00  0.00000000000E+00  0.45593999997E+02  0.45594000000E+02  0.51100000000E-03 0. -1.
         11   -1    0    0    0    0 -0.00000000000E+00 -0.00000000000E+00 -0.45593999997E+02  0.45594000000E+02  0.51100000000E-03 0.  1.
    9900012    2    1    2    0    0 -0.36314086126E+01  0.23469498959E+01 -0.43184809187E+02  0.47787273660E+02  0.20000011927E+02 0.  0.
         12    1    1    2    0    0  0.36314086126E+01 -0.23469498959E+01  0.43184809187E+02  0.43400726340E+02  0.00000000000E+00 0. -1.
         11    1    3    3    0    0  0.76042193470E+00 -0.13112743734E+01 -0.41003953851E+02  0.41031962099E+02  0.51100000000E-03 0. -1.
        -11    1    3    3    0    0 -0.27659049266E+01  0.24455891609E+01 -0.28009979157E+01  0.46342988673E+01  0.51100000000E-03 0.  1.
         12    1    3    3    0    0 -0.16259256207E+01  0.12126351084E+01  0.62014257992E+00  0.21210126943E+01  0.00000000000E+00 0. -1.
</event>
<event>
 7    1  0.7470072E-010  0.4778727E+02  0.7816164E-02  0.1312668E+00
        -11   -1    0    0    0    0  0.00000000000E+00  0.00000000000E+00  0.45593999997E+02  0.45594000000E+02  0.51100000000E-03 0. -1.
         11   -1    0    0    0    0 -0.00000000000E+00 -0.00000000000E+00 -0.45593999997E+02  0.45594000000E+02  0.51100000000E-03 0.  1.
    9900012    2    1    2    0    0  0.16176110764E+02  0.30359206736E+02  0.26462714460E+02  0.47787271323E+02  0.20000001270E+02 0.  0.
        -12    1    1    2    0    0 -0.16176110764E+02 -0.30359206736E+02 -0.26462714460E+02  0.43400728677E+02  0.00000000000E+00 0.  1.
         11    1    3    3    0    0  0.99615201903E+01  0.79573034710E+01  0.95927154267E+01  0.15955273503E+02  0.51100000000E-03 0. -1.
        -11    1    3    3    0    0  0.11878868754E+01  0.15411764494E+02  0.17314757182E+02  0.23210652222E+02  0.51100000000E-03 0.  1.
        -12    1    3    3    0    0  0.50267036987E+01  0.69901387712E+01 -0.44475814822E+00  0.86213455983E+01  0.00000000000E+00 0.  1.
</event>
<event>
 7    1  0.7470072E-010  0.4778727E+02  0.7816164E-02  0.1312668E+00
        -11   -1    0    0    0    0  0.00000000000E+00  0.00000000000E+00  0.45593999997E+02  0.45594000000E+02  0.51100000000E-03 0.  1.
         11   -1    0    0    0    0 -0.00000000000E+00 -0.00000000000E+00 -0.45593999997E+02  0.45594000000E+02  0.51100000000E-03 0. -1.
    9900012    2    1    2    0    0 -0.20702230559E+01  0.10856465467E+02 -0.41969925871E+02  0.47787270241E+02  0.19999996338E+02 0.  0.
         12    1    1    2    0    0  0.20702230559E+01 -0.10856465467E+02  0.41969925871E+02  0.43400729759E+02  0.00000000000E+00 0. -1.
         11    1    3    3    0    0 -0.34128833041E+00 -0.26854766420E+00 -0.12428585539E+01  0.13165459424E+01  0.51100000000E-03 0. -1.
        -11    1    3    3    0    0 -0.14896825335E+01  0.60996903836E+00  0.19431837564E+01  0.25233270994E+01  0.51100000000E-03 0.  1.
        -12    1    3    3    0    0 -0.23925219195E+00  0.10515044093E+02 -0.42670251074E+02  0.43947397199E+02  0.00000000000E+00 0.  1.
</event>
<event>
 7    1  0.7470072E-010  0.4778727E+02  0.7816164E-02  0.1312668E+00
        -11   -1    0    0    0    0  0.00000000000E+00  0.00000000000E+00  0.45593999997E+02  0.45594000000E+02  0.51100000000E-03 0. -1.
         11   -1    0    0    0    0 -0.00000000000E+00 -0.00000000000E+00 -0.45593999997E+02  0.45594000000E+02  0.51100000000E-03 0.  1.
    9900012    2    1    2    0    0 -0.24167971824E+02  0.20237811328E+01 -0.35992174221E+02  0.47787272387E+02  0.20000006123E+02 0.  0.
         12    1    1    2    0    0  0.24167971824E+02 -0.20237811328E+01  0.35992174221E+02  0.43400727613E+02  0.00000000000E+00 0. -1.
         11    1    3    3    0    0 -0.13836536259E+02 -0.74670633512E+01 -0.18037390444E+02  0.23928105337E+02  0.51100000000E-03 0. -1.
        -11    1    3    3    0    0 -0.76083969104E+01  0.31386759519E+01 -0.12879235099E+02  0.15284426299E+02  0.51100000000E-03 0.  1.
         12    1    3    3    0    0 -0.27230386545E+01  0.63521685321E+01 -0.50755486779E+01  0.85747407515E+01  0.00000000000E+00 0. -1.
</event>
<event>
 7    1  0.7470072E-010  0.4778727E+02  0.7816164E-02  0.1312668E+00
        -11   -1    0    0    0    0  0.00000000000E+00  0.00000000000E+00  0.45593999997E+02  0.45594000000E+02  0.51100000000E-03 0. -1.
         11   -1    0    0    0    0 -0.00000000000E+00 -0.00000000000E+00 -0.45593999997E+02  0.45594000000E+02  0.51100000000E-03 0.  1.
    9900012    2    1    2    0    0 -0.27090464157E+02  0.20811110377E+02 -0.26769900103E+02  0.47787272877E+02  0.20000008354E+02 0.  0.
         12    1    1    2    0    0  0.27090464157E+02 -0.20811110377E+02  0.26769900103E+02  0.43400727123E+02  0.00000000000E+00 0. -1.
         11    1    3    3    0    0 -0.12849734499E+02  0.58211693186E+01 -0.48434724982E+01  0.14915123702E+02  0.51100000000E-03 0. -1.
        -11    1    3    3    0    0 -0.55111933873E+01  0.82164980153E+01 -0.19032288887E+02  0.21450224072E+02  0.51100000000E-03 0.  1.
        -12    1    3    3    0    0 -0.87295362700E+01  0.67734430430E+01 -0.28941387172E+01  0.11421925103E+02  0.00000000000E+00 0.  1.
</event>
<event>
 7    1  0.7470072E-010  0.4778727E+02  0.7816164E-02  0.1312668E+00
        -11   -1    0    0    0    0  0.00000000000E+00  0.00000000000E+00  0.45593999997E+02  0.45594000000E+02  0.51100000000E-03 0. -1.
         11   -1    0    0    0    0 -0.00000000000E+00 -0.00000000000E+00 -0.45593999997E+02  0.45594000000E+02  0.51100000000E-03 0.  1.
    9900012    2    1    2    0    0 -0.25486244914E+01 -0.14643552464E+02  0.40776146888E+02  0.47787271082E+02  0.20000000170E+02 0.  0.
        -12    1    1    2    0    0  0.25486244914E+01  0.14643552464E+02 -0.40776146888E+02  0.43400728918E+02  0.00000000000E+00 0.  1.
         11    1    3    3    0    0 -0.94875856709E+01 -0.34749897933E+01  0.22065229208E+02  0.24268584141E+02  0.51100000000E-03 0. -1.
        -11    1    3    3    0    0  0.42410949868E+01 -0.10605147519E+02  0.15947856656E+02  0.19616069249E+02  0.51100000000E-03 0.  1.
        -12    1    3    3    0    0  0.26978661926E+01 -0.56341515193E+00  0.27630610241E+01  0.39026176919E+01  0.00000000000E+00 0.  1.
</event>
<event>
 7    1  0.7470072E-010  0.4778727E+02  0.7816164E-02  0.1312668E+00
        -11   -1    0    0    0    0  0.00000000000E+00  0.00000000000E+00  0.45593999997E+02  0.45594000000E+02  0.51100000000E-03 0. -1.
         11   -1    0    0    0    0 -0.00000000000E+00 -0.00000000000E+00 -0.45593999997E+02  0.45594000000E+02  0.51100000000E-03 0.  1.
    9900012    2    1    2    0    0 -0.55696333440E+01  0.34680717100E+02 -0.25492162555E+02  0.47787270675E+02  0.19999998317E+02 0.  0.
         12    1    1    2    0    0  0.55696333440E+01 -0.34680717100E+02  0.25492162555E+02  0.43400729325E+02  0.00000000000E+00 0. -1.
         11    1    3    3    0    0 -0.40686265557E+00 -0.17593655072E+01 -0.27429458026E+01  0.32840000221E+01  0.51100000000E-03 0. -1.
        -11    1    3    3    0    0  0.17610019597E+01  0.23156541684E+02 -0.12754655928E+02  0.26495429771E+02  0.51100000000E-03 0.  1.
         12    1    3    3    0    0 -0.69237726482E+01  0.13283540923E+02 -0.99945608249E+01  0.18007840882E+02  0.00000000000E+00 0. -1.
</event>
<event>
 7    1  0.7470072E-010  0.4778727E+02  0.7816164E-02  0.1312668E+00
        -11   -1    0    0    0    0  0.00000000000E+00  0.00000000000E+00  0.45593999997E+02  0.45594000000E+02  0.51100000000E-03 0. -1.
         11   -1    0    0    0    0 -0.00000000000E+00 -0.00000000000E+00 -0.45593999997E+02  0.45594000000E+02  0.51100000000E-03 0.  1.
    9900012    2    1    2    0    0  0.41607293671E+02 -0.48551512361E+01 -0.11352705695E+02  0.47787270665E+02  0.19999998271E+02 0.  0.
         12    1    1    2    0    0 -0.41607293671E+02  0.48551512361E+01  0.11352705695E+02  0.43400729335E+02  0.00000000000E+00 0. -1.
         11    1    3    3    0    0  0.83203497428E+01 -0.44050105798E+00 -0.96387463562E+01  0.12740788539E+02  0.51100000000E-03 0. -1.
        -11    1    3    3    0    0  0.32725340504E+02 -0.58983392105E+01 -0.90323605158E+00  0.33264908720E+02  0.51100000000E-03 0.  1.
        -12    1    3    3    0    0  0.56160342491E+00  0.14836890324E+01 -0.81072328765E+00  0.17815734060E+01  0.00000000000E+00 0.  1.
</event>
<event>
 7    1  0.1496866E-009  0.4778727E+02  0.7816164E-02  0.1312668E+00
        -11   -1    0    0    0    0  0.00000000000E+00  0.00000000000E+00  0.45593999997E+02  0.45594000000E+02  0.51100000000E-03 0. -1.
         11   -1    0    0    0    0 -0.00000000000E+00 -0.00000000000E+00 -0.45593999997E+02  0.45594000000E+02  0.51100000000E-03 0.  1.
    9900012    2    1    2    0    0  0.32396136160E+02  0.91644445519E+01 -0.27388444445E+02  0.47787267620E+02  0.19999984385E+02 0.  0.
         12    1    1    2    0    0 -0.32396136160E+02 -0.91644445519E+01  0.27388444445E+02  0.43400732380E+02  0.00000000000E+00 0. -1.
         11    1    3    3    0    0  0.53695608899E+01  0.73569617652E+01 -0.14543419290E+01  0.92234582057E+01  0.51100000000E-03 0. -1.
        -11    1    3    3    0    0  0.11452394209E+02 -0.15512247635E+01 -0.59274583327E+01  0.12988394586E+02  0.51100000000E-03 0.  1.
         12    1    3    3    0    0  0.15574181061E+02  0.33587075502E+01 -0.20006644183E+02  0.25575414827E+02  0.00000000000E+00 0. -1.
</event>
<event>
 7    1  0.7470072E-010  0.4778727E+02  0.7816164E-02  0.1312668E+00
        -11   -1    0    0    0    0  0.00000000000E+00  0.00000000000E+00  0.45593999997E+02  0.45594000000E+02  0.51100000000E-03 0. -1.
         11   -1    0    0    0    0 -0.00000000000E+00 -0.00000000000E+00 -0.45593999997E+02  0.45594000000E+02  0.51100000000E-03 0.  1.
    9900012    2    1    2    0    0 -0.26128461458E+02  0.48600221313E+01 -0.34311906642E+02  0.47787271311E+02  0.20000001216E+02 0.  0.
         12    1    1    2    0    0  0.26128461458E+02 -0.48600221313E+01  0.34311906642E+02  0.43400728689E+02  0.00000000000E+00 0. -1.
         11    1    3    3    0    0 -0.45709075980E+01  0.14529711715E+01 -0.20304888848E+02  0.20863672564E+02  0.51100000000E-03 0. -1.
        -11    1    3    3    0    0 -0.15794743326E+02  0.44230033883E+00 -0.12792148439E+02  0.20329992825E+02  0.51100000000E-03 0.  1.
        -12    1    3    3    0    0 -0.57628105342E+01  0.29647506209E+01 -0.12148693558E+01  0.65936059215E+01  0.00000000000E+00 0.  1.
</event>
<event>
 7    1  0.7470072E-010  0.4778727E+02  0.7816164E-02  0.1312668E+00
        -11   -1    0    0    0    0  0.00000000000E+00  0.00000000000E+00  0.45593999997E+02  0.45594000000E+02  0.51100000000E-03 0. -1.
         11   -1    0    0    0    0 -0.00000000000E+00 -0.00000000000E+00 -0.45593999997E+02  0.45594000000E+02  0.51100000000E-03 0.  1.
    9900012    2    1    2    0    0  0.27975085847E+02 -0.22260392695E+02 -0.24606762825E+02  0.47787270884E+02  0.19999999267E+02 0.  0.
         12    1    1    2    0    0 -0.27975085847E+02  0.22260392695E+02  0.24606762825E+02  0.43400729116E+02  0.00000000000E+00 0. -1.
         11    1    3    3    0    0  0.13090011766E+02 -0.19751099740E+02 -0.14171881400E+02  0.27609718790E+02  0.51100000000E-03 0. -1.
        -11    1    3    3    0    0  0.15550738171E+02 -0.36153149698E+01 -0.94372807473E+01  0.18546110863E+02  0.51100000000E-03 0.  1.
         12    1    3    3    0    0 -0.66566408980E+00  0.11060220145E+01 -0.99760067783E+00  0.16314412307E+01  0.00000000000E+00 0. -1.
</event>
<event>
 7    1  0.7470072E-010  0.4778727E+02  0.7816164E-02  0.1312668E+00
        -11   -1    0    0    0    0  0.00000000000E+00  0.00000000000E+00  0.45593999997E+02  0.45594000000E+02  0.51100000000E-03 0. -1.
         11   -1    0    0    0    0 -0.00000000000E+00 -0.00000000000E+00 -0.45593999997E+02  0.45594000000E+02  0.51100000000E-03 0.  1.
    9900012    2    1    2    0    0 -0.32704772534E+02  0.48795559489E+01 -0.28110694510E+02  0.47787270068E+02  0.19999995550E+02 0.  0.
         12    1    1    2    0    0  0.32704772534E+02 -0.48795559489E+01  0.28110694510E+02  0.43400729932E+02  0.00000000000E+00 0. -1.
         11    1    3    3    0    0 -0.62862087676E+01  0.53689683451E+01 -0.15146513116E+02  0.17255697656E+02  0.51100000000E-03 0. -1.
        -11    1    3    3    0    0 -0.11359362544E+01 -0.14085293676E+01 -0.26537551042E+01  0.32119655303E+01  0.51100000000E-03 0.  1.
         12    1    3    3    0    0 -0.25282627512E+02  0.91911697139E+00 -0.10310426290E+02  0.27319606882E+02  0.00000000000E+00 0. -1.
</event>
<event>
 7    1  0.8289411E-010  0.4778727E+02  0.7816164E-02  0.1312668E+00
        -11   -1    0    0    0    0  0.00000000000E+00  0.00000000000E+00  0.45593999997E+02  0.45594000000E+02  0.51100000000E-03 0. -1.
         11   -1    0    0    0    0 -0.00000000000E+00 -0.00000000000E+00 -0.45593999997E+02  0.45594000000E+02  0.51100000000E-03 0.  1.
    9900012    2    1    2    0    0  0.29933839278E+02  0.40250319198E+01  0.31167090044E+02  0.47787272844E+02  0.20000008203E+02 0.  0.
        -12    1    1    2    0    0 -0.29933839278E+02 -0.40250319198E+01 -0.31167090044E+02  0.43400727156E+02  0.00000000000E+00 0.  1.
         11    1    3    3    0    0  0.14826126538E+02  0.97637685973E+01  0.14367831285E+02  0.22838121233E+02  0.51100000000E-03 0. -1.
        -11    1    3    3    0    0  0.31239658274E+01 -0.40083727132E+01  0.12350024502E+01  0.52298609553E+01  0.51100000000E-03 0.  1.
         12    1    3    3    0    0  0.11983746912E+02 -0.17303639643E+01  0.15564256309E+02  0.19719290655E+02  0.00000000000E+00 0. -1.
</event>
<event>
 7    1  0.7470072E-010  0.4778728E+02  0.7816164E-02  0.1312668E+00
        -11   -1    0    0    0    0  0.00000000000E+00  0.00000000000E+00  0.45593999997E+02  0.45594000000E+02  0.51100000000E-03 0. -1.
         11   -1    0    0    0    0 -0.00000000000E+00 -0.00000000000E+00 -0.45593999997E+02  0.45594000000E+02  0.51100000000E-03 0.  1.
    9900012    2    1    2    0    0 -0.10330875655E+02 -0.74295685556E+01 -0.41493342209E+02  0.47787275024E+02  0.20000018146E+02 0.  0.
         12    1    1    2    0    0  0.10330875655E+02  0.74295685556E+01  0.41493342209E+02  0.43400724976E+02  0.00000000000E+00 0. -1.
         11    1    3    3    0    0 -0.14264138973E+01  0.55876938420E+01 -0.61727852737E+01  0.84475000666E+01  0.51100000000E-03 0. -1.
        -11    1    3    3    0    0 -0.36170623622E+01 -0.11090264048E+02 -0.24887581118E+02  0.27485792529E+02  0.51100000000E-03 0.  1.
        -12    1    3    3    0    0 -0.52873993954E+01 -0.19269983494E+01 -0.10432975818E+02  0.11853982429E+02  0.00000000000E+00 0.  1.
</event>
<event>
 7    1  0.7470072E-010  0.4778727E+02  0.7816164E-02  0.1312668E+00
        -11   -1    0    0    0    0  0.00000000000E+00  0.00000000000E+00  0.45593999997E+02  0.45594000000E+02  0.51100000000E-03 0.  1.
         11   -1    0    0    0    0 -0.00000000000E+00 -0.00000000000E+00 -0.45593999997E+02  0.45594000000E+02  0.51100000000E-03 0. -1.
    9900012    2    1    2    0    0 -0.13710290982E+02 -0.39475392738E+02  0.11719411816E+02  0.47787270467E+02  0.19999997369E+02 0.  0.
        -12    1    1    2    0    0  0.13710290982E+02  0.39475392738E+02 -0.11719411816E+02  0.43400729533E+02  0.00000000000E+00 0.  1.
         11    1    3    3    0    0 -0.62385531136E+01 -0.29306280572E+02  0.31314461340E+01  0.30126127880E+02  0.51100000000E-03 0. -1.
        -11    1    3    3    0    0 -0.47427982004E+01 -0.74588575887E+01  0.10194633209E+02  0.13492932884E+02  0.51100000000E-03 0.  1.
        -12    1    3    3    0    0 -0.27289396680E+01 -0.27102545774E+01 -0.16066675266E+01  0.41682097028E+01  0.00000000000E+00 0.  1.
</event>
<event>
 7    1  0.7470072E-010  0.4778727E+02  0.7816164E-02  0.1312668E+00
        -11   -1    0    0    0    0  0.00000000000E+00  0.00000000000E+00  0.45593999997E+02  0.45594000000E+02  0.51100000000E-03 0. -1.
         11   -1    0    0    0    0 -0.00000000000E+00 -0.00000000000E+00 -0.45593999997E+02  0.45594000000E+02  0.51100000000E-03 0.  1.
    9900012    2    1    2    0    0  0.44440439495E+01  0.20292409610E+02 -0.38106320264E+02  0.47787273526E+02  0.20000011313E+02 0.  0.
         12    1    1    2    0    0 -0.44440439495E+01 -0.20292409610E+02  0.38106320264E+02  0.43400726474E+02  0.00000000000E+00 0. -1.
         11    1    3    3    0    0  0.26546411588E+01  0.22659785689E+01  0.50816349830E+00  0.35270396877E+01  0.51100000000E-03 0.  1.
        -11    1    3    3    0    0 -0.29057735506E+01  0.75404581711E+01 -0.72458398290E+01  0.10853765450E+02  0.51100000000E-03 0. -1.
        -12    1    3    3    0    0  0.46951763413E+01  0.10485972870E+02 -0.31368643934E+02  0.33406468388E+02  0.00000000000E+00 0.  1.
</event>
<event>
 7    1  0.7470072E-010  0.4778727E+02  0.7816164E-02  0.1312668E+00
        -11   -1    0    0    0    0  0.00000000000E+00  0.00000000000E+00  0.45593999997E+02  0.45594000000E+02  0.51100000000E-03 0.  1.
         11   -1    0    0    0    0 -0.00000000000E+00 -0.00000000000E+00 -0.45593999997E+02  0.45594000000E+02  0.51100000000E-03 0. -1.
    9900012    2    1    2    0    0  0.20626839852E+02  0.35257219139E+02  0.14665776380E+02  0.47787273963E+02  0.20000013308E+02 0.  0.
        -12    1    1    2    0    0 -0.20626839852E+02 -0.35257219139E+02 -0.14665776380E+02  0.43400726037E+02  0.00000000000E+00 0.  1.
         11    1    3    3    0    0  0.23224087397E+02  0.33288190349E+02  0.13609705783E+02  0.42809881381E+02  0.51100000000E-03 0. -1.
        -11    1    3    3    0    0 -0.31209857484E+01  0.10814583336E+01  0.17470478847E+01  0.37366135392E+01  0.51100000000E-03 0.  1.
        -12    1    3    3    0    0  0.52373820383E+00  0.88757045647E+00 -0.69097728748E+00  0.12407790428E+01  0.00000000000E+00 0.  1.
</event>
<event>
 7    1  0.7470072E-010  0.4778727E+02  0.7816164E-02  0.1312668E+00
        -11   -1    0    0    0    0  0.00000000000E+00  0.00000000000E+00  0.45593999997E+02  0.45594000000E+02  0.51100000000E-03 0. -1.
         11   -1    0    0    0    0 -0.00000000000E+00 -0.00000000000E+00 -0.45593999997E+02  0.45594000000E+02  0.51100000000E-03 0.  1.
    9900012    2    1    2    0    0  0.27831804298E+02 -0.25666968282E+02 -0.21218407993E+02  0.47787269257E+02  0.19999991848E+02 0.  0.
         12    1    1    2    0    0 -0.27831804298E+02  0.25666968282E+02  0.21218407993E+02  0.43400730743E+02  0.00000000000E+00 0. -1.
         11    1    3    3    0    0  0.39076028388E+01  0.11533812755E+01 -0.13798331856E+01  0.43015797323E+01  0.51100000000E-03 0. -1.
        -11    1    3    3    0    0  0.22414168548E+02 -0.20218193902E+02 -0.10520620204E+02  0.31966447505E+02  0.51100000000E-03 0.  1.
        -12    1    3    3    0    0  0.15100329117E+01 -0.66021556555E+01 -0.93179546041E+01  0.11519242019E+02  0.00000000000E+00 0.  1.
</event>
<event>
 7    1  0.9612212E-010  0.4778727E+02  0.7816164E-02  0.1312668E+00
        -11   -1    0    0    0    0  0.00000000000E+00  0.00000000000E+00  0.45593999997E+02  0.45594000000E+02  0.51100000000E-03 0. -1.
         11   -1    0    0    0    0 -0.00000000000E+00 -0.00000000000E+00 -0.45593999997E+02  0.45594000000E+02  0.51100000000E-03 0.  1.
    9900012    2    1    2    0    0 -0.14254877747E+02  0.51139962739E+01 -0.40672704533E+02  0.47787269689E+02  0.19999993821E+02 0.  0.
         12    1    1    2    0    0  0.14254877747E+02 -0.51139962739E+01  0.40672704533E+02  0.43400730311E+02  0.00000000000E+00 0. -1.
         11    1    3    3    0    0 -0.24822020175E+01 -0.20926814806E+01 -0.79077356359E+00  0.33415513949E+01  0.51100000000E-03 0. -1.
        -11    1    3    3    0    0  0.86233863801E-01  0.75612066364E+01 -0.12586042153E+02  0.14682906368E+02  0.51100000000E-03 0.  1.
        -12    1    3    3    0    0 -0.11858909594E+02 -0.35452888188E+00 -0.27295888816E+02  0.29762811926E+02  0.00000000000E+00 0.  1.
</event>
<event>
 7    1  0.7470072E-010  0.4778728E+02  0.7816164E-02  0.1312668E+00
        -11   -1    0    0    0    0  0.00000000000E+00  0.00000000000E+00  0.45593999997E+02  0.45594000000E+02  0.51100000000E-03 0.  1.
         11   -1    0    0    0    0 -0.00000000000E+00 -0.00000000000E+00 -0.45593999997E+02  0.45594000000E+02  0.51100000000E-03 0. -1.
    9900012    2    1    2    0    0  0.26092327769E+02 -0.33220606689E+02 -0.99601201936E+01  0.47787282592E+02  0.20000052651E+02 0.  0.
         12    1    1    2    0    0 -0.26092327769E+02  0.33220606689E+02  0.99601201936E+01  0.43400717408E+02  0.00000000000E+00 0. -1.
         11    1    3    3    0    0  0.14664500412E+02 -0.12269797241E+02 -0.11323033712E+02  0.22221759367E+02  0.51100000000E-03 0.  1.
        -11    1    3    3    0    0  0.21660974040E+01 -0.13398985168E+02  0.44994145529E+00  0.13580398709E+02  0.51100000000E-03 0. -1.
         12    1    3    3    0    0  0.92617299537E+01 -0.75518242804E+01  0.91297206355E+00  0.11985124517E+02  0.00000000000E+00 0. -1.
</event>
<event>
 7    1  0.7470072E-010  0.4778727E+02  0.7816164E-02  0.1312668E+00
        -11   -1    0    0    0    0  0.00000000000E+00  0.00000000000E+00  0.45593999997E+02  0.45594000000E+02  0.51100000000E-03 0. -1.
         11   -1    0    0    0    0 -0.00000000000E+00 -0.00000000000E+00 -0.45593999997E+02  0.45594000000E+02  0.51100000000E-03 0.  1.
    9900012    2    1    2    0    0  0.41809313013E+02 -0.60645451277E+00 -0.11629145521E+02  0.47787268816E+02  0.19999989842E+02 0.  0.
         12    1    1    2    0    0 -0.41809313013E+02  0.60645451277E+00  0.11629145521E+02  0.43400731184E+02  0.00000000000E+00 0. -1.
         11    1    3    3    0    0  0.20095232284E+01 -0.36059035266E+01  0.21050336831E+01  0.46337771760E+01  0.51100000000E-03 0. -1.
        -11    1    3    3    0    0  0.16834325674E+02  0.53333735187E+01 -0.78899211457E+01  0.19341412822E+02  0.51100000000E-03 0.  1.
        -12    1    3    3    0    0  0.22965464111E+02 -0.23339245049E+01 -0.58442580586E+01  0.23812078819E+02  0.00000000000E+00 0.  1.
</event>
<event>
 7    1  0.7470072E-010  0.4778727E+02  0.7816164E-02  0.1312668E+00
        -11   -1    0    0    0    0  0.00000000000E+00  0.00000000000E+00  0.45593999997E+02  0.45594000000E+02  0.51100000000E-03 0. -1.
         11   -1    0    0    0    0 -0.00000000000E+00 -0.00000000000E+00 -0.45593999997E+02  0.45594000000E+02  0.51100000000E-03 0.  1.
    9900012    2    1    2    0    0 -0.13935288483E+02 -0.26345628973E+02  0.31548989231E+02  0.47787272442E+02  0.20000006370E+02 0.  0.
        -12    1    1    2    0    0  0.13935288483E+02  0.26345628973E+02 -0.31548989231E+02  0.43400727558E+02  0.00000000000E+00 0.  1.
         11    1    3    3    0    0 -0.65111826937E+01 -0.23452885350E+02  0.29648270223E+02  0.38359526311E+02  0.51100000000E-03 0. -1.
        -11    1    3    3    0    0 -0.59190726214E+01 -0.38731183011E+01  0.39624585509E+00  0.70847355004E+01  0.51100000000E-03 0.  1.
         12    1    3    3    0    0 -0.15050331682E+01  0.98037467777E+00  0.15044731529E+01  0.23430106304E+01  0.00000000000E+00 0. -1.
</event>
<event>
 7    1  0.7470072E-010  0.4778725E+02  0.7816164E-02  0.1312668E+00
        -11   -1    0    0    0    0  0.00000000000E+00  0.00000000000E+00  0.45593999997E+02  0.45594000000E+02  0.51100000000E-03 0. -1.
         11   -1    0    0    0    0 -0.00000000000E+00 -0.00000000000E+00 -0.45593999997E+02  0.45594000000E+02  0.51100000000E-03 0.  1.
    9900012    2    1    2    0    0  0.32468411057E+01  0.34233011795E+02 -0.26479885088E+02  0.47787246688E+02  0.19999888951E+02 0.  0.
         12    1    1    2    0    0 -0.32468411057E+01 -0.34233011795E+02  0.26479885088E+02  0.43400753312E+02  0.00000000000E+00 0. -1.
         11    1    3    3    0    0 -0.49035295099E+01  0.11402254759E+02 -0.80031418959E+01  0.14768422248E+02  0.51100000000E-03 0. -1.
        -11    1    3    3    0    0  0.82300792141E+01  0.14887045927E+02 -0.18422092341E+02  0.25074525455E+02  0.51100000000E-03 0.  1.
         12    1    3    3    0    0 -0.79708598480E-01  0.79437111096E+01 -0.54650851363E-01  0.79442989854E+01  0.00000000000E+00 0. -1.
</event>
<event>
 7    1  0.7470072E-010  0.4778727E+02  0.7816164E-02  0.1312668E+00
        -11   -1    0    0    0    0  0.00000000000E+00  0.00000000000E+00  0.45593999997E+02  0.45594000000E+02  0.51100000000E-03 0. -1.
         11   -1    0    0    0    0 -0.00000000000E+00 -0.00000000000E+00 -0.45593999997E+02  0.45594000000E+02  0.51100000000E-03 0.  1.
    9900012    2    1    2    0    0 -0.33350486302E+02 -0.14654460812E+02  0.23592689995E+02  0.47787272132E+02  0.20000004957E+02 0.  0.
        -12    1    1    2    0    0  0.33350486302E+02  0.14654460812E+02 -0.23592689995E+02  0.43400727868E+02  0.00000000000E+00 0.  1.
         11    1    3    3    0    0 -0.73217269420E+01  0.12823224020E+01  0.94229906918E+01  0.12001866105E+02  0.51100000000E-03 0. -1.
        -11    1    3    3    0    0 -0.14093869249E+02 -0.71528364344E+01  0.79767357930E+00  0.15825185713E+02  0.51100000000E-03 0.  1.
        -12    1    3    3    0    0 -0.11934890111E+02 -0.87839467795E+01  0.13372025724E+02  0.19960220314E+02  0.00000000000E+00 0.  1.
</event>
<event>
 7    1  0.7470072E-010  0.4778726E+02  0.7816164E-02  0.1312668E+00
        -11   -1    0    0    0    0  0.00000000000E+00  0.00000000000E+00  0.45593999997E+02  0.45594000000E+02  0.51100000000E-03 0. -1.
         11   -1    0    0    0    0 -0.00000000000E+00 -0.00000000000E+00 -0.45593999997E+02  0.45594000000E+02  0.51100000000E-03 0.  1.
    9900012    2    1    2    0    0 -0.29241925882E+01 -0.78808963887E+01 -0.42578926401E+02  0.47787258029E+02  0.19999940658E+02 0.  0.
         12    1    1    2    0    0  0.29241925882E+01  0.78808963887E+01  0.42578926401E+02  0.43400741971E+02  0.00000000000E+00 0. -1.
         11    1    3    3    0    0  0.53931841351E+01 -0.48117570181E+01 -0.32164557826E+02  0.32966622834E+02  0.51100000000E-03 0.  1.
        -11    1    3    3    0    0 -0.49789776866E+01  0.92450912310E+00 -0.34566944665E+01  0.61313679402E+01  0.51100000000E-03 0. -1.
        -12    1    3    3    0    0 -0.33383990367E+01 -0.39936484938E+01 -0.69576741087E+01  0.86892672547E+01  0.00000000000E+00 0.  1.
</event>
<event>
 7    1  0.7470072E-010  0.4778726E+02  0.7816164E-02  0.1312668E+00
        -11   -1    0    0    0    0  0.00000000000E+00  0.00000000000E+00  0.45593999997E+02  0.45594000000E+02  0.51100000000E-03 0. -1.
         11   -1    0    0    0    0 -0.00000000000E+00 -0.00000000000E+00 -0.45593999997E+02  0.45594000000E+02  0.51100000000E-03 0.  1.
    9900012    2    1    2    0    0  0.54238910545E+00 -0.27180851651E+02  0.33830919947E+02  0.47787262370E+02  0.19999960449E+02 0.  0.
        -12    1    1    2    0    0 -0.54238910545E+00  0.27180851651E+02 -0.33830919947E+02  0.43400737630E+02  0.00000000000E+00 0.  1.
         11    1    3    3    0    0  0.31304224797E+00 -0.66307779843E+01  0.10686520750E+02  0.12580418837E+02  0.51100000000E-03 0. -1.
        -11    1    3    3    0    0 -0.61866704424E+01 -0.80806677799E+01  0.17179600740E+02  0.19967743106E+02  0.51100000000E-03 0.  1.
        -12    1    3    3    0    0  0.64160172998E+01 -0.12469405887E+02  0.59647984574E+01  0.15239100426E+02  0.00000000000E+00 0.  1.
</event>
<event>
 7    1  0.7470072E-010  0.4778727E+02  0.7816164E-02  0.1312668E+00
        -11   -1    0    0    0    0  0.00000000000E+00  0.00000000000E+00  0.45593999997E+02  0.45594000000E+02  0.51100000000E-03 0. -1.
         11   -1    0    0    0    0 -0.00000000000E+00 -0.00000000000E+00 -0.45593999997E+02  0.45594000000E+02  0.51100000000E-03 0.  1.
    9900012    2    1    2    0    0 -0.33781893986E+02 -0.17943491900E+02 -0.20504583065E+02  0.47787272017E+02  0.20000004432E+02 0.  0.
         12    1    1    2    0    0  0.33781893986E+02  0.17943491900E+02  0.20504583065E+02  0.43400727983E+02  0.00000000000E+00 0. -1.
         11    1    3    3    0    0 -0.61425653379E+01 -0.11130394781E+02 -0.37074809997E+01  0.13242439825E+02  0.51100000000E-03 0. -1.
        -11    1    3    3    0    0 -0.13566038440E+02  0.18013621106E+01 -0.77167884800E+01  0.15710860228E+02  0.51100000000E-03 0.  1.
        -12    1    3    3    0    0 -0.14073290208E+02 -0.86144592305E+01 -0.90803135849E+01  0.18833971963E+02  0.00000000000E+00 0.  1.
</event>
<event>
 7    1  0.7470072E-010  0.4778733E+02  0.7816164E-02  0.1312667E+00
        -11   -1    0    0    0    0  0.00000000000E+00  0.00000000000E+00  0.45593999997E+02  0.45594000000E+02  0.51100000000E-03 0. -1.
         11   -1    0    0    0    0 -0.00000000000E+00 -0.00000000000E+00 -0.45593999997E+02  0.45594000000E+02  0.51100000000E-03 0.  1.
    9900012    2    1    2    0    0 -0.45153016192E+01  0.26485330241E+02  0.34084564533E+02  0.47787329428E+02  0.20000266192E+02 0.  0.
        -12    1    1    2    0    0  0.45153016192E+01 -0.26485330241E+02 -0.34084564533E+02  0.43400670572E+02  0.00000000000E+00 0.  1.
         11    1    3    3    0    0 -0.12616854345E+01  0.17813342173E+02  0.71104223202E+01  0.19221475368E+02  0.51100000000E-03 0. -1.
        -11    1    3    3    0    0 -0.28425825240E+01  0.62754167783E+01  0.21478590604E+02  0.22556395673E+02  0.51100000000E-03 0.  1.
         12    1    3    3    0    0 -0.41103366071E+00  0.23965712896E+01  0.54955516088E+01  0.60094583867E+01  0.00000000000E+00 0. -1.
</event>
<event>
 7    1  0.7470072E-010  0.4778727E+02  0.7816164E-02  0.1312668E+00
        -11   -1    0    0    0    0  0.00000000000E+00  0.00000000000E+00  0.45593999997E+02  0.45594000000E+02  0.51100000000E-03 0. -1.
         11   -1    0    0    0    0 -0.00000000000E+00 -0.00000000000E+00 -0.45593999997E+02  0.45594000000E+02  0.51100000000E-03 0.  1.
    9900012    2    1    2    0    0 -0.41868424714E+02 -0.11363419605E+02  0.12375338341E+01  0.47787265178E+02  0.19999973251E+02 0.  0.
         12    1    1    2    0    0  0.41868424714E+02  0.11363419605E+02 -0.12375338341E+01  0.43400734822E+02  0.00000000000E+00 0. -1.
         11    1    3    3    0    0 -0.18567292748E+02 -0.13476382462E+02  0.16279341378E+01  0.23000161175E+02  0.51100000000E-03 0. -1.
        -11    1    3    3    0    0 -0.13049453971E+02  0.78528824573E+00  0.38283623134E+01  0.13622088123E+02  0.51100000000E-03 0.  1.
         12    1    3    3    0    0 -0.10251677995E+02  0.13276746107E+01 -0.42187626171E+01  0.11165015880E+02  0.00000000000E+00 0. -1.
</event>
<event>
 7    1  0.7470072E-010  0.4778727E+02  0.7816164E-02  0.1312668E+00
        -11   -1    0    0    0    0  0.00000000000E+00  0.00000000000E+00  0.45593999997E+02  0.45594000000E+02  0.51100000000E-03 0. -1.
         11   -1    0    0    0    0 -0.00000000000E+00 -0.00000000000E+00 -0.45593999997E+02  0.45594000000E+02  0.51100000000E-03 0.  1.
    9900012    2    1    2    0    0  0.22830816949E+02  0.11308724582E+01  0.36893060832E+02  0.47787274054E+02  0.20000013722E+02 0.  0.
        -12    1    1    2    0    0 -0.22830816949E+02 -0.11308724582E+01 -0.36893060832E+02  0.43400725946E+02  0.00000000000E+00 0.  1.
         11    1    3    3    0    0 -0.19187265326E+01  0.16182003043E+01  0.83745639107E-01  0.25113935027E+01  0.51100000000E-03 0.  1.
        -11    1    3    3    0    0  0.15427235754E+02 -0.25702308863E+01  0.15975857552E+02  0.22356961211E+02  0.51100000000E-03 0. -1.
         12    1    3    3    0    0  0.93223077277E+01  0.20829030401E+01  0.20833457641E+02  0.22918919340E+02  0.00000000000E+00 0. -1.
</event>
<event>
 7    1  0.7470072E-010  0.4778727E+02  0.7816164E-02  0.1312668E+00
        -11   -1    0    0    0    0  0.00000000000E+00  0.00000000000E+00  0.45593999997E+02  0.45594000000E+02  0.51100000000E-03 0. -1.
         11   -1    0    0    0    0 -0.00000000000E+00 -0.00000000000E+00 -0.45593999997E+02  0.45594000000E+02  0.51100000000E-03 0.  1.
    9900012    2    1    2    0    0  0.41528223998E+02  0.53157034247E+01 -0.11435605749E+02  0.47787272239E+02  0.20000005448E+02 0.  0.
        -12    1    1    2    0    0 -0.41528223998E+02 -0.53157034247E+01  0.11435605749E+02  0.43400727761E+02  0.00000000000E+00 0.  1.
         11    1    3    3    0    0  0.29579727998E+02  0.70141607429E+01 -0.67144320599E+01  0.31132657412E+02  0.51100000000E-03 0. -1.
        -11    1    3    3    0    0  0.75788220383E+01 -0.43027798901E+01  0.12568133184E+01  0.88052278931E+01  0.51100000000E-03 0.  1.
        -12    1    3    3    0    0  0.43696739610E+01  0.26043225719E+01 -0.59779870073E+01  0.78493869342E+01  0.00000000000E+00 0.  1.
</event>
<event>
 7    1  0.7470072E-010  0.4778728E+02  0.7816164E-02  0.1312668E+00
        -11   -1    0    0    0    0  0.00000000000E+00  0.00000000000E+00  0.45593999997E+02  0.45594000000E+02  0.51100000000E-03 0. -1.
         11   -1    0    0    0    0 -0.00000000000E+00 -0.00000000000E+00 -0.45593999997E+02  0.45594000000E+02  0.51100000000E-03 0.  1.
    9900012    2    1    2    0    0 -0.57575033132E+00 -0.31554744044E+02 -0.29792428677E+02  0.47787283801E+02  0.20000058162E+02 0.  0.
         12    1    1    2    0    0  0.57575033132E+00  0.31554744044E+02  0.29792428677E+02  0.43400716199E+02  0.00000000000E+00 0. -1.
         11    1    3    3    0    0 -0.12741983798E+01 -0.13645904401E+02 -0.31810256522E+01  0.14069584674E+02  0.51100000000E-03 0.  1.
        -11    1    3    3    0    0 -0.37776875777E+01 -0.68586715342E+01 -0.58411695852E+01  0.97689078730E+01  0.51100000000E-03 0. -1.
         12    1    3    3    0    0  0.44761356262E+01 -0.11050168108E+02 -0.20770233440E+02  0.23948791254E+02  0.00000000000E+00 0. -1.
</event>
<event>
 7    1  0.7470072E-010  0.4778727E+02  0.7816164E-02  0.1312668E+00
        -11   -1    0    0    0    0  0.00000000000E+00  0.00000000000E+00  0.45593999997E+02  0.45594000000E+02  0.51100000000E-03 0. -1.
         11   -1    0    0    0    0 -0.00000000000E+00 -0.00000000000E+00 -0.45593999997E+02  0.45594000000E+02  0.51100000000E-03 0.  1.
    9900012    2    1    2    0    0  0.21752234848E+02  0.36850910764E+01  0.37374906046E+02  0.47787271675E+02  0.20000002877E+02 0.  0.
        -12    1    1    2    0    0 -0.21752234848E+02 -0.36850910764E+01 -0.37374906046E+02  0.43400728325E+02  0.00000000000E+00 0.  1.
         11    1    3    3    0    0  0.13648630449E+02 -0.29237282707E+01  0.30725655514E+02  0.33747580760E+02  0.51100000000E-03 0. -1.
        -11    1    3    3    0    0  0.90114999066E+01  0.48535014446E+01  0.46965891186E+01  0.11261507734E+02  0.51100000000E-03 0.  1.
         12    1    3    3    0    0 -0.90789550750E+00  0.17553179026E+01  0.19526614140E+01  0.27781831814E+01  0.00000000000E+00 0. -1.
</event>
<event>
 7    1  0.7470072E-010  0.4778727E+02  0.7816164E-02  0.1312668E+00
        -11   -1    0    0    0    0  0.00000000000E+00  0.00000000000E+00  0.45593999997E+02  0.45594000000E+02  0.51100000000E-03 0. -1.
         11   -1    0    0    0    0 -0.00000000000E+00 -0.00000000000E+00 -0.45593999997E+02  0.45594000000E+02  0.51100000000E-03 0.  1.
    9900012    2    1    2    0    0 -0.34572347210E+02  0.19518280133E+01 -0.26164219229E+02  0.47787271987E+02  0.20000004299E+02 0.  0.
         12    1    1    2    0    0  0.34572347210E+02 -0.19518280133E+01  0.26164219229E+02  0.43400728013E+02  0.00000000000E+00 0. -1.
         11    1    3    3    0    0 -0.45379896137E+01  0.58304363830E+01 -0.61561757185E+01  0.96169557495E+01  0.51100000000E-03 0. -1.
        -11    1    3    3    0    0 -0.22585569017E+02 -0.17359288565E+01 -0.82913125763E+01  0.24121924495E+02  0.51100000000E-03 0.  1.
         12    1    3    3    0    0 -0.74487885785E+01 -0.21426795131E+01 -0.11716730934E+02  0.14048391743E+02  0.00000000000E+00 0. -1.
</event>
<event>
 7    1  0.7470072E-010  0.4778727E+02  0.7816164E-02  0.1312668E+00
        -11   -1    0    0    0    0  0.00000000000E+00  0.00000000000E+00  0.45593999997E+02  0.45594000000E+02  0.51100000000E-03 0. -1.
         11   -1    0    0    0    0 -0.00000000000E+00 -0.00000000000E+00 -0.45593999997E+02  0.45594000000E+02  0.51100000000E-03 0.  1.
    9900012    2    1    2    0    0  0.24085058068E+02 -0.23174818349E+02  0.27685036893E+02  0.47787268492E+02  0.19999988363E+02 0.  0.
        -12    1    1    2    0    0 -0.24085058068E+02  0.23174818349E+02 -0.27685036893E+02  0.43400731508E+02  0.00000000000E+00 0.  1.
         11    1    3    3    0    0  0.20712721034E+02 -0.73260925522E+01  0.14490170806E+02  0.26318311020E+02  0.51100000000E-03 0. -1.
        -11    1    3    3    0    0  0.19535417385E+00 -0.26718823646E-01 -0.34899750105E+00  0.40084493964E+00  0.51100000000E-03 0.  1.
         12    1    3    3    0    0  0.31769828597E+01 -0.15822006973E+02  0.13543863588E+02  0.21068112532E+02  0.00000000000E+00 0. -1.
</event>
<event>
 7    1  0.7470072E-010  0.4778727E+02  0.7816164E-02  0.1312668E+00
        -11   -1    0    0    0    0  0.00000000000E+00  0.00000000000E+00  0.45593999997E+02  0.45594000000E+02  0.51100000000E-03 0. -1.
         11   -1    0    0    0    0 -0.00000000000E+00 -0.00000000000E+00 -0.45593999997E+02  0.45594000000E+02  0.51100000000E-03 0.  1.
    9900012    2    1    2    0    0 -0.89387359206E+01 -0.70997467421E+01 -0.41872612975E+02  0.47787272806E+02  0.20000008029E+02 0.  0.
         12    1    1    2    0    0  0.89387359206E+01  0.70997467421E+01  0.41872612975E+02  0.43400727194E+02  0.00000000000E+00 0. -1.
         11    1    3    3    0    0 -0.24143544138E+01 -0.32151228410E+01 -0.49944920817E+01  0.64117917569E+01  0.51100000000E-03 0. -1.
        -11    1    3    3    0    0 -0.11786516194E+02 -0.14875157082E+01 -0.30675372964E+02  0.32895488653E+02  0.51100000000E-03 0.  1.
        -12    1    3    3    0    0  0.52621346874E+01 -0.23971081929E+01 -0.62027479293E+01  0.84799923957E+01  0.00000000000E+00 0.  1.
</event>
<event>
 7    1  0.7470072E-010  0.4778726E+02  0.7816164E-02  0.1312668E+00
        -11   -1    0    0    0    0  0.00000000000E+00  0.00000000000E+00  0.45593999997E+02  0.45594000000E+02  0.51100000000E-03 0. -1.
         11   -1    0    0    0    0 -0.00000000000E+00 -0.00000000000E+00 -0.45593999997E+02  0.45594000000E+02  0.51100000000E-03 0.  1.
    9900012    2    1    2    0    0  0.84056451863E+01 -0.57690029898E+00 -0.42575066245E+02  0.47787263246E+02  0.19999964446E+02 0.  0.
         12    1    1    2    0    0 -0.84056451863E+01  0.57690029898E+00  0.42575066245E+02  0.43400736754E+02  0.00000000000E+00 0. -1.
         11    1    3    3    0    0  0.77898927352E+01 -0.26256366897E+01 -0.71090645942E+01  0.10868081547E+02  0.51100000000E-03 0. -1.
        -11    1    3    3    0    0 -0.25938064498E+01 -0.23242684340E+01 -0.23802895623E+02  0.24056348351E+02  0.51100000000E-03 0.  1.
         12    1    3    3    0    0  0.32095589009E+01  0.43730048246E+01 -0.11663106028E+02  0.12862833349E+02  0.00000000000E+00 0. -1.
</event>
<event>
 7    1  0.7470072E-010  0.4778727E+02  0.7816164E-02  0.1312668E+00
        -11   -1    0    0    0    0  0.00000000000E+00  0.00000000000E+00  0.45593999997E+02  0.45594000000E+02  0.51100000000E-03 0. -1.
         11   -1    0    0    0    0 -0.00000000000E+00 -0.00000000000E+00 -0.45593999997E+02  0.45594000000E+02  0.51100000000E-03 0.  1.
    9900012    2    1    2    0    0  0.16135694400E+01 -0.97600983384E+01  0.42258254607E+02  0.47787271800E+02  0.20000003443E+02 0.  0.
        -12    1    1    2    0    0 -0.16135694400E+01  0.97600983384E+01 -0.42258254607E+02  0.43400728200E+02  0.00000000000E+00 0.  1.
         11    1    3    3    0    0 -0.89743792748E+00 -0.65498515301E+01  0.11590308276E+02  0.13343207864E+02  0.51100000000E-03 0. -1.
        -11    1    3    3    0    0  0.47352132657E+01  0.51519401040E+01  0.14774338812E+02  0.16347654851E+02  0.51100000000E-03 0.  1.
        -12    1    3    3    0    0 -0.22242058982E+01 -0.83621869123E+01  0.15893607518E+02  0.18096409085E+02  0.00000000000E+00 0.  1.
</event>
<event>
 7    1  0.7470072E-010  0.4778727E+02  0.7816164E-02  0.1312668E+00
        -11   -1    0    0    0    0  0.00000000000E+00  0.00000000000E+00  0.45593999997E+02  0.45594000000E+02  0.51100000000E-03 0. -1.
         11   -1    0    0    0    0 -0.00000000000E+00 -0.00000000000E+00 -0.45593999997E+02  0.45594000000E+02  0.51100000000E-03 0.  1.
    9900012    2    1    2    0    0  0.49573155930E+01  0.99566077456E+01 -0.41951331390E+02  0.47787271653E+02  0.20000002773E+02 0.  0.
         12    1    1    2    0    0 -0.49573155930E+01 -0.99566077456E+01  0.41951331390E+02  0.43400728347E+02  0.00000000000E+00 0. -1.
         11    1    3    3    0    0  0.12470611106E+02  0.47381025671E+01 -0.20412825539E+02  0.24385430159E+02  0.51100000000E-03 0. -1.
        -11    1    3    3    0    0 -0.42208600222E+01  0.30721282516E+01 -0.12347539023E+02  0.13405795445E+02  0.51100000000E-03 0.  1.
         12    1    3    3    0    0 -0.32924354911E+01  0.21463769269E+01 -0.91909668278E+01  0.99960460486E+01  0.00000000000E+00 0. -1.
</event>
<event>
 7    1  0.7470072E-010  0.4778727E+02  0.7816164E-02  0.1312668E+00
        -11   -1    0    0    0    0  0.00000000000E+00  0.00000000000E+00  0.45593999997E+02  0.45594000000E+02  0.51100000000E-03 0. -1.
         11   -1    0    0    0    0 -0.00000000000E+00 -0.00000000000E+00 -0.45593999997E+02  0.45594000000E+02  0.51100000000E-03 0.  1.
    9900012    2    1    2    0    0 -0.33084778868E+02 -0.19974294879E+02 -0.19749635856E+02  0.47787272297E+02  0.20000005713E+02 0.  0.
         12    1    1    2    0    0  0.33084778868E+02  0.19974294879E+02  0.19749635856E+02  0.43400727703E+02  0.00000000000E+00 0. -1.
         11    1    3    3    0    0 -0.24458874962E+02 -0.10601984016E+02 -0.47571978848E+01  0.27078950523E+02  0.51100000000E-03 0. -1.
        -11    1    3    3    0    0 -0.40486938779E+01 -0.80952765320E+01 -0.71336184232E+01  0.11524492888E+02  0.51100000000E-03 0.  1.
         12    1    3    3    0    0 -0.45772100281E+01 -0.12770343311E+01 -0.78588195483E+01  0.91838288865E+01  0.00000000000E+00 0. -1.
</event>
<event>
 7    1  0.7470072E-010  0.4778727E+02  0.7816164E-02  0.1312668E+00
        -11   -1    0    0    0    0  0.00000000000E+00  0.00000000000E+00  0.45593999997E+02  0.45594000000E+02  0.51100000000E-03 0. -1.
         11   -1    0    0    0    0 -0.00000000000E+00 -0.00000000000E+00 -0.45593999997E+02  0.45594000000E+02  0.51100000000E-03 0.  1.
    9900012    2    1    2    0    0 -0.31543090428E+02 -0.93189500440E+01  0.28316318536E+02  0.47787270984E+02  0.19999999725E+02 0.  0.
        -12    1    1    2    0    0  0.31543090428E+02  0.93189500440E+01 -0.28316318536E+02  0.43400729016E+02  0.00000000000E+00 0.  1.
         11    1    3    3    0    0 -0.19248995932E+02  0.24937312839E+01  0.84114844191E+01  0.21154092051E+02  0.51100000000E-03 0. -1.
        -11    1    3    3    0    0 -0.84250367657E+01 -0.73737464086E+01  0.16143260228E+02  0.19645819699E+02  0.51100000000E-03 0.  1.
        -12    1    3    3    0    0 -0.38690577302E+01 -0.44389349193E+01  0.37615738885E+01  0.69873592334E+01  0.00000000000E+00 0.  1.
</event>
<event>
 7    1  0.7470072E-010  0.4778727E+02  0.7816164E-02  0.1312668E+00
        -11   -1    0    0    0    0  0.00000000000E+00  0.00000000000E+00  0.45593999997E+02  0.45594000000E+02  0.51100000000E-03 0. -1.
         11   -1    0    0    0    0 -0.00000000000E+00 -0.00000000000E+00 -0.45593999997E+02  0.45594000000E+02  0.51100000000E-03 0.  1.
    9900012    2    1    2    0    0 -0.37475010516E+01  0.72638053918E+01 -0.42624132722E+02  0.47787270476E+02  0.19999997410E+02 0.  0.
         12    1    1    2    0    0  0.37475010516E+01 -0.72638053918E+01  0.42624132722E+02  0.43400729524E+02  0.00000000000E+00 0. -1.
         11    1    3    3    0    0 -0.75709268873E+01  0.22759181778E+01 -0.16241870694E+02  0.18063695673E+02  0.51100000000E-03 0. -1.
        -11    1    3    3    0    0  0.69008342973E+01  0.53164309255E+01 -0.24721112608E+02  0.26211054169E+02  0.51100000000E-03 0.  1.
        -12    1    3    3    0    0 -0.30774084616E+01 -0.32854371147E+00 -0.16611494194E+01  0.35125206339E+01  0.00000000000E+00 0.  1.
</event>
<event>
 7    1  0.7470072E-010  0.4778727E+02  0.7816164E-02  0.1312668E+00
        -11   -1    0    0    0    0  0.00000000000E+00  0.00000000000E+00  0.45593999997E+02  0.45594000000E+02  0.51100000000E-03 0. -1.
         11   -1    0    0    0    0 -0.00000000000E+00 -0.00000000000E+00 -0.45593999997E+02  0.45594000000E+02  0.51100000000E-03 0.  1.
    9900012    2    1    2    0    0 -0.56744164622E+01 -0.15579308731E+02 -0.40108724376E+02  0.47787266898E+02  0.19999981095E+02 0.  0.
         12    1    1    2    0    0  0.56744164622E+01  0.15579308731E+02  0.40108724376E+02  0.43400733102E+02  0.00000000000E+00 0. -1.
         11    1    3    3    0    0 -0.20180380934E+01  0.33433269100E+01 -0.94439782723E+01  0.10219541988E+02  0.51100000000E-03 0. -1.
        -11    1    3    3    0    0 -0.16804942782E+01 -0.17594602594E+02 -0.30410139305E+02  0.35173437055E+02  0.51100000000E-03 0.  1.
        -12    1    3    3    0    0 -0.19758840907E+01 -0.13280330461E+01 -0.25460679900E+00  0.23942878552E+01  0.00000000000E+00 0.  1.
</event>
<event>
 7    1  0.7470072E-010  0.4778727E+02  0.7816164E-02  0.1312668E+00
        -11   -1    0    0    0    0  0.00000000000E+00  0.00000000000E+00  0.45593999997E+02  0.45594000000E+02  0.51100000000E-03 0. -1.
         11   -1    0    0    0    0 -0.00000000000E+00 -0.00000000000E+00 -0.45593999997E+02  0.45594000000E+02  0.51100000000E-03 0.  1.
    9900012    2    1    2    0    0  0.24306418815E+02 -0.30197655556E+02  0.19517241498E+02  0.47787272905E+02  0.20000008482E+02 0.  0.
        -12    1    1    2    0    0 -0.24306418815E+02  0.30197655556E+02 -0.19517241498E+02  0.43400727095E+02  0.00000000000E+00 0.  1.
         11    1    3    3    0    0  0.20176769051E+02 -0.21938125034E+02  0.59960348559E+01  0.30402890876E+02  0.51100000000E-03 0. -1.
        -11    1    3    3    0    0 -0.95880676417E-01 -0.59620109860E+01  0.89109972965E+01  0.10721970023E+02  0.51100000000E-03 0.  1.
        -12    1    3    3    0    0  0.42255304404E+01 -0.22975195362E+01  0.46102093458E+01  0.66624120057E+01  0.00000000000E+00 0.  1.
</event>
<event>
 7    1  0.7470072E-010  0.4778727E+02  0.7816164E-02  0.1312668E+00
        -11   -1    0    0    0    0  0.00000000000E+00  0.00000000000E+00  0.45593999997E+02  0.45594000000E+02  0.51100000000E-03 0.  1.
         11   -1    0    0    0    0 -0.00000000000E+00 -0.00000000000E+00 -0.45593999997E+02  0.45594000000E+02  0.51100000000E-03 0. -1.
    9900012    2    1    2    0    0  0.23427368260E+02  0.28248239203E+02  0.23169344890E+02  0.47787272537E+02  0.20000006806E+02 0.  0.
        -12    1    1    2    0    0 -0.23427368260E+02 -0.28248239203E+02 -0.23169344890E+02  0.43400727463E+02  0.00000000000E+00 0.  1.
         11    1    3    3    0    0  0.11569383291E+02  0.21508673136E+02  0.19030851635E+02  0.30962024546E+02  0.51100000000E-03 0. -1.
        -11    1    3    3    0    0  0.42471437692E+00 -0.13614315007E+01  0.22812582845E+01  0.26903564178E+01  0.51100000000E-03 0.  1.
         12    1    3    3    0    0  0.11433270593E+02  0.81009975682E+01  0.18572349703E+01  0.14134891573E+02  0.00000000000E+00 0. -1.
</event>
<event>
 7    1  0.7470072E-010  0.4778727E+02  0.7816164E-02  0.1312668E+00
        -11   -1    0    0    0    0  0.00000000000E+00  0.00000000000E+00  0.45593999997E+02  0.45594000000E+02  0.51100000000E-03 0. -1.
         11   -1    0    0    0    0 -0.00000000000E+00 -0.00000000000E+00 -0.45593999997E+02  0.45594000000E+02  0.51100000000E-03 0.  1.
    9900012    2    1    2    0    0  0.12467091871E+02 -0.83086050779E+01 -0.40732815663E+02  0.47787267634E+02  0.19999984450E+02 0.  0.
         12    1    1    2    0    0 -0.12467091871E+02  0.83086050779E+01  0.40732815663E+02  0.43400732366E+02  0.00000000000E+00 0. -1.
         11    1    3    3    0    0  0.46840625878E+01  0.46303710341E+01 -0.37963956380E+01  0.76021969417E+01  0.51100000000E-03 0. -1.
        -11    1    3    3    0    0  0.81768947179E+01 -0.10516014979E+02 -0.32296073264E+02  0.34935433686E+02  0.51100000000E-03 0.  1.
         12    1    3    3    0    0 -0.39386543492E+00 -0.24229611334E+01 -0.46403467609E+01  0.52496370062E+01  0.00000000000E+00 0. -1.
</event>
<event>
 7    1  0.7470072E-010  0.4778727E+02  0.7816164E-02  0.1312668E+00
        -11   -1    0    0    0    0  0.00000000000E+00  0.00000000000E+00  0.45593999997E+02  0.45594000000E+02  0.51100000000E-03 0. -1.
         11   -1    0    0    0    0 -0.00000000000E+00 -0.00000000000E+00 -0.45593999997E+02  0.45594000000E+02  0.51100000000E-03 0.  1.
    9900012    2    1    2    0    0  0.13869525891E+02 -0.27224968928E+02  0.30823056441E+02  0.47787268555E+02  0.19999988651E+02 0.  0.
        -12    1    1    2    0    0 -0.13869525891E+02  0.27224968928E+02 -0.30823056441E+02  0.43400731445E+02  0.00000000000E+00 0.  1.
         11    1    3    3    0    0  0.81331631343E+01 -0.89585856218E+01  0.10881324345E+02  0.16272916723E+02  0.51100000000E-03 0. -1.
        -11    1    3    3    0    0  0.25680993098E+01 -0.19486712332E+02  0.12389810336E+02  0.23234338639E+02  0.51100000000E-03 0.  1.
        -12    1    3    3    0    0  0.31682634471E+01  0.12203290262E+01  0.75519217606E+01  0.82800131932E+01  0.00000000000E+00 0.  1.
</event>
<event>
 7    1  0.7470072E-010  0.4778727E+02  0.7816164E-02  0.1312668E+00
        -11   -1    0    0    0    0  0.00000000000E+00  0.00000000000E+00  0.45593999997E+02  0.45594000000E+02  0.51100000000E-03 0. -1.
         11   -1    0    0    0    0 -0.00000000000E+00 -0.00000000000E+00 -0.45593999997E+02  0.45594000000E+02  0.51100000000E-03 0.  1.
    9900012    2    1    2    0    0  0.78791753439E+01  0.11028559246E+02 -0.41229998388E+02  0.47787270856E+02  0.19999999139E+02 0.  0.
         12    1    1    2    0    0 -0.78791753439E+01 -0.11028559246E+02  0.41229998388E+02  0.43400729144E+02  0.00000000000E+00 0. -1.
         11    1    3    3    0    0  0.11160514307E+02  0.20947681973E+01 -0.29558501960E+02  0.31664651771E+02  0.51100000000E-03 0.  1.
        -11    1    3    3    0    0 -0.31674111853E+00  0.94078020448E+00 -0.55233065737E+01  0.56118007892E+01  0.51100000000E-03 0. -1.
         12    1    3    3    0    0 -0.29645978450E+01  0.79930108447E+01 -0.61481898543E+01  0.10510818295E+02  0.00000000000E+00 0. -1.
</event>
<event>
 7    1  0.7470072E-010  0.4778727E+02  0.7816164E-02  0.1312668E+00
        -11   -1    0    0    0    0  0.00000000000E+00  0.00000000000E+00  0.45593999997E+02  0.45594000000E+02  0.51100000000E-03 0. -1.
         11   -1    0    0    0    0 -0.00000000000E+00 -0.00000000000E+00 -0.45593999997E+02  0.45594000000E+02  0.51100000000E-03 0.  1.
    9900012    2    1    2    0    0  0.18371992000E+02  0.50808348333E+01  0.38990747559E+02  0.47787269961E+02  0.19999995062E+02 0.  0.
        -12    1    1    2    0    0 -0.18371992000E+02 -0.50808348333E+01 -0.38990747559E+02  0.43400730039E+02  0.00000000000E+00 0.  1.
         11    1    3    3    0    0  0.14144919351E+02  0.10958931782E+02  0.18815388542E+02  0.25965280193E+02  0.51100000000E-03 0.  1.
        -11    1    3    3    0    0  0.38250169491E+01 -0.27452182235E+01  0.15341265727E+02  0.16047473699E+02  0.51100000000E-03 0. -1.
        -12    1    3    3    0    0  0.40205569959E+00 -0.31328787255E+01  0.48340932907E+01  0.57745160696E+01  0.00000000000E+00 0.  1.
</event>
<event>
 7    1  0.7470072E-010  0.4778727E+02  0.7816164E-02  0.1312668E+00
        -11   -1    0    0    0    0  0.00000000000E+00  0.00000000000E+00  0.45593999997E+02  0.45594000000E+02  0.51100000000E-03 0. -1.
         11   -1    0    0    0    0 -0.00000000000E+00 -0.00000000000E+00 -0.45593999997E+02  0.45594000000E+02  0.51100000000E-03 0.  1.
    9900012    2    1    2    0    0 -0.18940723562E+02  0.34219289634E+02 -0.18812565121E+02  0.47787269608E+02  0.19999993452E+02 0.  0.
         12    1    1    2    0    0  0.18940723562E+02 -0.34219289634E+02  0.18812565121E+02  0.43400730392E+02  0.00000000000E+00 0. -1.
         11    1    3    3    0    0 -0.11707127908E+02  0.13099506198E+02 -0.78755657106E+01  0.19253011245E+02  0.51100000000E-03 0. -1.
        -11    1    3    3    0    0 -0.21135302038E+00  0.18945248560E+02 -0.70244568703E+01  0.20206684727E+02  0.51100000000E-03 0.  1.
        -12    1    3    3    0    0 -0.70222426336E+01  0.21745348765E+01 -0.39125425399E+01  0.83275736359E+01  0.00000000000E+00 0.  1.
</event>
<event>
 7    1  0.7470072E-010  0.4778727E+02  0.7816164E-02  0.1312668E+00
        -11   -1    0    0    0    0  0.00000000000E+00  0.00000000000E+00  0.45593999997E+02  0.45594000000E+02  0.51100000000E-03 0. -1.
         11   -1    0    0    0    0 -0.00000000000E+00 -0.00000000000E+00 -0.45593999997E+02  0.45594000000E+02  0.51100000000E-03 0.  1.
    9900012    2    1    2    0    0 -0.87901853029E+01 -0.40319398707E+02  0.13442542831E+02  0.47787271578E+02  0.20000002433E+02 0.  0.
        -12    1    1    2    0    0  0.87901853029E+01  0.40319398707E+02 -0.13442542831E+02  0.43400728422E+02  0.00000000000E+00 0.  1.
         11    1    3    3    0    0 -0.11417559052E+02 -0.24343795439E+02  0.12157467249E+02  0.29509067103E+02  0.51100000000E-03 0. -1.
        -11    1    3    3    0    0 -0.11611680364E+01 -0.75242048691E+01 -0.28580207479E+01  0.81320509699E+01  0.51100000000E-03 0.  1.
         12    1    3    3    0    0  0.37885417856E+01 -0.84513983992E+01  0.41430963294E+01  0.10146153506E+02  0.00000000000E+00 0. -1.
</event>
<event>
 7    1  0.7470072E-010  0.4778727E+02  0.7816164E-02  0.1312668E+00
        -11   -1    0    0    0    0  0.00000000000E+00  0.00000000000E+00  0.45593999997E+02  0.45594000000E+02  0.51100000000E-03 0. -1.
         11   -1    0    0    0    0 -0.00000000000E+00 -0.00000000000E+00 -0.45593999997E+02  0.45594000000E+02  0.51100000000E-03 0.  1.
    9900012    2    1    2    0    0 -0.37817837572E+02 -0.55137258554E+01 -0.20567782176E+02  0.47787266422E+02  0.19999978925E+02 0.  0.
         12    1    1    2    0    0  0.37817837572E+02  0.55137258554E+01  0.20567782176E+02  0.43400733578E+02  0.00000000000E+00 0. -1.
         11    1    3    3    0    0 -0.10711781417E+02  0.69826987571E+01 -0.86724554437E+01  0.15450301833E+02  0.51100000000E-03 0. -1.
        -11    1    3    3    0    0 -0.10066575110E+02 -0.65459391624E+01 -0.52238466166E+01  0.13094801552E+02  0.51100000000E-03 0.  1.
         12    1    3    3    0    0 -0.17039481046E+02 -0.59504854501E+01 -0.66714801156E+01  0.19242163037E+02  0.00000000000E+00 0. -1.
</event>
<event>
 7    1  0.7470072E-010  0.4778730E+02  0.7816164E-02  0.1312668E+00
        -11   -1    0    0    0    0  0.00000000000E+00  0.00000000000E+00  0.45593999997E+02  0.45594000000E+02  0.51100000000E-03 0. -1.
         11   -1    0    0    0    0 -0.00000000000E+00 -0.00000000000E+00 -0.45593999997E+02  0.45594000000E+02  0.51100000000E-03 0.  1.
    9900012    2    1    2    0    0 -0.35637942800E+02 -0.99985655864E+00  0.24749914691E+02  0.47787297732E+02  0.20000121677E+02 0.  0.
        -12    1    1    2    0    0  0.35637942800E+02  0.99985655864E+00 -0.24749914691E+02  0.43400702268E+02  0.00000000000E+00 0.  1.
         11    1    3    3    0    0 -0.48196562633E+01  0.45648285318E+01  0.20972935607E+01  0.69617085950E+01  0.51100000000E-03 0. -1.
        -11    1    3    3    0    0 -0.30478815870E+02 -0.25051706932E+01  0.22016233846E+02  0.37682206014E+02  0.51100000000E-03 0.  1.
        -12    1    3    3    0    0 -0.33947066681E+00 -0.30595143973E+01  0.63638728493E+00  0.31433831229E+01  0.00000000000E+00 0.  1.
</event>
<event>
 7    1  0.7470072E-010  0.4778727E+02  0.7816164E-02  0.1312668E+00
        -11   -1    0    0    0    0  0.00000000000E+00  0.00000000000E+00  0.45593999997E+02  0.45594000000E+02  0.51100000000E-03 0. -1.
         11   -1    0    0    0    0 -0.00000000000E+00 -0.00000000000E+00 -0.45593999997E+02  0.45594000000E+02  0.51100000000E-03 0.  1.
    9900012    2    1    2    0    0 -0.15169121475E+02 -0.40657776613E+02 -0.68309486812E+00  0.47787266549E+02  0.19999979505E+02 0.  0.
         12    1    1    2    0    0  0.15169121475E+02  0.40657776613E+02  0.68309486812E+00  0.43400733451E+02  0.00000000000E+00 0. -1.
         11    1    3    3    0    0 -0.32151065231E+01 -0.19513556973E+02 -0.88899408327E+01  0.21682870289E+02  0.51100000000E-03 0. -1.
        -11    1    3    3    0    0 -0.93286403184E+01 -0.12390130610E+02  0.64536423811E+01  0.16798463232E+02  0.51100000000E-03 0.  1.
         12    1    3    3    0    0 -0.26253746334E+01 -0.87540890301E+01  0.17532035835E+01  0.93059330278E+01  0.00000000000E+00 0. -1.
</event>
<event>
 7    1  0.7470072E-010  0.4778728E+02  0.7816164E-02  0.1312668E+00
        -11   -1    0    0    0    0  0.00000000000E+00  0.00000000000E+00  0.45593999997E+02  0.45594000000E+02  0.51100000000E-03 0. -1.
         11   -1    0    0    0    0 -0.00000000000E+00 -0.00000000000E+00 -0.45593999997E+02  0.45594000000E+02  0.51100000000E-03 0.  1.
    9900012    2    1    2    0    0  0.11658562228E+02  0.44499983272E+01 -0.41567995817E+02  0.47787276105E+02  0.20000023075E+02 0.  0.
         12    1    1    2    0    0 -0.11658562228E+02 -0.44499983272E+01  0.41567995817E+02  0.43400723895E+02  0.00000000000E+00 0. -1.
         11    1    3    3    0    0  0.71122465453E+01  0.18774670146E+01 -0.60492161010E+01  0.95237570847E+01  0.51100000000E-03 0. -1.
        -11    1    3    3    0    0  0.29987722883E+01  0.69703798310E+01 -0.30430563892E+02  0.31362366767E+02  0.51100000000E-03 0.  1.
         12    1    3    3    0    0  0.15475433948E+01 -0.43978485184E+01 -0.50882158241E+01  0.69011522532E+01  0.00000000000E+00 0. -1.
</event>
<event>
 7    1  0.7470072E-010  0.4778727E+02  0.7816164E-02  0.1312668E+00
        -11   -1    0    0    0    0  0.00000000000E+00  0.00000000000E+00  0.45593999997E+02  0.45594000000E+02  0.51100000000E-03 0. -1.
         11   -1    0    0    0    0 -0.00000000000E+00 -0.00000000000E+00 -0.45593999997E+02  0.45594000000E+02  0.51100000000E-03 0.  1.
    9900012    2    1    2    0    0 -0.22324157700E+02 -0.16959731546E+02  0.33130391614E+02  0.47787270056E+02  0.19999995494E+02 0.  0.
        -12    1    1    2    0    0  0.22324157700E+02  0.16959731546E+02 -0.33130391614E+02  0.43400729944E+02  0.00000000000E+00 0.  1.
         11    1    3    3    0    0  0.19481832932E+01 -0.60925474888E+01  0.26315515677E+01  0.69166188967E+01  0.51100000000E-03 0. -1.
        -11    1    3    3    0    0 -0.11320436622E+02 -0.49069759370E+01  0.99002839163E+01  0.15819175707E+02  0.51100000000E-03 0.  1.
         12    1    3    3    0    0 -0.12951904371E+02 -0.59602081203E+01  0.20598556130E+02  0.25051475452E+02  0.00000000000E+00 0. -1.
</event>
<event>
 7    1  0.7470072E-010  0.4778727E+02  0.7816164E-02  0.1312668E+00
        -11   -1    0    0    0    0  0.00000000000E+00  0.00000000000E+00  0.45593999997E+02  0.45594000000E+02  0.51100000000E-03 0. -1.
         11   -1    0    0    0    0 -0.00000000000E+00 -0.00000000000E+00 -0.45593999997E+02  0.45594000000E+02  0.51100000000E-03 0.  1.
    9900012    2    1    2    0    0  0.24588266095E+02  0.72277853763E+01  0.35025699274E+02  0.47787270505E+02  0.19999997542E+02 0.  0.
        -12    1    1    2    0    0 -0.24588266095E+02 -0.72277853763E+01 -0.35025699274E+02  0.43400729495E+02  0.00000000000E+00 0.  1.
         11    1    3    3    0    0  0.57384402124E+01  0.42602066541E+01  0.13773448762E+02  0.15517311232E+02  0.51100000000E-03 0. -1.
        -11    1    3    3    0    0  0.26621193854E+01  0.43407772525E+01 -0.50448320544E+00  0.51170040399E+01  0.51100000000E-03 0.  1.
        -12    1    3    3    0    0  0.16187706498E+02 -0.13731985303E+01  0.21756733718E+02  0.27152955234E+02  0.00000000000E+00 0.  1.
</event>
<event>
 7    1  0.7470072E-010  0.4778727E+02  0.7816164E-02  0.1312668E+00
        -11   -1    0    0    0    0  0.00000000000E+00  0.00000000000E+00  0.45593999997E+02  0.45594000000E+02  0.51100000000E-03 0. -1.
         11   -1    0    0    0    0 -0.00000000000E+00 -0.00000000000E+00 -0.45593999997E+02  0.45594000000E+02  0.51100000000E-03 0.  1.
    9900012    2    1    2    0    0  0.23414850251E+02 -0.16495928620E+02 -0.32607548141E+02  0.47787273404E+02  0.20000010757E+02 0.  0.
         12    1    1    2    0    0 -0.23414850251E+02  0.16495928620E+02  0.32607548141E+02  0.43400726596E+02  0.00000000000E+00 0. -1.
         11    1    3    3    0    0  0.63340377347E+01 -0.13648820070E+01 -0.17482113955E+02  0.18644228209E+02  0.51100000000E-03 0. -1.
        -11    1    3    3    0    0  0.13728278369E+02 -0.56427335584E+01 -0.87351992451E+01  0.17222362645E+02  0.51100000000E-03 0.  1.
         12    1    3    3    0    0  0.33525341480E+01 -0.94883130548E+01 -0.63902349406E+01  0.11920682549E+02  0.00000000000E+00 0. -1.
</event>
<event>
 7    1  0.7470072E-010  0.4778727E+02  0.7816164E-02  0.1312668E+00
        -11   -1    0    0    0    0  0.00000000000E+00  0.00000000000E+00  0.45593999997E+02  0.45594000000E+02  0.51100000000E-03 0. -1.
         11   -1    0    0    0    0 -0.00000000000E+00 -0.00000000000E+00 -0.45593999997E+02  0.45594000000E+02  0.51100000000E-03 0.  1.
    9900012    2    1    2    0    0  0.11630900716E+02  0.14734301287E+02  0.39131132223E+02  0.47787274258E+02  0.20000014652E+02 0.  0.
        -12    1    1    2    0    0 -0.11630900716E+02 -0.14734301287E+02 -0.39131132223E+02  0.43400725742E+02  0.00000000000E+00 0.  1.
         11    1    3    3    0    0  0.53535100548E+01  0.44956418429E+01  0.16579048201E+01  0.71846721665E+01  0.51100000000E-03 0. -1.
        -11    1    3    3    0    0  0.51648615475E+01  0.37503297138E+00  0.82600073041E+01  0.97490597218E+01  0.51100000000E-03 0.  1.
         12    1    3    3    0    0  0.11125291137E+01  0.98636264727E+01  0.29213220099E+02  0.30853542370E+02  0.00000000000E+00 0. -1.
</event>
<event>
 7    1  0.7470072E-010  0.4778728E+02  0.7816164E-02  0.1312668E+00
        -11   -1    0    0    0    0  0.00000000000E+00  0.00000000000E+00  0.45593999997E+02  0.45594000000E+02  0.51100000000E-03 0. -1.
         11   -1    0    0    0    0 -0.00000000000E+00 -0.00000000000E+00 -0.45593999997E+02  0.45594000000E+02  0.51100000000E-03 0.  1.
    9900012    2    1    2    0    0  0.16383151389E+02  0.97636931509E+01 -0.38985709852E+02  0.47787275051E+02  0.20000018269E+02 0.  0.
         12    1    1    2    0    0 -0.16383151389E+02 -0.97636931509E+01  0.38985709852E+02  0.43400724949E+02  0.00000000000E+00 0. -1.
         11    1    3    3    0    0  0.74057270174E+01  0.28934772508E+01 -0.11055243894E+02  0.13617467498E+02  0.51100000000E-03 0. -1.
        -11    1    3    3    0    0  0.10313395347E+02  0.76604275488E+01 -0.29367458610E+02  0.32054576885E+02  0.51100000000E-03 0.  1.
        -12    1    3    3    0    0 -0.13359709756E+01 -0.79021164866E+00  0.14369926515E+01  0.21152306677E+01  0.00000000000E+00 0.  1.
</event>
<event>
 7    1  0.7470072E-010  0.4778726E+02  0.7816164E-02  0.1312668E+00
        -11   -1    0    0    0    0  0.00000000000E+00  0.00000000000E+00  0.45593999997E+02  0.45594000000E+02  0.51100000000E-03 0. -1.
         11   -1    0    0    0    0 -0.00000000000E+00 -0.00000000000E+00 -0.45593999997E+02  0.45594000000E+02  0.51100000000E-03 0.  1.
    9900012    2    1    2    0    0  0.11078924561E+02 -0.10613407721E+02 -0.40598490143E+02  0.47787258131E+02  0.19999941121E+02 0.  0.
         12    1    1    2    0    0 -0.11078924561E+02  0.10613407721E+02  0.40598490143E+02  0.43400741869E+02  0.00000000000E+00 0. -1.
         11    1    3    3    0    0  0.58343094357E+01 -0.10843615246E+02 -0.96117965145E+01  0.15620812741E+02  0.51100000000E-03 0. -1.
        -11    1    3    3    0    0  0.41325743738E+01 -0.74053243744E+00 -0.72049698377E+01  0.83389537635E+01  0.51100000000E-03 0.  1.
        -12    1    3    3    0    0  0.11120407515E+01  0.97073996231E+00 -0.23781723791E+02  0.23827491626E+02  0.00000000000E+00 0.  1.
</event>
<event>
 7    1  0.7470072E-010  0.4778727E+02  0.7816164E-02  0.1312668E+00
        -11   -1    0    0    0    0  0.00000000000E+00  0.00000000000E+00  0.45593999997E+02  0.45594000000E+02  0.51100000000E-03 0. -1.
         11   -1    0    0    0    0 -0.00000000000E+00 -0.00000000000E+00 -0.45593999997E+02  0.45594000000E+02  0.51100000000E-03 0.  1.
    9900012    2    1    2    0    0 -0.10568913853E+02  0.35449951855E+02  0.22698508236E+02  0.47787270713E+02  0.19999998489E+02 0.  0.
        -12    1    1    2    0    0  0.10568913853E+02 -0.35449951855E+02 -0.22698508236E+02  0.43400729287E+02  0.00000000000E+00 0.  1.
         11    1    3    3    0    0 -0.98915640060E+01  0.28337885288E+02  0.99407456086E+01  0.31617988624E+02  0.51100000000E-03 0. -1.
        -11    1    3    3    0    0  0.14032708539E+01  0.94185526541E+00 -0.16560427795E+00  0.16981417692E+01  0.51100000000E-03 0.  1.
         12    1    3    3    0    0 -0.20806207005E+01  0.61702113010E+01  0.12923366905E+02  0.14471140320E+02  0.00000000000E+00 0. -1.
</event>
<event>
 7    1  0.7470072E-010  0.4778725E+02  0.7816164E-02  0.1312668E+00
        -11   -1    0    0    0    0  0.00000000000E+00  0.00000000000E+00  0.45593999997E+02  0.45594000000E+02  0.51100000000E-03 0. -1.
         11   -1    0    0    0    0 -0.00000000000E+00 -0.00000000000E+00 -0.45593999997E+02  0.45594000000E+02  0.51100000000E-03 0.  1.
    9900012    2    1    2    0    0 -0.17111937695E+00  0.98884033497E+01  0.42258905230E+02  0.47787252612E+02  0.19999915958E+02 0.  0.
        -12    1    1    2    0    0  0.17111937695E+00 -0.98884033497E+01 -0.42258905230E+02  0.43400747388E+02  0.00000000000E+00 0.  1.
         11    1    3    3    0    0 -0.74699817216E+01  0.59253720248E+01  0.26965065072E+02  0.28601143249E+02  0.51100000000E-03 0. -1.
        -11    1    3    3    0    0  0.40238837045E+01  0.10278708044E+01  0.10569883622E+01  0.42854851670E+01  0.51100000000E-03 0.  1.
         12    1    3    3    0    0  0.32749786402E+01  0.29351605205E+01  0.14236851796E+02  0.14900624196E+02  0.00000000000E+00 0. -1.
</event>
<event>
 7    1  0.7470072E-010  0.4778728E+02  0.7816164E-02  0.1312668E+00
        -11   -1    0    0    0    0  0.00000000000E+00  0.00000000000E+00  0.45593999997E+02  0.45594000000E+02  0.51100000000E-03 0. -1.
         11   -1    0    0    0    0 -0.00000000000E+00 -0.00000000000E+00 -0.45593999997E+02  0.45594000000E+02  0.51100000000E-03 0.  1.
    9900012    2    1    2    0    0  0.10194357136E+02  0.12404445247E+02  0.40321546964E+02  0.47787281931E+02  0.20000049637E+02 0.  0.
        -12    1    1    2    0    0 -0.10194357136E+02 -0.12404445247E+02 -0.40321546964E+02  0.43400718069E+02  0.00000000000E+00 0.  1.
         11    1    3    3    0    0  0.86243275832E+01  0.16404705413E+02  0.37866383311E+02  0.42158704573E+02  0.51100000000E-03 0. -1.
        -11    1    3    3    0    0  0.72603723146E+00 -0.17961991111E+01 -0.34350309086E+00  0.19676015711E+01  0.51100000000E-03 0.  1.
         12    1    3    3    0    0  0.84399232141E+00 -0.22040610545E+01  0.27986667436E+01  0.36609757869E+01  0.00000000000E+00 0. -1.
</event>
<event>
 7    1  0.7470072E-010  0.4778728E+02  0.7816164E-02  0.1312668E+00
        -11   -1    0    0    0    0  0.00000000000E+00  0.00000000000E+00  0.45593999997E+02  0.45594000000E+02  0.51100000000E-03 0. -1.
         11   -1    0    0    0    0 -0.00000000000E+00 -0.00000000000E+00 -0.45593999997E+02  0.45594000000E+02  0.51100000000E-03 0.  1.
    9900012    2    1    2    0    0  0.12428531785E+02 -0.13764738767E+02  0.39238839031E+02  0.47787275073E+02  0.20000018369E+02 0.  0.
        -12    1    1    2    0    0 -0.12428531785E+02  0.13764738767E+02 -0.39238839031E+02  0.43400724927E+02  0.00000000000E+00 0.  1.
         11    1    3    3    0    0  0.50371748413E+01 -0.14120256804E+02  0.28184511678E+02  0.31923682140E+02  0.51100000000E-03 0. -1.
        -11    1    3    3    0    0  0.36218352875E+01 -0.25692841845E+01  0.74352766884E+00  0.45024155434E+01  0.51100000000E-03 0.  1.
         12    1    3    3    0    0  0.37695216558E+01  0.29248022213E+01  0.10310799685E+02  0.11361177390E+02  0.00000000000E+00 0. -1.
</event>
<event>
 7    1  0.7470072E-010  0.4778727E+02  0.7816164E-02  0.1312668E+00
        -11   -1    0    0    0    0  0.00000000000E+00  0.00000000000E+00  0.45593999997E+02  0.45594000000E+02  0.51100000000E-03 0.  1.
         11   -1    0    0    0    0 -0.00000000000E+00 -0.00000000000E+00 -0.45593999997E+02  0.45594000000E+02  0.51100000000E-03 0. -1.
    9900012    2    1    2    0    0  0.31506864920E+02 -0.29467434213E+02  0.47551246998E+01  0.47787269279E+02  0.19999991952E+02 0.  0.
        -12    1    1    2    0    0 -0.31506864920E+02  0.29467434213E+02 -0.47551246998E+01  0.43400730721E+02  0.00000000000E+00 0.  1.
         11    1    3    3    0    0  0.47162297214E+01 -0.39953083854E+01 -0.55592120232E+01  0.83132514974E+01  0.51100000000E-03 0. -1.
        -11    1    3    3    0    0 -0.58309834565E-01 -0.58080736129E+00 -0.99624810256E+00  0.11546634881E+01  0.51100000000E-03 0.  1.
         12    1    3    3    0    0  0.26848945034E+02 -0.24891318466E+02  0.11310584826E+02  0.38319354294E+02  0.00000000000E+00 0. -1.
</event>
<event>
 7    1  0.7470072E-010  0.4778725E+02  0.7816164E-02  0.1312668E+00
        -11   -1    0    0    0    0  0.00000000000E+00  0.00000000000E+00  0.45593999997E+02  0.45594000000E+02  0.51100000000E-03 0. -1.
         11   -1    0    0    0    0 -0.00000000000E+00 -0.00000000000E+00 -0.45593999997E+02  0.45594000000E+02  0.51100000000E-03 0.  1.
    9900012    2    1    2    0    0 -0.11394096934E+02  0.12995230476E+02  0.39811097765E+02  0.47787251558E+02  0.19999911153E+02 0.  0.
        -12    1    1    2    0    0  0.11394096934E+02 -0.12995230476E+02 -0.39811097765E+02  0.43400748442E+02  0.00000000000E+00 0.  1.
         11    1    3    3    0    0 -0.30717185831E+01 -0.16379369593E+01  0.12757408806E+02  0.13223833492E+02  0.51100000000E-03 0. -1.
        -11    1    3    3    0    0 -0.71816443181E+01  0.87142256487E+01  0.62550434422E+01  0.12908885021E+02  0.51100000000E-03 0.  1.
        -12    1    3    3    0    0 -0.11407340332E+01  0.59189417865E+01  0.20798645517E+02  0.21654533044E+02  0.00000000000E+00 0.  1.
</event>
<event>
 7    1  0.7470072E-010  0.4778727E+02  0.7816164E-02  0.1312668E+00
        -11   -1    0    0    0    0  0.00000000000E+00  0.00000000000E+00  0.45593999997E+02  0.45594000000E+02  0.51100000000E-03 0. -1.
         11   -1    0    0    0    0 -0.00000000000E+00 -0.00000000000E+00 -0.45593999997E+02  0.45594000000E+02  0.51100000000E-03 0.  1.
    9900012    2    1    2    0    0 -0.87484130190E+01  0.40080569429E+02 -0.14164633333E+02  0.47787267132E+02  0.19999982160E+02 0.  0.
         12    1    1    2    0    0  0.87484130190E+01 -0.40080569429E+02  0.14164633333E+02  0.43400732868E+02  0.00000000000E+00 0. -1.
         11    1    3    3    0    0 -0.25385034683E+01  0.71373420934E+01  0.15246666329E+01  0.77272414625E+01  0.51100000000E-03 0. -1.
        -11    1    3    3    0    0 -0.57413506805E+01  0.20939808050E+02 -0.19352479203E+01  0.21798712200E+02  0.51100000000E-03 0.  1.
        -12    1    3    3    0    0 -0.46855887010E+00  0.12003419285E+02 -0.13754052045E+02  0.18261313469E+02  0.00000000000E+00 0.  1.
</event>
<event>
 7    1  0.7470072E-010  0.4778726E+02  0.7816164E-02  0.1312668E+00
        -11   -1    0    0    0    0  0.00000000000E+00  0.00000000000E+00  0.45593999997E+02  0.45594000000E+02  0.51100000000E-03 0. -1.
         11   -1    0    0    0    0 -0.00000000000E+00 -0.00000000000E+00 -0.45593999997E+02  0.45594000000E+02  0.51100000000E-03 0.  1.
    9900012    2    1    2    0    0  0.12045590460E+02 -0.16660185800E+02  0.38222586738E+02  0.47787260635E+02  0.19999952540E+02 0.  0.
        -12    1    1    2    0    0 -0.12045590460E+02  0.16660185800E+02 -0.38222586738E+02  0.43400739365E+02  0.00000000000E+00 0.  1.
         11    1    3    3    0    0  0.17448321203E+01 -0.11800809775E+02  0.10634639022E+02  0.15981210776E+02  0.51100000000E-03 0. -1.
        -11    1    3    3    0    0  0.12606386132E+02 -0.46483068913E+01  0.22325052095E+02  0.26056394216E+02  0.51100000000E-03 0.  1.
         12    1    3    3    0    0 -0.23056277917E+01 -0.21106913407E+00  0.52628956213E+01  0.57496556431E+01  0.00000000000E+00 0. -1.
</event>
<event>
 7    1  0.7470072E-010  0.4778727E+02  0.7816164E-02  0.1312668E+00
        -11   -1    0    0    0    0  0.00000000000E+00  0.00000000000E+00  0.45593999997E+02  0.45594000000E+02  0.51100000000E-03 0. -1.
         11   -1    0    0    0    0 -0.00000000000E+00 -0.00000000000E+00 -0.45593999997E+02  0.45594000000E+02  0.51100000000E-03 0.  1.
    9900012    2    1    2    0    0  0.16124472671E+02  0.24755158593E+02  0.31793188083E+02  0.47787270693E+02  0.19999998398E+02 0.  0.
        -12    1    1    2    0    0 -0.16124472671E+02 -0.24755158593E+02 -0.31793188083E+02  0.43400729307E+02  0.00000000000E+00 0.  1.
         11    1    3    3    0    0  0.47526268180E+01  0.14412969379E+02  0.10000183802E+02  0.18174840421E+02  0.51100000000E-03 0. -1.
        -11    1    3    3    0    0  0.62914424110E+01 -0.69131289956E+00  0.13483735622E+02  0.14895344498E+02  0.51100000000E-03 0.  1.
        -12    1    3    3    0    0  0.50804034420E+01  0.11033502114E+02  0.83092686586E+01  0.14717085774E+02  0.00000000000E+00 0.  1.
</event>
<event>
 7    1  0.7470072E-010  0.4778727E+02  0.7816164E-02  0.1312668E+00
        -11   -1    0    0    0    0  0.00000000000E+00  0.00000000000E+00  0.45593999997E+02  0.45594000000E+02  0.51100000000E-03 0. -1.
         11   -1    0    0    0    0 -0.00000000000E+00 -0.00000000000E+00 -0.45593999997E+02  0.45594000000E+02  0.51100000000E-03 0.  1.
    9900012    2    1    2    0    0  0.42720973443E+02  0.26311896253E+01  0.71846103553E+01  0.47787270090E+02  0.19999995647E+02 0.  0.
        -12    1    1    2    0    0 -0.42720973443E+02 -0.26311896253E+01 -0.71846103553E+01  0.43400729910E+02  0.00000000000E+00 0.  1.
         11    1    3    3    0    0  0.66799942562E+01  0.51330675149E+00  0.29781146560E+01  0.73317783824E+01  0.51100000000E-03 0. -1.
        -11    1    3    3    0    0  0.32991832687E+02 -0.40618630100E+01  0.23774941014E+01  0.33325849331E+02  0.51100000000E-03 0.  1.
        -12    1    3    3    0    0  0.30491465001E+01  0.61797458838E+01  0.18290015980E+01  0.71296423762E+01  0.00000000000E+00 0.  1.
</event>
<event>
 7    1  0.7470072E-010  0.4778727E+02  0.7816164E-02  0.1312668E+00
        -11   -1    0    0    0    0  0.00000000000E+00  0.00000000000E+00  0.45593999997E+02  0.45594000000E+02  0.51100000000E-03 0. -1.
         11   -1    0    0    0    0 -0.00000000000E+00 -0.00000000000E+00 -0.45593999997E+02  0.45594000000E+02  0.51100000000E-03 0.  1.
    9900012    2    1    2    0    0  0.19154086880E+02 -0.33471539445E+02  0.19909802895E+02  0.47787271339E+02  0.20000001342E+02 0.  0.
        -12    1    1    2    0    0 -0.19154086880E+02  0.33471539445E+02 -0.19909802895E+02  0.43400728661E+02  0.00000000000E+00 0.  1.
         11    1    3    3    0    0  0.10399196991E+01 -0.10295474584E+02  0.16956384917E+01  0.10485867635E+02  0.51100000000E-03 0. -1.
        -11    1    3    3    0    0 -0.18802776115E+01 -0.35045149764E+01  0.47292076550E+01  0.61791969075E+01  0.51100000000E-03 0.  1.
         12    1    3    3    0    0  0.19994444792E+02 -0.19671549884E+02  0.13484956748E+02  0.31122206796E+02  0.00000000000E+00 0. -1.
</event>
<event>
 7    1  0.7470072E-010  0.4778727E+02  0.7816164E-02  0.1312668E+00
        -11   -1    0    0    0    0  0.00000000000E+00  0.00000000000E+00  0.45593999997E+02  0.45594000000E+02  0.51100000000E-03 0. -1.
         11   -1    0    0    0    0 -0.00000000000E+00 -0.00000000000E+00 -0.45593999997E+02  0.45594000000E+02  0.51100000000E-03 0.  1.
    9900012    2    1    2    0    0  0.26652918218E+02  0.11784731686E+02  0.32161554054E+02  0.47787268328E+02  0.19999987616E+02 0.  0.
        -12    1    1    2    0    0 -0.26652918218E+02 -0.11784731686E+02 -0.32161554054E+02  0.43400731672E+02  0.00000000000E+00 0.  1.
         11    1    3    3    0    0  0.17431421311E+02  0.68699447395E+01  0.29892565140E+02  0.35279116210E+02  0.51100000000E-03 0. -1.
        -11    1    3    3    0    0  0.52594935026E+01  0.45279217094E+01 -0.14165872792E+01  0.70831537249E+01  0.51100000000E-03 0.  1.
        -12    1    3    3    0    0  0.39620034045E+01  0.38686523733E+00  0.36855761932E+01  0.54249983931E+01  0.00000000000E+00 0.  1.
</event>
<event>
 7    1  0.7470072E-010  0.4778729E+02  0.7816164E-02  0.1312668E+00
        -11   -1    0    0    0    0  0.00000000000E+00  0.00000000000E+00  0.45593999997E+02  0.45594000000E+02  0.51100000000E-03 0. -1.
         11   -1    0    0    0    0 -0.00000000000E+00 -0.00000000000E+00 -0.45593999997E+02  0.45594000000E+02  0.51100000000E-03 0.  1.
    9900012    2    1    2    0    0  0.19354133196E+02  0.50513871362E+01  0.38516526268E+02  0.47787288260E+02  0.20000078492E+02 0.  0.
        -12    1    1    2    0    0 -0.19354133196E+02 -0.50513871362E+01 -0.38516526268E+02  0.43400711740E+02  0.00000000000E+00 0.  1.
         11    1    3    3    0    0  0.15460494212E+02  0.26431492200E+01  0.20585743299E+02  0.25880223077E+02  0.51100000000E-03 0. -1.
        -11    1    3    3    0    0 -0.29749331313E+01 -0.88567484104E+00  0.87105287507E+00  0.32238766155E+01  0.51100000000E-03 0.  1.
        -12    1    3    3    0    0  0.68685721155E+01  0.32939127572E+01  0.17059730094E+02  0.18683188568E+02  0.00000000000E+00 0.  1.
</event>
<event>
 7    1  0.7470072E-010  0.4778727E+02  0.7816164E-02  0.1312668E+00
        -11   -1    0    0    0    0  0.00000000000E+00  0.00000000000E+00  0.45593999997E+02  0.45594000000E+02  0.51100000000E-03 0. -1.
         11   -1    0    0    0    0 -0.00000000000E+00 -0.00000000000E+00 -0.45593999997E+02  0.45594000000E+02  0.51100000000E-03 0.  1.
    9900012    2    1    2    0    0  0.29121936751E+02 -0.22444019696E+02  0.23060835711E+02  0.47787270007E+02  0.19999995271E+02 0.  0.
        -12    1    1    2    0    0 -0.29121936751E+02  0.22444019696E+02 -0.23060835711E+02  0.43400729993E+02  0.00000000000E+00 0.  1.
         11    1    3    3    0    0  0.18874406222E+02 -0.21070160165E+02  0.13602186278E+02  0.31388124051E+02  0.51100000000E-03 0. -1.
        -11    1    3    3    0    0  0.61865528914E+01 -0.16216031334E+01  0.10412975688E+02  0.12220192156E+02  0.51100000000E-03 0.  1.
         12    1    3    3    0    0  0.40609776371E+01  0.24774360251E+00 -0.95432625546E+00  0.41789538001E+01  0.00000000000E+00 0. -1.
</event>
<event>
 7    1  0.7470072E-010  0.4778727E+02  0.7816164E-02  0.1312668E+00
        -11   -1    0    0    0    0  0.00000000000E+00  0.00000000000E+00  0.45593999997E+02  0.45594000000E+02  0.51100000000E-03 0. -1.
         11   -1    0    0    0    0 -0.00000000000E+00 -0.00000000000E+00 -0.45593999997E+02  0.45594000000E+02  0.51100000000E-03 0.  1.
    9900012    2    1    2    0    0  0.30378025426E+02 -0.10317986476E+02 -0.29229058149E+02  0.47787272887E+02  0.20000008400E+02 0.  0.
         12    1    1    2    0    0 -0.30378025426E+02  0.10317986476E+02  0.29229058149E+02  0.43400727113E+02  0.00000000000E+00 0. -1.
         11    1    3    3    0    0  0.23572759278E+02 -0.10390271395E+01 -0.18731314872E+02  0.30126677787E+02  0.51100000000E-03 0. -1.
        -11    1    3    3    0    0  0.52859650852E+01 -0.27186460496E+01 -0.89614867785E+01  0.10753637002E+02  0.51100000000E-03 0.  1.
         12    1    3    3    0    0  0.15193010627E+01 -0.65603132866E+01 -0.15362564979E+01  0.69069580978E+01  0.00000000000E+00 0. -1.
</event>
<event>
 7    1  0.7470072E-010  0.4778727E+02  0.7816164E-02  0.1312668E+00
        -11   -1    0    0    0    0  0.00000000000E+00  0.00000000000E+00  0.45593999997E+02  0.45594000000E+02  0.51100000000E-03 0. -1.
         11   -1    0    0    0    0 -0.00000000000E+00 -0.00000000000E+00 -0.45593999997E+02  0.45594000000E+02  0.51100000000E-03 0.  1.
    9900012    2    1    2    0    0  0.33118813669E+02  0.84714692502E+01  0.26739513942E+02  0.47787271712E+02  0.20000003044E+02 0.  0.
        -12    1    1    2    0    0 -0.33118813669E+02 -0.84714692502E+01 -0.26739513942E+02  0.43400728288E+02  0.00000000000E+00 0.  1.
         11    1    3    3    0    0  0.20760156213E+02  0.44941425002E+01  0.18211767669E+02  0.27979454689E+02  0.51100000000E-03 0. -1.
        -11    1    3    3    0    0 -0.94844113952E+00 -0.14346651212E+00  0.54598377853E+01  0.55434603037E+01  0.51100000000E-03 0.  1.
        -12    1    3    3    0    0  0.13307098595E+02  0.41207932621E+01  0.30679084878E+01  0.14264356719E+02  0.00000000000E+00 0.  1.
</event>
<event>
 7    1  0.7470072E-010  0.4778727E+02  0.7816164E-02  0.1312668E+00
        -11   -1    0    0    0    0  0.00000000000E+00  0.00000000000E+00  0.45593999997E+02  0.45594000000E+02  0.51100000000E-03 0. -1.
         11   -1    0    0    0    0 -0.00000000000E+00 -0.00000000000E+00 -0.45593999997E+02  0.45594000000E+02  0.51100000000E-03 0.  1.
    9900012    2    1    2    0    0 -0.18103284547E+02  0.30415691247E+01  0.39327383431E+02  0.47787272568E+02  0.20000006946E+02 0.  0.
        -12    1    1    2    0    0  0.18103284547E+02 -0.30415691247E+01 -0.39327383431E+02  0.43400727432E+02  0.00000000000E+00 0.  1.
         11    1    3    3    0    0 -0.13712955772E+02  0.59323749666E+01  0.18199630172E+02  0.23547075559E+02  0.51100000000E-03 0. -1.
        -11    1    3    3    0    0 -0.20309926619E+01 -0.44556625881E+01  0.26911739584E+01  0.55875108793E+01  0.51100000000E-03 0.  1.
        -12    1    3    3    0    0 -0.23593361132E+01  0.15648567462E+01  0.18436579301E+02  0.18652686129E+02  0.00000000000E+00 0.  1.
</event>
<event>
 7    1  0.7470072E-010  0.4778728E+02  0.7816164E-02  0.1312668E+00
        -11   -1    0    0    0    0  0.00000000000E+00  0.00000000000E+00  0.45593999997E+02  0.45594000000E+02  0.51100000000E-03 0. -1.
         11   -1    0    0    0    0 -0.00000000000E+00 -0.00000000000E+00 -0.45593999997E+02  0.45594000000E+02  0.51100000000E-03 0.  1.
    9900012    2    1    2    0    0 -0.28797633481E+02 -0.18340008626E+02  0.26794836971E+02  0.47787275366E+02  0.20000019702E+02 0.  0.
        -12    1    1    2    0    0  0.28797633481E+02  0.18340008626E+02 -0.26794836971E+02  0.43400724634E+02  0.00000000000E+00 0.  1.
         11    1    3    3    0    0 -0.11059630075E+02 -0.16231614074E+02  0.85923865508E+01  0.21438512536E+02  0.51100000000E-03 0. -1.
        -11    1    3    3    0    0 -0.52600338954E+01  0.21199162386E+01  0.37849165052E+01  0.68181811836E+01  0.51100000000E-03 0.  1.
         12    1    3    3    0    0 -0.12477969511E+02 -0.42283107903E+01  0.14417533915E+02  0.19530581646E+02  0.00000000000E+00 0. -1.
</event>
<event>
 7    1  0.7470072E-010  0.4778728E+02  0.7816164E-02  0.1312668E+00
        -11   -1    0    0    0    0  0.00000000000E+00  0.00000000000E+00  0.45593999997E+02  0.45594000000E+02  0.51100000000E-03 0.  1.
         11   -1    0    0    0    0 -0.00000000000E+00 -0.00000000000E+00 -0.45593999997E+02  0.45594000000E+02  0.51100000000E-03 0. -1.
    9900012    2    1    2    0    0  0.68048531534E+01 -0.41014508064E+02 -0.12454981274E+02  0.47787280459E+02  0.20000042924E+02 0.  0.
         12    1    1    2    0    0 -0.68048531534E+01  0.41014508064E+02  0.12454981274E+02  0.43400719541E+02  0.00000000000E+00 0. -1.
         11    1    3    3    0    0  0.91958732349E+01 -0.28193460774E+02 -0.16406512261E+02  0.33891133941E+02  0.51100000000E-03 0. -1.
        -11    1    3    3    0    0 -0.18455335979E+01 -0.11692673130E+02  0.27344917582E+01  0.12149158185E+02  0.51100000000E-03 0.  1.
         12    1    3    3    0    0 -0.54548648365E+00 -0.11283741604E+01  0.12170392289E+01  0.17469883326E+01  0.00000000000E+00 0. -1.
</event>
<event>
 7    1  0.7470072E-010  0.4778727E+02  0.7816164E-02  0.1312668E+00
        -11   -1    0    0    0    0  0.00000000000E+00  0.00000000000E+00  0.45593999997E+02  0.45594000000E+02  0.51100000000E-03 0. -1.
         11   -1    0    0    0    0 -0.00000000000E+00 -0.00000000000E+00 -0.45593999997E+02  0.45594000000E+02  0.51100000000E-03 0.  1.
    9900012    2    1    2    0    0 -0.17894393095E+02  0.24811393704E+02 -0.30786507179E+02  0.47787267448E+02  0.19999983601E+02 0.  0.
         12    1    1    2    0    0  0.17894393095E+02 -0.24811393704E+02  0.30786507179E+02  0.43400732552E+02  0.00000000000E+00 0. -1.
         11    1    3    3    0    0 -0.10454861257E+02  0.66010055878E+01 -0.18864121711E+02  0.22555098911E+02  0.51100000000E-03 0. -1.
        -11    1    3    3    0    0 -0.77760649937E+01  0.18787598314E+02 -0.12876391131E+02  0.24067456991E+02  0.51100000000E-03 0.  1.
        -12    1    3    3    0    0  0.33653315605E+00 -0.57721019761E+00  0.95400566385E+00  0.11647115454E+01  0.00000000000E+00 0.  1.
</event>
<event>
 7    1  0.7470072E-010  0.4778727E+02  0.7816164E-02  0.1312668E+00
        -11   -1    0    0    0    0  0.00000000000E+00  0.00000000000E+00  0.45593999997E+02  0.45594000000E+02  0.51100000000E-03 0. -1.
         11   -1    0    0    0    0 -0.00000000000E+00 -0.00000000000E+00 -0.45593999997E+02  0.45594000000E+02  0.51100000000E-03 0.  1.
    9900012    2    1    2    0    0 -0.19965085407E+01  0.78284323299E+01 -0.42642149259E+02  0.47787270829E+02  0.19999999020E+02 0.  0.
         12    1    1    2    0    0  0.19965085407E+01 -0.78284323299E+01  0.42642149259E+02  0.43400729171E+02  0.00000000000E+00 0. -1.
         11    1    3    3    0    0 -0.84772854726E+00  0.76819130921E+01 -0.15894606423E+02  0.17673962375E+02  0.51100000000E-03 0. -1.
        -11    1    3    3    0    0  0.13707495691E+00 -0.35490482572E+01 -0.25857750303E+02  0.26100532256E+02  0.51100000000E-03 0.  1.
        -12    1    3    3    0    0 -0.12858549503E+01  0.36955674950E+01 -0.88979253366E+00  0.40127761982E+01  0.00000000000E+00 0.  1.
</event>
<event>
 7    1  0.7470072E-010  0.4778727E+02  0.7816164E-02  0.1312668E+00
        -11   -1    0    0    0    0  0.00000000000E+00  0.00000000000E+00  0.45593999997E+02  0.45594000000E+02  0.51100000000E-03 0. -1.
         11   -1    0    0    0    0 -0.00000000000E+00 -0.00000000000E+00 -0.45593999997E+02  0.45594000000E+02  0.51100000000E-03 0.  1.
    9900012    2    1    2    0    0 -0.12784644696E+02 -0.26449513791E+02  0.31946817909E+02  0.47787273114E+02  0.20000009434E+02 0.  0.
        -12    1    1    2    0    0  0.12784644696E+02  0.26449513791E+02 -0.31946817909E+02  0.43400726886E+02  0.00000000000E+00 0.  1.
         11    1    3    3    0    0 -0.37265756656E+01 -0.85647858185E+01  0.67112456910E+00  0.93644717286E+01  0.51100000000E-03 0. -1.
        -11    1    3    3    0    0  0.79002845213E+00  0.17031209638E+00 -0.19178825915E+00  0.83062275602E+00  0.51100000000E-03 0.  1.
         12    1    3    3    0    0 -0.98480974827E+01 -0.18055040069E+02  0.31467481599E+02  0.37592178629E+02  0.00000000000E+00 0. -1.
</event>
<event>
 7    1  0.7470072E-010  0.4778727E+02  0.7816164E-02  0.1312668E+00
        -11   -1    0    0    0    0  0.00000000000E+00  0.00000000000E+00  0.45593999997E+02  0.45594000000E+02  0.51100000000E-03 0. -1.
         11   -1    0    0    0    0 -0.00000000000E+00 -0.00000000000E+00 -0.45593999997E+02  0.45594000000E+02  0.51100000000E-03 0.  1.
    9900012    2    1    2    0    0  0.15173420359E+02  0.22187067125E+01 -0.40601327786E+02  0.47787272323E+02  0.20000005832E+02 0.  0.
         12    1    1    2    0    0 -0.15173420359E+02 -0.22187067125E+01  0.40601327786E+02  0.43400727677E+02  0.00000000000E+00 0. -1.
         11    1    3    3    0    0  0.15324165823E+01  0.72893131925E+01 -0.15908400131E+02  0.17565864123E+02  0.51100000000E-03 0. -1.
        -11    1    3    3    0    0  0.72894506733E+01  0.64644735869E+00 -0.17789022468E+02  0.19235469995E+02  0.51100000000E-03 0.  1.
         12    1    3    3    0    0  0.63515531031E+01 -0.57170538387E+01 -0.69039051867E+01  0.10985938205E+02  0.00000000000E+00 0. -1.
</event>
<event>
 7    1  0.7470072E-010  0.4778727E+02  0.7816164E-02  0.1312668E+00
        -11   -1    0    0    0    0  0.00000000000E+00  0.00000000000E+00  0.45593999997E+02  0.45594000000E+02  0.51100000000E-03 0. -1.
         11   -1    0    0    0    0 -0.00000000000E+00 -0.00000000000E+00 -0.45593999997E+02  0.45594000000E+02  0.51100000000E-03 0.  1.
    9900012    2    1    2    0    0 -0.27769819260E+02 -0.18437153005E+02 -0.27794453690E+02  0.47787272718E+02  0.20000007632E+02 0.  0.
         12    1    1    2    0    0  0.27769819260E+02  0.18437153005E+02  0.27794453690E+02  0.43400727282E+02  0.00000000000E+00 0. -1.
         11    1    3    3    0    0 -0.57770423010E+01  0.20142760624E+01 -0.14796239894E+01  0.62945065902E+01  0.51100000000E-03 0. -1.
        -11    1    3    3    0    0 -0.23525295314E+00 -0.55405202127E+01 -0.62236504750E+01  0.83358583046E+01  0.51100000000E-03 0.  1.
        -12    1    3    3    0    0 -0.21757524006E+02 -0.14910908855E+02 -0.20091179225E+02  0.33156907823E+02  0.00000000000E+00 0.  1.
</event>
<event>
 7    1  0.7470072E-010  0.4778727E+02  0.7816164E-02  0.1312668E+00
        -11   -1    0    0    0    0  0.00000000000E+00  0.00000000000E+00  0.45593999997E+02  0.45594000000E+02  0.51100000000E-03 0. -1.
         11   -1    0    0    0    0 -0.00000000000E+00 -0.00000000000E+00 -0.45593999997E+02  0.45594000000E+02  0.51100000000E-03 0.  1.
    9900012    2    1    2    0    0 -0.43098928564E+01  0.38929379696E+02  0.18696309192E+02  0.47787265475E+02  0.19999974605E+02 0.  0.
        -12    1    1    2    0    0  0.43098928564E+01 -0.38929379696E+02 -0.18696309192E+02  0.43400734525E+02  0.00000000000E+00 0.  1.
         11    1    3    3    0    0 -0.17774967641E+01  0.10081408075E+02 -0.10919570958E+01  0.10294981985E+02  0.51100000000E-03 0.  1.
        -11    1    3    3    0    0 -0.70087101270E+01  0.12344581654E+02  0.12461104777E+02  0.18888881555E+02  0.51100000000E-03 0. -1.
        -12    1    3    3    0    0  0.44763140347E+01  0.16503389967E+02  0.73271615109E+01  0.18603401935E+02  0.00000000000E+00 0.  1.
</event>
<event>
 7    1  0.7470072E-010  0.4778730E+02  0.7816164E-02  0.1312668E+00
        -11   -1    0    0    0    0  0.00000000000E+00  0.00000000000E+00  0.45593999997E+02  0.45594000000E+02  0.51100000000E-03 0. -1.
         11   -1    0    0    0    0 -0.00000000000E+00 -0.00000000000E+00 -0.45593999997E+02  0.45594000000E+02  0.51100000000E-03 0.  1.
    9900012    2    1    2    0    0  0.15964177897E+02  0.15309749226E+02 -0.37341359197E+02  0.47787302955E+02  0.20000145494E+02 0.  0.
         12    1    1    2    0    0 -0.15964177897E+02 -0.15309749226E+02  0.37341359197E+02  0.43400697045E+02  0.00000000000E+00 0. -1.
         11    1    3    3    0    0 -0.29527071470E+01  0.47817804546E+00 -0.43000159958E+01  0.52380599046E+01  0.51100000000E-03 0. -1.
        -11    1    3    3    0    0  0.16795703627E+02  0.81344975631E+01 -0.28878109551E+02  0.34383294234E+02  0.51100000000E-03 0.  1.
        -12    1    3    3    0    0  0.21211814166E+01  0.66970736174E+01 -0.41632336508E+01  0.81659488163E+01  0.00000000000E+00 0.  1.
</event>
<event>
 7    1  0.7470072E-010  0.4778726E+02  0.7816164E-02  0.1312668E+00
        -11   -1    0    0    0    0  0.00000000000E+00  0.00000000000E+00  0.45593999997E+02  0.45594000000E+02  0.51100000000E-03 0. -1.
         11   -1    0    0    0    0 -0.00000000000E+00 -0.00000000000E+00 -0.45593999997E+02  0.45594000000E+02  0.51100000000E-03 0.  1.
    9900012    2    1    2    0    0 -0.24975961046E+01  0.23360763368E+02  0.36491924666E+02  0.47787264784E+02  0.19999971458E+02 0.  0.
        -12    1    1    2    0    0  0.24975961046E+01 -0.23360763368E+02 -0.36491924666E+02  0.43400735216E+02  0.00000000000E+00 0.  1.
         11    1    3    3    0    0 -0.36472573169E+01  0.37342384094E+01  0.15528271849E+01  0.54459429818E+01  0.51100000000E-03 0. -1.
        -11    1    3    3    0    0  0.14538162296E+01  0.19614842364E+02  0.36116670239E+02  0.41125047015E+02  0.51100000000E-03 0.  1.
        -12    1    3    3    0    0 -0.30415501730E+00  0.11682594443E-01 -0.11775727581E+01  0.12162747872E+01  0.00000000000E+00 0.  1.
</event>
<event>
 7    1  0.7470072E-010  0.4778727E+02  0.7816164E-02  0.1312668E+00
        -11   -1    0    0    0    0  0.00000000000E+00  0.00000000000E+00  0.45593999997E+02  0.45594000000E+02  0.51100000000E-03 0. -1.
         11   -1    0    0    0    0 -0.00000000000E+00 -0.00000000000E+00 -0.45593999997E+02  0.45594000000E+02  0.51100000000E-03 0.  1.
    9900012    2    1    2    0    0 -0.22901536865E+02  0.14161126048E+02 -0.34038292189E+02  0.47787271701E+02  0.20000002995E+02 0.  0.
         12    1    1    2    0    0  0.22901536865E+02 -0.14161126048E+02  0.34038292189E+02  0.43400728299E+02  0.00000000000E+00 0. -1.
         11    1    3    3    0    0  0.17664682074E+01  0.35113801541E+01 -0.58625734152E+00  0.39741538025E+01  0.51100000000E-03 0. -1.
        -11    1    3    3    0    0 -0.16907028819E+02  0.29708715923E+01 -0.22991559859E+02  0.28692952559E+02  0.51100000000E-03 0.  1.
         12    1    3    3    0    0 -0.77609762530E+01  0.76788743016E+01 -0.10460474988E+02  0.15120165340E+02  0.00000000000E+00 0. -1.
</event>
<event>
 7    1  0.7470072E-010  0.4778728E+02  0.7816164E-02  0.1312668E+00
        -11   -1    0    0    0    0  0.00000000000E+00  0.00000000000E+00  0.45593999997E+02  0.45594000000E+02  0.51100000000E-03 0. -1.
         11   -1    0    0    0    0 -0.00000000000E+00 -0.00000000000E+00 -0.45593999997E+02  0.45594000000E+02  0.51100000000E-03 0.  1.
    9900012    2    1    2    0    0 -0.40061345918E+02 -0.11799139007E+02 -0.11810656281E+02  0.47787277427E+02  0.20000029100E+02 0.  0.
         12    1    1    2    0    0  0.40061345918E+02  0.11799139007E+02  0.11810656281E+02  0.43400722573E+02  0.00000000000E+00 0. -1.
         11    1    3    3    0    0 -0.25958688660E+02 -0.76186378668E+01 -0.42830176634E+01  0.27390534870E+02  0.51100000000E-03 0. -1.
        -11    1    3    3    0    0 -0.15121948656E+02 -0.69180091635E+00 -0.71537734126E+01  0.16743010301E+02  0.51100000000E-03 0.  1.
         12    1    3    3    0    0  0.10192913972E+01 -0.34887002239E+01 -0.37386520456E+00  0.36537322556E+01  0.00000000000E+00 0. -1.
</event>
<event>
 7    1  0.7470072E-010  0.4778727E+02  0.7816164E-02  0.1312668E+00
        -11   -1    0    0    0    0  0.00000000000E+00  0.00000000000E+00  0.45593999997E+02  0.45594000000E+02  0.51100000000E-03 0.  1.
         11   -1    0    0    0    0 -0.00000000000E+00 -0.00000000000E+00 -0.45593999997E+02  0.45594000000E+02  0.51100000000E-03 0. -1.
    9900012    2    1    2    0    0  0.26350757594E+02  0.30023019118E+02  0.16966999501E+02  0.47787272185E+02  0.20000005202E+02 0.  0.
        -12    1    1    2    0    0 -0.26350757594E+02 -0.30023019118E+02 -0.16966999501E+02  0.43400727815E+02  0.00000000000E+00 0.  1.
         11    1    3    3    0    0 -0.15592555375E+01  0.62581853068E+01  0.23004024457E+00  0.64536098380E+01  0.51100000000E-03 0. -1.
        -11    1    3    3    0    0  0.16006654960E+02  0.10683040247E+02  0.13091578704E+02  0.23275089370E+02  0.51100000000E-03 0.  1.
         12    1    3    3    0    0  0.11903358171E+02  0.13081793564E+02  0.36453805517E+01  0.18058572977E+02  0.00000000000E+00 0. -1.
</event>
<event>
 7    1  0.7470072E-010  0.4778727E+02  0.7816164E-02  0.1312668E+00
        -11   -1    0    0    0    0  0.00000000000E+00  0.00000000000E+00  0.45593999997E+02  0.45594000000E+02  0.51100000000E-03 0. -1.
         11   -1    0    0    0    0 -0.00000000000E+00 -0.00000000000E+00 -0.45593999997E+02  0.45594000000E+02  0.51100000000E-03 0.  1.
    9900012    2    1    2    0    0 -0.27930721880E+01  0.14403919326E+02 -0.40845430695E+02  0.47787270135E+02  0.19999995853E+02 0.  0.
         12    1    1    2    0    0  0.27930721880E+01 -0.14403919326E+02  0.40845430695E+02  0.43400729865E+02  0.00000000000E+00 0. -1.
         11    1    3    3    0    0  0.38806696045E+01  0.60482638085E+01 -0.48940563104E+01  0.86944165478E+01  0.51100000000E-03 0. -1.
        -11    1    3    3    0    0 -0.48713380058E+01  0.96142396694E+01 -0.17799237178E+02  0.20808084553E+02  0.51100000000E-03 0.  1.
        -12    1    3    3    0    0 -0.18024037867E+01 -0.12585841521E+01 -0.18152137206E+02  0.18284769034E+02  0.00000000000E+00 0.  1.
</event>
<event>
 7    1  0.7470072E-010  0.4778727E+02  0.7816164E-02  0.1312668E+00
        -11   -1    0    0    0    0  0.00000000000E+00  0.00000000000E+00  0.45593999997E+02  0.45594000000E+02  0.51100000000E-03 0. -1.
         11   -1    0    0    0    0 -0.00000000000E+00 -0.00000000000E+00 -0.45593999997E+02  0.45594000000E+02  0.51100000000E-03 0.  1.
    9900012    2    1    2    0    0  0.30242646624E+02  0.60438814643E+00  0.31122988745E+02  0.47787269726E+02  0.19999993990E+02 0.  0.
        -12    1    1    2    0    0 -0.30242646624E+02 -0.60438814643E+00 -0.31122988745E+02  0.43400730274E+02  0.00000000000E+00 0.  1.
         11    1    3    3    0    0  0.81311298310E+01 -0.12796013775E+01 -0.12891216998E+01  0.83315356947E+01  0.51100000000E-03 0.  1.
        -11    1    3    3    0    0  0.10651037261E+02  0.67905437966E+00  0.18824748105E+02  0.21639705429E+02  0.51100000000E-03 0. -1.
        -12    1    3    3    0    0  0.11460479532E+02  0.12049351443E+01  0.13587362340E+02  0.17816028602E+02  0.00000000000E+00 0.  1.
</event>
<event>
 7    1  0.7470072E-010  0.4778728E+02  0.7816164E-02  0.1312668E+00
        -11   -1    0    0    0    0  0.00000000000E+00  0.00000000000E+00  0.45593999997E+02  0.45594000000E+02  0.51100000000E-03 0.  1.
         11   -1    0    0    0    0 -0.00000000000E+00 -0.00000000000E+00 -0.45593999997E+02  0.45594000000E+02  0.51100000000E-03 0. -1.
    9900012    2    1    2    0    0 -0.15074698901E+02  0.84518396174E+00 -0.40689822806E+02  0.47787279236E+02  0.20000037346E+02 0.  0.
         12    1    1    2    0    0  0.15074698901E+02 -0.84518396174E+00  0.40689822806E+02  0.43400720764E+02  0.00000000000E+00 0. -1.
         11    1    3    3    0    0  0.31244823196E+01 -0.26982665674E+01 -0.12465237897E+02  0.13131077196E+02  0.51100000000E-03 0. -1.
        -11    1    3    3    0    0 -0.98783522160E+01  0.44941357521E+01 -0.10735741984E+02  0.15265492291E+02  0.51100000000E-03 0.  1.
        -12    1    3    3    0    0 -0.83208290050E+01 -0.95068522289E+00 -0.17488842925E+02  0.19390709749E+02  0.00000000000E+00 0.  1.
</event>
<event>
 7    1  0.7470072E-010  0.4778727E+02  0.7816164E-02  0.1312668E+00
        -11   -1    0    0    0    0  0.00000000000E+00  0.00000000000E+00  0.45593999997E+02  0.45594000000E+02  0.51100000000E-03 0. -1.
         11   -1    0    0    0    0 -0.00000000000E+00 -0.00000000000E+00 -0.45593999997E+02  0.45594000000E+02  0.51100000000E-03 0.  1.
    9900012    2    1    2    0    0  0.27308705395E+02  0.28968081942E+02  0.17283177082E+02  0.47787269916E+02  0.19999994856E+02 0.  0.
        -12    1    1    2    0    0 -0.27308705395E+02 -0.28968081942E+02 -0.17283177082E+02  0.43400730084E+02  0.00000000000E+00 0.  1.
         11    1    3    3    0    0  0.93312687285E+01  0.16705700660E+01  0.72640122948E+01  0.11942749068E+02  0.51100000000E-03 0. -1.
        -11    1    3    3    0    0 -0.30468543039E-02  0.55619252971E-01 -0.12967217494E+01  0.12979176942E+01  0.51100000000E-03 0.  1.
         12    1    3    3    0    0  0.17980483521E+02  0.27241892623E+02  0.11315886537E+02  0.34546603154E+02  0.00000000000E+00 0. -1.
</event>
<event>
 7    1  0.7470072E-010  0.4778728E+02  0.7816164E-02  0.1312668E+00
        -11   -1    0    0    0    0  0.00000000000E+00  0.00000000000E+00  0.45593999997E+02  0.45594000000E+02  0.51100000000E-03 0. -1.
         11   -1    0    0    0    0 -0.00000000000E+00 -0.00000000000E+00 -0.45593999997E+02  0.45594000000E+02  0.51100000000E-03 0.  1.
    9900012    2    1    2    0    0 -0.30915067502E+02 -0.27600198804E+02  0.12888371581E+02  0.47787280021E+02  0.20000040929E+02 0.  0.
        -12    1    1    2    0    0  0.30915067502E+02  0.27600198804E+02 -0.12888371581E+02  0.43400719979E+02  0.00000000000E+00 0.  1.
         11    1    3    3    0    0 -0.14605714261E+02 -0.11426802999E+02  0.72161707608E+01  0.19899041097E+02  0.51100000000E-03 0. -1.
        -11    1    3    3    0    0 -0.86377372213E+00  0.26892770822E+00  0.52476705475E+01  0.53250796794E+01  0.51100000000E-03 0.  1.
        -12    1    3    3    0    0 -0.15445579519E+02 -0.16442323513E+02  0.42453027295E+00  0.22563159245E+02  0.00000000000E+00 0.  1.
</event>
<event>
 7    1  0.7470072E-010  0.4778727E+02  0.7816164E-02  0.1312668E+00
        -11   -1    0    0    0    0  0.00000000000E+00  0.00000000000E+00  0.45593999997E+02  0.45594000000E+02  0.51100000000E-03 0. -1.
         11   -1    0    0    0    0 -0.00000000000E+00 -0.00000000000E+00 -0.45593999997E+02  0.45594000000E+02  0.51100000000E-03 0.  1.
    9900012    2    1    2    0    0  0.24850294298E+02 -0.39117654098E+01  0.35366427726E+02  0.47787271372E+02  0.20000001494E+02 0.  0.
        -12    1    1    2    0    0 -0.24850294298E+02  0.39117654098E+01 -0.35366427726E+02  0.43400728628E+02  0.00000000000E+00 0.  1.
         11    1    3    3    0    0  0.15455188646E+02 -0.39212767993E+01  0.16797630689E+02  0.23160303644E+02  0.51100000000E-03 0. -1.
        -11    1    3    3    0    0  0.24323546698E+01  0.13265006915E+00  0.17395192878E+02  0.17564927578E+02  0.51100000000E-03 0.  1.
        -12    1    3    3    0    0  0.69627509819E+01 -0.12313867962E+00  0.11736041588E+01  0.70620401508E+01  0.00000000000E+00 0.  1.
</event>
<event>
 7    1  0.7470072E-010  0.4778728E+02  0.7816164E-02  0.1312668E+00
        -11   -1    0    0    0    0  0.00000000000E+00  0.00000000000E+00  0.45593999997E+02  0.45594000000E+02  0.51100000000E-03 0. -1.
         11   -1    0    0    0    0 -0.00000000000E+00 -0.00000000000E+00 -0.45593999997E+02  0.45594000000E+02  0.51100000000E-03 0.  1.
    9900012    2    1    2    0    0  0.14238327737E+02 -0.14984163884E+02 -0.38162385492E+02  0.47787276383E+02  0.20000024341E+02 0.  0.
         12    1    1    2    0    0 -0.14238327737E+02  0.14984163884E+02  0.38162385492E+02  0.43400723617E+02  0.00000000000E+00 0. -1.
         11    1    3    3    0    0  0.83312720515E+01 -0.64924906700E+01 -0.45972606868E+01  0.11519432937E+02  0.51100000000E-03 0. -1.
        -11    1    3    3    0    0  0.80874733769E+01 -0.77038712323E+01 -0.30033747625E+02  0.32043452596E+02  0.51100000000E-03 0.  1.
        -12    1    3    3    0    0 -0.21804176918E+01 -0.78780198183E+00 -0.35313771798E+01  0.42243908506E+01  0.00000000000E+00 0.  1.
</event>
<event>
 7    1  0.7470072E-010  0.4778727E+02  0.7816164E-02  0.1312668E+00
        -11   -1    0    0    0    0  0.00000000000E+00  0.00000000000E+00  0.45593999997E+02  0.45594000000E+02  0.51100000000E-03 0. -1.
         11   -1    0    0    0    0 -0.00000000000E+00 -0.00000000000E+00 -0.45593999997E+02  0.45594000000E+02  0.51100000000E-03 0.  1.
    9900012    2    1    2    0    0  0.67630232435E+01 -0.22302364443E+02  0.36612691236E+02  0.47787273017E+02  0.20000008992E+02 0.  0.
        -12    1    1    2    0    0 -0.67630232435E+01  0.22302364443E+02 -0.36612691236E+02  0.43400726983E+02  0.00000000000E+00 0.  1.
         11    1    3    3    0    0  0.96809183104E+01 -0.11148271723E+02  0.19726564359E+02  0.24640241140E+02  0.51100000000E-03 0. -1.
        -11    1    3    3    0    0 -0.23196449570E+01 -0.13107023939E+02  0.16254413264E+02  0.21009064237E+02  0.51100000000E-03 0.  1.
        -12    1    3    3    0    0 -0.59825010989E+00  0.19529312196E+01  0.63171361229E+00  0.21379676401E+01  0.00000000000E+00 0.  1.
</event>
<event>
 7    1  0.7470072E-010  0.4778727E+02  0.7816164E-02  0.1312668E+00
        -11   -1    0    0    0    0  0.00000000000E+00  0.00000000000E+00  0.45593999997E+02  0.45594000000E+02  0.51100000000E-03 0. -1.
         11   -1    0    0    0    0 -0.00000000000E+00 -0.00000000000E+00 -0.45593999997E+02  0.45594000000E+02  0.51100000000E-03 0.  1.
    9900012    2    1    2    0    0 -0.97807617671E+00  0.39904657632E+02 -0.17037752167E+02  0.47787270367E+02  0.19999996912E+02 0.  0.
         12    1    1    2    0    0  0.97807617671E+00 -0.39904657632E+02  0.17037752167E+02  0.43400729633E+02  0.00000000000E+00 0. -1.
         11    1    3    3    0    0  0.46276606301E+01  0.21552274308E+02 -0.30872740824E+00  0.22045659065E+02  0.51100000000E-03 0. -1.
        -11    1    3    3    0    0 -0.36795932523E+01  0.69245650230E+01 -0.82493565827E+01  0.11381603206E+02  0.51100000000E-03 0.  1.
         12    1    3    3    0    0 -0.19261435545E+01  0.11427818302E+02 -0.84796681759E+01  0.14360008095E+02  0.00000000000E+00 0. -1.
</event>
<event>
 7    1  0.7470072E-010  0.4778726E+02  0.7816164E-02  0.1312668E+00
        -11   -1    0    0    0    0  0.00000000000E+00  0.00000000000E+00  0.45593999997E+02  0.45594000000E+02  0.51100000000E-03 0. -1.
         11   -1    0    0    0    0 -0.00000000000E+00 -0.00000000000E+00 -0.45593999997E+02  0.45594000000E+02  0.51100000000E-03 0.  1.
    9900012    2    1    2    0    0  0.34260082504E+02  0.81311709596E+01 -0.25372322333E+02  0.47787263429E+02  0.19999965277E+02 0.  0.
         12    1    1    2    0    0 -0.34260082504E+02 -0.81311709596E+01  0.25372322333E+02  0.43400736571E+02  0.00000000000E+00 0. -1.
         11    1    3    3    0    0  0.16633989771E+02 -0.35629319634E+00 -0.18616458701E+01  0.16741633318E+02  0.51100000000E-03 0. -1.
        -11    1    3    3    0    0  0.15725491902E+02  0.55500243343E+01 -0.20529460361E+02  0.26449056858E+02  0.51100000000E-03 0.  1.
         12    1    3    3    0    0  0.19006008303E+01  0.29374398217E+01 -0.29812161016E+01  0.45965732526E+01  0.00000000000E+00 0. -1.
</event>
<event>
 7    1  0.7470072E-010  0.4778727E+02  0.7816164E-02  0.1312668E+00
        -11   -1    0    0    0    0  0.00000000000E+00  0.00000000000E+00  0.45593999997E+02  0.45594000000E+02  0.51100000000E-03 0. -1.
         11   -1    0    0    0    0 -0.00000000000E+00 -0.00000000000E+00 -0.45593999997E+02  0.45594000000E+02  0.51100000000E-03 0.  1.
    9900012    2    1    2    0    0 -0.17304590858E+02  0.34554605290E+02 -0.19752312498E+02  0.47787268894E+02  0.19999990196E+02 0.  0.
         12    1    1    2    0    0  0.17304590858E+02 -0.34554605290E+02  0.19752312498E+02  0.43400731106E+02  0.00000000000E+00 0. -1.
         11    1    3    3    0    0  0.29243694732E+01  0.67689543323E+01 -0.62214341246E+01  0.96476381772E+01  0.51100000000E-03 0. -1.
        -11    1    3    3    0    0 -0.15385606390E+02  0.13165078281E+02 -0.80719325095E+01  0.21798905129E+02  0.51100000000E-03 0.  1.
         12    1    3    3    0    0 -0.48433539418E+01  0.14620572677E+02 -0.54589458633E+01  0.16340725588E+02  0.00000000000E+00 0. -1.
</event>
<event>
 7    1  0.7470072E-010  0.4778727E+02  0.7816164E-02  0.1312668E+00
        -11   -1    0    0    0    0  0.00000000000E+00  0.00000000000E+00  0.45593999997E+02  0.45594000000E+02  0.51100000000E-03 0. -1.
         11   -1    0    0    0    0 -0.00000000000E+00 -0.00000000000E+00 -0.45593999997E+02  0.45594000000E+02  0.51100000000E-03 0.  1.
    9900012    2    1    2    0    0  0.55590111590E+01 -0.16729545008E+02 -0.39659084461E+02  0.47787271186E+02  0.20000000647E+02 0.  0.
         12    1    1    2    0    0 -0.55590111590E+01  0.16729545008E+02  0.39659084461E+02  0.43400728814E+02  0.00000000000E+00 0. -1.
         11    1    3    3    0    0  0.49610846967E+01 -0.54694954778E+01 -0.79656863150E+01  0.10861855315E+02  0.51100000000E-03 0. -1.
        -11    1    3    3    0    0  0.63857804580E+01 -0.75806996308E+00 -0.71961381902E+01  0.96507651116E+01  0.51100000000E-03 0.  1.
        -12    1    3    3    0    0 -0.57878539956E+01 -0.10501979567E+02 -0.24497259956E+02  0.27274650760E+02  0.00000000000E+00 0.  1.
</event>
<event>
 7    1  0.7470072E-010  0.4778727E+02  0.7816164E-02  0.1312668E+00
        -11   -1    0    0    0    0  0.00000000000E+00  0.00000000000E+00  0.45593999997E+02  0.45594000000E+02  0.51100000000E-03 0. -1.
         11   -1    0    0    0    0 -0.00000000000E+00 -0.00000000000E+00 -0.45593999997E+02  0.45594000000E+02  0.51100000000E-03 0.  1.
    9900012    2    1    2    0    0 -0.12178226020E+01  0.17034682245E+01 -0.43350182450E+02  0.47787271731E+02  0.20000003129E+02 0.  0.
         12    1    1    2    0    0  0.12178226020E+01 -0.17034682245E+01  0.43350182450E+02  0.43400728269E+02  0.00000000000E+00 0. -1.
         11    1    3    3    0    0  0.17778643722E+01  0.52927009391E+00  0.15333367190E+01  0.24066678859E+01  0.51100000000E-03 0. -1.
        -11    1    3    3    0    0 -0.17851926439E+01  0.26579319995E+01 -0.40106245068E+02  0.40233846560E+02  0.51100000000E-03 0.  1.
        -12    1    3    3    0    0 -0.12104943302E+01 -0.14837338689E+01 -0.47772741006E+01  0.51467572848E+01  0.00000000000E+00 0.  1.
</event>
<event>
 7    1  0.7470072E-010  0.4778726E+02  0.7816164E-02  0.1312668E+00
        -11   -1    0    0    0    0  0.00000000000E+00  0.00000000000E+00  0.45593999997E+02  0.45594000000E+02  0.51100000000E-03 0. -1.
         11   -1    0    0    0    0 -0.00000000000E+00 -0.00000000000E+00 -0.45593999997E+02  0.45594000000E+02  0.51100000000E-03 0.  1.
    9900012    2    1    2    0    0 -0.26377892182E+02 -0.19060564994E+02 -0.28714562907E+02  0.47787257417E+02  0.19999937867E+02 0.  0.
         12    1    1    2    0    0  0.26377892182E+02  0.19060564994E+02  0.28714562907E+02  0.43400742583E+02  0.00000000000E+00 0. -1.
         11    1    3    3    0    0 -0.97416629793E+01 -0.39640591094E+01 -0.14401530473E+02  0.17833054770E+02  0.51100000000E-03 0. -1.
        -11    1    3    3    0    0 -0.99854267805E+01 -0.15824470991E+02 -0.68369463081E+01  0.19921507604E+02  0.51100000000E-03 0.  1.
        -12    1    3    3    0    0 -0.66508024219E+01  0.72796510716E+00 -0.74760861258E+01  0.10032695042E+02  0.00000000000E+00 0.  1.
</event>
<event>
 7    1  0.7470072E-010  0.4778727E+02  0.7816164E-02  0.1312668E+00
        -11   -1    0    0    0    0  0.00000000000E+00  0.00000000000E+00  0.45593999997E+02  0.45594000000E+02  0.51100000000E-03 0. -1.
         11   -1    0    0    0    0 -0.00000000000E+00 -0.00000000000E+00 -0.45593999997E+02  0.45594000000E+02  0.51100000000E-03 0.  1.
    9900012    2    1    2    0    0 -0.13628182742E+02  0.10575376703E+02  0.39825340023E+02  0.47787266536E+02  0.19999979443E+02 0.  0.
        -12    1    1    2    0    0  0.13628182742E+02 -0.10575376703E+02 -0.39825340023E+02  0.43400733464E+02  0.00000000000E+00 0.  1.
         11    1    3    3    0    0 -0.80768686447E+01  0.50843850171E+01  0.21237386137E+02  0.23283327690E+02  0.51100000000E-03 0. -1.
        -11    1    3    3    0    0  0.17929518669E+01 -0.34545288659E+01  0.22947637065E+01  0.45182282824E+01  0.51100000000E-03 0.  1.
        -12    1    3    3    0    0 -0.73442659645E+01  0.89455205515E+01  0.16293190180E+02  0.19985710564E+02  0.00000000000E+00 0.  1.
</event>
<event>
 7    1  0.7470072E-010  0.4778727E+02  0.7816164E-02  0.1312668E+00
        -11   -1    0    0    0    0  0.00000000000E+00  0.00000000000E+00  0.45593999997E+02  0.45594000000E+02  0.51100000000E-03 0. -1.
         11   -1    0    0    0    0 -0.00000000000E+00 -0.00000000000E+00 -0.45593999997E+02  0.45594000000E+02  0.51100000000E-03 0.  1.
    9900012    2    1    2    0    0  0.11563849433E+02 -0.18852539872E+02  0.37342769846E+02  0.47787270363E+02  0.19999996892E+02 0.  0.
        -12    1    1    2    0    0 -0.11563849433E+02  0.18852539872E+02 -0.37342769846E+02  0.43400729637E+02  0.00000000000E+00 0.  1.
         11    1    3    3    0    0  0.57607162422E+01 -0.15654361413E+02  0.30415441194E+02  0.34689248279E+02  0.51100000000E-03 0. -1.
        -11    1    3    3    0    0  0.45379129073E+01  0.24366106369E+01  0.20673414296E+01  0.55501014223E+01  0.51100000000E-03 0.  1.
        -12    1    3    3    0    0  0.12652202831E+01 -0.56347890954E+01  0.48599872221E+01  0.75479206615E+01  0.00000000000E+00 0.  1.
</event>
<event>
 7    1  0.8817359E-010  0.4778727E+02  0.7816164E-02  0.1312668E+00
        -11   -1    0    0    0    0  0.00000000000E+00  0.00000000000E+00  0.45593999997E+02  0.45594000000E+02  0.51100000000E-03 0. -1.
         11   -1    0    0    0    0 -0.00000000000E+00 -0.00000000000E+00 -0.45593999997E+02  0.45594000000E+02  0.51100000000E-03 0.  1.
    9900012    2    1    2    0    0  0.13687629779E+02  0.35844835560E+01  0.41029545899E+02  0.47787269960E+02  0.19999995057E+02 0.  0.
        -12    1    1    2    0    0 -0.13687629779E+02 -0.35844835560E+01 -0.41029545899E+02  0.43400730040E+02  0.00000000000E+00 0.  1.
         11    1    3    3    0    0  0.16808207406E+01 -0.36047100306E+00  0.29100551577E+02  0.29151281276E+02  0.51100000000E-03 0. -1.
        -11    1    3    3    0    0  0.34321026043E+01  0.13035167956E+01 -0.47226540293E-01  0.36716093107E+01  0.51100000000E-03 0.  1.
         12    1    3    3    0    0  0.85747064345E+01  0.26414377634E+01  0.11976220862E+02  0.14964379373E+02  0.00000000000E+00 0. -1.
</event>
<event>
 7    1  0.7470072E-010  0.4778727E+02  0.7816164E-02  0.1312668E+00
        -11   -1    0    0    0    0  0.00000000000E+00  0.00000000000E+00  0.45593999997E+02  0.45594000000E+02  0.51100000000E-03 0. -1.
         11   -1    0    0    0    0 -0.00000000000E+00 -0.00000000000E+00 -0.45593999997E+02  0.45594000000E+02  0.51100000000E-03 0.  1.
    9900012    2    1    2    0    0  0.99402116566E+01  0.16090841863E+02 -0.39062772603E+02  0.47787271860E+02  0.20000003717E+02 0.  0.
         12    1    1    2    0    0 -0.99402116566E+01 -0.16090841863E+02  0.39062772603E+02  0.43400728140E+02  0.00000000000E+00 0. -1.
         11    1    3    3    0    0  0.40719149931E+01  0.53423539288E+00 -0.20224342154E+02  0.20637100450E+02  0.51100000000E-03 0. -1.
        -11    1    3    3    0    0  0.16544188545E+01  0.23345824135E+01 -0.10670682977E+02  0.11047662751E+02  0.51100000000E-03 0.  1.
         12    1    3    3    0    0  0.42138778090E+01  0.13222024057E+02 -0.81677474724E+01  0.16102508659E+02  0.00000000000E+00 0. -1.
</event>
<event>
 7    1  0.7470072E-010  0.4778727E+02  0.7816164E-02  0.1312668E+00
        -11   -1    0    0    0    0  0.00000000000E+00  0.00000000000E+00  0.45593999997E+02  0.45594000000E+02  0.51100000000E-03 0. -1.
         11   -1    0    0    0    0 -0.00000000000E+00 -0.00000000000E+00 -0.45593999997E+02  0.45594000000E+02  0.51100000000E-03 0.  1.
    9900012    2    1    2    0    0 -0.36229204236E+00  0.40738643437E+02  0.14961784412E+02  0.47787270543E+02  0.19999997714E+02 0.  0.
        -12    1    1    2    0    0  0.36229204236E+00 -0.40738643437E+02 -0.14961784412E+02  0.43400729457E+02  0.00000000000E+00 0.  1.
         11    1    3    3    0    0 -0.51602318450E+01  0.37212669961E+02  0.98171024068E+01  0.38830224031E+02  0.51100000000E-03 0. -1.
        -11    1    3    3    0    0  0.20280221960E+01  0.35105446383E+00  0.41432433082E+01  0.46262921045E+01  0.51100000000E-03 0.  1.
         12    1    3    3    0    0  0.27699176067E+01  0.31749190117E+01  0.10014386973E+01  0.43307544081E+01  0.00000000000E+00 0. -1.
</event>
<event>
 7    1  0.7470072E-010  0.4778725E+02  0.7816164E-02  0.1312668E+00
        -11   -1    0    0    0    0  0.00000000000E+00  0.00000000000E+00  0.45593999997E+02  0.45594000000E+02  0.51100000000E-03 0. -1.
         11   -1    0    0    0    0 -0.00000000000E+00 -0.00000000000E+00 -0.45593999997E+02  0.45594000000E+02  0.51100000000E-03 0.  1.
    9900012    2    1    2    0    0 -0.14273984151E+02  0.22493683987E+02 -0.34262408293E+02  0.47787250411E+02  0.19999905925E+02 0.  0.
         12    1    1    2    0    0  0.14273984151E+02 -0.22493683987E+02  0.34262408293E+02  0.43400749589E+02  0.00000000000E+00 0. -1.
         11    1    3    3    0    0 -0.62286416057E+01  0.61704629675E+01 -0.10664502961E+01  0.88322084430E+01  0.51100000000E-03 0. -1.
        -11    1    3    3    0    0 -0.11912882780E+01 -0.10980008399E+01 -0.20129322793E+01  0.25839253526E+01  0.51100000000E-03 0.  1.
        -12    1    3    3    0    0 -0.68540542673E+01  0.17421221859E+02 -0.31183025717E+02  0.36371116616E+02  0.00000000000E+00 0.  1.
</event>
<event>
 7    1  0.7470072E-010  0.4778727E+02  0.7816164E-02  0.1312668E+00
        -11   -1    0    0    0    0  0.00000000000E+00  0.00000000000E+00  0.45593999997E+02  0.45594000000E+02  0.51100000000E-03 0. -1.
         11   -1    0    0    0    0 -0.00000000000E+00 -0.00000000000E+00 -0.45593999997E+02  0.45594000000E+02  0.51100000000E-03 0.  1.
    9900012    2    1    2    0    0  0.80968194124E+01  0.14354911374E+02  0.40149742327E+02  0.47787265282E+02  0.19999973727E+02 0.  0.
        -12    1    1    2    0    0 -0.80968194124E+01 -0.14354911374E+02 -0.40149742327E+02  0.43400734718E+02  0.00000000000E+00 0.  1.
         11    1    3    3    0    0  0.10369575952E+02  0.54141700568E+01  0.11088320774E+02  0.16118070625E+02  0.51100000000E-03 0. -1.
        -11    1    3    3    0    0 -0.43537824112E+01  0.15816825766E+01  0.77705170992E+01  0.90464400350E+01  0.51100000000E-03 0.  1.
         12    1    3    3    0    0  0.20810258714E+01  0.73590587405E+01  0.21290904453E+02  0.22622754621E+02  0.00000000000E+00 0. -1.
</event>
<event>
 7    1  0.7470072E-010  0.4778727E+02  0.7816164E-02  0.1312668E+00
        -11   -1    0    0    0    0  0.00000000000E+00  0.00000000000E+00  0.45593999997E+02  0.45594000000E+02  0.51100000000E-03 0. -1.
         11   -1    0    0    0    0 -0.00000000000E+00 -0.00000000000E+00 -0.45593999997E+02  0.45594000000E+02  0.51100000000E-03 0.  1.
    9900012    2    1    2    0    0 -0.53654371528E+01 -0.30049372202E+02 -0.30852403070E+02  0.47787268891E+02  0.19999990182E+02 0.  0.
         12    1    1    2    0    0  0.53654371528E+01  0.30049372202E+02  0.30852403070E+02  0.43400731109E+02  0.00000000000E+00 0. -1.
         11    1    3    3    0    0 -0.35373789791E+01  0.80437793034E+00 -0.74122585756E+00  0.37026328375E+01  0.51100000000E-03 0. -1.
        -11    1    3    3    0    0  0.36468907548E+01 -0.12626520722E+02 -0.13150587861E+02  0.18592116583E+02  0.51100000000E-03 0.  1.
         12    1    3    3    0    0 -0.54749489285E+01 -0.18227229411E+02 -0.16960589352E+02  0.25492519470E+02  0.00000000000E+00 0. -1.
</event>
<event>
 7    1  0.7470072E-010  0.4778726E+02  0.7816164E-02  0.1312668E+00
        -11   -1    0    0    0    0  0.00000000000E+00  0.00000000000E+00  0.45593999997E+02  0.45594000000E+02  0.51100000000E-03 0. -1.
         11   -1    0    0    0    0 -0.00000000000E+00 -0.00000000000E+00 -0.45593999997E+02  0.45594000000E+02  0.51100000000E-03 0.  1.
    9900012    2    1    2    0    0 -0.39365694581E+02 -0.13415999681E+02  0.12408772586E+02  0.47787255831E+02  0.19999930636E+02 0.  0.
        -12    1    1    2    0    0  0.39365694581E+02  0.13415999681E+02 -0.12408772586E+02  0.43400744169E+02  0.00000000000E+00 0.  1.
         11    1    3    3    0    0 -0.33146258555E+02 -0.67010516433E+01  0.10093721695E+02  0.35291100397E+02  0.51100000000E-03 0. -1.
        -11    1    3    3    0    0 -0.17842388895E+01 -0.74665086816E+01  0.22409101471E+01  0.79971206604E+01  0.51100000000E-03 0.  1.
         12    1    3    3    0    0 -0.44351971368E+01  0.75156064342E+00  0.74140743856E-01  0.44990347734E+01  0.00000000000E+00 0. -1.
</event>
<event>
 7    1  0.7470072E-010  0.4778725E+02  0.7816164E-02  0.1312668E+00
        -11   -1    0    0    0    0  0.00000000000E+00  0.00000000000E+00  0.45593999997E+02  0.45594000000E+02  0.51100000000E-03 0. -1.
         11   -1    0    0    0    0 -0.00000000000E+00 -0.00000000000E+00 -0.45593999997E+02  0.45594000000E+02  0.51100000000E-03 0.  1.
    9900012    2    1    2    0    0 -0.12297648789E+02 -0.36131898085E+02 -0.20661049817E+02  0.47787248803E+02  0.19999898590E+02 0.  0.
         12    1    1    2    0    0  0.12297648789E+02  0.36131898085E+02  0.20661049817E+02  0.43400751197E+02  0.00000000000E+00 0. -1.
         11    1    3    3    0    0 -0.11074552940E+02 -0.21110469986E+02 -0.94019143336E+01  0.25626034794E+02  0.51100000000E-03 0. -1.
        -11    1    3    3    0    0 -0.16158580318E+01 -0.44126415149E+01 -0.10517177501E+02  0.11519263221E+02  0.51100000000E-03 0.  1.
         12    1    3    3    0    0  0.39276218226E+00 -0.10608786584E+02 -0.74195798260E+00  0.10641950787E+02  0.00000000000E+00 0. -1.
</event>
<event>
 7    1  0.7470072E-010  0.4778727E+02  0.7816164E-02  0.1312668E+00
        -11   -1    0    0    0    0  0.00000000000E+00  0.00000000000E+00  0.45593999997E+02  0.45594000000E+02  0.51100000000E-03 0. -1.
         11   -1    0    0    0    0 -0.00000000000E+00 -0.00000000000E+00 -0.45593999997E+02  0.45594000000E+02  0.51100000000E-03 0.  1.
    9900012    2    1    2    0    0  0.26692764259E+02  0.12481004308E+02 -0.31864465601E+02  0.47787270740E+02  0.19999998610E+02 0.  0.
         12    1    1    2    0    0 -0.26692764259E+02 -0.12481004308E+02  0.31864465601E+02  0.43400729260E+02  0.00000000000E+00 0. -1.
         11    1    3    3    0    0  0.20553954366E+02  0.10498853208E+02 -0.11267147696E+02  0.25683449461E+02  0.51100000000E-03 0. -1.
        -11    1    3    3    0    0  0.29917849867E+01 -0.14774209975E+01 -0.90368652860E+01  0.96331970119E+01  0.51100000000E-03 0.  1.
         12    1    3    3    0    0  0.31470249063E+01  0.34595720971E+01 -0.11560452618E+02  0.12470624266E+02  0.00000000000E+00 0. -1.
</event>
<event>
 7    1  0.7470072E-010  0.4778727E+02  0.7816164E-02  0.1312668E+00
        -11   -1    0    0    0    0  0.00000000000E+00  0.00000000000E+00  0.45593999997E+02  0.45594000000E+02  0.51100000000E-03 0. -1.
         11   -1    0    0    0    0 -0.00000000000E+00 -0.00000000000E+00 -0.45593999997E+02  0.45594000000E+02  0.51100000000E-03 0.  1.
    9900012    2    1    2    0    0 -0.13989318932E+02 -0.10016856857E+02  0.39844506322E+02  0.47787272477E+02  0.20000006530E+02 0.  0.
        -12    1    1    2    0    0  0.13989318932E+02  0.10016856857E+02 -0.39844506322E+02  0.43400727523E+02  0.00000000000E+00 0.  1.
         11    1    3    3    0    0  0.19337545562E+00 -0.33874891034E+01  0.14165547974E+02  0.14566235826E+02  0.51100000000E-03 0. -1.
        -11    1    3    3    0    0 -0.15203898717E+02 -0.26748120410E+01  0.13969461537E+02  0.20819678469E+02  0.51100000000E-03 0.  1.
        -12    1    3    3    0    0  0.10212043288E+01 -0.39545557122E+01  0.11709496812E+02  0.12401358181E+02  0.00000000000E+00 0.  1.
</event>
<event>
 7    1  0.7470072E-010  0.4778727E+02  0.7816164E-02  0.1312668E+00
        -11   -1    0    0    0    0  0.00000000000E+00  0.00000000000E+00  0.45593999997E+02  0.45594000000E+02  0.51100000000E-03 0. -1.
         11   -1    0    0    0    0 -0.00000000000E+00 -0.00000000000E+00 -0.45593999997E+02  0.45594000000E+02  0.51100000000E-03 0.  1.
    9900012    2    1    2    0    0  0.93708521728E+01 -0.21151703934E+02  0.36720783517E+02  0.47787269685E+02  0.19999993804E+02 0.  0.
        -12    1    1    2    0    0 -0.93708521728E+01  0.21151703934E+02 -0.36720783517E+02  0.43400730315E+02  0.00000000000E+00 0.  1.
         11    1    3    3    0    0  0.25281332071E+01 -0.22003004891E+02  0.30552326745E+02  0.37735505184E+02  0.51100000000E-03 0. -1.
        -11    1    3    3    0    0  0.52354178039E+01  0.15045270510E+01  0.62798458588E+01  0.83132223295E+01  0.51100000000E-03 0.  1.
        -12    1    3    3    0    0  0.16073011617E+01 -0.65322609365E+00 -0.11138908653E+00  0.17385421716E+01  0.00000000000E+00 0.  1.
</event>
<event>
 7    1  0.7470072E-010  0.4778727E+02  0.7816164E-02  0.1312668E+00
        -11   -1    0    0    0    0  0.00000000000E+00  0.00000000000E+00  0.45593999997E+02  0.45594000000E+02  0.51100000000E-03 0. -1.
         11   -1    0    0    0    0 -0.00000000000E+00 -0.00000000000E+00 -0.45593999997E+02  0.45594000000E+02  0.51100000000E-03 0.  1.
    9900012    2    1    2    0    0 -0.21405239574E+02  0.99029101420E+01 -0.36433111893E+02  0.47787267832E+02  0.19999985354E+02 0.  0.
         12    1    1    2    0    0  0.21405239574E+02 -0.99029101420E+01  0.36433111893E+02  0.43400732168E+02  0.00000000000E+00 0. -1.
         11    1    3    3    0    0 -0.76065892229E+01  0.90713909102E+01 -0.14672896957E+02  0.18853228849E+02  0.51100000000E-03 0.  1.
        -11    1    3    3    0    0 -0.10427080467E+02 -0.39454090729E+01 -0.72722734530E+01  0.13310755848E+02  0.51100000000E-03 0. -1.
        -12    1    3    3    0    0 -0.33715698843E+01  0.47769283047E+01 -0.14487941483E+02  0.15623283135E+02  0.00000000000E+00 0.  1.
</event>
<event>
 7    1  0.7470072E-010  0.4778727E+02  0.7816164E-02  0.1312668E+00
        -11   -1    0    0    0    0  0.00000000000E+00  0.00000000000E+00  0.45593999997E+02  0.45594000000E+02  0.51100000000E-03 0. -1.
         11   -1    0    0    0    0 -0.00000000000E+00 -0.00000000000E+00 -0.45593999997E+02  0.45594000000E+02  0.51100000000E-03 0.  1.
    9900012    2    1    2    0    0  0.12496248923E+02 -0.18219783983E+02 -0.37356479053E+02  0.47787270827E+02  0.19999999009E+02 0.  0.
         12    1    1    2    0    0 -0.12496248923E+02  0.18219783983E+02  0.37356479053E+02  0.43400729173E+02  0.00000000000E+00 0. -1.
         11    1    3    3    0    0  0.92854978487E+01 -0.11807405186E+02 -0.14631690733E+02  0.20969541280E+02  0.51100000000E-03 0.  1.
        -11    1    3    3    0    0  0.44188816533E+01  0.14232517611E+01 -0.15177299502E+02  0.15871439162E+02  0.51100000000E-03 0. -1.
         12    1    3    3    0    0 -0.12081305793E+01 -0.78356305573E+01 -0.75474888176E+01  0.10946290384E+02  0.00000000000E+00 0. -1.
</event>
<event>
 7    1  0.7470072E-010  0.4778727E+02  0.7816164E-02  0.1312668E+00
        -11   -1    0    0    0    0  0.00000000000E+00  0.00000000000E+00  0.45593999997E+02  0.45594000000E+02  0.51100000000E-03 0. -1.
         11   -1    0    0    0    0 -0.00000000000E+00 -0.00000000000E+00 -0.45593999997E+02  0.45594000000E+02  0.51100000000E-03 0.  1.
    9900012    2    1    2    0    0 -0.21890606932E+01  0.77863006202E+01  0.42640416428E+02  0.47787267549E+02  0.19999984064E+02 0.  0.
        -12    1    1    2    0    0  0.21890606932E+01 -0.77863006202E+01 -0.42640416428E+02  0.43400732451E+02  0.00000000000E+00 0.  1.
         11    1    3    3    0    0  0.86626070687E+01  0.38260080530E+01  0.16141281518E+02  0.18714167578E+02  0.51100000000E-03 0. -1.
        -11    1    3    3    0    0 -0.38262334471E+01  0.56304081994E+00  0.11992551215E+02  0.12600728640E+02  0.51100000000E-03 0.  1.
         12    1    3    3    0    0 -0.70254343148E+01  0.33972517473E+01  0.14506583695E+02  0.16472371331E+02  0.00000000000E+00 0. -1.
</event>
<event>
 7    1  0.7470072E-010  0.4778727E+02  0.7816164E-02  0.1312668E+00
        -11   -1    0    0    0    0  0.00000000000E+00  0.00000000000E+00  0.45593999997E+02  0.45594000000E+02  0.51100000000E-03 0. -1.
         11   -1    0    0    0    0 -0.00000000000E+00 -0.00000000000E+00 -0.45593999997E+02  0.45594000000E+02  0.51100000000E-03 0.  1.
    9900012    2    1    2    0    0 -0.86405978474E+00 -0.42576293199E+01 -0.43182741664E+02  0.47787272076E+02  0.20000004702E+02 0.  0.
         12    1    1    2    0    0  0.86405978474E+00  0.42576293199E+01  0.43182741664E+02  0.43400727924E+02  0.00000000000E+00 0. -1.
         11    1    3    3    0    0  0.55934233490E+01 -0.36601375765E+01 -0.53475996150E+01  0.85603629446E+01  0.51100000000E-03 0. -1.
        -11    1    3    3    0    0 -0.65061102301E+01  0.13793185142E+01 -0.35710178708E+02  0.36324218553E+02  0.51100000000E-03 0.  1.
        -12    1    3    3    0    0  0.48627096323E-01 -0.19768102577E+01 -0.21249633410E+01  0.29026905777E+01  0.00000000000E+00 0.  1.
</event>
<event>
 7    1  0.7470072E-010  0.4778728E+02  0.7816164E-02  0.1312668E+00
        -11   -1    0    0    0    0  0.00000000000E+00  0.00000000000E+00  0.45593999997E+02  0.45594000000E+02  0.51100000000E-03 0.  1.
         11   -1    0    0    0    0 -0.00000000000E+00 -0.00000000000E+00 -0.45593999997E+02  0.45594000000E+02  0.51100000000E-03 0. -1.
    9900012    2    1    2    0    0  0.29664327952E+02 -0.22500105788E+01 -0.31600438451E+02  0.47787278684E+02  0.20000034834E+02 0.  0.
         12    1    1    2    0    0 -0.29664327952E+02  0.22500105788E+01  0.31600438451E+02  0.43400721316E+02  0.00000000000E+00 0. -1.
         11    1    3    3    0    0  0.89077172368E+01 -0.35643316363E+01 -0.21487681119E+01  0.98320440929E+01  0.51100000000E-03 0. -1.
        -11    1    3    3    0    0  0.14593929567E+02 -0.37640017384E+01 -0.23805159359E+02  0.28175097190E+02  0.51100000000E-03 0.  1.
         12    1    3    3    0    0  0.61626811475E+01  0.50783227959E+01 -0.56465109797E+01  0.97801374013E+01  0.00000000000E+00 0. -1.
</event>
<event>
 7    1  0.7470072E-010  0.4778727E+02  0.7816164E-02  0.1312668E+00
        -11   -1    0    0    0    0  0.00000000000E+00  0.00000000000E+00  0.45593999997E+02  0.45594000000E+02  0.51100000000E-03 0. -1.
         11   -1    0    0    0    0 -0.00000000000E+00 -0.00000000000E+00 -0.45593999997E+02  0.45594000000E+02  0.51100000000E-03 0.  1.
    9900012    2    1    2    0    0 -0.21094278890E+02  0.22485687444E+02 -0.30545843295E+02  0.47787270924E+02  0.19999999453E+02 0.  0.
         12    1    1    2    0    0  0.21094278890E+02 -0.22485687444E+02  0.30545843295E+02  0.43400729076E+02  0.00000000000E+00 0. -1.
         11    1    3    3    0    0  0.34306702061E+01  0.37724790372E+01 -0.13743474359E+01  0.52810914861E+01  0.51100000000E-03 0. -1.
        -11    1    3    3    0    0 -0.13414868829E+02  0.90634550869E+01 -0.14723650838E+02  0.21883574161E+02  0.51100000000E-03 0.  1.
         12    1    3    3    0    0 -0.11110080267E+02  0.96497533199E+01 -0.14447845021E+02  0.20622605277E+02  0.00000000000E+00 0. -1.
</event>
<event>
 7    1  0.7470072E-010  0.4778727E+02  0.7816164E-02  0.1312668E+00
        -11   -1    0    0    0    0  0.00000000000E+00  0.00000000000E+00  0.45593999997E+02  0.45594000000E+02  0.51100000000E-03 0. -1.
         11   -1    0    0    0    0 -0.00000000000E+00 -0.00000000000E+00 -0.45593999997E+02  0.45594000000E+02  0.51100000000E-03 0.  1.
    9900012    2    1    2    0    0 -0.31568454565E+02 -0.55434812460E+01 -0.29263051474E+02  0.47787266257E+02  0.19999978170E+02 0.  0.
         12    1    1    2    0    0  0.31568454565E+02  0.55434812460E+01  0.29263051474E+02  0.43400733743E+02  0.00000000000E+00 0. -1.
         11    1    3    3    0    0 -0.88579498812E+01  0.44915460696E+01 -0.46495916010E+01  0.10966128055E+02  0.51100000000E-03 0. -1.
        -11    1    3    3    0    0 -0.51246072998E+01 -0.43652755299E+01 -0.13945686398E+02  0.15485457688E+02  0.51100000000E-03 0.  1.
        -12    1    3    3    0    0 -0.17585897384E+02 -0.56697517857E+01 -0.10667773475E+02  0.21335680514E+02  0.00000000000E+00 0.  1.
</event>
<event>
 7    1  0.7470072E-010  0.4778727E+02  0.7816164E-02  0.1312668E+00
        -11   -1    0    0    0    0  0.00000000000E+00  0.00000000000E+00  0.45593999997E+02  0.45594000000E+02  0.51100000000E-03 0. -1.
         11   -1    0    0    0    0 -0.00000000000E+00 -0.00000000000E+00 -0.45593999997E+02  0.45594000000E+02  0.51100000000E-03 0.  1.
    9900012    2    1    2    0    0  0.29522827949E+02 -0.97538645745E+01 -0.30280160590E+02  0.47787269942E+02  0.19999994972E+02 0.  0.
         12    1    1    2    0    0 -0.29522827949E+02  0.97538645745E+01  0.30280160590E+02  0.43400730058E+02  0.00000000000E+00 0. -1.
         11    1    3    3    0    0  0.17768778187E+02 -0.44715628053E+01 -0.28728446991E+02  0.34074154706E+02  0.51100000000E-03 0.  1.
        -11    1    3    3    0    0  0.11848231501E+02 -0.42626732662E+01 -0.15684367481E+01  0.12689009700E+02  0.51100000000E-03 0. -1.
        -12    1    3    3    0    0 -0.94181738548E-01 -0.10196285029E+01  0.16723149223E-01  0.10241055354E+01  0.00000000000E+00 0.  1.
</event>
<event>
 7    1  0.7470072E-010  0.4778725E+02  0.7816164E-02  0.1312668E+00
        -11   -1    0    0    0    0  0.00000000000E+00  0.00000000000E+00  0.45593999997E+02  0.45594000000E+02  0.51100000000E-03 0.  1.
         11   -1    0    0    0    0 -0.00000000000E+00 -0.00000000000E+00 -0.45593999997E+02  0.45594000000E+02  0.51100000000E-03 0. -1.
    9900012    2    1    2    0    0 -0.13695021133E+02 -0.41183025705E+02 -0.17295727353E+00  0.47787249727E+02  0.19999902803E+02 0.  0.
        -12    1    1    2    0    0  0.13695021133E+02  0.41183025705E+02  0.17295727353E+00  0.43400750273E+02  0.00000000000E+00 0.  1.
         11    1    3    3    0    0 -0.82336088700E+01 -0.12002707100E+02 -0.63949513598E+01  0.15898197882E+02  0.51100000000E-03 0. -1.
        -11    1    3    3    0    0 -0.75574765208E+01 -0.27609139131E+02  0.60943662853E+01  0.29266385421E+02  0.51100000000E-03 0.  1.
         12    1    3    3    0    0  0.20960642576E+01 -0.15711794739E+01  0.12762780104E+00  0.26226664231E+01  0.00000000000E+00 0. -1.
</event>
<event>
 7    1  0.7873355E-010  0.4778727E+02  0.7816164E-02  0.1312668E+00
        -11   -1    0    0    0    0  0.00000000000E+00  0.00000000000E+00  0.45593999997E+02  0.45594000000E+02  0.51100000000E-03 0. -1.
         11   -1    0    0    0    0 -0.00000000000E+00 -0.00000000000E+00 -0.45593999997E+02  0.45594000000E+02  0.51100000000E-03 0.  1.
    9900012    2    1    2    0    0 -0.84674204553E+01 -0.31744121492E+02  0.28359070111E+02  0.47787270559E+02  0.19999997785E+02 0.  0.
        -12    1    1    2    0    0  0.84674204553E+01  0.31744121492E+02 -0.28359070111E+02  0.43400729441E+02  0.00000000000E+00 0.  1.
         11    1    3    3    0    0 -0.25578084650E+01 -0.63403754492E+01  0.14846959055E+02  0.16345486790E+02  0.51100000000E-03 0. -1.
        -11    1    3    3    0    0  0.13897920422E+01 -0.13047285770E+02  0.25115349348E+01  0.13359303720E+02  0.51100000000E-03 0.  1.
         12    1    3    3    0    0 -0.72994040325E+01 -0.12356460273E+02  0.11000576122E+02  0.18082480049E+02  0.00000000000E+00 0. -1.
</event>
<event>
 7    1  0.7470072E-010  0.4778727E+02  0.7816164E-02  0.1312668E+00
        -11   -1    0    0    0    0  0.00000000000E+00  0.00000000000E+00  0.45593999997E+02  0.45594000000E+02  0.51100000000E-03 0. -1.
         11   -1    0    0    0    0 -0.00000000000E+00 -0.00000000000E+00 -0.45593999997E+02  0.45594000000E+02  0.51100000000E-03 0.  1.
    9900012    2    1    2    0    0 -0.21313948598E+02 -0.33699301041E+02 -0.17137558727E+02  0.47787271727E+02  0.20000003112E+02 0.  0.
         12    1    1    2    0    0  0.21313948598E+02  0.33699301041E+02  0.17137558727E+02  0.43400728273E+02  0.00000000000E+00 0. -1.
         11    1    3    3    0    0 -0.16134822986E+02 -0.12320746678E+02 -0.83921177146E+01  0.21967270006E+02  0.51100000000E-03 0.  1.
        -11    1    3    3    0    0 -0.60341691985E+01 -0.21071358889E+02 -0.10144271409E+02  0.24152010393E+02  0.51100000000E-03 0. -1.
        -12    1    3    3    0    0  0.85504358711E+00 -0.30719547464E+00  0.13988303962E+01  0.16679913288E+01  0.00000000000E+00 0.  1.
</event>
<event>
 7    1  0.7470072E-010  0.4778727E+02  0.7816164E-02  0.1312668E+00
        -11   -1    0    0    0    0  0.00000000000E+00  0.00000000000E+00  0.45593999997E+02  0.45594000000E+02  0.51100000000E-03 0. -1.
         11   -1    0    0    0    0 -0.00000000000E+00 -0.00000000000E+00 -0.45593999997E+02  0.45594000000E+02  0.51100000000E-03 0.  1.
    9900012    2    1    2    0    0  0.27151941215E+02 -0.25351122546E+02  0.22443620868E+02  0.47787269087E+02  0.19999991074E+02 0.  0.
        -12    1    1    2    0    0 -0.27151941215E+02  0.25351122546E+02 -0.22443620868E+02  0.43400730913E+02  0.00000000000E+00 0.  1.
         11    1    3    3    0    0  0.20704488066E+02 -0.23147650502E+02  0.12777458169E+02  0.33582033699E+02  0.51100000000E-03 0. -1.
        -11    1    3    3    0    0  0.32843291673E+01 -0.27825641211E+01  0.31441583043E+00  0.43160559244E+01  0.51100000000E-03 0.  1.
         12    1    3    3    0    0  0.31631239822E+01  0.57909207622E+00  0.93517468692E+01  0.98891794637E+01  0.00000000000E+00 0. -1.
</event>
<event>
 7    1  0.7470072E-010  0.4778727E+02  0.7816164E-02  0.1312668E+00
        -11   -1    0    0    0    0  0.00000000000E+00  0.00000000000E+00  0.45593999997E+02  0.45594000000E+02  0.51100000000E-03 0. -1.
         11   -1    0    0    0    0 -0.00000000000E+00 -0.00000000000E+00 -0.45593999997E+02  0.45594000000E+02  0.51100000000E-03 0.  1.
    9900012    2    1    2    0    0 -0.19491709123E+02 -0.15166572333E+01  0.38747853774E+02  0.47787272520E+02  0.20000006729E+02 0.  0.
        -12    1    1    2    0    0  0.19491709123E+02  0.15166572333E+01 -0.38747853774E+02  0.43400727480E+02  0.00000000000E+00 0.  1.
         11    1    3    3    0    0 -0.13581813267E+02  0.49264389300E+01  0.16641395765E+02  0.22037956017E+02  0.51100000000E-03 0. -1.
        -11    1    3    3    0    0 -0.48631133540E+01 -0.53920639046E+01  0.22930308041E+02  0.24052510300E+02  0.51100000000E-03 0.  1.
        -12    1    3    3    0    0 -0.10467825018E+01 -0.10510322587E+01 -0.82385003174E+00  0.16968062028E+01  0.00000000000E+00 0.  1.
</event>
<event>
 7    1  0.7470072E-010  0.4778729E+02  0.7816164E-02  0.1312668E+00
        -11   -1    0    0    0    0  0.00000000000E+00  0.00000000000E+00  0.45593999997E+02  0.45594000000E+02  0.51100000000E-03 0. -1.
         11   -1    0    0    0    0 -0.00000000000E+00 -0.00000000000E+00 -0.45593999997E+02  0.45594000000E+02  0.51100000000E-03 0.  1.
    9900012    2    1    2    0    0  0.10313028669E+02  0.13921852109E+02 -0.39792524657E+02  0.47787290961E+02  0.20000090809E+02 0.  0.
         12    1    1    2    0    0 -0.10313028669E+02 -0.13921852109E+02  0.39792524657E+02  0.43400709039E+02  0.00000000000E+00 0. -1.
         11    1    3    3    0    0  0.83401167409E+01  0.29886504198E+01 -0.20796925936E+02  0.22605346873E+02  0.51100000000E-03 0. -1.
        -11    1    3    3    0    0 -0.82137794174E+00  0.41496467092E+01  0.58650285527E+00  0.42706223662E+01  0.51100000000E-03 0.  1.
        -12    1    3    3    0    0  0.27942898696E+01  0.67835549803E+01 -0.19582101576E+02  0.20911321723E+02  0.00000000000E+00 0.  1.
</event>
<event>
 7    1  0.1158366E-009  0.4778727E+02  0.7816164E-02  0.1312668E+00
        -11   -1    0    0    0    0  0.00000000000E+00  0.00000000000E+00  0.45593999997E+02  0.45594000000E+02  0.51100000000E-03 0. -1.
         11   -1    0    0    0    0 -0.00000000000E+00 -0.00000000000E+00 -0.45593999997E+02  0.45594000000E+02  0.51100000000E-03 0.  1.
    9900012    2    1    2    0    0 -0.13577805440E+02  0.12914339305E+02 -0.39146983649E+02  0.47787270870E+02  0.19999999204E+02 0.  0.
         12    1    1    2    0    0  0.13577805440E+02 -0.12914339305E+02  0.39146983649E+02  0.43400729130E+02  0.00000000000E+00 0. -1.
         11    1    3    3    0    0 -0.31357330580E+01 -0.24674901553E+01 -0.15587425373E+01  0.42838076563E+01  0.51100000000E-03 0. -1.
        -11    1    3    3    0    0 -0.11844831806E+02  0.92296920751E+01 -0.30613223275E+02  0.34097752065E+02  0.51100000000E-03 0.  1.
         12    1    3    3    0    0  0.14027594239E+01  0.61521373848E+01 -0.69750178359E+01  0.94057111488E+01  0.00000000000E+00 0. -1.
</event>
<event>
 7    1  0.7470072E-010  0.4778727E+02  0.7816164E-02  0.1312668E+00
        -11   -1    0    0    0    0  0.00000000000E+00  0.00000000000E+00  0.45593999997E+02  0.45594000000E+02  0.51100000000E-03 0.  1.
         11   -1    0    0    0    0 -0.00000000000E+00 -0.00000000000E+00 -0.45593999997E+02  0.45594000000E+02  0.51100000000E-03 0. -1.
    9900012    2    1    2    0    0  0.18064891152E+02  0.39420312147E+02 -0.18225495265E+01  0.47787274328E+02  0.20000014971E+02 0.  0.
         12    1    1    2    0    0 -0.18064891152E+02 -0.39420312147E+02  0.18225495265E+01  0.43400725672E+02  0.00000000000E+00 0. -1.
         11    1    3    3    0    0  0.14207859490E+02  0.27521895183E+02  0.58445621948E+01  0.31519468480E+02  0.51100000000E-03 0. -1.
        -11    1    3    3    0    0  0.31286969594E+01  0.90023771981E+00 -0.24423197417E+01  0.40699015464E+01  0.51100000000E-03 0.  1.
         12    1    3    3    0    0  0.72833470226E+00  0.10998179244E+02 -0.52247919796E+01  0.12197904302E+02  0.00000000000E+00 0. -1.
</event>
<event>
 7    1  0.7470072E-010  0.4778727E+02  0.7816164E-02  0.1312668E+00
        -11   -1    0    0    0    0  0.00000000000E+00  0.00000000000E+00  0.45593999997E+02  0.45594000000E+02  0.51100000000E-03 0. -1.
         11   -1    0    0    0    0 -0.00000000000E+00 -0.00000000000E+00 -0.45593999997E+02  0.45594000000E+02  0.51100000000E-03 0.  1.
    9900012    2    1    2    0    0  0.26360223393E+02 -0.10221329866E+02 -0.32928501683E+02  0.47787272073E+02  0.20000004688E+02 0.  0.
         12    1    1    2    0    0 -0.26360223393E+02  0.10221329866E+02  0.32928501683E+02  0.43400727927E+02  0.00000000000E+00 0. -1.
         11    1    3    3    0    0  0.21279975366E+01  0.27487853327E+01 -0.10871823387E+02  0.11414058802E+02  0.51100000000E-03 0. -1.
        -11    1    3    3    0    0  0.21106263017E+02 -0.96603963399E+01 -0.21750937675E+02  0.31810389592E+02  0.51100000000E-03 0.  1.
         12    1    3    3    0    0  0.31259628392E+01 -0.33097188589E+01 -0.30574062115E+00  0.45628236789E+01  0.00000000000E+00 0. -1.
</event>
<event>
 7    1  0.7470072E-010  0.4778726E+02  0.7816164E-02  0.1312668E+00
        -11   -1    0    0    0    0  0.00000000000E+00  0.00000000000E+00  0.45593999997E+02  0.45594000000E+02  0.51100000000E-03 0. -1.
         11   -1    0    0    0    0 -0.00000000000E+00 -0.00000000000E+00 -0.45593999997E+02  0.45594000000E+02  0.51100000000E-03 0.  1.
    9900012    2    1    2    0    0 -0.36743256404E+02  0.29367630052E+01 -0.22911402645E+02  0.47787264530E+02  0.19999970300E+02 0.  0.
         12    1    1    2    0    0  0.36743256404E+02 -0.29367630052E+01  0.22911402645E+02  0.43400735470E+02  0.00000000000E+00 0. -1.
         11    1    3    3    0    0 -0.20766215337E+02  0.25737145625E+01 -0.95837418432E+01  0.23015382118E+02  0.51100000000E-03 0. -1.
        -11    1    3    3    0    0 -0.19943877354E+01 -0.12814698544E+00 -0.10254034826E+02  0.10446972507E+02  0.51100000000E-03 0.  1.
        -12    1    3    3    0    0 -0.13982653332E+02  0.49119542814E+00 -0.30736259761E+01  0.14324909905E+02  0.00000000000E+00 0.  1.
</event>
<event>
 7    1  0.7470072E-010  0.4778727E+02  0.7816164E-02  0.1312668E+00
        -11   -1    0    0    0    0  0.00000000000E+00  0.00000000000E+00  0.45593999997E+02  0.45594000000E+02  0.51100000000E-03 0. -1.
         11   -1    0    0    0    0 -0.00000000000E+00 -0.00000000000E+00 -0.45593999997E+02  0.45594000000E+02  0.51100000000E-03 0.  1.
    9900012    2    1    2    0    0 -0.18045398784E+02  0.22715710115E+02 -0.32279767680E+02  0.47787270688E+02  0.19999998374E+02 0.  0.
         12    1    1    2    0    0  0.18045398784E+02 -0.22715710115E+02  0.32279767680E+02  0.43400729312E+02  0.00000000000E+00 0. -1.
         11    1    3    3    0    0 -0.54499180147E+01  0.85264190962E+01 -0.23057910185E+02  0.25180719833E+02  0.51100000000E-03 0. -1.
        -11    1    3    3    0    0 -0.49984689416E+01  0.13324477052E+01 -0.47364901097E+01  0.70138753530E+01  0.51100000000E-03 0.  1.
         12    1    3    3    0    0 -0.75970118282E+01  0.12856843314E+02 -0.44853673862E+01  0.15592675502E+02  0.00000000000E+00 0. -1.
</event>
<event>
 7    1  0.7470072E-010  0.4778727E+02  0.7816164E-02  0.1312668E+00
        -11   -1    0    0    0    0  0.00000000000E+00  0.00000000000E+00  0.45593999997E+02  0.45594000000E+02  0.51100000000E-03 0.  1.
         11   -1    0    0    0    0 -0.00000000000E+00 -0.00000000000E+00 -0.45593999997E+02  0.45594000000E+02  0.51100000000E-03 0. -1.
    9900012    2    1    2    0    0  0.17393733552E+02 -0.21579582722E+02  0.33397647539E+02  0.47787271683E+02  0.20000002911E+02 0.  0.
        -12    1    1    2    0    0 -0.17393733552E+02  0.21579582722E+02 -0.33397647539E+02  0.43400728317E+02  0.00000000000E+00 0.  1.
         11    1    3    3    0    0  0.83922321108E+01 -0.21618034462E+01  0.43823422731E+01  0.97112243307E+01  0.51100000000E-03 0. -1.
        -11    1    3    3    0    0  0.27145943849E+01 -0.16887036672E+02  0.16093859601E+02  0.23485172926E+02  0.51100000000E-03 0.  1.
        -12    1    3    3    0    0  0.62869070561E+01 -0.25307426034E+01  0.12921445664E+02  0.14590874426E+02  0.00000000000E+00 0.  1.
</event>
<event>
 7    1  0.7470072E-010  0.4778729E+02  0.7816164E-02  0.1312668E+00
        -11   -1    0    0    0    0  0.00000000000E+00  0.00000000000E+00  0.45593999997E+02  0.45594000000E+02  0.51100000000E-03 0. -1.
         11   -1    0    0    0    0 -0.00000000000E+00 -0.00000000000E+00 -0.45593999997E+02  0.45594000000E+02  0.51100000000E-03 0.  1.
    9900012    2    1    2    0    0  0.40911530054E+01 -0.41817647405E+02  0.10870551470E+02  0.47787285068E+02  0.20000063937E+02 0.  0.
        -12    1    1    2    0    0 -0.40911530054E+01  0.41817647405E+02 -0.10870551470E+02  0.43400714932E+02  0.00000000000E+00 0.  1.
         11    1    3    3    0    0  0.41077529879E+00 -0.27188465868E+02  0.13331793672E+02  0.30283958384E+02  0.51100000000E-03 0. -1.
        -11    1    3    3    0    0 -0.36189310517E+00  0.20726077281E+00  0.15552362103E+01  0.16101812254E+01  0.51100000000E-03 0.  1.
         12    1    3    3    0    0  0.40422708117E+01 -0.14836442310E+02 -0.40164784132E+01  0.15893145458E+02  0.00000000000E+00 0. -1.
</event>
<event>
 7    1  0.7470072E-010  0.4778733E+02  0.7816164E-02  0.1312667E+00
        -11   -1    0    0    0    0  0.00000000000E+00  0.00000000000E+00  0.45593999997E+02  0.45594000000E+02  0.51100000000E-03 0. -1.
         11   -1    0    0    0    0 -0.00000000000E+00 -0.00000000000E+00 -0.45593999997E+02  0.45594000000E+02  0.51100000000E-03 0.  1.
    9900012    2    1    2    0    0  0.27715913536E+02 -0.24693844934E+02 -0.22486887884E+02  0.47787332177E+02  0.20000278727E+02 0.  0.
         12    1    1    2    0    0 -0.27715913536E+02  0.24693844934E+02  0.22486887884E+02  0.43400667823E+02  0.00000000000E+00 0. -1.
         11    1    3    3    0    0  0.34425255283E+01  0.56990436046E+00 -0.79128985479E+01  0.86481059593E+01  0.51100000000E-03 0. -1.
        -11    1    3    3    0    0  0.99157438829E+01 -0.82230753468E+01 -0.10200043261E+02  0.16431123750E+02  0.51100000000E-03 0.  1.
         12    1    3    3    0    0  0.14357644125E+02 -0.17040673947E+02 -0.43739460748E+01  0.22708102468E+02  0.00000000000E+00 0. -1.
</event>
<event>
 7    1  0.7470072E-010  0.4778727E+02  0.7816164E-02  0.1312668E+00
        -11   -1    0    0    0    0  0.00000000000E+00  0.00000000000E+00  0.45593999997E+02  0.45594000000E+02  0.51100000000E-03 0. -1.
         11   -1    0    0    0    0 -0.00000000000E+00 -0.00000000000E+00 -0.45593999997E+02  0.45594000000E+02  0.51100000000E-03 0.  1.
    9900012    2    1    2    0    0 -0.25356485829E+02  0.11344089707E+02  0.33346424580E+02  0.47787265246E+02  0.19999973564E+02 0.  0.
        -12    1    1    2    0    0  0.25356485829E+02 -0.11344089707E+02 -0.33346424580E+02  0.43400734754E+02  0.00000000000E+00 0.  1.
         11    1    3    3    0    0 -0.94399345654E+01  0.94872059534E+01  0.99247471765E+01  0.16661934107E+02  0.51100000000E-03 0. -1.
        -11    1    3    3    0    0 -0.11526022921E+02 -0.23957864411E+01  0.72226044372E+01  0.13811408768E+02  0.51100000000E-03 0.  1.
        -12    1    3    3    0    0 -0.43905283426E+01  0.42526701952E+01  0.16199072966E+02  0.17313922372E+02  0.00000000000E+00 0.  1.
</event>
<event>
 7    1  0.7470072E-010  0.4778728E+02  0.7816164E-02  0.1312668E+00
        -11   -1    0    0    0    0  0.00000000000E+00  0.00000000000E+00  0.45593999997E+02  0.45594000000E+02  0.51100000000E-03 0. -1.
         11   -1    0    0    0    0 -0.00000000000E+00 -0.00000000000E+00 -0.45593999997E+02  0.45594000000E+02  0.51100000000E-03 0.  1.
    9900012    2    1    2    0    0  0.46982951657E+01  0.20029772142E+02 -0.38214611327E+02  0.47787282629E+02  0.20000052816E+02 0.  0.
         12    1    1    2    0    0 -0.46982951657E+01 -0.20029772142E+02  0.38214611327E+02  0.43400717371E+02  0.00000000000E+00 0. -1.
         11    1    3    3    0    0  0.14798842716E+01  0.31947905520E+01 -0.81007341946E+00  0.36128885029E+01  0.51100000000E-03 0. -1.
        -11    1    3    3    0    0  0.24253461759E+01 -0.27009617351E+01 -0.35375416748E+01  0.50686980310E+01  0.51100000000E-03 0.  1.
        -12    1    3    3    0    0  0.79306471831E+00  0.19535943325E+02 -0.33866996232E+02  0.39105696095E+02  0.00000000000E+00 0.  1.
</event>
<event>
 7    1  0.7470072E-010  0.4778727E+02  0.7816164E-02  0.1312668E+00
        -11   -1    0    0    0    0  0.00000000000E+00  0.00000000000E+00  0.45593999997E+02  0.45594000000E+02  0.51100000000E-03 0. -1.
         11   -1    0    0    0    0 -0.00000000000E+00 -0.00000000000E+00 -0.45593999997E+02  0.45594000000E+02  0.51100000000E-03 0.  1.
    9900012    2    1    2    0    0  0.10660286600E+02  0.18189605180E+02  0.37935735258E+02  0.47787268940E+02  0.19999990405E+02 0.  0.
        -12    1    1    2    0    0 -0.10660286600E+02 -0.18189605180E+02 -0.37935735258E+02  0.43400731060E+02  0.00000000000E+00 0.  1.
         11    1    3    3    0    0  0.10441188340E+02  0.57477542931E+01  0.13196220573E+02  0.17781882100E+02  0.51100000000E-03 0. -1.
        -11    1    3    3    0    0 -0.13035771920E+01  0.14151254277E+02  0.23328511890E+02  0.27316236534E+02  0.51100000000E-03 0.  1.
        -12    1    3    3    0    0  0.15226754526E+01 -0.17094033895E+01  0.14110027948E+01  0.26891503061E+01  0.00000000000E+00 0.  1.
</event>
<event>
 7    1  0.7470072E-010  0.4778727E+02  0.7816164E-02  0.1312668E+00
        -11   -1    0    0    0    0  0.00000000000E+00  0.00000000000E+00  0.45593999997E+02  0.45594000000E+02  0.51100000000E-03 0. -1.
         11   -1    0    0    0    0 -0.00000000000E+00 -0.00000000000E+00 -0.45593999997E+02  0.45594000000E+02  0.51100000000E-03 0.  1.
    9900012    2    1    2    0    0  0.21942229170E+02 -0.34564075736E+02 -0.14404397227E+02  0.47787269455E+02  0.19999992751E+02 0.  0.
         12    1    1    2    0    0 -0.21942229170E+02  0.34564075736E+02  0.14404397227E+02  0.43400730545E+02  0.00000000000E+00 0. -1.
         11    1    3    3    0    0 -0.75538060581E+00 -0.90920939014E+01  0.15540409888E+01  0.92548265801E+01  0.51100000000E-03 0. -1.
        -11    1    3    3    0    0  0.59226975058E+01 -0.11707088666E+02 -0.82808420514E+01  0.15514722560E+02  0.51100000000E-03 0.  1.
         12    1    3    3    0    0  0.16774912270E+02 -0.13764893168E+02 -0.76775961639E+01  0.23017720314E+02  0.00000000000E+00 0. -1.
</event>
<event>
 7    1  0.7470072E-010  0.4778727E+02  0.7816164E-02  0.1312668E+00
        -11   -1    0    0    0    0  0.00000000000E+00  0.00000000000E+00  0.45593999997E+02  0.45594000000E+02  0.51100000000E-03 0. -1.
         11   -1    0    0    0    0 -0.00000000000E+00 -0.00000000000E+00 -0.45593999997E+02  0.45594000000E+02  0.51100000000E-03 0.  1.
    9900012    2    1    2    0    0  0.27793404966E+02 -0.58888101788E+01  0.32809628465E+02  0.47787272299E+02  0.20000005721E+02 0.  0.
        -12    1    1    2    0    0 -0.27793404966E+02  0.58888101788E+01 -0.32809628465E+02  0.43400727701E+02  0.00000000000E+00 0.  1.
         11    1    3    3    0    0  0.17165429743E+02 -0.11015565188E+01  0.12441279608E+02  0.21228538423E+02  0.51100000000E-03 0. -1.
        -11    1    3    3    0    0  0.95266346284E+01 -0.82428726468E+01  0.18745600136E+02  0.22585376719E+02  0.51100000000E-03 0.  1.
        -12    1    3    3    0    0  0.11013405950E+01  0.34556189868E+01  0.16227487203E+01  0.39733571570E+01  0.00000000000E+00 0.  1.
</event>
<event>
 7    1  0.7470072E-010  0.4778727E+02  0.7816164E-02  0.1312668E+00
        -11   -1    0    0    0    0  0.00000000000E+00  0.00000000000E+00  0.45593999997E+02  0.45594000000E+02  0.51100000000E-03 0. -1.
         11   -1    0    0    0    0 -0.00000000000E+00 -0.00000000000E+00 -0.45593999997E+02  0.45594000000E+02  0.51100000000E-03 0.  1.
    9900012    2    1    2    0    0  0.21572976227E+02  0.82508987413E+01  0.36744421623E+02  0.47787272428E+02  0.20000006310E+02 0.  0.
        -12    1    1    2    0    0 -0.21572976227E+02 -0.82508987413E+01 -0.36744421623E+02  0.43400727572E+02  0.00000000000E+00 0.  1.
         11    1    3    3    0    0  0.60821628216E+01 -0.32071560949E+01  0.57471275850E+01  0.89614747974E+01  0.51100000000E-03 0. -1.
        -11    1    3    3    0    0  0.11038404214E+02  0.99321818877E+01  0.30708640019E+02  0.34110338267E+02  0.51100000000E-03 0.  1.
        -12    1    3    3    0    0  0.44524091917E+01  0.15258729485E+01  0.28865401909E+00  0.47154593634E+01  0.00000000000E+00 0.  1.
</event>
<event>
 7    1  0.7470072E-010  0.4778727E+02  0.7816164E-02  0.1312668E+00
        -11   -1    0    0    0    0  0.00000000000E+00  0.00000000000E+00  0.45593999997E+02  0.45594000000E+02  0.51100000000E-03 0. -1.
         11   -1    0    0    0    0 -0.00000000000E+00 -0.00000000000E+00 -0.45593999997E+02  0.45594000000E+02  0.51100000000E-03 0.  1.
    9900012    2    1    2    0    0  0.19192805595E+02 -0.38923751586E+02  0.44878166368E+00  0.47787266951E+02  0.19999981338E+02 0.  0.
         12    1    1    2    0    0 -0.19192805595E+02  0.38923751586E+02 -0.44878166368E+00  0.43400733049E+02  0.00000000000E+00 0. -1.
         11    1    3    3    0    0  0.43024413804E+01 -0.18245809368E+02  0.96096050228E+00  0.18770828609E+02  0.51100000000E-03 0. -1.
        -11    1    3    3    0    0  0.62215958791E+01  0.20944295595E+00  0.11892434974E+01  0.63376984775E+01  0.51100000000E-03 0.  1.
        -12    1    3    3    0    0  0.86687683360E+01 -0.20887385174E+02 -0.17014223360E+01  0.22678739864E+02  0.00000000000E+00 0.  1.
</event>
<event>
 7    1  0.7470072E-010  0.4778728E+02  0.7816164E-02  0.1312668E+00
        -11   -1    0    0    0    0  0.00000000000E+00  0.00000000000E+00  0.45593999997E+02  0.45594000000E+02  0.51100000000E-03 0. -1.
         11   -1    0    0    0    0 -0.00000000000E+00 -0.00000000000E+00 -0.45593999997E+02  0.45594000000E+02  0.51100000000E-03 0.  1.
    9900012    2    1    2    0    0 -0.28464370792E+01 -0.14591893581E+02 -0.40774954997E+02  0.47787279760E+02  0.20000039739E+02 0.  0.
         12    1    1    2    0    0  0.28464370792E+01  0.14591893581E+02  0.40774954997E+02  0.43400720240E+02  0.00000000000E+00 0. -1.
         11    1    3    3    0    0 -0.25676524035E+01 -0.38457516132E+01 -0.34199537587E+01  0.57514109841E+01  0.51100000000E-03 0. -1.
        -11    1    3    3    0    0 -0.43590943567E+01 -0.11669701631E+02 -0.35180583205E+02  0.37321000451E+02  0.51100000000E-03 0.  1.
        -12    1    3    3    0    0  0.40803096810E+01  0.92355966261E+00 -0.21744180333E+01  0.47148683255E+01  0.00000000000E+00 0.  1.
</event>
<event>
 7    1  0.7470072E-010  0.4778727E+02  0.7816164E-02  0.1312668E+00
        -11   -1    0    0    0    0  0.00000000000E+00  0.00000000000E+00  0.45593999997E+02  0.45594000000E+02  0.51100000000E-03 0. -1.
         11   -1    0    0    0    0 -0.00000000000E+00 -0.00000000000E+00 -0.45593999997E+02  0.45594000000E+02  0.51100000000E-03 0.  1.
    9900012    2    1    2    0    0  0.29890595998E+02  0.30635673098E+02 -0.71854787822E+01  0.47787270736E+02  0.19999998593E+02 0.  0.
         12    1    1    2    0    0 -0.29890595998E+02 -0.30635673098E+02  0.71854787822E+01  0.43400729264E+02  0.00000000000E+00 0. -1.
         11    1    3    3    0    0  0.25666855644E+02  0.23894478317E+02 -0.31884471224E+01  0.35212210495E+02  0.51100000000E-03 0. -1.
        -11    1    3    3    0    0 -0.20327638769E+01  0.46427650364E+01 -0.46320845448E+00  0.50893966731E+01  0.51100000000E-03 0.  1.
        -12    1    3    3    0    0  0.62565042317E+01  0.20984297451E+01 -0.35338232053E+01  0.74856635673E+01  0.00000000000E+00 0.  1.
</event>
<event>
 7    1  0.7470072E-010  0.4778727E+02  0.7816164E-02  0.1312668E+00
        -11   -1    0    0    0    0  0.00000000000E+00  0.00000000000E+00  0.45593999997E+02  0.45594000000E+02  0.51100000000E-03 0. -1.
         11   -1    0    0    0    0 -0.00000000000E+00 -0.00000000000E+00 -0.45593999997E+02  0.45594000000E+02  0.51100000000E-03 0.  1.
    9900012    2    1    2    0    0 -0.12567811168E+02 -0.11753455844E+01  0.41524594530E+02  0.47787271139E+02  0.20000000430E+02 0.  0.
        -12    1    1    2    0    0  0.12567811168E+02  0.11753455844E+01 -0.41524594530E+02  0.43400728861E+02  0.00000000000E+00 0.  1.
         11    1    3    3    0    0 -0.53097244878E+01  0.51146737466E+01  0.13094255948E+02  0.15027062280E+02  0.51100000000E-03 0.  1.
        -11    1    3    3    0    0  0.35252458057E+01 -0.37128878883E+01  0.76113024619E+01  0.91730485603E+01  0.51100000000E-03 0. -1.
        -12    1    3    3    0    0 -0.10783332486E+02 -0.25771314427E+01  0.20819036120E+02  0.23587160299E+02  0.00000000000E+00 0.  1.
</event>
<event>
 7    1  0.7470072E-010  0.4778727E+02  0.7816164E-02  0.1312668E+00
        -11   -1    0    0    0    0  0.00000000000E+00  0.00000000000E+00  0.45593999997E+02  0.45594000000E+02  0.51100000000E-03 0. -1.
         11   -1    0    0    0    0 -0.00000000000E+00 -0.00000000000E+00 -0.45593999997E+02  0.45594000000E+02  0.51100000000E-03 0.  1.
    9900012    2    1    2    0    0 -0.91555307329E+01  0.11563310729E+02  0.40817754622E+02  0.47787274310E+02  0.20000014890E+02 0.  0.
        -12    1    1    2    0    0  0.91555307329E+01 -0.11563310729E+02 -0.40817754622E+02  0.43400725690E+02  0.00000000000E+00 0.  1.
         11    1    3    3    0    0 -0.34584532270E+01  0.14204168116E+02  0.20757431503E+02  0.25388782039E+02  0.51100000000E-03 0. -1.
        -11    1    3    3    0    0 -0.70774495830E+01 -0.18750179144E+01  0.19308448884E+02  0.20649992332E+02  0.51100000000E-03 0.  1.
         12    1    3    3    0    0  0.13803720771E+01 -0.76583947221E+00  0.75187423587E+00  0.17484999385E+01  0.00000000000E+00 0. -1.
</event>
<event>
 7    1  0.7470072E-010  0.4778727E+02  0.7816164E-02  0.1312668E+00
        -11   -1    0    0    0    0  0.00000000000E+00  0.00000000000E+00  0.45593999997E+02  0.45594000000E+02  0.51100000000E-03 0. -1.
         11   -1    0    0    0    0 -0.00000000000E+00 -0.00000000000E+00 -0.45593999997E+02  0.45594000000E+02  0.51100000000E-03 0.  1.
    9900012    2    1    2    0    0  0.35028131859E+02  0.69683647960E+01 -0.24659588900E+02  0.47787268968E+02  0.19999990532E+02 0.  0.
         12    1    1    2    0    0 -0.35028131859E+02 -0.69683647960E+01  0.24659588900E+02  0.43400731032E+02  0.00000000000E+00 0. -1.
         11    1    3    3    0    0  0.26855248025E+02 -0.20413564488E+01 -0.16813606861E+02  0.31750100135E+02  0.51100000000E-03 0. -1.
        -11    1    3    3    0    0  0.10102383836E+01  0.27432288444E+01 -0.55103907677E+01  0.62378115359E+01  0.51100000000E-03 0.  1.
         12    1    3    3    0    0  0.71626454502E+01  0.62664924004E+01 -0.23355912707E+01  0.97993572969E+01  0.00000000000E+00 0. -1.
</event>
<event>
 7    1  0.7470072E-010  0.4778727E+02  0.7816164E-02  0.1312668E+00
        -11   -1    0    0    0    0  0.00000000000E+00  0.00000000000E+00  0.45593999997E+02  0.45594000000E+02  0.51100000000E-03 0. -1.
         11   -1    0    0    0    0 -0.00000000000E+00 -0.00000000000E+00 -0.45593999997E+02  0.45594000000E+02  0.51100000000E-03 0.  1.
    9900012    2    1    2    0    0  0.28338689331E+02  0.89543611754E+00 -0.32859402784E+02  0.47787268783E+02  0.19999989687E+02 0.  0.
         12    1    1    2    0    0 -0.28338689331E+02 -0.89543611754E+00  0.32859402784E+02  0.43400731217E+02  0.00000000000E+00 0. -1.
         11    1    3    3    0    0  0.33278507019E+01 -0.59982723160E+01 -0.77943674903E+01  0.10382968068E+02  0.51100000000E-03 0. -1.
        -11    1    3    3    0    0  0.14610419193E+02  0.73596943845E+01 -0.10278426349E+02  0.19320338996E+02  0.51100000000E-03 0.  1.
        -12    1    3    3    0    0  0.10400419436E+02 -0.46598595091E+00 -0.14786608945E+02  0.18083961719E+02  0.00000000000E+00 0.  1.
</event>
<event>
 7    1  0.7470072E-010  0.4778727E+02  0.7816164E-02  0.1312668E+00
        -11   -1    0    0    0    0  0.00000000000E+00  0.00000000000E+00  0.45593999997E+02  0.45594000000E+02  0.51100000000E-03 0. -1.
         11   -1    0    0    0    0 -0.00000000000E+00 -0.00000000000E+00 -0.45593999997E+02  0.45594000000E+02  0.51100000000E-03 0.  1.
    9900012    2    1    2    0    0 -0.42664722956E+02 -0.17129962149E+01  0.77724251786E+01  0.47787268046E+02  0.19999986330E+02 0.  0.
        -12    1    1    2    0    0  0.42664722956E+02  0.17129962149E+01 -0.77724251786E+01  0.43400731954E+02  0.00000000000E+00 0.  1.
         11    1    3    3    0    0 -0.29193132573E+02  0.99599440160E+00  0.11453006121E+02  0.31375186753E+02  0.51100000000E-03 0. -1.
        -11    1    3    3    0    0 -0.73224769564E+01  0.21301928666E+01 -0.39382974122E+01  0.85829235808E+01  0.51100000000E-03 0.  1.
         12    1    3    3    0    0 -0.61491134265E+01 -0.48391834831E+01  0.25771647003E+00  0.78291577129E+01  0.00000000000E+00 0. -1.
</event>
<event>
 7    1  0.7470072E-010  0.4778728E+02  0.7816164E-02  0.1312668E+00
        -11   -1    0    0    0    0  0.00000000000E+00  0.00000000000E+00  0.45593999997E+02  0.45594000000E+02  0.51100000000E-03 0. -1.
         11   -1    0    0    0    0 -0.00000000000E+00 -0.00000000000E+00 -0.45593999997E+02  0.45594000000E+02  0.51100000000E-03 0.  1.
    9900012    2    1    2    0    0  0.16337570562E+02  0.13235641006E+02 -0.37967403975E+02  0.47787283770E+02  0.20000058020E+02 0.  0.
         12    1    1    2    0    0 -0.16337570562E+02 -0.13235641006E+02  0.37967403975E+02  0.43400716230E+02  0.00000000000E+00 0. -1.
         11    1    3    3    0    0  0.16940825402E+02  0.98441940475E+01 -0.20303887396E+02  0.28216086997E+02  0.51100000000E-03 0. -1.
        -11    1    3    3    0    0  0.21311835854E+01  0.68431535352E+00 -0.14258483302E+02  0.14433106988E+02  0.51100000000E-03 0.  1.
         12    1    3    3    0    0 -0.27344384253E+01  0.27071316054E+01 -0.34050332761E+01  0.51380897853E+01  0.00000000000E+00 0. -1.
</event>
<event>
 7    1  0.7470072E-010  0.4778727E+02  0.7816164E-02  0.1312668E+00
        -11   -1    0    0    0    0  0.00000000000E+00  0.00000000000E+00  0.45593999997E+02  0.45594000000E+02  0.51100000000E-03 0. -1.
         11   -1    0    0    0    0 -0.00000000000E+00 -0.00000000000E+00 -0.45593999997E+02  0.45594000000E+02  0.51100000000E-03 0.  1.
    9900012    2    1    2    0    0 -0.39051624376E+02 -0.41539693159E+00 -0.18932012577E+02  0.47787273955E+02  0.20000013269E+02 0.  0.
         12    1    1    2    0    0  0.39051624376E+02  0.41539693159E+00  0.18932012577E+02  0.43400726045E+02  0.00000000000E+00 0. -1.
         11    1    3    3    0    0 -0.97716542893E+00  0.19954548231E+01 -0.82830682043E+00  0.23712411679E+01  0.51100000000E-03 0. -1.
        -11    1    3    3    0    0 -0.33418372069E+02 -0.80080016126E+01 -0.15246999911E+02  0.37595035418E+02  0.51100000000E-03 0.  1.
        -12    1    3    3    0    0 -0.46560868790E+01  0.55971498579E+01 -0.28567058454E+01  0.78209973688E+01  0.00000000000E+00 0.  1.
</event>
<event>
 7    1  0.7470072E-010  0.4778727E+02  0.7816164E-02  0.1312668E+00
        -11   -1    0    0    0    0  0.00000000000E+00  0.00000000000E+00  0.45593999997E+02  0.45594000000E+02  0.51100000000E-03 0. -1.
         11   -1    0    0    0    0 -0.00000000000E+00 -0.00000000000E+00 -0.45593999997E+02  0.45594000000E+02  0.51100000000E-03 0.  1.
    9900012    2    1    2    0    0  0.30395262863E+02  0.30372200121E+02  0.61057771047E+01  0.47787273523E+02  0.20000011299E+02 0.  0.
        -12    1    1    2    0    0 -0.30395262863E+02 -0.30372200121E+02 -0.61057771047E+01  0.43400726477E+02  0.00000000000E+00 0.  1.
         11    1    3    3    0    0  0.15260498354E+02  0.14267338577E+02 -0.35844259939E+01  0.21196411726E+02  0.51100000000E-03 0. -1.
        -11    1    3    3    0    0  0.11629534919E+02  0.51048584207E+01  0.77655351965E+01  0.14886544228E+02  0.51100000000E-03 0.  1.
        -12    1    3    3    0    0  0.35052295903E+01  0.11000003124E+02  0.19246679021E+01  0.11704317568E+02  0.00000000000E+00 0.  1.
</event>
<event>
 7    1  0.7470072E-010  0.4778728E+02  0.7816164E-02  0.1312668E+00
        -11   -1    0    0    0    0  0.00000000000E+00  0.00000000000E+00  0.45593999997E+02  0.45594000000E+02  0.51100000000E-03 0. -1.
         11   -1    0    0    0    0 -0.00000000000E+00 -0.00000000000E+00 -0.45593999997E+02  0.45594000000E+02  0.51100000000E-03 0.  1.
    9900012    2    1    2    0    0  0.18146770428E+02  0.10943024929E+02  0.37875686065E+02  0.47787278042E+02  0.20000031905E+02 0.  0.
        -12    1    1    2    0    0 -0.18146770428E+02 -0.10943024929E+02 -0.37875686065E+02  0.43400721958E+02  0.00000000000E+00 0.  1.
         11    1    3    3    0    0  0.58652613523E+01  0.94592213034E+01  0.13409309119E+02  0.17426638508E+02  0.51100000000E-03 0. -1.
        -11    1    3    3    0    0 -0.12194862801E+00 -0.38243451063E+01  0.24633983709E+01  0.45506943157E+01  0.51100000000E-03 0.  1.
        -12    1    3    3    0    0  0.12403457704E+02  0.53081487322E+01  0.22002978575E+02  0.25809945218E+02  0.00000000000E+00 0.  1.
</event>
<event>
 7    1  0.7470072E-010  0.4778728E+02  0.7816164E-02  0.1312668E+00
        -11   -1    0    0    0    0  0.00000000000E+00  0.00000000000E+00  0.45593999997E+02  0.45594000000E+02  0.51100000000E-03 0. -1.
         11   -1    0    0    0    0 -0.00000000000E+00 -0.00000000000E+00 -0.45593999997E+02  0.45594000000E+02  0.51100000000E-03 0.  1.
    9900012    2    1    2    0    0  0.12116552635E+02 -0.23749460832E+02  0.34245801935E+02  0.47787277797E+02  0.20000030786E+02 0.  0.
        -12    1    1    2    0    0 -0.12116552635E+02  0.23749460832E+02 -0.34245801935E+02  0.43400722203E+02  0.00000000000E+00 0.  1.
         11    1    3    3    0    0  0.16819501091E+01 -0.19240386524E+01  0.17078379663E+02  0.17268524346E+02  0.51100000000E-03 0. -1.
        -11    1    3    3    0    0  0.17994356417E+01 -0.75493258707E+01  0.21055641987E+01  0.80413736753E+01  0.51100000000E-03 0.  1.
         12    1    3    3    0    0  0.86351668842E+01 -0.14276096309E+02  0.15061858073E+02  0.22477379775E+02  0.00000000000E+00 0. -1.
</event>
<event>
 7    1  0.7470072E-010  0.4778725E+02  0.7816164E-02  0.1312668E+00
        -11   -1    0    0    0    0  0.00000000000E+00  0.00000000000E+00  0.45593999997E+02  0.45594000000E+02  0.51100000000E-03 0. -1.
         11   -1    0    0    0    0 -0.00000000000E+00 -0.00000000000E+00 -0.45593999997E+02  0.45594000000E+02  0.51100000000E-03 0.  1.
    9900012    2    1    2    0    0 -0.34506723804E+01 -0.80942254895E+01 -0.42499429624E+02  0.47787249494E+02  0.19999901743E+02 0.  0.
         12    1    1    2    0    0  0.34506723804E+01  0.80942254895E+01  0.42499429624E+02  0.43400750506E+02  0.00000000000E+00 0. -1.
         11    1    3    3    0    0  0.70490533328E+00 -0.76527824906E+00 -0.45363237791E+01  0.46541138810E+01  0.51100000000E-03 0.  1.
        -11    1    3    3    0    0  0.39951731746E+01 -0.91475179243E+01 -0.10760210781E+02  0.14677214626E+02  0.51100000000E-03 0. -1.
        -12    1    3    3    0    0 -0.81507508883E+01  0.18185706838E+01 -0.27202895064E+02  0.28455920987E+02  0.00000000000E+00 0.  1.
</event>
<event>
 7    1  0.7470072E-010  0.4778727E+02  0.7816164E-02  0.1312668E+00
        -11   -1    0    0    0    0  0.00000000000E+00  0.00000000000E+00  0.45593999997E+02  0.45594000000E+02  0.51100000000E-03 0. -1.
         11   -1    0    0    0    0 -0.00000000000E+00 -0.00000000000E+00 -0.45593999997E+02  0.45594000000E+02  0.51100000000E-03 0.  1.
    9900012    2    1    2    0    0 -0.76481148525E+01  0.36555622799E+02 -0.22109180359E+02  0.47787273334E+02  0.20000010438E+02 0.  0.
         12    1    1    2    0    0  0.76481148525E+01 -0.36555622799E+02  0.22109180359E+02  0.43400726666E+02  0.00000000000E+00 0. -1.
         11    1    3    3    0    0 -0.31026994634E+01  0.24470196285E+02 -0.60700901696E+01  0.25402032302E+02  0.51100000000E-03 0.  1.
        -11    1    3    3    0    0 -0.29421021740E+01  0.10078268604E+02 -0.61492350311E+01  0.12167191746E+02  0.51100000000E-03 0. -1.
         12    1    3    3    0    0 -0.16033132151E+01  0.20071579100E+01 -0.98898551585E+01  0.10218049285E+02  0.00000000000E+00 0. -1.
</event>
<event>
 7    1  0.7470072E-010  0.4778727E+02  0.7816164E-02  0.1312668E+00
        -11   -1    0    0    0    0  0.00000000000E+00  0.00000000000E+00  0.45593999997E+02  0.45594000000E+02  0.51100000000E-03 0. -1.
         11   -1    0    0    0    0 -0.00000000000E+00 -0.00000000000E+00 -0.45593999997E+02  0.45594000000E+02  0.51100000000E-03 0.  1.
    9900012    2    1    2    0    0 -0.83136396234E+01  0.30225835878E+02 -0.30015091963E+02  0.47787268395E+02  0.19999987920E+02 0.  0.
         12    1    1    2    0    0  0.83136396234E+01 -0.30225835878E+02  0.30015091963E+02  0.43400731605E+02  0.00000000000E+00 0. -1.
         11    1    3    3    0    0 -0.22555791679E+01 -0.21625411935E+01 -0.29309430049E+01  0.42842325981E+01  0.51100000000E-03 0. -1.
        -11    1    3    3    0    0 -0.58874940874E+01  0.32907258209E+02 -0.26242256399E+02  0.42499485298E+02  0.51100000000E-03 0.  1.
        -12    1    3    3    0    0 -0.17056636813E+00 -0.51888113790E+00 -0.84189255990E+00  0.10035504988E+01  0.00000000000E+00 0.  1.
</event>
<event>
 7    1  0.7470072E-010  0.4778727E+02  0.7816164E-02  0.1312668E+00
        -11   -1    0    0    0    0  0.00000000000E+00  0.00000000000E+00  0.45593999997E+02  0.45594000000E+02  0.51100000000E-03 0. -1.
         11   -1    0    0    0    0 -0.00000000000E+00 -0.00000000000E+00 -0.45593999997E+02  0.45594000000E+02  0.51100000000E-03 0.  1.
    9900012    2    1    2    0    0 -0.39251288300E+01 -0.28506946580E+02  0.32489541760E+02  0.47787274621E+02  0.20000016307E+02 0.  0.
        -12    1    1    2    0    0  0.39251288300E+01  0.28506946580E+02 -0.32489541760E+02  0.43400725379E+02  0.00000000000E+00 0.  1.
         11    1    3    3    0    0 -0.72253808517E+01 -0.73004664736E+01  0.12606854444E+02  0.16261479589E+02  0.51100000000E-03 0. -1.
        -11    1    3    3    0    0  0.59200590171E+01 -0.84821598327E+01  0.13623437356E+02  0.17105326067E+02  0.51100000000E-03 0.  1.
        -12    1    3    3    0    0 -0.26198069953E+01 -0.12724320273E+02  0.62592499601E+01  0.14420468965E+02  0.00000000000E+00 0.  1.
</event>
<event>
 7    1  0.7470072E-010  0.4778727E+02  0.7816164E-02  0.1312668E+00
        -11   -1    0    0    0    0  0.00000000000E+00  0.00000000000E+00  0.45593999997E+02  0.45594000000E+02  0.51100000000E-03 0.  1.
         11   -1    0    0    0    0 -0.00000000000E+00 -0.00000000000E+00 -0.45593999997E+02  0.45594000000E+02  0.51100000000E-03 0. -1.
    9900012    2    1    2    0    0 -0.33843894293E+02 -0.24798831850E+02 -0.11100983863E+02  0.47787273223E+02  0.20000009933E+02 0.  0.
         12    1    1    2    0    0  0.33843894293E+02  0.24798831850E+02  0.11100983863E+02  0.43400726777E+02  0.00000000000E+00 0. -1.
         11    1    3    3    0    0 -0.11930915799E+01  0.12760591060E+01 -0.41420167489E+01  0.44953417411E+01  0.51100000000E-03 0. -1.
        -11    1    3    3    0    0 -0.42787702316E+01 -0.84509797464E+00  0.10569753298E+01  0.44876789536E+01  0.51100000000E-03 0.  1.
         12    1    3    3    0    0 -0.28372032481E+02 -0.25229792982E+02 -0.80159424436E+01  0.38804252528E+02  0.00000000000E+00 0. -1.
</event>
<event>
 7    1  0.7470072E-010  0.4778721E+02  0.7816164E-02  0.1312668E+00
        -11   -1    0    0    0    0  0.00000000000E+00  0.00000000000E+00  0.45593999997E+02  0.45594000000E+02  0.51100000000E-03 0. -1.
         11   -1    0    0    0    0 -0.00000000000E+00 -0.00000000000E+00 -0.45593999997E+02  0.45594000000E+02  0.51100000000E-03 0.  1.
    9900012    2    1    2    0    0  0.29734087125E+02  0.12374773861E+02 -0.29092570903E+02  0.47787209143E+02  0.19999717764E+02 0.  0.
         12    1    1    2    0    0 -0.29734087125E+02 -0.12374773861E+02  0.29092570903E+02  0.43400790857E+02  0.00000000000E+00 0. -1.
         11    1    3    3    0    0  0.13872436164E+02  0.36659099431E+01 -0.34381936546E+01  0.14754814695E+02  0.51100000000E-03 0. -1.
        -11    1    3    3    0    0  0.16987521550E+02  0.63900675511E+01 -0.23355596319E+02  0.29578585690E+02  0.51100000000E-03 0.  1.
         12    1    3    3    0    0 -0.11258705889E+01  0.23187963665E+01 -0.22987809298E+01  0.34538087577E+01  0.00000000000E+00 0. -1.
</event>
<event>
 7    1  0.7470072E-010  0.4778727E+02  0.7816164E-02  0.1312668E+00
        -11   -1    0    0    0    0  0.00000000000E+00  0.00000000000E+00  0.45593999997E+02  0.45594000000E+02  0.51100000000E-03 0.  1.
         11   -1    0    0    0    0 -0.00000000000E+00 -0.00000000000E+00 -0.45593999997E+02  0.45594000000E+02  0.51100000000E-03 0. -1.
    9900012    2    1    2    0    0  0.22474579869E+02 -0.16634913073E+02  0.33193312959E+02  0.47787273066E+02  0.20000009216E+02 0.  0.
        -12    1    1    2    0    0 -0.22474579869E+02  0.16634913073E+02 -0.33193312959E+02  0.43400726934E+02  0.00000000000E+00 0.  1.
         11    1    3    3    0    0 -0.89071152146E-01  0.38994419167E+00  0.95274039227E-01  0.41117824168E+00  0.51100000000E-03 0. -1.
        -11    1    3    3    0    0  0.48864903600E+01 -0.95143153048E+01  0.23682644980E+02  0.25985912669E+02  0.51100000000E-03 0.  1.
         12    1    3    3    0    0  0.17677160661E+02 -0.75105419598E+01  0.94153939397E+01  0.21390182155E+02  0.00000000000E+00 0. -1.
</event>
<event>
 7    1  0.7470072E-010  0.4778726E+02  0.7816164E-02  0.1312668E+00
        -11   -1    0    0    0    0  0.00000000000E+00  0.00000000000E+00  0.45593999997E+02  0.45594000000E+02  0.51100000000E-03 0. -1.
         11   -1    0    0    0    0 -0.00000000000E+00 -0.00000000000E+00 -0.45593999997E+02  0.45594000000E+02  0.51100000000E-03 0.  1.
    9900012    2    1    2    0    0  0.21630026996E+01  0.46718994539E+01  0.43094298687E+02  0.47787264931E+02  0.19999972126E+02 0.  0.
        -12    1    1    2    0    0 -0.21630026996E+01 -0.46718994539E+01 -0.43094298687E+02  0.43400735069E+02  0.00000000000E+00 0.  1.
         11    1    3    3    0    0  0.81799890232E+00 -0.19692905241E+01  0.12935863419E+01  0.24941117171E+01  0.51100000000E-03 0. -1.
        -11    1    3    3    0    0 -0.11469466776E+01 -0.19881818116E+01  0.31673961462E+02  0.31757017942E+02  0.51100000000E-03 0.  1.
        -12    1    3    3    0    0  0.24919504749E+01  0.86293717896E+01  0.10126750883E+02  0.13536135272E+02  0.00000000000E+00 0.  1.
</event>
<event>
 7    1  0.7470072E-010  0.4778727E+02  0.7816164E-02  0.1312668E+00
        -11   -1    0    0    0    0  0.00000000000E+00  0.00000000000E+00  0.45593999997E+02  0.45594000000E+02  0.51100000000E-03 0. -1.
         11   -1    0    0    0    0 -0.00000000000E+00 -0.00000000000E+00 -0.45593999997E+02  0.45594000000E+02  0.51100000000E-03 0.  1.
    9900012    2    1    2    0    0  0.67366114608E+01  0.38214049098E+02  0.19440361930E+02  0.47787272421E+02  0.20000006275E+02 0.  0.
        -12    1    1    2    0    0 -0.67366114608E+01 -0.38214049098E+02 -0.19440361930E+02  0.43400727579E+02  0.00000000000E+00 0.  1.
         11    1    3    3    0    0  0.68955590296E+01  0.23452865513E+02  0.14409071962E+02  0.28376169406E+02  0.51100000000E-03 0. -1.
        -11    1    3    3    0    0 -0.53923540131E+01  0.10743471560E+02  0.21496731368E+01  0.12211501047E+02  0.51100000000E-03 0.  1.
        -12    1    3    3    0    0  0.52334064443E+01  0.40177120249E+01  0.28816168316E+01  0.71996019675E+01  0.00000000000E+00 0.  1.
</event>
<event>
 7    1  0.7470072E-010  0.4778727E+02  0.7816164E-02  0.1312668E+00
        -11   -1    0    0    0    0  0.00000000000E+00  0.00000000000E+00  0.45593999997E+02  0.45594000000E+02  0.51100000000E-03 0. -1.
         11   -1    0    0    0    0 -0.00000000000E+00 -0.00000000000E+00 -0.45593999997E+02  0.45594000000E+02  0.51100000000E-03 0.  1.
    9900012    2    1    2    0    0 -0.13702911572E+02 -0.26835273406E+02 -0.31236546243E+02  0.47787268376E+02  0.19999987833E+02 0.  0.
         12    1    1    2    0    0  0.13702911572E+02  0.26835273406E+02  0.31236546243E+02  0.43400731624E+02  0.00000000000E+00 0. -1.
         11    1    3    3    0    0 -0.61305888681E+01 -0.13220641268E+02 -0.20155505921E+02  0.24871949956E+02  0.51100000000E-03 0.  1.
        -11    1    3    3    0    0 -0.21917240637E+01 -0.10573523083E+02 -0.68396003663E+00  0.10819928204E+02  0.51100000000E-03 0. -1.
         12    1    3    3    0    0 -0.53805986403E+01 -0.30411090552E+01 -0.10397080285E+02  0.12095390216E+02  0.00000000000E+00 0. -1.
</event>
<event>
 7    1  0.7470072E-010  0.4778729E+02  0.7816164E-02  0.1312668E+00
        -11   -1    0    0    0    0  0.00000000000E+00  0.00000000000E+00  0.45593999997E+02  0.45594000000E+02  0.51100000000E-03 0. -1.
         11   -1    0    0    0    0 -0.00000000000E+00 -0.00000000000E+00 -0.45593999997E+02  0.45594000000E+02  0.51100000000E-03 0.  1.
    9900012    2    1    2    0    0  0.13433857265E+02 -0.22999785655E+02  0.34266061911E+02  0.47787289636E+02  0.20000084767E+02 0.  0.
        -12    1    1    2    0    0 -0.13433857265E+02  0.22999785655E+02 -0.34266061911E+02  0.43400710364E+02  0.00000000000E+00 0.  1.
         11    1    3    3    0    0  0.17037333090E+02 -0.13689137085E+02  0.21590086846E+02  0.30721247423E+02  0.51100000000E-03 0. -1.
        -11    1    3    3    0    0 -0.33382749735E+01 -0.36492365078E+01  0.28108322196E+01  0.56887419450E+01  0.51100000000E-03 0.  1.
         12    1    3    3    0    0 -0.26520085112E+00 -0.56614120627E+01  0.98651428454E+01  0.11377300268E+02  0.00000000000E+00 0. -1.
</event>
<event>
 7    1  0.7470072E-010  0.4778727E+02  0.7816164E-02  0.1312668E+00
        -11   -1    0    0    0    0  0.00000000000E+00  0.00000000000E+00  0.45593999997E+02  0.45594000000E+02  0.51100000000E-03 0. -1.
         11   -1    0    0    0    0 -0.00000000000E+00 -0.00000000000E+00 -0.45593999997E+02  0.45594000000E+02  0.51100000000E-03 0.  1.
    9900012    2    1    2    0    0  0.25512296247E+02 -0.14937353514E+02  0.31774539892E+02  0.47787272182E+02  0.20000005188E+02 0.  0.
        -12    1    1    2    0    0 -0.25512296247E+02  0.14937353514E+02 -0.31774539892E+02  0.43400727818E+02  0.00000000000E+00 0.  1.
         11    1    3    3    0    0  0.13359709974E+02 -0.25808058312E+01  0.22575798190E+02  0.26359231277E+02  0.51100000000E-03 0. -1.
        -11    1    3    3    0    0  0.29547036371E+01 -0.44791833167E+01 -0.11624405447E+01  0.54904121019E+01  0.51100000000E-03 0.  1.
         12    1    3    3    0    0  0.91978826358E+01 -0.78773643659E+01  0.10361182246E+02  0.15937628803E+02  0.00000000000E+00 0. -1.
</event>
<event>
 7    1  0.7470072E-010  0.4778725E+02  0.7816164E-02  0.1312668E+00
        -11   -1    0    0    0    0  0.00000000000E+00  0.00000000000E+00  0.45593999997E+02  0.45594000000E+02  0.51100000000E-03 0. -1.
         11   -1    0    0    0    0 -0.00000000000E+00 -0.00000000000E+00 -0.45593999997E+02  0.45594000000E+02  0.51100000000E-03 0.  1.
    9900012    2    1    2    0    0 -0.24247290835E+02  0.48074312865E+00 -0.35992544258E+02  0.47787245756E+02  0.19999884699E+02 0.  0.
         12    1    1    2    0    0  0.24247290835E+02 -0.48074312865E+00  0.35992544258E+02  0.43400754244E+02  0.00000000000E+00 0. -1.
         11    1    3    3    0    0 -0.16057283335E+02 -0.84342060629E+01 -0.17285408673E+02  0.25055089967E+02  0.51100000000E-03 0. -1.
        -11    1    3    3    0    0 -0.65187787064E+01  0.53831300446E+01 -0.15586461272E+02  0.17731619784E+02  0.51100000000E-03 0.  1.
         12    1    3    3    0    0 -0.16712287929E+01  0.35318191470E+01 -0.31206743133E+01  0.50005360047E+01  0.00000000000E+00 0. -1.
</event>
<event>
 7    1  0.7470072E-010  0.4778727E+02  0.7816164E-02  0.1312668E+00
        -11   -1    0    0    0    0  0.00000000000E+00  0.00000000000E+00  0.45593999997E+02  0.45594000000E+02  0.51100000000E-03 0. -1.
         11   -1    0    0    0    0 -0.00000000000E+00 -0.00000000000E+00 -0.45593999997E+02  0.45594000000E+02  0.51100000000E-03 0.  1.
    9900012    2    1    2    0    0  0.13258693094E+01  0.59774078779E+00  0.43376351765E+02  0.47787272864E+02  0.20000008296E+02 0.  0.
        -12    1    1    2    0    0 -0.13258693094E+01 -0.59774078779E+00 -0.43376351765E+02  0.43400727136E+02  0.00000000000E+00 0.  1.
         11    1    3    3    0    0 -0.23339905248E+01 -0.15551259347E+01  0.20403850018E+02  0.20595704024E+02  0.51100000000E-03 0. -1.
        -11    1    3    3    0    0 -0.19539890403E+01 -0.74049829556E+00 -0.10599933672E+01  0.23430742828E+01  0.51100000000E-03 0.  1.
        -12    1    3    3    0    0  0.56138488745E+01  0.28933650181E+01  0.24032495114E+02  0.24848494557E+02  0.00000000000E+00 0.  1.
</event>
<event>
 7    1  0.8969400E-010  0.4778727E+02  0.7816164E-02  0.1312668E+00
        -11   -1    0    0    0    0  0.00000000000E+00  0.00000000000E+00  0.45593999997E+02  0.45594000000E+02  0.51100000000E-03 0.  1.
         11   -1    0    0    0    0 -0.00000000000E+00 -0.00000000000E+00 -0.45593999997E+02  0.45594000000E+02  0.51100000000E-03 0. -1.
    9900012    2    1    2    0    0  0.12235736470E+00  0.29370746645E+02 -0.31952584481E+02  0.47787269766E+02  0.19999994171E+02 0.  0.
         12    1    1    2    0    0 -0.12235736470E+00 -0.29370746645E+02  0.31952584481E+02  0.43400730234E+02  0.00000000000E+00 0. -1.
         11    1    3    3    0    0 -0.79652629906E+00  0.91711103322E+00 -0.11564400543E+02  0.11628022487E+02  0.51100000000E-03 0. -1.
        -11    1    3    3    0    0 -0.13712472150E+00  0.18036507944E+02 -0.17869563424E+02  0.25390071273E+02  0.51100000000E-03 0.  1.
         12    1    3    3    0    0  0.10560083853E+01  0.10417127667E+02 -0.25186205147E+01  0.10769176006E+02  0.00000000000E+00 0. -1.
</event>
<event>
 7    1  0.7470072E-010  0.4778727E+02  0.7816164E-02  0.1312668E+00
        -11   -1    0    0    0    0  0.00000000000E+00  0.00000000000E+00  0.45593999997E+02  0.45594000000E+02  0.51100000000E-03 0. -1.
         11   -1    0    0    0    0 -0.00000000000E+00 -0.00000000000E+00 -0.45593999997E+02  0.45594000000E+02  0.51100000000E-03 0.  1.
    9900012    2    1    2    0    0 -0.95686102480E+01  0.30038342126E+02  0.29828891611E+02  0.47787273342E+02  0.20000010473E+02 0.  0.
        -12    1    1    2    0    0  0.95686102480E+01 -0.30038342126E+02 -0.29828891611E+02  0.43400726658E+02  0.00000000000E+00 0.  1.
         11    1    3    3    0    0 -0.11341890708E+02  0.10979960804E+02  0.14704340467E+02  0.21573494222E+02  0.51100000000E-03 0. -1.
        -11    1    3    3    0    0  0.36998041611E+01  0.14189888954E+02  0.14999017990E+02  0.20976463960E+02  0.51100000000E-03 0.  1.
         12    1    3    3    0    0 -0.19265237013E+01  0.48684923681E+01  0.12553315349E+00  0.52373151598E+01  0.00000000000E+00 0. -1.
</event>
<event>
 7    1  0.7470072E-010  0.4778727E+02  0.7816164E-02  0.1312668E+00
        -11   -1    0    0    0    0  0.00000000000E+00  0.00000000000E+00  0.45593999997E+02  0.45594000000E+02  0.51100000000E-03 0. -1.
         11   -1    0    0    0    0 -0.00000000000E+00 -0.00000000000E+00 -0.45593999997E+02  0.45594000000E+02  0.51100000000E-03 0.  1.
    9900012    2    1    2    0    0  0.34050620428E+01  0.10668924924E+02 -0.41930930913E+02  0.47787269893E+02  0.19999994751E+02 0.  0.
         12    1    1    2    0    0 -0.34050620428E+01 -0.10668924924E+02  0.41930930913E+02  0.43400730107E+02  0.00000000000E+00 0. -1.
         11    1    3    3    0    0 -0.28040898577E+01  0.29681090228E+01 -0.11052300068E+02  0.11782441520E+02  0.51100000000E-03 0. -1.
        -11    1    3    3    0    0 -0.51706636232E+01  0.20268715037E+01 -0.68455612306E+01  0.88150824852E+01  0.51100000000E-03 0.  1.
        -12    1    3    3    0    0  0.11379815524E+02  0.56739443976E+01 -0.24033069614E+02  0.27189745888E+02  0.00000000000E+00 0.  1.
</event>
<event>
 7    1  0.7470072E-010  0.4778727E+02  0.7816164E-02  0.1312668E+00
        -11   -1    0    0    0    0  0.00000000000E+00  0.00000000000E+00  0.45593999997E+02  0.45594000000E+02  0.51100000000E-03 0. -1.
         11   -1    0    0    0    0 -0.00000000000E+00 -0.00000000000E+00 -0.45593999997E+02  0.45594000000E+02  0.51100000000E-03 0.  1.
    9900012    2    1    2    0    0 -0.18706350879E+02 -0.39099313471E+02 -0.22224598634E+01  0.47787271839E+02  0.20000003622E+02 0.  0.
        -12    1    1    2    0    0  0.18706350879E+02  0.39099313471E+02  0.22224598634E+01  0.43400728161E+02  0.00000000000E+00 0.  1.
         11    1    3    3    0    0 -0.67019783977E+01 -0.15540395984E+02  0.66154318906E+01  0.18170975789E+02  0.51100000000E-03 0. -1.
        -11    1    3    3    0    0 -0.74267496617E+00 -0.62371241011E+01 -0.61336450897E+01  0.87792303482E+01  0.51100000000E-03 0.  1.
         12    1    3    3    0    0 -0.11261697515E+02 -0.17321793386E+02 -0.27042466643E+01  0.20837065701E+02  0.00000000000E+00 0. -1.
</event>
<event>
 7    1  0.7470072E-010  0.4778728E+02  0.7816164E-02  0.1312668E+00
        -11   -1    0    0    0    0  0.00000000000E+00  0.00000000000E+00  0.45593999997E+02  0.45594000000E+02  0.51100000000E-03 0. -1.
         11   -1    0    0    0    0 -0.00000000000E+00 -0.00000000000E+00 -0.45593999997E+02  0.45594000000E+02  0.51100000000E-03 0.  1.
    9900012    2    1    2    0    0 -0.13010900275E+02 -0.10384499714E+02  0.40081182351E+02  0.47787279512E+02  0.20000038605E+02 0.  0.
        -12    1    1    2    0    0  0.13010900275E+02  0.10384499714E+02 -0.40081182351E+02  0.43400720488E+02  0.00000000000E+00 0.  1.
         11    1    3    3    0    0 -0.13268108579E+01 -0.56653720527E+01  0.27575879952E+02  0.28183080438E+02  0.51100000000E-03 0. -1.
        -11    1    3    3    0    0 -0.89228418969E+01 -0.59110677523E+01  0.56160710056E+01  0.12087104008E+02  0.51100000000E-03 0.  1.
        -12    1    3    3    0    0 -0.27612475206E+01  0.11919400913E+01  0.68892313928E+01  0.75170950662E+01  0.00000000000E+00 0.  1.
</event>
<event>
 7    1  0.7470072E-010  0.4778727E+02  0.7816164E-02  0.1312668E+00
        -11   -1    0    0    0    0  0.00000000000E+00  0.00000000000E+00  0.45593999997E+02  0.45594000000E+02  0.51100000000E-03 0. -1.
         11   -1    0    0    0    0 -0.00000000000E+00 -0.00000000000E+00 -0.45593999997E+02  0.45594000000E+02  0.51100000000E-03 0.  1.
    9900012    2    1    2    0    0 -0.12934195041E+02  0.12341839729E+02  0.39547549106E+02  0.47787273629E+02  0.20000011782E+02 0.  0.
        -12    1    1    2    0    0  0.12934195041E+02 -0.12341839729E+02 -0.39547549106E+02  0.43400726371E+02  0.00000000000E+00 0.  1.
         11    1    3    3    0    0 -0.88362664562E+01  0.39765514743E+01  0.21051517796E+02  0.23174532752E+02  0.51100000000E-03 0. -1.
        -11    1    3    3    0    0 -0.25081829641E+01  0.84957532427E+01  0.34880897271E+01  0.95202718001E+01  0.51100000000E-03 0.  1.
        -12    1    3    3    0    0 -0.15897456205E+01 -0.13046498798E+00  0.15007941583E+02  0.15092469076E+02  0.00000000000E+00 0.  1.
</event>
<event>
 7    1  0.7470072E-010  0.4778727E+02  0.7816164E-02  0.1312668E+00
        -11   -1    0    0    0    0  0.00000000000E+00  0.00000000000E+00  0.45593999997E+02  0.45594000000E+02  0.51100000000E-03 0. -1.
         11   -1    0    0    0    0 -0.00000000000E+00 -0.00000000000E+00 -0.45593999997E+02  0.45594000000E+02  0.51100000000E-03 0.  1.
    9900012    2    1    2    0    0 -0.19979592547E+02  0.91925915680E+00  0.38517450030E+02  0.47787272903E+02  0.20000008474E+02 0.  0.
        -12    1    1    2    0    0  0.19979592547E+02 -0.91925915680E+00 -0.38517450030E+02  0.43400727097E+02  0.00000000000E+00 0.  1.
         11    1    3    3    0    0 -0.77724024725E+01 -0.77494027814E+01  0.18715309488E+02  0.21696227625E+02  0.51100000000E-03 0. -1.
        -11    1    3    3    0    0 -0.38006688176E+01  0.63102817796E+01  0.49911393682E+01  0.88981015982E+01  0.51100000000E-03 0.  1.
        -12    1    3    3    0    0 -0.84065212573E+01  0.23583801586E+01  0.14811001174E+02  0.17192943680E+02  0.00000000000E+00 0.  1.
</event>
<event>
 7    1  0.7470072E-010  0.4778728E+02  0.7816164E-02  0.1312668E+00
        -11   -1    0    0    0    0  0.00000000000E+00  0.00000000000E+00  0.45593999997E+02  0.45594000000E+02  0.51100000000E-03 0. -1.
         11   -1    0    0    0    0 -0.00000000000E+00 -0.00000000000E+00 -0.45593999997E+02  0.45594000000E+02  0.51100000000E-03 0.  1.
    9900012    2    1    2    0    0  0.16126318233E+02  0.22129210392E+02 -0.33672873779E+02  0.47787279719E+02  0.20000039552E+02 0.  0.
         12    1    1    2    0    0 -0.16126318233E+02 -0.22129210392E+02  0.33672873779E+02  0.43400720281E+02  0.00000000000E+00 0. -1.
         11    1    3    3    0    0  0.95887146988E+01 -0.79953741548E+00 -0.91753004997E+01  0.13295444678E+02  0.51100000000E-03 0. -1.
        -11    1    3    3    0    0  0.72189034077E+01  0.19980412054E+02 -0.21104732953E+02  0.29945603777E+02  0.51100000000E-03 0.  1.
         12    1    3    3    0    0 -0.68129987387E+00  0.29483357536E+01 -0.33928403263E+01  0.45462312648E+01  0.00000000000E+00 0. -1.
</event>
<event>
 7    1  0.7470072E-010  0.4778727E+02  0.7816164E-02  0.1312668E+00
        -11   -1    0    0    0    0  0.00000000000E+00  0.00000000000E+00  0.45593999997E+02  0.45594000000E+02  0.51100000000E-03 0. -1.
         11   -1    0    0    0    0 -0.00000000000E+00 -0.00000000000E+00 -0.45593999997E+02  0.45594000000E+02  0.51100000000E-03 0.  1.
    9900012    2    1    2    0    0  0.35130229893E+02 -0.57974100458E+01  0.24816932197E+02  0.47787272595E+02  0.20000007071E+02 0.  0.
        -12    1    1    2    0    0 -0.35130229893E+02  0.57974100458E+01 -0.24816932197E+02  0.43400727405E+02  0.00000000000E+00 0.  1.
         11    1    3    3    0    0  0.11944388747E+02 -0.19624701406E+01  0.90648542584E+01  0.15122542596E+02  0.51100000000E-03 0. -1.
        -11    1    3    3    0    0  0.83613117385E+01  0.20719829560E+01  0.14230076160E+02  0.16634293347E+02  0.51100000000E-03 0.  1.
        -12    1    3    3    0    0  0.14824529408E+02 -0.59069228611E+01  0.15220017780E+01  0.16030436652E+02  0.00000000000E+00 0.  1.
</event>
<event>
 7    1  0.7470072E-010  0.4778727E+02  0.7816164E-02  0.1312668E+00
        -11   -1    0    0    0    0  0.00000000000E+00  0.00000000000E+00  0.45593999997E+02  0.45594000000E+02  0.51100000000E-03 0. -1.
         11   -1    0    0    0    0 -0.00000000000E+00 -0.00000000000E+00 -0.45593999997E+02  0.45594000000E+02  0.51100000000E-03 0.  1.
    9900012    2    1    2    0    0 -0.12151189816E+02  0.26187814710E+01  0.41582612740E+02  0.47787272902E+02  0.20000008468E+02 0.  0.
        -12    1    1    2    0    0  0.12151189816E+02 -0.26187814710E+01 -0.41582612740E+02  0.43400727098E+02  0.00000000000E+00 0.  1.
         11    1    3    3    0    0  0.27025708569E+01  0.47905145373E+01  0.17584561404E+02  0.18424704036E+02  0.51100000000E-03 0. -1.
        -11    1    3    3    0    0 -0.12779166083E+02  0.16815503090E+00  0.14329006068E+02  0.19200410856E+02  0.51100000000E-03 0.  1.
         12    1    3    3    0    0 -0.20745945907E+01 -0.23398880971E+01  0.96690452680E+01  0.10162158010E+02  0.00000000000E+00 0. -1.
</event>
<event>
 7    1  0.7470072E-010  0.4778727E+02  0.7816164E-02  0.1312668E+00
        -11   -1    0    0    0    0  0.00000000000E+00  0.00000000000E+00  0.45593999997E+02  0.45594000000E+02  0.51100000000E-03 0. -1.
         11   -1    0    0    0    0 -0.00000000000E+00 -0.00000000000E+00 -0.45593999997E+02  0.45594000000E+02  0.51100000000E-03 0.  1.
    9900012    2    1    2    0    0 -0.19939262047E+02 -0.29662868863E+02 -0.24620383493E+02  0.47787271394E+02  0.20000001594E+02 0.  0.
         12    1    1    2    0    0  0.19939262047E+02  0.29662868863E+02  0.24620383493E+02  0.43400728606E+02  0.00000000000E+00 0. -1.
         11    1    3    3    0    0 -0.10887908845E+02 -0.29391015958E+02 -0.21086609627E+02  0.37775964367E+02  0.51100000000E-03 0.  1.
        -11    1    3    3    0    0 -0.69647010032E+01  0.75825405718E+00 -0.22772534200E+01  0.73666744654E+01  0.51100000000E-03 0. -1.
        -12    1    3    3    0    0 -0.20866521992E+01 -0.10301069628E+01 -0.12565204457E+01  0.26446325616E+01  0.00000000000E+00 0.  1.
</event>
<event>
 7    1  0.7470072E-010  0.4778727E+02  0.7816164E-02  0.1312668E+00
        -11   -1    0    0    0    0  0.00000000000E+00  0.00000000000E+00  0.45593999997E+02  0.45594000000E+02  0.51100000000E-03 0. -1.
         11   -1    0    0    0    0 -0.00000000000E+00 -0.00000000000E+00 -0.45593999997E+02  0.45594000000E+02  0.51100000000E-03 0.  1.
    9900012    2    1    2    0    0  0.87796117596E+01  0.67707417430E+01  0.41960685488E+02  0.47787266676E+02  0.19999980083E+02 0.  0.
        -12    1    1    2    0    0 -0.87796117596E+01 -0.67707417430E+01 -0.41960685488E+02  0.43400733324E+02  0.00000000000E+00 0.  1.
         11    1    3    3    0    0  0.11158774667E+01  0.28803105157E+01  0.41995570382E+01  0.52132188488E+01  0.51100000000E-03 0. -1.
        -11    1    3    3    0    0  0.10485771395E+02 -0.26648743071E+01  0.13586677605E+02  0.17368096194E+02  0.51100000000E-03 0.  1.
        -12    1    3    3    0    0 -0.28220371016E+01  0.65553055345E+01  0.24174450845E+02  0.25205951633E+02  0.00000000000E+00 0.  1.
</event>
<event>
 7    1  0.7470072E-010  0.4778727E+02  0.7816164E-02  0.1312668E+00
        -11   -1    0    0    0    0  0.00000000000E+00  0.00000000000E+00  0.45593999997E+02  0.45594000000E+02  0.51100000000E-03 0. -1.
         11   -1    0    0    0    0 -0.00000000000E+00 -0.00000000000E+00 -0.45593999997E+02  0.45594000000E+02  0.51100000000E-03 0.  1.
    9900012    2    1    2    0    0 -0.75808587813E+01  0.73093378205E+01  0.42103767639E+02  0.47787273179E+02  0.20000009731E+02 0.  0.
        -12    1    1    2    0    0  0.75808587813E+01 -0.73093378205E+01 -0.42103767639E+02  0.43400726821E+02  0.00000000000E+00 0.  1.
         11    1    3    3    0    0 -0.62672059468E+01  0.95900925898E+01  0.11311506223E+02  0.16099624827E+02  0.51100000000E-03 0. -1.
        -11    1    3    3    0    0 -0.26052931342E+01 -0.43106953746E+01  0.19317638538E+02  0.19963486816E+02  0.51100000000E-03 0.  1.
         12    1    3    3    0    0  0.12916402997E+01  0.20299406052E+01  0.11474622878E+02  0.11724161536E+02  0.00000000000E+00 0. -1.
</event>
<event>
 7    1  0.7470072E-010  0.4778727E+02  0.7816164E-02  0.1312668E+00
        -11   -1    0    0    0    0  0.00000000000E+00  0.00000000000E+00  0.45593999997E+02  0.45594000000E+02  0.51100000000E-03 0. -1.
         11   -1    0    0    0    0 -0.00000000000E+00 -0.00000000000E+00 -0.45593999997E+02  0.45594000000E+02  0.51100000000E-03 0.  1.
    9900012    2    1    2    0    0 -0.40529415616E+02 -0.76964456775E+01  0.13481638980E+02  0.47787269640E+02  0.19999993595E+02 0.  0.
         12    1    1    2    0    0  0.40529415616E+02  0.76964456775E+01 -0.13481638980E+02  0.43400730360E+02  0.00000000000E+00 0. -1.
         11    1    3    3    0    0 -0.48909201277E+01  0.50608830560E+01  0.50505391694E+01  0.86626545103E+01  0.51100000000E-03 0. -1.
        -11    1    3    3    0    0 -0.17453740831E+02 -0.77697944903E+01  0.20353820572E+01  0.19213161005E+02  0.51100000000E-03 0.  1.
         12    1    3    3    0    0 -0.18184754657E+02 -0.49875342431E+01  0.63957177536E+01  0.19911454124E+02  0.00000000000E+00 0. -1.
</event>
<event>
 7    1  0.7470072E-010  0.4778727E+02  0.7816164E-02  0.1312668E+00
        -11   -1    0    0    0    0  0.00000000000E+00  0.00000000000E+00  0.45593999997E+02  0.45594000000E+02  0.51100000000E-03 0. -1.
         11   -1    0    0    0    0 -0.00000000000E+00 -0.00000000000E+00 -0.45593999997E+02  0.45594000000E+02  0.51100000000E-03 0.  1.
    9900012    2    1    2    0    0  0.11342751340E+02  0.37988668758E+02  0.17658606914E+02  0.47787270051E+02  0.19999995470E+02 0.  0.
        -12    1    1    2    0    0 -0.11342751340E+02 -0.37988668758E+02 -0.17658606914E+02  0.43400729949E+02  0.00000000000E+00 0.  1.
         11    1    3    3    0    0  0.13620513600E+02  0.22234144723E+02  0.90648843588E+01  0.27605211664E+02  0.51100000000E-03 0. -1.
        -11    1    3    3    0    0 -0.48377829928E+01  0.73746380421E+01  0.15838964781E+01  0.89609239955E+01  0.51100000000E-03 0.  1.
         12    1    3    3    0    0  0.25600207326E+01  0.83798859929E+01  0.70098260770E+01  0.11221134392E+02  0.00000000000E+00 0. -1.
</event>
<event>
 7    1  0.7470072E-010  0.4778727E+02  0.7816164E-02  0.1312668E+00
        -11   -1    0    0    0    0  0.00000000000E+00  0.00000000000E+00  0.45593999997E+02  0.45594000000E+02  0.51100000000E-03 0.  1.
         11   -1    0    0    0    0 -0.00000000000E+00 -0.00000000000E+00 -0.45593999997E+02  0.45594000000E+02  0.51100000000E-03 0. -1.
    9900012    2    1    2    0    0  0.37678905250E+02 -0.12107712327E+02 -0.17813659829E+02  0.47787273334E+02  0.20000010441E+02 0.  0.
         12    1    1    2    0    0 -0.37678905250E+02  0.12107712327E+02  0.17813659829E+02  0.43400726666E+02  0.00000000000E+00 0. -1.
         11    1    3    3    0    0  0.19168322810E+02 -0.50802580251E+01 -0.16932621823E+02  0.26075799182E+02  0.51100000000E-03 0. -1.
        -11    1    3    3    0    0  0.25051115854E+01 -0.33942151707E+01  0.25702205397E+01  0.49398698934E+01  0.51100000000E-03 0.  1.
         12    1    3    3    0    0  0.16005470855E+02 -0.36332391310E+01 -0.34512585452E+01  0.16771604259E+02  0.00000000000E+00 0. -1.
</event>
<event>
 7    1  0.7470072E-010  0.4778727E+02  0.7816164E-02  0.1312668E+00
        -11   -1    0    0    0    0  0.00000000000E+00  0.00000000000E+00  0.45593999997E+02  0.45594000000E+02  0.51100000000E-03 0. -1.
         11   -1    0    0    0    0 -0.00000000000E+00 -0.00000000000E+00 -0.45593999997E+02  0.45594000000E+02  0.51100000000E-03 0.  1.
    9900012    2    1    2    0    0  0.83599800811E+01  0.20647018561E+01  0.42537879289E+02  0.47787269187E+02  0.19999991532E+02 0.  0.
        -12    1    1    2    0    0 -0.83599800811E+01 -0.20647018561E+01 -0.42537879289E+02  0.43400730813E+02  0.00000000000E+00 0.  1.
         11    1    3    3    0    0  0.10278743455E+02  0.11594722667E+01  0.37418433812E+02  0.38821851220E+02  0.51100000000E-03 0. -1.
        -11    1    3    3    0    0 -0.24602028996E+00 -0.19074233793E+01 -0.89273143956E+00  0.21203206397E+01  0.51100000000E-03 0.  1.
        -12    1    3    3    0    0 -0.16727430843E+01  0.28126529687E+01  0.60121769163E+01  0.68450973273E+01  0.00000000000E+00 0.  1.
</event>
<event>
 7    1  0.7470072E-010  0.4778727E+02  0.7816164E-02  0.1312668E+00
        -11   -1    0    0    0    0  0.00000000000E+00  0.00000000000E+00  0.45593999997E+02  0.45594000000E+02  0.51100000000E-03 0. -1.
         11   -1    0    0    0    0 -0.00000000000E+00 -0.00000000000E+00 -0.45593999997E+02  0.45594000000E+02  0.51100000000E-03 0.  1.
    9900012    2    1    2    0    0 -0.42702737088E+01 -0.24317748887E+02  0.35693631832E+02  0.47787268418E+02  0.19999988024E+02 0.  0.
        -12    1    1    2    0    0  0.42702737088E+01  0.24317748887E+02 -0.35693631832E+02  0.43400731582E+02  0.00000000000E+00 0.  1.
         11    1    3    3    0    0 -0.15978061878E+01 -0.31341579521E+01  0.36772625778E+01  0.50890265287E+01  0.51100000000E-03 0. -1.
        -11    1    3    3    0    0 -0.80285518524E+01 -0.19222517551E+01  0.96359002354E+01  0.12688706406E+02  0.51100000000E-03 0.  1.
        -12    1    3    3    0    0  0.53560843314E+01 -0.19261339180E+02  0.22380469019E+02  0.30009535483E+02  0.00000000000E+00 0.  1.
</event>
<event>
 7    1  0.7470072E-010  0.4778728E+02  0.7816164E-02  0.1312668E+00
        -11   -1    0    0    0    0  0.00000000000E+00  0.00000000000E+00  0.45593999997E+02  0.45594000000E+02  0.51100000000E-03 0. -1.
         11   -1    0    0    0    0 -0.00000000000E+00 -0.00000000000E+00 -0.45593999997E+02  0.45594000000E+02  0.51100000000E-03 0.  1.
    9900012    2    1    2    0    0 -0.30166870871E+02  0.15188022906E+02  0.27256308484E+02  0.47787280074E+02  0.20000041168E+02 0.  0.
        -12    1    1    2    0    0  0.30166870871E+02 -0.15188022906E+02 -0.27256308484E+02  0.43400719926E+02  0.00000000000E+00 0.  1.
         11    1    3    3    0    0  0.14895451069E+01 -0.24925558966E+00  0.65188877967E+01  0.66915447650E+01  0.51100000000E-03 0. -1.
        -11    1    3    3    0    0 -0.55012377517E+01  0.14909171927E+01  0.20581497662E+01  0.60599035964E+01  0.51100000000E-03 0.  1.
         12    1    3    3    0    0 -0.26155178226E+02  0.13946361303E+02  0.18679270921E+02  0.35035831712E+02  0.00000000000E+00 0. -1.
</event>
<event>
 7    1  0.7470072E-010  0.4778728E+02  0.7816164E-02  0.1312668E+00
        -11   -1    0    0    0    0  0.00000000000E+00  0.00000000000E+00  0.45593999997E+02  0.45594000000E+02  0.51100000000E-03 0. -1.
         11   -1    0    0    0    0 -0.00000000000E+00 -0.00000000000E+00 -0.45593999997E+02  0.45594000000E+02  0.51100000000E-03 0.  1.
    9900012    2    1    2    0    0  0.23986613547E+02 -0.52685112551E+01  0.35784186100E+02  0.47787276330E+02  0.20000024097E+02 0.  0.
        -12    1    1    2    0    0 -0.23986613547E+02  0.52685112551E+01 -0.35784186100E+02  0.43400723670E+02  0.00000000000E+00 0.  1.
         11    1    3    3    0    0 -0.10334163027E+01  0.32114044715E+01  0.52773278563E+01  0.62634860500E+01  0.51100000000E-03 0. -1.
        -11    1    3    3    0    0  0.15658928905E+02 -0.44828157754E+01  0.11420391001E+02  0.19892788206E+02  0.51100000000E-03 0.  1.
         12    1    3    3    0    0  0.93611009451E+01 -0.39970999512E+01  0.19086467242E+02  0.21631002073E+02  0.00000000000E+00 0. -1.
</event>
<event>
 7    1  0.7470072E-010  0.4778727E+02  0.7816164E-02  0.1312668E+00
        -11   -1    0    0    0    0  0.00000000000E+00  0.00000000000E+00  0.45593999997E+02  0.45594000000E+02  0.51100000000E-03 0. -1.
         11   -1    0    0    0    0 -0.00000000000E+00 -0.00000000000E+00 -0.45593999997E+02  0.45594000000E+02  0.51100000000E-03 0.  1.
    9900012    2    1    2    0    0  0.26474125295E+02  0.80711493378E+01 -0.33430530351E+02  0.47787272802E+02  0.20000008013E+02 0.  0.
         12    1    1    2    0    0 -0.26474125295E+02 -0.80711493378E+01  0.33430530351E+02  0.43400727198E+02  0.00000000000E+00 0. -1.
         11    1    3    3    0    0  0.13827190068E+01  0.40056552176E+00  0.21032471072E+01  0.25487277697E+01  0.51100000000E-03 0. -1.
        -11    1    3    3    0    0  0.22486745505E+02  0.68941459126E+01 -0.35420614765E+02  0.42518265744E+02  0.51100000000E-03 0.  1.
        -12    1    3    3    0    0  0.26046607832E+01  0.77643790337E+00 -0.11316269352E+00  0.27202792887E+01  0.00000000000E+00 0.  1.
</event>
<event>
 7    1  0.7470072E-010  0.4778727E+02  0.7816164E-02  0.1312668E+00
        -11   -1    0    0    0    0  0.00000000000E+00  0.00000000000E+00  0.45593999997E+02  0.45594000000E+02  0.51100000000E-03 0. -1.
         11   -1    0    0    0    0 -0.00000000000E+00 -0.00000000000E+00 -0.45593999997E+02  0.45594000000E+02  0.51100000000E-03 0.  1.
    9900012    2    1    2    0    0 -0.24005362583E+02  0.12006720858E+01 -0.36137572256E+02  0.47787272186E+02  0.20000005205E+02 0.  0.
         12    1    1    2    0    0  0.24005362583E+02 -0.12006720858E+01  0.36137572256E+02  0.43400727814E+02  0.00000000000E+00 0. -1.
         11    1    3    3    0    0 -0.15909520263E+02  0.84562545714E+01 -0.21830763099E+02  0.28305534691E+02  0.51100000000E-03 0. -1.
        -11    1    3    3    0    0  0.48074026854E+00 -0.36874830853E+01 -0.26011746582E+01  0.45381441772E+01  0.51100000000E-03 0.  1.
         12    1    3    3    0    0 -0.85765825887E+01 -0.35680994003E+01 -0.11705634499E+02  0.14943593318E+02  0.00000000000E+00 0. -1.
</event>
<event>
 7    1  0.7470072E-010  0.4778727E+02  0.7816164E-02  0.1312668E+00
        -11   -1    0    0    0    0  0.00000000000E+00  0.00000000000E+00  0.45593999997E+02  0.45594000000E+02  0.51100000000E-03 0. -1.
         11   -1    0    0    0    0 -0.00000000000E+00 -0.00000000000E+00 -0.45593999997E+02  0.45594000000E+02  0.51100000000E-03 0.  1.
    9900012    2    1    2    0    0  0.37618353476E+02 -0.74622854555E+01 -0.20317401621E+02  0.47787273841E+02  0.20000012753E+02 0.  0.
         12    1    1    2    0    0 -0.37618353476E+02  0.74622854555E+01  0.20317401621E+02  0.43400726159E+02  0.00000000000E+00 0. -1.
         11    1    3    3    0    0  0.51941080127E+01 -0.71252233438E+01 -0.34868189781E+01  0.94818496399E+01  0.51100000000E-03 0. -1.
        -11    1    3    3    0    0  0.18810029679E+02  0.34903692519E+01 -0.14425715125E+02  0.23960407992E+02  0.51100000000E-03 0.  1.
        -12    1    3    3    0    0  0.13614215784E+02 -0.38274313636E+01 -0.24048675181E+01  0.14345016209E+02  0.00000000000E+00 0.  1.
</event>
<event>
 7    1  0.8625231E-010  0.4778727E+02  0.7816164E-02  0.1312668E+00
        -11   -1    0    0    0    0  0.00000000000E+00  0.00000000000E+00  0.45593999997E+02  0.45594000000E+02  0.51100000000E-03 0. -1.
         11   -1    0    0    0    0 -0.00000000000E+00 -0.00000000000E+00 -0.45593999997E+02  0.45594000000E+02  0.51100000000E-03 0.  1.
    9900012    2    1    2    0    0  0.16527009534E+02  0.26679491336E+02 -0.29978092715E+02  0.47787270226E+02  0.19999996270E+02 0.  0.
         12    1    1    2    0    0 -0.16527009534E+02 -0.26679491336E+02  0.29978092715E+02  0.43400729774E+02  0.00000000000E+00 0. -1.
         11    1    3    3    0    0 -0.25559215244E+01  0.16886645259E+01 -0.13355971901E+01  0.33418771425E+01  0.51100000000E-03 0. -1.
        -11    1    3    3    0    0  0.17801270435E+02  0.25434485947E+02 -0.22985590775E+02  0.38628172206E+02  0.51100000000E-03 0.  1.
        -12    1    3    3    0    0  0.12816606234E+01 -0.44365913730E+00 -0.56569047503E+01  0.58172208775E+01  0.00000000000E+00 0.  1.
</event>
<event>
 7    1  0.7470072E-010  0.4778724E+02  0.7816164E-02  0.1312668E+00
        -11   -1    0    0    0    0  0.00000000000E+00  0.00000000000E+00  0.45593999997E+02  0.45594000000E+02  0.51100000000E-03 0. -1.
         11   -1    0    0    0    0 -0.00000000000E+00 -0.00000000000E+00 -0.45593999997E+02  0.45594000000E+02  0.51100000000E-03 0.  1.
    9900012    2    1    2    0    0 -0.24493058406E+02 -0.15957063629E+02  0.32079398493E+02  0.47787244276E+02  0.19999877950E+02 0.  0.
        -12    1    1    2    0    0  0.24493058406E+02  0.15957063629E+02 -0.32079398493E+02  0.43400755724E+02  0.00000000000E+00 0.  1.
         11    1    3    3    0    0 -0.21646128657E+02 -0.49354906786E+01  0.23888234398E+02  0.32612293648E+02  0.51100000000E-03 0. -1.
        -11    1    3    3    0    0 -0.18666273743E+01 -0.95970716549E+01  0.89792633384E+01  0.13274609315E+02  0.51100000000E-03 0.  1.
         12    1    3    3    0    0 -0.98030237552E+00 -0.14245012956E+01 -0.78809924310E+00  0.19003413129E+01  0.00000000000E+00 0. -1.
</event>
<event>
 7    1  0.7470072E-010  0.4778728E+02  0.7816164E-02  0.1312668E+00
        -11   -1    0    0    0    0  0.00000000000E+00  0.00000000000E+00  0.45593999997E+02  0.45594000000E+02  0.51100000000E-03 0. -1.
         11   -1    0    0    0    0 -0.00000000000E+00 -0.00000000000E+00 -0.45593999997E+02  0.45594000000E+02  0.51100000000E-03 0.  1.
    9900012    2    1    2    0    0 -0.12275634481E+02  0.27386467904E+02 -0.31351443311E+02  0.47787276229E+02  0.20000023638E+02 0.  0.
         12    1    1    2    0    0  0.12275634481E+02 -0.27386467904E+02  0.31351443311E+02  0.43400723771E+02  0.00000000000E+00 0. -1.
         11    1    3    3    0    0 -0.23413138780E+01 -0.28751901853E+01 -0.22312305626E+01  0.43274541432E+01  0.51100000000E-03 0. -1.
        -11    1    3    3    0    0 -0.79914481441E+01  0.19255076352E+02 -0.21399076958E+02  0.29875436460E+02  0.51100000000E-03 0.  1.
         12    1    3    3    0    0 -0.19428724591E+01  0.11006581737E+02 -0.77211357905E+01  0.13584385625E+02  0.00000000000E+00 0. -1.
</event>
<event>
 7    1  0.7470072E-010  0.4778727E+02  0.7816164E-02  0.1312668E+00
        -11   -1    0    0    0    0  0.00000000000E+00  0.00000000000E+00  0.45593999997E+02  0.45594000000E+02  0.51100000000E-03 0.  1.
         11   -1    0    0    0    0 -0.00000000000E+00 -0.00000000000E+00 -0.45593999997E+02  0.45594000000E+02  0.51100000000E-03 0. -1.
    9900012    2    1    2    0    0 -0.30228998075E+02  0.20481519155E+02 -0.23459288585E+02  0.47787272213E+02  0.20000005329E+02 0.  0.
         12    1    1    2    0    0  0.30228998075E+02 -0.20481519155E+02  0.23459288585E+02  0.43400727787E+02  0.00000000000E+00 0. -1.
         11    1    3    3    0    0 -0.16565906639E+02  0.21896378268E+01 -0.13071604001E+02  0.21215338979E+02  0.51100000000E-03 0. -1.
        -11    1    3    3    0    0 -0.47039675413E+01  0.12362627708E+02 -0.30873903661E+01  0.13582851468E+02  0.51100000000E-03 0.  1.
        -12    1    3    3    0    0 -0.89591238945E+01  0.59292536201E+01 -0.73002942180E+01  0.12989081766E+02  0.00000000000E+00 0.  1.
</event>
<event>
 7    1  0.7470072E-010  0.4778727E+02  0.7816164E-02  0.1312668E+00
        -11   -1    0    0    0    0  0.00000000000E+00  0.00000000000E+00  0.45593999997E+02  0.45594000000E+02  0.51100000000E-03 0. -1.
         11   -1    0    0    0    0 -0.00000000000E+00 -0.00000000000E+00 -0.45593999997E+02  0.45594000000E+02  0.51100000000E-03 0.  1.
    9900012    2    1    2    0    0 -0.85281918446E+00 -0.19857375969E+02 -0.38582129119E+02  0.47787269957E+02  0.19999995041E+02 0.  0.
         12    1    1    2    0    0  0.85281918446E+00  0.19857375969E+02  0.38582129119E+02  0.43400730043E+02  0.00000000000E+00 0. -1.
         11    1    3    3    0    0 -0.28534038256E+01 -0.98355260347E+01 -0.35174981648E+01  0.10828309165E+02  0.51100000000E-03 0. -1.
        -11    1    3    3    0    0  0.23127193227E+01 -0.82403124273E+00 -0.64904707162E+01  0.69393017324E+01  0.51100000000E-03 0.  1.
         12    1    3    3    0    0 -0.31213468150E+00 -0.91978186919E+01 -0.28574160238E+02  0.30019659059E+02  0.00000000000E+00 0. -1.
</event>
<event>
 7    1  0.7470072E-010  0.4778731E+02  0.7816164E-02  0.1312668E+00
        -11   -1    0    0    0    0  0.00000000000E+00  0.00000000000E+00  0.45593999997E+02  0.45594000000E+02  0.51100000000E-03 0. -1.
         11   -1    0    0    0    0 -0.00000000000E+00 -0.00000000000E+00 -0.45593999997E+02  0.45594000000E+02  0.51100000000E-03 0.  1.
    9900012    2    1    2    0    0 -0.17068872520E+02 -0.26998985195E+02 -0.29382455626E+02  0.47787305198E+02  0.20000155719E+02 0.  0.
         12    1    1    2    0    0  0.17068872520E+02  0.26998985195E+02  0.29382455626E+02  0.43400694802E+02  0.00000000000E+00 0. -1.
         11    1    3    3    0    0 -0.10347000174E+02 -0.19332797626E+02 -0.29758623796E+02  0.36964755743E+02  0.51100000000E-03 0. -1.
        -11    1    3    3    0    0 -0.63176188551E+01 -0.51570493839E+01 -0.40047322419E+00  0.81650379920E+01  0.51100000000E-03 0.  1.
         12    1    3    3    0    0 -0.40425349024E+00 -0.25091381855E+01  0.77664139451E+00  0.26575114626E+01  0.00000000000E+00 0. -1.
</event>
<event>
 7    1  0.7470072E-010  0.4778727E+02  0.7816164E-02  0.1312668E+00
        -11   -1    0    0    0    0  0.00000000000E+00  0.00000000000E+00  0.45593999997E+02  0.45594000000E+02  0.51100000000E-03 0. -1.
         11   -1    0    0    0    0 -0.00000000000E+00 -0.00000000000E+00 -0.45593999997E+02  0.45594000000E+02  0.51100000000E-03 0.  1.
    9900012    2    1    2    0    0 -0.19957948817E+02  0.33434878838E+02 -0.19168001430E+02  0.47787272786E+02  0.20000007941E+02 0.  0.
         12    1    1    2    0    0  0.19957948817E+02 -0.33434878838E+02  0.19168001430E+02  0.43400727214E+02  0.00000000000E+00 0. -1.
         11    1    3    3    0    0 -0.14413265063E+02  0.87435970259E+01 -0.82446482458E+01  0.18766111043E+02  0.51100000000E-03 0. -1.
        -11    1    3    3    0    0 -0.76682576495E+01  0.22695242871E+02 -0.94135877706E+01  0.25738917213E+02  0.51100000000E-03 0.  1.
        -12    1    3    3    0    0  0.21235738960E+01  0.19960389409E+01 -0.15097654139E+01  0.32822445294E+01  0.00000000000E+00 0.  1.
</event>
<event>
 7    1  0.7470072E-010  0.4778727E+02  0.7816164E-02  0.1312668E+00
        -11   -1    0    0    0    0  0.00000000000E+00  0.00000000000E+00  0.45593999997E+02  0.45594000000E+02  0.51100000000E-03 0. -1.
         11   -1    0    0    0    0 -0.00000000000E+00 -0.00000000000E+00 -0.45593999997E+02  0.45594000000E+02  0.51100000000E-03 0.  1.
    9900012    2    1    2    0    0  0.23868406328E+02  0.31137324730E+02  0.18557734168E+02  0.47787270635E+02  0.19999998133E+02 0.  0.
        -12    1    1    2    0    0 -0.23868406328E+02 -0.31137324730E+02 -0.18557734168E+02  0.43400729365E+02  0.00000000000E+00 0.  1.
         11    1    3    3    0    0  0.15955649651E+02  0.22671853077E+02  0.46841693104E+01  0.28116491960E+02  0.51100000000E-03 0. -1.
        -11    1    3    3    0    0  0.74339976058E+01  0.57635005984E+01  0.14064397183E+02  0.16920092432E+02  0.51100000000E-03 0.  1.
        -12    1    3    3    0    0  0.47875907085E+00  0.27019710549E+01 -0.19083232538E+00  0.27506862427E+01  0.00000000000E+00 0.  1.
</event>
<event>
 7    1  0.7470072E-010  0.4778728E+02  0.7816164E-02  0.1312668E+00
        -11   -1    0    0    0    0  0.00000000000E+00  0.00000000000E+00  0.45593999997E+02  0.45594000000E+02  0.51100000000E-03 0. -1.
         11   -1    0    0    0    0 -0.00000000000E+00 -0.00000000000E+00 -0.45593999997E+02  0.45594000000E+02  0.51100000000E-03 0.  1.
    9900012    2    1    2    0    0  0.90837308478E+01  0.16125319288E+02 -0.39256623798E+02  0.47787278805E+02  0.20000035383E+02 0.  0.
         12    1    1    2    0    0 -0.90837308478E+01 -0.16125319288E+02  0.39256623798E+02  0.43400721195E+02  0.00000000000E+00 0. -1.
         11    1    3    3    0    0 -0.64121040521E+00  0.56294967046E+01 -0.19134808496E+01  0.59802837018E+01  0.51100000000E-03 0. -1.
        -11    1    3    3    0    0  0.85708941887E+00  0.15932174608E+01 -0.21545586723E+02  0.21621407254E+02  0.51100000000E-03 0.  1.
        -12    1    3    3    0    0  0.88678518341E+01  0.89026051229E+01 -0.15797556225E+02  0.20185587849E+02  0.00000000000E+00 0.  1.
</event>
<event>
 7    1  0.7470072E-010  0.4778730E+02  0.7816164E-02  0.1312668E+00
        -11   -1    0    0    0    0  0.00000000000E+00  0.00000000000E+00  0.45593999997E+02  0.45594000000E+02  0.51100000000E-03 0. -1.
         11   -1    0    0    0    0 -0.00000000000E+00 -0.00000000000E+00 -0.45593999997E+02  0.45594000000E+02  0.51100000000E-03 0.  1.
    9900012    2    1    2    0    0 -0.60497444869E+01 -0.24303551896E+02 -0.35445149712E+02  0.47787300913E+02  0.20000136183E+02 0.  0.
         12    1    1    2    0    0  0.60497444869E+01  0.24303551896E+02  0.35445149712E+02  0.43400699087E+02  0.00000000000E+00 0. -1.
         11    1    3    3    0    0 -0.86761474530E+01 -0.52074941211E+01 -0.54722890012E+01  0.11503889639E+02  0.51100000000E-03 0. -1.
        -11    1    3    3    0    0  0.43553598876E+01 -0.13401069795E+02 -0.17537311607E+02  0.22497002691E+02  0.51100000000E-03 0.  1.
         12    1    3    3    0    0 -0.17289569216E+01 -0.56949879803E+01 -0.12435549103E+02  0.13786408584E+02  0.00000000000E+00 0. -1.
</event>
<event>
 7    1  0.7470072E-010  0.4778727E+02  0.7816164E-02  0.1312668E+00
        -11   -1    0    0    0    0  0.00000000000E+00  0.00000000000E+00  0.45593999997E+02  0.45594000000E+02  0.51100000000E-03 0. -1.
         11   -1    0    0    0    0 -0.00000000000E+00 -0.00000000000E+00 -0.45593999997E+02  0.45594000000E+02  0.51100000000E-03 0.  1.
    9900012    2    1    2    0    0 -0.10109950159E+02 -0.28661740271E+01  0.42109350722E+02  0.47787268854E+02  0.19999990013E+02 0.  0.
        -12    1    1    2    0    0  0.10109950159E+02  0.28661740271E+01 -0.42109350722E+02  0.43400731146E+02  0.00000000000E+00 0.  1.
         11    1    3    3    0    0 -0.65337950563E+01  0.14086954000E+01  0.91608724864E+01  0.11340039045E+02  0.51100000000E-03 0. -1.
        -11    1    3    3    0    0  0.44317520508E+01 -0.56398995252E+01  0.18955350555E+02  0.20267072009E+02  0.51100000000E-03 0.  1.
        -12    1    3    3    0    0 -0.80079071534E+01  0.13650300981E+01  0.13993127681E+02  0.16180157800E+02  0.00000000000E+00 0.  1.
</event>
<event>
 7    1  0.7470072E-010  0.4778727E+02  0.7816164E-02  0.1312668E+00
        -11   -1    0    0    0    0  0.00000000000E+00  0.00000000000E+00  0.45593999997E+02  0.45594000000E+02  0.51100000000E-03 0.  1.
         11   -1    0    0    0    0 -0.00000000000E+00 -0.00000000000E+00 -0.45593999997E+02  0.45594000000E+02  0.51100000000E-03 0. -1.
    9900012    2    1    2    0    0  0.39729955566E+02 -0.15920536173E+02 -0.71896039849E+01  0.47787271357E+02  0.20000001425E+02 0.  0.
         12    1    1    2    0    0 -0.39729955566E+02  0.15920536173E+02  0.71896039849E+01  0.43400728643E+02  0.00000000000E+00 0. -1.
         11    1    3    3    0    0  0.10832720742E+01 -0.27439092409E+00 -0.26667066613E+01  0.28913826182E+01  0.51100000000E-03 0. -1.
        -11    1    3    3    0    0  0.21384292426E+02 -0.50224915408E+01 -0.96431981463E+01  0.23989678084E+02  0.51100000000E-03 0.  1.
        -12    1    3    3    0    0  0.17262391066E+02 -0.10623653708E+02  0.51203008228E+01  0.20906210655E+02  0.00000000000E+00 0.  1.
</event>
<event>
 7    1  0.7470072E-010  0.4778727E+02  0.7816164E-02  0.1312668E+00
        -11   -1    0    0    0    0  0.00000000000E+00  0.00000000000E+00  0.45593999997E+02  0.45594000000E+02  0.51100000000E-03 0. -1.
         11   -1    0    0    0    0 -0.00000000000E+00 -0.00000000000E+00 -0.45593999997E+02  0.45594000000E+02  0.51100000000E-03 0.  1.
    9900012    2    1    2    0    0 -0.21952823683E+02 -0.34850360253E+02 -0.13680258191E+02  0.47787267960E+02  0.19999985936E+02 0.  0.
         12    1    1    2    0    0  0.21952823683E+02  0.34850360253E+02  0.13680258191E+02  0.43400732040E+02  0.00000000000E+00 0. -1.
         11    1    3    3    0    0 -0.38481849896E+01 -0.45217384548E+01  0.17251300456E+01  0.61830995709E+01  0.51100000000E-03 0. -1.
        -11    1    3    3    0    0 -0.13365186980E+02 -0.26428645635E+02 -0.57589656829E+01  0.30170635046E+02  0.51100000000E-03 0.  1.
        -12    1    3    3    0    0 -0.47394517141E+01 -0.38999761636E+01 -0.96464225532E+01  0.11433533343E+02  0.00000000000E+00 0.  1.
</event>
<event>
 7    1  0.7470072E-010  0.4778727E+02  0.7816164E-02  0.1312668E+00
        -11   -1    0    0    0    0  0.00000000000E+00  0.00000000000E+00  0.45593999997E+02  0.45594000000E+02  0.51100000000E-03 0. -1.
         11   -1    0    0    0    0 -0.00000000000E+00 -0.00000000000E+00 -0.45593999997E+02  0.45594000000E+02  0.51100000000E-03 0.  1.
    9900012    2    1    2    0    0  0.45767500709E+01 -0.28952515752E+02 -0.32006692465E+02  0.47787272217E+02  0.20000005347E+02 0.  0.
         12    1    1    2    0    0 -0.45767500709E+01  0.28952515752E+02  0.32006692465E+02  0.43400727783E+02  0.00000000000E+00 0. -1.
         11    1    3    3    0    0 -0.50981910600E+01 -0.59029754505E+01 -0.36301314471E+01  0.86031695228E+01  0.51100000000E-03 0.  1.
        -11    1    3    3    0    0  0.60938774392E+00 -0.20362794685E+00  0.80545919699E+00  0.10303312780E+01  0.51100000000E-03 0. -1.
         12    1    3    3    0    0  0.90655533870E+01 -0.22845912354E+02 -0.29182020214E+02  0.38153771417E+02  0.00000000000E+00 0. -1.
</event>
<event>
 7    1  0.7470072E-010  0.4778727E+02  0.7816164E-02  0.1312668E+00
        -11   -1    0    0    0    0  0.00000000000E+00  0.00000000000E+00  0.45593999997E+02  0.45594000000E+02  0.51100000000E-03 0. -1.
         11   -1    0    0    0    0 -0.00000000000E+00 -0.00000000000E+00 -0.45593999997E+02  0.45594000000E+02  0.51100000000E-03 0.  1.
    9900012    2    1    2    0    0  0.11658838619E+02 -0.22969885863E+02 -0.34929632042E+02  0.47787269948E+02  0.19999995000E+02 0.  0.
         12    1    1    2    0    0 -0.11658838619E+02  0.22969885863E+02  0.34929632042E+02  0.43400730052E+02  0.00000000000E+00 0. -1.
         11    1    3    3    0    0 -0.10445293474E+01 -0.24051318488E+01 -0.13664188507E+02  0.13913509571E+02  0.51100000000E-03 0. -1.
        -11    1    3    3    0    0  0.14198369821E+02 -0.15499781815E+02 -0.17924320652E+02  0.27624594349E+02  0.51100000000E-03 0.  1.
         12    1    3    3    0    0 -0.14950018543E+01 -0.50649721987E+01 -0.33411228828E+01  0.62491660273E+01  0.00000000000E+00 0. -1.
</event>
<event>
 7    1  0.7470072E-010  0.4778727E+02  0.7816164E-02  0.1312668E+00
        -11   -1    0    0    0    0  0.00000000000E+00  0.00000000000E+00  0.45593999997E+02  0.45594000000E+02  0.51100000000E-03 0. -1.
         11   -1    0    0    0    0 -0.00000000000E+00 -0.00000000000E+00 -0.45593999997E+02  0.45594000000E+02  0.51100000000E-03 0.  1.
    9900012    2    1    2    0    0 -0.63548583976E+01 -0.35686795079E+02  0.23868223435E+02  0.47787266616E+02  0.19999979810E+02 0.  0.
        -12    1    1    2    0    0  0.63548583976E+01  0.35686795079E+02 -0.23868223435E+02  0.43400733384E+02  0.00000000000E+00 0.  1.
         11    1    3    3    0    0 -0.93390908474E+01 -0.29316461339E+02  0.11250368304E+02  0.32760407668E+02  0.51100000000E-03 0. -1.
        -11    1    3    3    0    0  0.50296031046E-01 -0.34103736241E+01  0.85406376024E+01  0.91965030780E+01  0.51100000000E-03 0.  1.
         12    1    3    3    0    0  0.29339364188E+01 -0.29599601160E+01  0.40772175291E+01  0.58303558705E+01  0.00000000000E+00 0. -1.
</event>
<event>
 7    1  0.7470072E-010  0.4778727E+02  0.7816164E-02  0.1312668E+00
        -11   -1    0    0    0    0  0.00000000000E+00  0.00000000000E+00  0.45593999997E+02  0.45594000000E+02  0.51100000000E-03 0.  1.
         11   -1    0    0    0    0 -0.00000000000E+00 -0.00000000000E+00 -0.45593999997E+02  0.45594000000E+02  0.51100000000E-03 0. -1.
    9900012    2    1    2    0    0 -0.90986452115E+01 -0.42207017959E+02  0.44052069729E+01  0.47787267770E+02  0.19999985069E+02 0.  0.
        -12    1    1    2    0    0  0.90986452115E+01  0.42207017959E+02 -0.44052069729E+01  0.43400732230E+02  0.00000000000E+00 0.  1.
         11    1    3    3    0    0 -0.12697627109E+02 -0.38101229270E+02  0.63577493431E+01  0.40661460661E+02  0.51100000000E-03 0. -1.
        -11    1    3    3    0    0  0.39854138059E+01 -0.31465502492E+01 -0.18891308365E+00  0.50813374312E+01  0.51100000000E-03 0.  1.
         12    1    3    3    0    0 -0.38643190794E+00 -0.95923843945E+00 -0.17636292865E+01  0.20444696778E+01  0.00000000000E+00 0. -1.
</event>
<event>
 7    1  0.7470072E-010  0.4778728E+02  0.7816164E-02  0.1312668E+00
        -11   -1    0    0    0    0  0.00000000000E+00  0.00000000000E+00  0.45593999997E+02  0.45594000000E+02  0.51100000000E-03 0. -1.
         11   -1    0    0    0    0 -0.00000000000E+00 -0.00000000000E+00 -0.45593999997E+02  0.45594000000E+02  0.51100000000E-03 0.  1.
    9900012    2    1    2    0    0  0.33230484811E+02  0.19983683541E+01  0.27845362690E+02  0.47787276271E+02  0.20000023832E+02 0.  0.
        -12    1    1    2    0    0 -0.33230484811E+02 -0.19983683541E+01 -0.27845362690E+02  0.43400723729E+02  0.00000000000E+00 0.  1.
         11    1    3    3    0    0  0.31271735479E+02  0.13816206889E+01  0.21947695841E+02  0.38229983894E+02  0.51100000000E-03 0. -1.
        -11    1    3    3    0    0  0.26290072887E+00 -0.10158966556E+01  0.69140439223E+01  0.69932228928E+01  0.51100000000E-03 0.  1.
         12    1    3    3    0    0  0.16958486033E+01  0.16326443207E+01 -0.10163770736E+01  0.25640694841E+01  0.00000000000E+00 0. -1.
</event>
<event>
 7    1  0.7470072E-010  0.4778727E+02  0.7816164E-02  0.1312668E+00
        -11   -1    0    0    0    0  0.00000000000E+00  0.00000000000E+00  0.45593999997E+02  0.45594000000E+02  0.51100000000E-03 0. -1.
         11   -1    0    0    0    0 -0.00000000000E+00 -0.00000000000E+00 -0.45593999997E+02  0.45594000000E+02  0.51100000000E-03 0.  1.
    9900012    2    1    2    0    0  0.13733185962E+01 -0.18816405839E+02  0.39085549648E+02  0.47787270467E+02  0.19999997367E+02 0.  0.
        -12    1    1    2    0    0 -0.13733185962E+01  0.18816405839E+02 -0.39085549648E+02  0.43400729533E+02  0.00000000000E+00 0.  1.
         11    1    3    3    0    0 -0.13798345356E+00  0.26532428998E+01  0.14320859422E+02  0.14565224069E+02  0.51100000000E-03 0. -1.
        -11    1    3    3    0    0 -0.77477921576E+00 -0.16116873871E+02  0.20018416929E+02  0.25711688448E+02  0.51100000000E-03 0.  1.
         12    1    3    3    0    0  0.22860812655E+01 -0.53527748677E+01  0.47462732969E+01  0.75103579506E+01  0.00000000000E+00 0. -1.
</event>
<event>
 7    1  0.7470072E-010  0.4778727E+02  0.7816164E-02  0.1312668E+00
        -11   -1    0    0    0    0  0.00000000000E+00  0.00000000000E+00  0.45593999997E+02  0.45594000000E+02  0.51100000000E-03 0. -1.
         11   -1    0    0    0    0 -0.00000000000E+00 -0.00000000000E+00 -0.45593999997E+02  0.45594000000E+02  0.51100000000E-03 0.  1.
    9900012    2    1    2    0    0 -0.74942297985E+01  0.33615050480E+02  0.26410004331E+02  0.47787269271E+02  0.19999991916E+02 0.  0.
        -12    1    1    2    0    0  0.74942297985E+01 -0.33615050480E+02 -0.26410004331E+02  0.43400730729E+02  0.00000000000E+00 0.  1.
         11    1    3    3    0    0 -0.80061525812E+00  0.88064515510E+01  0.33783255184E+00  0.88492205762E+01  0.51100000000E-03 0. -1.
        -11    1    3    3    0    0 -0.97097120656E+01  0.22903964296E+02  0.24862944683E+02  0.35171524099E+02  0.51100000000E-03 0.  1.
        -12    1    3    3    0    0  0.30160975253E+01  0.19046346324E+01  0.12092270964E+01  0.37665245964E+01  0.00000000000E+00 0.  1.
</event>
<event>
 7    1  0.7470072E-010  0.4778727E+02  0.7816164E-02  0.1312668E+00
        -11   -1    0    0    0    0  0.00000000000E+00  0.00000000000E+00  0.45593999997E+02  0.45594000000E+02  0.51100000000E-03 0. -1.
         11   -1    0    0    0    0 -0.00000000000E+00 -0.00000000000E+00 -0.45593999997E+02  0.45594000000E+02  0.51100000000E-03 0.  1.
    9900012    2    1    2    0    0 -0.46367034237E-01 -0.17966349901E+02  0.39507359223E+02  0.47787270612E+02  0.19999998028E+02 0.  0.
        -12    1    1    2    0    0  0.46367034237E-01  0.17966349901E+02 -0.39507359223E+02  0.43400729388E+02  0.00000000000E+00 0.  1.
         11    1    3    3    0    0  0.21644735332E+01 -0.19876815932E+01  0.21252420433E+02  0.21454631162E+02  0.51100000000E-03 0.  1.
        -11    1    3    3    0    0 -0.23971912866E+01 -0.15009153800E+02  0.19512553702E+02  0.24733802298E+02  0.51100000000E-03 0. -1.
        -12    1    3    3    0    0  0.18635071909E+00 -0.96951450739E+00 -0.12576149122E+01  0.15988371518E+01  0.00000000000E+00 0.  1.
</event>
<event>
 7    1  0.7470072E-010  0.4778727E+02  0.7816164E-02  0.1312668E+00
        -11   -1    0    0    0    0  0.00000000000E+00  0.00000000000E+00  0.45593999997E+02  0.45594000000E+02  0.51100000000E-03 0. -1.
         11   -1    0    0    0    0 -0.00000000000E+00 -0.00000000000E+00 -0.45593999997E+02  0.45594000000E+02  0.51100000000E-03 0.  1.
    9900012    2    1    2    0    0 -0.28386124519E+02  0.80673496763E+01  0.31824027823E+02  0.47787274857E+02  0.20000017385E+02 0.  0.
        -12    1    1    2    0    0  0.28386124519E+02 -0.80673496763E+01 -0.31824027823E+02  0.43400725143E+02  0.00000000000E+00 0.  1.
         11    1    3    3    0    0 -0.66495694076E+01  0.40423091219E+01  0.76049820384E+01  0.10880845023E+02  0.51100000000E-03 0. -1.
        -11    1    3    3    0    0 -0.33961524787E+01 -0.58322618183E+01  0.38082560882E+01  0.77493189553E+01  0.51100000000E-03 0.  1.
        -12    1    3    3    0    0 -0.18340402633E+02  0.98573023727E+01  0.20410789697E+02  0.29157110879E+02  0.00000000000E+00 0.  1.
</event>
<event>
 7    1  0.7470072E-010  0.4778727E+02  0.7816164E-02  0.1312668E+00
        -11   -1    0    0    0    0  0.00000000000E+00  0.00000000000E+00  0.45593999997E+02  0.45594000000E+02  0.51100000000E-03 0. -1.
         11   -1    0    0    0    0 -0.00000000000E+00 -0.00000000000E+00 -0.45593999997E+02  0.45594000000E+02  0.51100000000E-03 0.  1.
    9900012    2    1    2    0    0  0.19621508089E+02 -0.29907362871E+02 -0.24579859835E+02  0.47787269095E+02  0.19999991114E+02 0.  0.
         12    1    1    2    0    0 -0.19621508089E+02  0.29907362871E+02  0.24579859835E+02  0.43400730905E+02  0.00000000000E+00 0. -1.
         11    1    3    3    0    0  0.19156530471E+02 -0.22520387586E+02 -0.15164301488E+02  0.33227948426E+02  0.51100000000E-03 0. -1.
        -11    1    3    3    0    0  0.23071571889E+01 -0.27058730885E+01 -0.87999517346E+01  0.94912525125E+01  0.51100000000E-03 0.  1.
         12    1    3    3    0    0 -0.18421795713E+01 -0.46811021964E+01 -0.61560661278E+00  0.50680681573E+01  0.00000000000E+00 0. -1.
</event>
<event>
 7    1  0.7470072E-010  0.4778727E+02  0.7816164E-02  0.1312668E+00
        -11   -1    0    0    0    0  0.00000000000E+00  0.00000000000E+00  0.45593999997E+02  0.45594000000E+02  0.51100000000E-03 0. -1.
         11   -1    0    0    0    0 -0.00000000000E+00 -0.00000000000E+00 -0.45593999997E+02  0.45594000000E+02  0.51100000000E-03 0.  1.
    9900012    2    1    2    0    0  0.94774233245E+01  0.42331954080E+02 -0.13443488720E+01  0.47787272322E+02  0.20000005824E+02 0.  0.
         12    1    1    2    0    0 -0.94774233245E+01 -0.42331954080E+02  0.13443488720E+01  0.43400727678E+02  0.00000000000E+00 0. -1.
         11    1    3    3    0    0  0.17500727533E+01  0.80053987119E+01  0.56210637800E+01  0.99370781148E+01  0.51100000000E-03 0. -1.
        -11    1    3    3    0    0 -0.11245708595E+01  0.16866413770E+02 -0.69434445131E+01  0.18274353478E+02  0.51100000000E-03 0.  1.
         12    1    3    3    0    0  0.88519214307E+01  0.17460141598E+02 -0.21968138933E-01  0.19575840729E+02  0.00000000000E+00 0. -1.
</event>
<event>
 7    1  0.7470072E-010  0.4778727E+02  0.7816164E-02  0.1312668E+00
        -11   -1    0    0    0    0  0.00000000000E+00  0.00000000000E+00  0.45593999997E+02  0.45594000000E+02  0.51100000000E-03 0. -1.
         11   -1    0    0    0    0 -0.00000000000E+00 -0.00000000000E+00 -0.45593999997E+02  0.45594000000E+02  0.51100000000E-03 0.  1.
    9900012    2    1    2    0    0 -0.76140089234E+01 -0.38159655800E+02  0.19222151425E+02  0.47787267655E+02  0.19999984546E+02 0.  0.
        -12    1    1    2    0    0  0.76140089234E+01  0.38159655800E+02 -0.19222151425E+02  0.43400732345E+02  0.00000000000E+00 0.  1.
         11    1    3    3    0    0 -0.10694027055E+02 -0.26289866953E+02  0.15865722077E+02  0.32515234219E+02  0.51100000000E-03 0. -1.
        -11    1    3    3    0    0  0.83414173914E-01 -0.49599385007E+01 -0.26632424379E+01  0.56303470941E+01  0.51100000000E-03 0.  1.
        -12    1    3    3    0    0  0.29966039580E+01 -0.69098503468E+01  0.60196717859E+01  0.96416863414E+01  0.00000000000E+00 0.  1.
</event>
<event>
 7    1  0.7470072E-010  0.4778727E+02  0.7816164E-02  0.1312668E+00
        -11   -1    0    0    0    0  0.00000000000E+00  0.00000000000E+00  0.45593999997E+02  0.45594000000E+02  0.51100000000E-03 0. -1.
         11   -1    0    0    0    0 -0.00000000000E+00 -0.00000000000E+00 -0.45593999997E+02  0.45594000000E+02  0.51100000000E-03 0.  1.
    9900012    2    1    2    0    0  0.15992858091E+01 -0.15673100099E+02 -0.40440325161E+02  0.47787266355E+02  0.19999978620E+02 0.  0.
         12    1    1    2    0    0 -0.15992858091E+01  0.15673100099E+02  0.40440325161E+02  0.43400733645E+02  0.00000000000E+00 0. -1.
         11    1    3    3    0    0 -0.28080119695E-01 -0.13135174126E+02 -0.33178647872E+02  0.35684117793E+02  0.51100000000E-03 0. -1.
        -11    1    3    3    0    0  0.11505358717E+01 -0.16842550443E+01 -0.94704508538E+01  0.96876151597E+01  0.51100000000E-03 0.  1.
         12    1    3    3    0    0  0.47683005712E+00 -0.85367092904E+00  0.22087735648E+01  0.24155334026E+01  0.00000000000E+00 0. -1.
</event>
<event>
 7    1  0.7470072E-010  0.4778728E+02  0.7816164E-02  0.1312668E+00
        -11   -1    0    0    0    0  0.00000000000E+00  0.00000000000E+00  0.45593999997E+02  0.45594000000E+02  0.51100000000E-03 0. -1.
         11   -1    0    0    0    0 -0.00000000000E+00 -0.00000000000E+00 -0.45593999997E+02  0.45594000000E+02  0.51100000000E-03 0.  1.
    9900012    2    1    2    0    0 -0.21818521585E+02 -0.42858356526E+01 -0.37272059087E+02  0.47787278117E+02  0.20000032247E+02 0.  0.
         12    1    1    2    0    0  0.21818521585E+02  0.42858356526E+01  0.37272059087E+02  0.43400721883E+02  0.00000000000E+00 0. -1.
         11    1    3    3    0    0 -0.19904644736E+01 -0.76053464337E+00 -0.15723131129E+01  0.26481183037E+01  0.51100000000E-03 0. -1.
        -11    1    3    3    0    0 -0.26181335427E+01 -0.70315877836E+01 -0.20783352352E+02  0.22096279896E+02  0.51100000000E-03 0.  1.
        -12    1    3    3    0    0 -0.17209923569E+02  0.35062867744E+01 -0.14916393621E+02  0.23042879917E+02  0.00000000000E+00 0.  1.
</event>
<event>
 7    1  0.7470072E-010  0.4778727E+02  0.7816164E-02  0.1312668E+00
        -11   -1    0    0    0    0  0.00000000000E+00  0.00000000000E+00  0.45593999997E+02  0.45594000000E+02  0.51100000000E-03 0. -1.
         11   -1    0    0    0    0 -0.00000000000E+00 -0.00000000000E+00 -0.45593999997E+02  0.45594000000E+02  0.51100000000E-03 0.  1.
    9900012    2    1    2    0    0  0.22516479006E+02 -0.74558742686E+01  0.36346132517E+02  0.47787271471E+02  0.20000001944E+02 0.  0.
        -12    1    1    2    0    0 -0.22516479006E+02  0.74558742686E+01 -0.36346132517E+02  0.43400728529E+02  0.00000000000E+00 0.  1.
         11    1    3    3    0    0  0.29080727359E+01 -0.78935773655E+00  0.19881874855E+02  0.20108926393E+02  0.51100000000E-03 0. -1.
        -11    1    3    3    0    0  0.94077785212E+01 -0.36300339120E+01  0.30100317569E+01  0.10523484895E+02  0.51100000000E-03 0.  1.
        -12    1    3    3    0    0  0.10200627749E+02 -0.30364826201E+01  0.13454225905E+02  0.17154860182E+02  0.00000000000E+00 0.  1.
</event>
<event>
 7    1  0.7470072E-010  0.4778727E+02  0.7816164E-02  0.1312668E+00
        -11   -1    0    0    0    0  0.00000000000E+00  0.00000000000E+00  0.45593999997E+02  0.45594000000E+02  0.51100000000E-03 0. -1.
         11   -1    0    0    0    0 -0.00000000000E+00 -0.00000000000E+00 -0.45593999997E+02  0.45594000000E+02  0.51100000000E-03 0.  1.
    9900012    2    1    2    0    0 -0.87888959025E+01  0.30293961081E+02 -0.29810308708E+02  0.47787271038E+02  0.19999999971E+02 0.  0.
         12    1    1    2    0    0  0.87888959025E+01 -0.30293961081E+02  0.29810308708E+02  0.43400728962E+02  0.00000000000E+00 0. -1.
         11    1    3    3    0    0 -0.32422312660E+01  0.35595036636E+01 -0.52533873925E+01  0.71260233841E+01  0.51100000000E-03 0. -1.
        -11    1    3    3    0    0 -0.56841239718E+01  0.36054765518E-01 -0.37120293037E+01  0.67889415291E+01  0.51100000000E-03 0.  1.
        -12    1    3    3    0    0  0.13745933536E+00  0.26698402652E+02 -0.20844892011E+02  0.33872306125E+02  0.00000000000E+00 0.  1.
</event>
<event>
 7    1  0.7470072E-010  0.4778726E+02  0.7816164E-02  0.1312668E+00
        -11   -1    0    0    0    0  0.00000000000E+00  0.00000000000E+00  0.45593999997E+02  0.45594000000E+02  0.51100000000E-03 0. -1.
         11   -1    0    0    0    0 -0.00000000000E+00 -0.00000000000E+00 -0.45593999997E+02  0.45594000000E+02  0.51100000000E-03 0.  1.
    9900012    2    1    2    0    0 -0.26314027790E+02 -0.18267837369E+02  0.29282802923E+02  0.47787257060E+02  0.19999936240E+02 0.  0.
        -12    1    1    2    0    0  0.26314027790E+02  0.18267837369E+02 -0.29282802923E+02  0.43400742940E+02  0.00000000000E+00 0.  1.
         11    1    3    3    0    0 -0.78418501135E+01  0.18693333363E+01  0.79786366197E+01  0.11342295310E+02  0.51100000000E-03 0. -1.
        -11    1    3    3    0    0 -0.37956956045E+01 -0.90831521134E+00 -0.42860982969E+00  0.39263275834E+01  0.51100000000E-03 0.  1.
         12    1    3    3    0    0 -0.14676482072E+02 -0.19228855494E+02  0.21732776133E+02  0.32518634167E+02  0.00000000000E+00 0. -1.
</event>
<event>
 7    1  0.7470072E-010  0.4778727E+02  0.7816164E-02  0.1312668E+00
        -11   -1    0    0    0    0  0.00000000000E+00  0.00000000000E+00  0.45593999997E+02  0.45594000000E+02  0.51100000000E-03 0. -1.
         11   -1    0    0    0    0 -0.00000000000E+00 -0.00000000000E+00 -0.45593999997E+02  0.45594000000E+02  0.51100000000E-03 0.  1.
    9900012    2    1    2    0    0 -0.15637130491E+02 -0.86573677999E+01  0.39549378668E+02  0.47787271662E+02  0.20000002815E+02 0.  0.
        -12    1    1    2    0    0  0.15637130491E+02  0.86573677999E+01 -0.39549378668E+02  0.43400728338E+02  0.00000000000E+00 0.  1.
         11    1    3    3    0    0 -0.11842280071E+02 -0.33036665773E+01  0.35429346946E+02  0.37501899091E+02  0.51100000000E-03 0. -1.
        -11    1    3    3    0    0 -0.21477800563E+01  0.13503161772E+00 -0.12017755913E+01  0.24648443239E+01  0.51100000000E-03 0.  1.
         12    1    3    3    0    0 -0.16470703638E+01 -0.54887328403E+01  0.53218073135E+01  0.78205282467E+01  0.00000000000E+00 0. -1.
</event>
<event>
 7    1  0.7470072E-010  0.4778727E+02  0.7816164E-02  0.1312668E+00
        -11   -1    0    0    0    0  0.00000000000E+00  0.00000000000E+00  0.45593999997E+02  0.45594000000E+02  0.51100000000E-03 0. -1.
         11   -1    0    0    0    0 -0.00000000000E+00 -0.00000000000E+00 -0.45593999997E+02  0.45594000000E+02  0.51100000000E-03 0.  1.
    9900012    2    1    2    0    0  0.11118699926E+02 -0.22468639808E+02  0.35428211714E+02  0.47787269037E+02  0.19999990847E+02 0.  0.
        -12    1    1    2    0    0 -0.11118699926E+02  0.22468639808E+02 -0.35428211714E+02  0.43400730963E+02  0.00000000000E+00 0.  1.
         11    1    3    3    0    0  0.66685848446E+01 -0.49559335209E+01  0.14304143896E+02  0.16542062560E+02  0.51100000000E-03 0. -1.
        -11    1    3    3    0    0  0.23380515712E+00 -0.94948520150E+01  0.14791478274E+01  0.96122192128E+01  0.51100000000E-03 0.  1.
        -12    1    3    3    0    0  0.42163099238E+01 -0.80178542719E+01  0.19644919991E+02  0.21632987264E+02  0.00000000000E+00 0.  1.
</event>
<event>
 7    1  0.7470072E-010  0.4778727E+02  0.7816164E-02  0.1312668E+00
        -11   -1    0    0    0    0  0.00000000000E+00  0.00000000000E+00  0.45593999997E+02  0.45594000000E+02  0.51100000000E-03 0. -1.
         11   -1    0    0    0    0 -0.00000000000E+00 -0.00000000000E+00 -0.45593999997E+02  0.45594000000E+02  0.51100000000E-03 0.  1.
    9900012    2    1    2    0    0 -0.85420908680E+01 -0.39683622687E+02  0.15357928528E+02  0.47787271957E+02  0.20000004162E+02 0.  0.
        -12    1    1    2    0    0  0.85420908680E+01  0.39683622687E+02 -0.15357928528E+02  0.43400728043E+02  0.00000000000E+00 0.  1.
         11    1    3    3    0    0 -0.12383912054E+01 -0.32119666949E+02  0.76678017777E+01  0.33045450550E+02  0.51100000000E-03 0.  1.
        -11    1    3    3    0    0 -0.85219299327E+01 -0.53925100009E+01  0.62835924510E+01  0.11882171024E+02  0.51100000000E-03 0. -1.
         12    1    3    3    0    0  0.12182302701E+01 -0.21714457372E+01  0.14065342993E+01  0.28596503835E+01  0.00000000000E+00 0. -1.
</event>
<event>
 7    1  0.7470072E-010  0.4778728E+02  0.7816164E-02  0.1312668E+00
        -11   -1    0    0    0    0  0.00000000000E+00  0.00000000000E+00  0.45593999997E+02  0.45594000000E+02  0.51100000000E-03 0. -1.
         11   -1    0    0    0    0 -0.00000000000E+00 -0.00000000000E+00 -0.45593999997E+02  0.45594000000E+02  0.51100000000E-03 0.  1.
    9900012    2    1    2    0    0 -0.51103226884E+01  0.11941075951E+02  0.41411569747E+02  0.47787276483E+02  0.20000024797E+02 0.  0.
        -12    1    1    2    0    0  0.51103226884E+01 -0.11941075951E+02 -0.41411569747E+02  0.43400723517E+02  0.00000000000E+00 0.  1.
         11    1    3    3    0    0  0.21590538375E+01 -0.16465903285E+00  0.12277699906E+02  0.12467178563E+02  0.51100000000E-03 0. -1.
        -11    1    3    3    0    0 -0.11413591441E+02  0.70278501322E+01  0.20087238758E+02  0.24148662660E+02  0.51100000000E-03 0.  1.
        -12    1    3    3    0    0  0.41442149151E+01  0.50778848518E+01  0.90466310828E+01  0.11171435260E+02  0.00000000000E+00 0.  1.
</event>
<event>
 7    1  0.7470072E-010  0.4778727E+02  0.7816164E-02  0.1312668E+00
        -11   -1    0    0    0    0  0.00000000000E+00  0.00000000000E+00  0.45593999997E+02  0.45594000000E+02  0.51100000000E-03 0. -1.
         11   -1    0    0    0    0 -0.00000000000E+00 -0.00000000000E+00 -0.45593999997E+02  0.45594000000E+02  0.51100000000E-03 0.  1.
    9900012    2    1    2    0    0 -0.27665654882E+02  0.61478666864E-01 -0.33439963471E+02  0.47787269631E+02  0.19999993553E+02 0.  0.
         12    1    1    2    0    0  0.27665654882E+02 -0.61478666864E-01  0.33439963471E+02  0.43400730369E+02  0.00000000000E+00 0. -1.
         11    1    3    3    0    0 -0.48557752570E+01  0.60748728285E+01 -0.55287450621E+01  0.95419943121E+01  0.51100000000E-03 0. -1.
        -11    1    3    3    0    0 -0.22578305196E+02 -0.48746902788E+01 -0.28700149112E+02  0.36840752302E+02  0.51100000000E-03 0.  1.
        -12    1    3    3    0    0 -0.23157442941E+00 -0.11387038829E+01  0.78893070370E+00  0.14045230167E+01  0.00000000000E+00 0.  1.
</event>
<event>
 7    1  0.7470072E-010  0.4778727E+02  0.7816164E-02  0.1312668E+00
        -11   -1    0    0    0    0  0.00000000000E+00  0.00000000000E+00  0.45593999997E+02  0.45594000000E+02  0.51100000000E-03 0. -1.
         11   -1    0    0    0    0 -0.00000000000E+00 -0.00000000000E+00 -0.45593999997E+02  0.45594000000E+02  0.51100000000E-03 0.  1.
    9900012    2    1    2    0    0  0.17701174864E+02  0.23204920849E+02 -0.32122009784E+02  0.47787268949E+02  0.19999990446E+02 0.  0.
         12    1    1    2    0    0 -0.17701174864E+02 -0.23204920849E+02  0.32122009784E+02  0.43400731051E+02  0.00000000000E+00 0. -1.
         11    1    3    3    0    0  0.15281256636E+02  0.18004828647E+02 -0.32848332918E+02  0.40456194022E+02  0.51100000000E-03 0.  1.
        -11    1    3    3    0    0  0.39869372696E+00  0.46689423929E+01  0.17524415999E+01  0.50029023155E+01  0.51100000000E-03 0. -1.
        -12    1    3    3    0    0  0.20212245003E+01  0.53114980899E+00 -0.10261184661E+01  0.23281726110E+01  0.00000000000E+00 0.  1.
</event>
<event>
 7    1  0.7470072E-010  0.4778727E+02  0.7816164E-02  0.1312668E+00
        -11   -1    0    0    0    0  0.00000000000E+00  0.00000000000E+00  0.45593999997E+02  0.45594000000E+02  0.51100000000E-03 0. -1.
         11   -1    0    0    0    0 -0.00000000000E+00 -0.00000000000E+00 -0.45593999997E+02  0.45594000000E+02  0.51100000000E-03 0.  1.
    9900012    2    1    2    0    0 -0.26127892883E+02  0.16166955863E+02 -0.30652665791E+02  0.47787272259E+02  0.20000005538E+02 0.  0.
         12    1    1    2    0    0  0.26127892883E+02 -0.16166955863E+02  0.30652665791E+02  0.43400727741E+02  0.00000000000E+00 0. -1.
         11    1    3    3    0    0 -0.23319784964E+01  0.44835862805E+01  0.14031199223E+01  0.52449418891E+01  0.51100000000E-03 0. -1.
        -11    1    3    3    0    0 -0.24371634811E+02  0.12141343479E+02 -0.31337072090E+02  0.41513863856E+02  0.51100000000E-03 0.  1.
        -12    1    3    3    0    0  0.57572042497E+00 -0.45797389676E+00 -0.71871362333E+00  0.10284665139E+01  0.00000000000E+00 0.  1.
</event>
<event>
 7    1  0.7470072E-010  0.4778727E+02  0.7816164E-02  0.1312668E+00
        -11   -1    0    0    0    0  0.00000000000E+00  0.00000000000E+00  0.45593999997E+02  0.45594000000E+02  0.51100000000E-03 0. -1.
         11   -1    0    0    0    0 -0.00000000000E+00 -0.00000000000E+00 -0.45593999997E+02  0.45594000000E+02  0.51100000000E-03 0.  1.
    9900012    2    1    2    0    0 -0.19759838834E+02 -0.13971372796E+02  0.36027388622E+02  0.47787271671E+02  0.20000002856E+02 0.  0.
        -12    1    1    2    0    0  0.19759838834E+02  0.13971372796E+02 -0.36027388622E+02  0.43400728329E+02  0.00000000000E+00 0.  1.
         11    1    3    3    0    0 -0.14843998498E+02  0.84039106706E+00  0.21651973558E+02  0.26265157677E+02  0.51100000000E-03 0. -1.
        -11    1    3    3    0    0 -0.21388089317E+01 -0.99251256698E+01  0.73975193354E+01  0.12562082462E+02  0.51100000000E-03 0.  1.
         12    1    3    3    0    0 -0.27770314052E+01 -0.48866381932E+01  0.69778957286E+01  0.89600315320E+01  0.00000000000E+00 0. -1.
</event>
<event>
 7    1  0.7470072E-010  0.4778727E+02  0.7816164E-02  0.1312668E+00
        -11   -1    0    0    0    0  0.00000000000E+00  0.00000000000E+00  0.45593999997E+02  0.45594000000E+02  0.51100000000E-03 0. -1.
         11   -1    0    0    0    0 -0.00000000000E+00 -0.00000000000E+00 -0.45593999997E+02  0.45594000000E+02  0.51100000000E-03 0.  1.
    9900012    2    1    2    0    0 -0.43821604039E+01 -0.65125397697E+01 -0.42684970183E+02  0.47787272085E+02  0.20000004744E+02 0.  0.
         12    1    1    2    0    0  0.43821604039E+01  0.65125397697E+01  0.42684970183E+02  0.43400727915E+02  0.00000000000E+00 0. -1.
         11    1    3    3    0    0 -0.35903981908E+01  0.34595035752E+01 -0.19078600570E+02  0.19719333765E+02  0.51100000000E-03 0. -1.
        -11    1    3    3    0    0 -0.36445644846E+01 -0.11375417566E+02 -0.19604198943E+02  0.22956645913E+02  0.51100000000E-03 0.  1.
         12    1    3    3    0    0  0.28528022716E+01  0.14033742216E+01 -0.40021706698E+01  0.51112924077E+01  0.00000000000E+00 0. -1.
</event>
<event>
 7    1  0.7470072E-010  0.4778727E+02  0.7816164E-02  0.1312668E+00
        -11   -1    0    0    0    0  0.00000000000E+00  0.00000000000E+00  0.45593999997E+02  0.45594000000E+02  0.51100000000E-03 0. -1.
         11   -1    0    0    0    0 -0.00000000000E+00 -0.00000000000E+00 -0.45593999997E+02  0.45594000000E+02  0.51100000000E-03 0.  1.
    9900012    2    1    2    0    0  0.12192942403E+02 -0.78895268850E+01  0.40898785814E+02  0.47787272356E+02  0.20000005981E+02 0.  0.
        -12    1    1    2    0    0 -0.12192942403E+02  0.78895268850E+01 -0.40898785814E+02  0.43400727644E+02  0.00000000000E+00 0.  1.
         11    1    3    3    0    0  0.12299841312E+02  0.98807735294E+00  0.12334390994E+02  0.17447051172E+02  0.51100000000E-03 0. -1.
        -11    1    3    3    0    0  0.11154381030E+01 -0.72565404448E+01  0.15888216354E+02  0.17502485554E+02  0.51100000000E-03 0.  1.
         12    1    3    3    0    0 -0.12223370117E+01 -0.16210637931E+01  0.12676178467E+02  0.12837735630E+02  0.00000000000E+00 0. -1.
</event>
<event>
 7    1  0.7470072E-010  0.4778727E+02  0.7816164E-02  0.1312668E+00
        -11   -1    0    0    0    0  0.00000000000E+00  0.00000000000E+00  0.45593999997E+02  0.45594000000E+02  0.51100000000E-03 0. -1.
         11   -1    0    0    0    0 -0.00000000000E+00 -0.00000000000E+00 -0.45593999997E+02  0.45594000000E+02  0.51100000000E-03 0.  1.
    9900012    2    1    2    0    0 -0.23055608136E+02 -0.28400492317E+02  0.23355394187E+02  0.47787268808E+02  0.19999989801E+02 0.  0.
        -12    1    1    2    0    0  0.23055608136E+02  0.28400492317E+02 -0.23355394187E+02  0.43400731192E+02  0.00000000000E+00 0.  1.
         11    1    3    3    0    0 -0.14819263386E+02 -0.19162795139E+02  0.23253804477E+02  0.33579200523E+02  0.51100000000E-03 0. -1.
        -11    1    3    3    0    0 -0.41070077121E+01 -0.70792135852E+01  0.30044515252E+01  0.87183431086E+01  0.51100000000E-03 0.  1.
         12    1    3    3    0    0 -0.41293370377E+01 -0.21584835935E+01 -0.29028618147E+01  0.54897251762E+01  0.00000000000E+00 0. -1.
</event>
<event>
 7    1  0.7470072E-010  0.4778727E+02  0.7816164E-02  0.1312668E+00
        -11   -1    0    0    0    0  0.00000000000E+00  0.00000000000E+00  0.45593999997E+02  0.45594000000E+02  0.51100000000E-03 0. -1.
         11   -1    0    0    0    0 -0.00000000000E+00 -0.00000000000E+00 -0.45593999997E+02  0.45594000000E+02  0.51100000000E-03 0.  1.
    9900012    2    1    2    0    0 -0.24882458802E+02  0.83856687667E+01  0.34556721050E+02  0.47787272282E+02  0.20000005644E+02 0.  0.
        -12    1    1    2    0    0  0.24882458802E+02 -0.83856687667E+01 -0.34556721050E+02  0.43400727718E+02  0.00000000000E+00 0.  1.
         11    1    3    3    0    0 -0.12024028461E+02  0.10112244427E+02  0.21918193138E+02  0.26967423653E+02  0.51100000000E-03 0. -1.
        -11    1    3    3    0    0 -0.72874742691E+01 -0.54430881410E+01  0.10264221184E+02  0.13714544342E+02  0.51100000000E-03 0.  1.
         12    1    3    3    0    0 -0.55709560722E+01  0.37165124803E+01  0.23743067275E+01  0.71053042870E+01  0.00000000000E+00 0. -1.
</event>
<event>
 7    1  0.7470072E-010  0.4778725E+02  0.7816164E-02  0.1312668E+00
        -11   -1    0    0    0    0  0.00000000000E+00  0.00000000000E+00  0.45593999997E+02  0.45594000000E+02  0.51100000000E-03 0. -1.
         11   -1    0    0    0    0 -0.00000000000E+00 -0.00000000000E+00 -0.45593999997E+02  0.45594000000E+02  0.51100000000E-03 0.  1.
    9900012    2    1    2    0    0  0.14429154885E+02 -0.34511234130E+02 -0.22009078439E+02  0.47787247408E+02  0.19999892230E+02 0.  0.
         12    1    1    2    0    0 -0.14429154885E+02  0.34511234130E+02  0.22009078439E+02  0.43400752592E+02  0.00000000000E+00 0. -1.
         11    1    3    3    0    0  0.28444963535E+01 -0.49628643375E+01 -0.16693471335E+01  0.59588507323E+01  0.51100000000E-03 0. -1.
        -11    1    3    3    0    0 -0.98930245534E+00 -0.20757172332E+02 -0.14817256184E+02  0.25522343224E+02  0.51100000000E-03 0.  1.
        -12    1    3    3    0    0  0.12573960987E+02 -0.87911974603E+01 -0.55224751212E+01  0.16306053451E+02  0.00000000000E+00 0.  1.
</event>
<event>
 7    1  0.7470072E-010  0.4778727E+02  0.7816164E-02  0.1312668E+00
        -11   -1    0    0    0    0  0.00000000000E+00  0.00000000000E+00  0.45593999997E+02  0.45594000000E+02  0.51100000000E-03 0.  1.
         11   -1    0    0    0    0 -0.00000000000E+00 -0.00000000000E+00 -0.45593999997E+02  0.45594000000E+02  0.51100000000E-03 0. -1.
    9900012    2    1    2    0    0 -0.36545737506E+02  0.23395113178E+02  0.83724744115E+00  0.47787271507E+02  0.20000002108E+02 0.  0.
         12    1    1    2    0    0  0.36545737506E+02 -0.23395113178E+02 -0.83724744115E+00  0.43400728493E+02  0.00000000000E+00 0. -1.
         11    1    3    3    0    0 -0.14650039186E+02  0.42277979752E+00  0.33428759502E-03  0.14656138349E+02  0.51100000000E-03 0. -1.
        -11    1    3    3    0    0 -0.86127201060E+01  0.38307004735E+01  0.25628091878E+01  0.97683778048E+01  0.51100000000E-03 0.  1.
         12    1    3    3    0    0 -0.13282978213E+02  0.19141632907E+02 -0.17258960343E+01  0.23362755353E+02  0.00000000000E+00 0. -1.
</event>
<event>
 7    1  0.7470072E-010  0.4778733E+02  0.7816164E-02  0.1312668E+00
        -11   -1    0    0    0    0  0.00000000000E+00  0.00000000000E+00  0.45593999997E+02  0.45594000000E+02  0.51100000000E-03 0. -1.
         11   -1    0    0    0    0 -0.00000000000E+00 -0.00000000000E+00 -0.45593999997E+02  0.45594000000E+02  0.51100000000E-03 0.  1.
    9900012    2    1    2    0    0 -0.36833804974E+02 -0.22592934902E+02 -0.40556754843E+01  0.47787327194E+02  0.20000256005E+02 0.  0.
         12    1    1    2    0    0  0.36833804974E+02  0.22592934902E+02  0.40556754843E+01  0.43400672806E+02  0.00000000000E+00 0. -1.
         11    1    3    3    0    0 -0.23980125381E+01 -0.20414112893E+01  0.41521349000E+01  0.52113384724E+01  0.51100000000E-03 0. -1.
        -11    1    3    3    0    0 -0.29314532430E+02 -0.12187618347E+02 -0.81168037031E+01  0.32768313279E+02  0.51100000000E-03 0.  1.
        -12    1    3    3    0    0 -0.51212600062E+01 -0.83639052664E+01 -0.91006681158E-01  0.98076754419E+01  0.00000000000E+00 0.  1.
</event>
<event>
 7    1  0.7470072E-010  0.4778728E+02  0.7816164E-02  0.1312668E+00
        -11   -1    0    0    0    0  0.00000000000E+00  0.00000000000E+00  0.45593999997E+02  0.45594000000E+02  0.51100000000E-03 0. -1.
         11   -1    0    0    0    0 -0.00000000000E+00 -0.00000000000E+00 -0.45593999997E+02  0.45594000000E+02  0.51100000000E-03 0.  1.
    9900012    2    1    2    0    0 -0.13446660834E+02 -0.49400514294E+01 -0.40968353834E+02  0.47787276370E+02  0.20000024281E+02 0.  0.
         12    1    1    2    0    0  0.13446660834E+02  0.49400514294E+01  0.40968353834E+02  0.43400723630E+02  0.00000000000E+00 0. -1.
         11    1    3    3    0    0 -0.43465927892E+01  0.64319811250E+00  0.86675328306E+00  0.44785973476E+01  0.51100000000E-03 0. -1.
        -11    1    3    3    0    0 -0.86049390335E+01 -0.39888378796E+01 -0.34028916302E+02  0.35325952901E+02  0.51100000000E-03 0.  1.
         12    1    3    3    0    0 -0.49512901160E+00 -0.15944116623E+01 -0.78061908149E+01  0.79827261212E+01  0.00000000000E+00 0. -1.
</event>
<event>
 7    1  0.7470072E-010  0.4778727E+02  0.7816164E-02  0.1312668E+00
        -11   -1    0    0    0    0  0.00000000000E+00  0.00000000000E+00  0.45593999997E+02  0.45594000000E+02  0.51100000000E-03 0. -1.
         11   -1    0    0    0    0 -0.00000000000E+00 -0.00000000000E+00 -0.45593999997E+02  0.45594000000E+02  0.51100000000E-03 0.  1.
    9900012    2    1    2    0    0  0.24539379886E+02  0.31431388498E+01 -0.35658979531E+02  0.47787270649E+02  0.19999998198E+02 0.  0.
         12    1    1    2    0    0 -0.24539379886E+02 -0.31431388498E+01  0.35658979531E+02  0.43400729351E+02  0.00000000000E+00 0. -1.
         11    1    3    3    0    0  0.10094037480E+02  0.14344233102E+01 -0.33037678749E+01  0.10717371194E+02  0.51100000000E-03 0. -1.
        -11    1    3    3    0    0  0.10865177509E+02 -0.25881486323E+01 -0.27432577300E+02  0.29619198052E+02  0.51100000000E-03 0.  1.
         12    1    3    3    0    0  0.35801648967E+01  0.42968641718E+01 -0.49226343561E+01  0.74507014034E+01  0.00000000000E+00 0. -1.
</event>
<event>
 7    1  0.7470072E-010  0.4778732E+02  0.7816164E-02  0.1312668E+00
        -11   -1    0    0    0    0  0.00000000000E+00  0.00000000000E+00  0.45593999997E+02  0.45594000000E+02  0.51100000000E-03 0. -1.
         11   -1    0    0    0    0 -0.00000000000E+00 -0.00000000000E+00 -0.45593999997E+02  0.45594000000E+02  0.51100000000E-03 0.  1.
    9900012    2    1    2    0    0 -0.72846505381E+00 -0.14693677851E+02  0.40831168298E+02  0.47787318730E+02  0.20000217417E+02 0.  0.
        -12    1    1    2    0    0  0.72846505381E+00  0.14693677851E+02 -0.40831168298E+02  0.43400681270E+02  0.00000000000E+00 0.  1.
         11    1    3    3    0    0 -0.50669512527E+01 -0.26174588160E+01  0.12911652121E+02  0.14115092859E+02  0.51100000000E-03 0. -1.
        -11    1    3    3    0    0  0.67708322830E+01 -0.14079309370E+02  0.22269685667E+02  0.27203125227E+02  0.51100000000E-03 0.  1.
        -12    1    3    3    0    0 -0.24323460841E+01  0.20030903348E+01  0.56498305093E+01  0.64691006443E+01  0.00000000000E+00 0.  1.
</event>
<event>
 7    1  0.7470072E-010  0.4778727E+02  0.7816164E-02  0.1312668E+00
        -11   -1    0    0    0    0  0.00000000000E+00  0.00000000000E+00  0.45593999997E+02  0.45594000000E+02  0.51100000000E-03 0.  1.
         11   -1    0    0    0    0 -0.00000000000E+00 -0.00000000000E+00 -0.45593999997E+02  0.45594000000E+02  0.51100000000E-03 0. -1.
    9900012    2    1    2    0    0  0.25917180871E+02  0.34124621637E+02 -0.68871663904E+01  0.47787272736E+02  0.20000007712E+02 0.  0.
         12    1    1    2    0    0 -0.25917180871E+02 -0.34124621637E+02  0.68871663904E+01  0.43400727264E+02  0.00000000000E+00 0. -1.
         11    1    3    3    0    0  0.24130922236E+01  0.26886578596E+01  0.21093926840E+01  0.41834713961E+01  0.51100000000E-03 0. -1.
        -11    1    3    3    0    0 -0.13680577115E+01  0.60108715691E+01  0.18202348426E+01  0.64277067501E+01  0.51100000000E-03 0.  1.
        -12    1    3    3    0    0  0.24872146359E+02  0.25425092208E+02 -0.10816793917E+02  0.37176094590E+02  0.00000000000E+00 0.  1.
</event>
<event>
 7    1  0.7470072E-010  0.4778727E+02  0.7816164E-02  0.1312668E+00
        -11   -1    0    0    0    0  0.00000000000E+00  0.00000000000E+00  0.45593999997E+02  0.45594000000E+02  0.51100000000E-03 0. -1.
         11   -1    0    0    0    0 -0.00000000000E+00 -0.00000000000E+00 -0.45593999997E+02  0.45594000000E+02  0.51100000000E-03 0.  1.
    9900012    2    1    2    0    0  0.29725345740E+02  0.46739555370E+01  0.31275886720E+02  0.47787272704E+02  0.20000007567E+02 0.  0.
        -12    1    1    2    0    0 -0.29725345740E+02 -0.46739555370E+01 -0.31275886720E+02  0.43400727296E+02  0.00000000000E+00 0.  1.
         11    1    3    3    0    0  0.14163127824E+02  0.62674615106E+00  0.21780975231E+02  0.25988418243E+02  0.51100000000E-03 0.  1.
        -11    1    3    3    0    0  0.12062139280E+02 -0.17429992277E+00  0.15750427894E+01  0.12165785817E+02  0.51100000000E-03 0. -1.
        -12    1    3    3    0    0  0.35000786348E+01  0.42215093087E+01  0.79198686992E+01  0.96330686443E+01  0.00000000000E+00 0.  1.
</event>
<event>
 7    1  0.7470072E-010  0.4778728E+02  0.7816164E-02  0.1312668E+00
        -11   -1    0    0    0    0  0.00000000000E+00  0.00000000000E+00  0.45593999997E+02  0.45594000000E+02  0.51100000000E-03 0. -1.
         11   -1    0    0    0    0 -0.00000000000E+00 -0.00000000000E+00 -0.45593999997E+02  0.45594000000E+02  0.51100000000E-03 0.  1.
    9900012    2    1    2    0    0  0.14139839806E+02 -0.35898778185E+02 -0.19873737076E+02  0.47787276846E+02  0.20000026451E+02 0.  0.
         12    1    1    2    0    0 -0.14139839806E+02  0.35898778185E+02  0.19873737076E+02  0.43400723154E+02  0.00000000000E+00 0. -1.
         11    1    3    3    0    0 -0.25620316796E+01 -0.14894948309E+02 -0.39630259930E+01  0.15624630132E+02  0.51100000000E-03 0. -1.
        -11    1    3    3    0    0  0.12221954320E+02 -0.19408734626E+02 -0.11420509025E+02  0.25622317886E+02  0.51100000000E-03 0.  1.
        -12    1    3    3    0    0  0.44799171657E+01 -0.15950952499E+01 -0.44902020578E+01  0.65403288287E+01  0.00000000000E+00 0.  1.
</event>
<event>
 7    1  0.7470072E-010  0.4778727E+02  0.7816164E-02  0.1312668E+00
        -11   -1    0    0    0    0  0.00000000000E+00  0.00000000000E+00  0.45593999997E+02  0.45594000000E+02  0.51100000000E-03 0.  1.
         11   -1    0    0    0    0 -0.00000000000E+00 -0.00000000000E+00 -0.45593999997E+02  0.45594000000E+02  0.51100000000E-03 0. -1.
    9900012    2    1    2    0    0 -0.21287181662E+02 -0.37723828515E+02 -0.27187718650E+01  0.47787273492E+02  0.20000011160E+02 0.  0.
         12    1    1    2    0    0  0.21287181662E+02  0.37723828515E+02  0.27187718650E+01  0.43400726508E+02  0.00000000000E+00 0. -1.
         11    1    3    3    0    0 -0.29470079634E+01 -0.23287367393E+02 -0.45559163756E+01  0.23911141970E+02  0.51100000000E-03 0. -1.
        -11    1    3    3    0    0 -0.77949181112E+01 -0.40344001021E+01  0.22396786130E+01  0.90583272791E+01  0.51100000000E-03 0.  1.
         12    1    3    3    0    0 -0.10545255588E+02 -0.10402061020E+02 -0.40253410246E+00  0.14817804243E+02  0.00000000000E+00 0. -1.
</event>
<event>
 7    1  0.7470072E-010  0.4778728E+02  0.7816164E-02  0.1312668E+00
        -11   -1    0    0    0    0  0.00000000000E+00  0.00000000000E+00  0.45593999997E+02  0.45594000000E+02  0.51100000000E-03 0. -1.
         11   -1    0    0    0    0 -0.00000000000E+00 -0.00000000000E+00 -0.45593999997E+02  0.45594000000E+02  0.51100000000E-03 0.  1.
    9900012    2    1    2    0    0  0.25275991421E+02 -0.57713120281E+01  0.34805733503E+02  0.47787275702E+02  0.20000021238E+02 0.  0.
        -12    1    1    2    0    0 -0.25275991421E+02  0.57713120281E+01 -0.34805733503E+02  0.43400724298E+02  0.00000000000E+00 0.  1.
         11    1    3    3    0    0  0.13280853499E+02 -0.23273726301E+01  0.11467353350E+02  0.17700223901E+02  0.51100000000E-03 0. -1.
        -11    1    3    3    0    0  0.38350476659E+01  0.55543581369E+01  0.69562244388E+01  0.96926541059E+01  0.51100000000E-03 0.  1.
        -12    1    3    3    0    0  0.81600902557E+01 -0.89982975348E+01  0.16382155715E+02  0.20394397696E+02  0.00000000000E+00 0.  1.
</event>
<event>
 7    1  0.7470072E-010  0.4778727E+02  0.7816164E-02  0.1312668E+00
        -11   -1    0    0    0    0  0.00000000000E+00  0.00000000000E+00  0.45593999997E+02  0.45594000000E+02  0.51100000000E-03 0. -1.
         11   -1    0    0    0    0 -0.00000000000E+00 -0.00000000000E+00 -0.45593999997E+02  0.45594000000E+02  0.51100000000E-03 0.  1.
    9900012    2    1    2    0    0 -0.17010025319E+01 -0.29114915648E+02 -0.32141119147E+02  0.47787271172E+02  0.20000000580E+02 0.  0.
         12    1    1    2    0    0  0.17010025319E+01  0.29114915648E+02  0.32141119147E+02  0.43400728828E+02  0.00000000000E+00 0. -1.
         11    1    3    3    0    0 -0.31566842164E+01 -0.11715196634E+02 -0.26077949933E+02  0.28762301027E+02  0.51100000000E-03 0.  1.
        -11    1    3    3    0    0  0.21080606054E+01 -0.12561351071E+02 -0.61455827369E+01  0.14142123167E+02  0.51100000000E-03 0. -1.
         12    1    3    3    0    0 -0.65237892080E+00 -0.48383679434E+01  0.82413522987E-01  0.48828469770E+01  0.00000000000E+00 0. -1.
</event>
<event>
 7    1  0.7470072E-010  0.4778727E+02  0.7816164E-02  0.1312668E+00
        -11   -1    0    0    0    0  0.00000000000E+00  0.00000000000E+00  0.45593999997E+02  0.45594000000E+02  0.51100000000E-03 0. -1.
         11   -1    0    0    0    0 -0.00000000000E+00 -0.00000000000E+00 -0.45593999997E+02  0.45594000000E+02  0.51100000000E-03 0.  1.
    9900012    2    1    2    0    0  0.18841379703E+02 -0.23568052903E+02 -0.31195717056E+02  0.47787268792E+02  0.19999989729E+02 0.  0.
         12    1    1    2    0    0 -0.18841379703E+02  0.23568052903E+02  0.31195717056E+02  0.43400731208E+02  0.00000000000E+00 0. -1.
         11    1    3    3    0    0 -0.23796069185E+01 -0.38593214560E+01 -0.72165738318E+01  0.85226656228E+01  0.51100000000E-03 0. -1.
        -11    1    3    3    0    0  0.18681460045E+02 -0.14647520490E+02 -0.13386391797E+02  0.27253298728E+02  0.51100000000E-03 0.  1.
        -12    1    3    3    0    0  0.25395265762E+01 -0.50612109567E+01 -0.10592751427E+02  0.12011304441E+02  0.00000000000E+00 0.  1.
</event>
<event>
 7    1  0.7470072E-010  0.4778734E+02  0.7816164E-02  0.1312667E+00
        -11   -1    0    0    0    0  0.00000000000E+00  0.00000000000E+00  0.45593999997E+02  0.45594000000E+02  0.51100000000E-03 0. -1.
         11   -1    0    0    0    0 -0.00000000000E+00 -0.00000000000E+00 -0.45593999997E+02  0.45594000000E+02  0.51100000000E-03 0.  1.
    9900012    2    1    2    0    0  0.37953573496E+02  0.12917567110E+02 -0.16621682244E+02  0.47787336390E+02  0.20000297933E+02 0.  0.
         12    1    1    2    0    0 -0.37953573496E+02 -0.12917567110E+02  0.16621682244E+02  0.43400663610E+02  0.00000000000E+00 0. -1.
         11    1    3    3    0    0  0.12228852558E+01 -0.19272510203E+01 -0.31546495398E+01  0.38937846402E+01  0.51100000000E-03 0. -1.
        -11    1    3    3    0    0  0.19062412091E+02  0.81564307855E+01 -0.71061652861E-01  0.20734222143E+02  0.51100000000E-03 0.  1.
        -12    1    3    3    0    0  0.17668276150E+02  0.66883873448E+01 -0.13395971052E+02  0.23159329606E+02  0.00000000000E+00 0.  1.
</event>
<event>
 7    1  0.7470072E-010  0.4778727E+02  0.7816164E-02  0.1312668E+00
        -11   -1    0    0    0    0  0.00000000000E+00  0.00000000000E+00  0.45593999997E+02  0.45594000000E+02  0.51100000000E-03 0. -1.
         11   -1    0    0    0    0 -0.00000000000E+00 -0.00000000000E+00 -0.45593999997E+02  0.45594000000E+02  0.51100000000E-03 0.  1.
    9900012    2    1    2    0    0  0.75036455688E-01  0.42374447174E+02  0.93821011082E+01  0.47787271608E+02  0.20000002571E+02 0.  0.
        -12    1    1    2    0    0 -0.75036455688E-01 -0.42374447174E+02 -0.93821011082E+01  0.43400728392E+02  0.00000000000E+00 0.  1.
         11    1    3    3    0    0  0.55214776707E+00  0.39656842493E+02  0.11902253269E+02  0.41408135152E+02  0.51100000000E-03 0. -1.
        -11    1    3    3    0    0 -0.27788369702E+01  0.13949128834E+01 -0.19301097344E+01  0.36596503531E+01  0.51100000000E-03 0.  1.
         12    1    3    3    0    0  0.23017256588E+01  0.13226917976E+01 -0.59004242623E+00  0.27194861030E+01  0.00000000000E+00 0. -1.
</event>
<event>
 7    1  0.7470072E-010  0.4778727E+02  0.7816164E-02  0.1312668E+00
        -11   -1    0    0    0    0  0.00000000000E+00  0.00000000000E+00  0.45593999997E+02  0.45594000000E+02  0.51100000000E-03 0.  1.
         11   -1    0    0    0    0 -0.00000000000E+00 -0.00000000000E+00 -0.45593999997E+02  0.45594000000E+02  0.51100000000E-03 0. -1.
    9900012    2    1    2    0    0 -0.33868159094E+02  0.21277811206E+02 -0.16847129100E+02  0.47787271791E+02  0.20000003403E+02 0.  0.
         12    1    1    2    0    0  0.33868159094E+02 -0.21277811206E+02  0.16847129100E+02  0.43400728209E+02  0.00000000000E+00 0. -1.
         11    1    3    3    0    0 -0.21241629408E+01 -0.24638449165E+01 -0.35163247587E+01  0.47903173216E+01  0.51100000000E-03 0. -1.
        -11    1    3    3    0    0 -0.29090611316E+02  0.19335339128E+02 -0.85200779692E+01  0.35954286738E+02  0.51100000000E-03 0.  1.
        -12    1    3    3    0    0 -0.26533848376E+01  0.44063169946E+01 -0.48107263721E+01  0.70426677318E+01  0.00000000000E+00 0.  1.
</event>
<event>
 7    1  0.7470072E-010  0.4778728E+02  0.7816164E-02  0.1312668E+00
        -11   -1    0    0    0    0  0.00000000000E+00  0.00000000000E+00  0.45593999997E+02  0.45594000000E+02  0.51100000000E-03 0. -1.
         11   -1    0    0    0    0 -0.00000000000E+00 -0.00000000000E+00 -0.45593999997E+02  0.45594000000E+02  0.51100000000E-03 0.  1.
    9900012    2    1    2    0    0  0.65286852738E+01  0.15377541943E+02  0.40056589079E+02  0.47787275856E+02  0.20000021938E+02 0.  0.
        -12    1    1    2    0    0 -0.65286852738E+01 -0.15377541943E+02 -0.40056589079E+02  0.43400724144E+02  0.00000000000E+00 0.  1.
         11    1    3    3    0    0  0.40700743795E+01  0.14400073297E+02  0.20108436273E+02  0.25065450844E+02  0.51100000000E-03 0. -1.
        -11    1    3    3    0    0  0.46765836248E+01  0.36253154780E+01  0.62988704440E+01  0.86422864941E+01  0.51100000000E-03 0.  1.
         12    1    3    3    0    0 -0.22179727305E+01 -0.26478468324E+01  0.13649282362E+02  0.14079538518E+02  0.00000000000E+00 0. -1.
</event>
<event>
 7    1  0.7470072E-010  0.4778727E+02  0.7816164E-02  0.1312668E+00
        -11   -1    0    0    0    0  0.00000000000E+00  0.00000000000E+00  0.45593999997E+02  0.45594000000E+02  0.51100000000E-03 0. -1.
         11   -1    0    0    0    0 -0.00000000000E+00 -0.00000000000E+00 -0.45593999997E+02  0.45594000000E+02  0.51100000000E-03 0.  1.
    9900012    2    1    2    0    0  0.53778697910E+01  0.26063454358E+02 -0.34284078623E+02  0.47787272085E+02  0.20000004746E+02 0.  0.
         12    1    1    2    0    0 -0.53778697910E+01 -0.26063454358E+02  0.34284078623E+02  0.43400727915E+02  0.00000000000E+00 0. -1.
         11    1    3    3    0    0  0.62851772744E+00  0.59802980910E+01 -0.12981978065E+02  0.14307017667E+02  0.51100000000E-03 0. -1.
        -11    1    3    3    0    0  0.81579715995E+01  0.35527889084E+01 -0.83868897715E+01  0.12227621598E+02  0.51100000000E-03 0.  1.
        -12    1    3    3    0    0 -0.34086195360E+01  0.16530367358E+02 -0.12915210786E+02  0.21252632820E+02  0.00000000000E+00 0.  1.
</event>
<event>
 7    1  0.7470072E-010  0.4778727E+02  0.7816164E-02  0.1312668E+00
        -11   -1    0    0    0    0  0.00000000000E+00  0.00000000000E+00  0.45593999997E+02  0.45594000000E+02  0.51100000000E-03 0. -1.
         11   -1    0    0    0    0 -0.00000000000E+00 -0.00000000000E+00 -0.45593999997E+02  0.45594000000E+02  0.51100000000E-03 0.  1.
    9900012    2    1    2    0    0 -0.10044850353E+02  0.32236996841E+02 -0.27267204791E+02  0.47787269119E+02  0.19999991219E+02 0.  0.
         12    1    1    2    0    0  0.10044850353E+02 -0.32236996841E+02  0.27267204791E+02  0.43400730881E+02  0.00000000000E+00 0. -1.
         11    1    3    3    0    0  0.15534000362E+01 -0.66462126790E+00 -0.73572290677E+01  0.75487477715E+01  0.51100000000E-03 0. -1.
        -11    1    3    3    0    0 -0.44769914039E+01  0.15793161288E+02 -0.10044646357E+02  0.19244799718E+02  0.51100000000E-03 0.  1.
         12    1    3    3    0    0 -0.71212589850E+01  0.17108456820E+02 -0.98653293667E+01  0.20993721629E+02  0.00000000000E+00 0. -1.
</event>
<event>
 7    1  0.7470072E-010  0.4778727E+02  0.7816164E-02  0.1312668E+00
        -11   -1    0    0    0    0  0.00000000000E+00  0.00000000000E+00  0.45593999997E+02  0.45594000000E+02  0.51100000000E-03 0. -1.
         11   -1    0    0    0    0 -0.00000000000E+00 -0.00000000000E+00 -0.45593999997E+02  0.45594000000E+02  0.51100000000E-03 0.  1.
    9900012    2    1    2    0    0 -0.12609392641E+02  0.12341405380E+02  0.39652440586E+02  0.47787272887E+02  0.20000008401E+02 0.  0.
        -12    1    1    2    0    0  0.12609392641E+02 -0.12341405380E+02 -0.39652440586E+02  0.43400727113E+02  0.00000000000E+00 0.  1.
         11    1    3    3    0    0 -0.52127969220E+01 -0.18347066623E+01  0.98451224443E+01  0.11290076904E+02  0.51100000000E-03 0.  1.
        -11    1    3    3    0    0  0.36820701955E+01  0.52465782942E+01  0.12856277058E+02  0.14365517212E+02  0.51100000000E-03 0. -1.
        -12    1    3    3    0    0 -0.11078665915E+02  0.89295337479E+01  0.16951041084E+02  0.22131678771E+02  0.00000000000E+00 0.  1.
</event>
<event>
 7    1  0.7470072E-010  0.4778727E+02  0.7816164E-02  0.1312668E+00
        -11   -1    0    0    0    0  0.00000000000E+00  0.00000000000E+00  0.45593999997E+02  0.45594000000E+02  0.51100000000E-03 0. -1.
         11   -1    0    0    0    0 -0.00000000000E+00 -0.00000000000E+00 -0.45593999997E+02  0.45594000000E+02  0.51100000000E-03 0.  1.
    9900012    2    1    2    0    0 -0.46488190925E+01  0.57741852702E+01 -0.42762957011E+02  0.47787271587E+02  0.20000002471E+02 0.  0.
         12    1    1    2    0    0  0.46488190925E+01 -0.57741852702E+01  0.42762957011E+02  0.43400728413E+02  0.00000000000E+00 0. -1.
         11    1    3    3    0    0 -0.80526541564E+00 -0.30822001836E+01 -0.17102178573E+02  0.17396347966E+02  0.51100000000E-03 0. -1.
        -11    1    3    3    0    0 -0.80871653163E+01  0.41822284751E+01 -0.10098162985E+02  0.13596550070E+02  0.51100000000E-03 0.  1.
        -12    1    3    3    0    0  0.42436116394E+01  0.46741569787E+01 -0.15562615453E+02  0.16794373550E+02  0.00000000000E+00 0.  1.
</event>
<event>
 7    1  0.7470072E-010  0.4778727E+02  0.7816164E-02  0.1312668E+00
        -11   -1    0    0    0    0  0.00000000000E+00  0.00000000000E+00  0.45593999997E+02  0.45594000000E+02  0.51100000000E-03 0. -1.
         11   -1    0    0    0    0 -0.00000000000E+00 -0.00000000000E+00 -0.45593999997E+02  0.45594000000E+02  0.51100000000E-03 0.  1.
    9900012    2    1    2    0    0  0.24335160703E+02 -0.14546541396E+02  0.32860634490E+02  0.47787271756E+02  0.20000003243E+02 0.  0.
        -12    1    1    2    0    0 -0.24335160703E+02  0.14546541396E+02 -0.32860634490E+02  0.43400728244E+02  0.00000000000E+00 0.  1.
         11    1    3    3    0    0  0.23469425166E+01 -0.71440399585E+01  0.19281389446E+02  0.20695831110E+02  0.51100000000E-03 0. -1.
        -11    1    3    3    0    0  0.16474351050E+02 -0.59704975535E+01  0.11791009279E+02  0.21120581991E+02  0.51100000000E-03 0.  1.
         12    1    3    3    0    0  0.55138671368E+01 -0.14320038837E+01  0.17882357657E+01  0.59708586551E+01  0.00000000000E+00 0. -1.
</event>
<event>
 7    1  0.7470072E-010  0.4778727E+02  0.7816164E-02  0.1312668E+00
        -11   -1    0    0    0    0  0.00000000000E+00  0.00000000000E+00  0.45593999997E+02  0.45594000000E+02  0.51100000000E-03 0. -1.
         11   -1    0    0    0    0 -0.00000000000E+00 -0.00000000000E+00 -0.45593999997E+02  0.45594000000E+02  0.51100000000E-03 0.  1.
    9900012    2    1    2    0    0  0.75993946903E+01  0.31729948565E+02  0.28619623624E+02  0.47787270836E+02  0.19999999050E+02 0.  0.
        -12    1    1    2    0    0 -0.75993946903E+01 -0.31729948565E+02 -0.28619623624E+02  0.43400729164E+02  0.00000000000E+00 0.  1.
         11    1    3    3    0    0 -0.91279337637E+00  0.18217132670E+02  0.21852602151E+02  0.28464597934E+02  0.51100000000E-03 0. -1.
        -11    1    3    3    0    0 -0.39170518881E+00  0.90027854762E+00  0.33760304618E+01  0.35158948162E+01  0.51100000000E-03 0.  1.
         12    1    3    3    0    0  0.89038932555E+01  0.12612537347E+02  0.33909910108E+01  0.15806778086E+02  0.00000000000E+00 0. -1.
</event>
<event>
 7    1  0.7470072E-010  0.4778726E+02  0.7816164E-02  0.1312668E+00
        -11   -1    0    0    0    0  0.00000000000E+00  0.00000000000E+00  0.45593999997E+02  0.45594000000E+02  0.51100000000E-03 0. -1.
         11   -1    0    0    0    0 -0.00000000000E+00 -0.00000000000E+00 -0.45593999997E+02  0.45594000000E+02  0.51100000000E-03 0.  1.
    9900012    2    1    2    0    0 -0.18482083900E+02 -0.58669131563E+01 -0.38828029133E+02  0.47787263352E+02  0.19999964925E+02 0.  0.
         12    1    1    2    0    0  0.18482083900E+02  0.58669131563E+01  0.38828029133E+02  0.43400736648E+02  0.00000000000E+00 0. -1.
         11    1    3    3    0    0 -0.67736787220E+01 -0.84602668196E+01 -0.86708649606E+01  0.13879579875E+02  0.51100000000E-03 0. -1.
        -11    1    3    3    0    0 -0.10693998272E+02  0.40888642462E+01 -0.16219032174E+02  0.19852894367E+02  0.51100000000E-03 0.  1.
         12    1    3    3    0    0 -0.10144069062E+01 -0.14955105829E+01 -0.13938131999E+02  0.14054789109E+02  0.00000000000E+00 0. -1.
</event>
<event>
 7    1  0.7470072E-010  0.4778728E+02  0.7816164E-02  0.1312668E+00
        -11   -1    0    0    0    0  0.00000000000E+00  0.00000000000E+00  0.45593999997E+02  0.45594000000E+02  0.51100000000E-03 0. -1.
         11   -1    0    0    0    0 -0.00000000000E+00 -0.00000000000E+00 -0.45593999997E+02  0.45594000000E+02  0.51100000000E-03 0.  1.
    9900012    2    1    2    0    0 -0.26039902301E+02  0.34355088247E+02  0.50273400527E+01  0.47787277099E+02  0.20000027606E+02 0.  0.
        -12    1    1    2    0    0  0.26039902301E+02 -0.34355088247E+02 -0.50273400527E+01  0.43400722901E+02  0.00000000000E+00 0.  1.
         11    1    3    3    0    0 -0.16822140561E+02  0.33137524248E+02  0.52674716289E+01  0.37534333403E+02  0.51100000000E-03 0. -1.
        -11    1    3    3    0    0 -0.46068939282E+01  0.29001300757E+00 -0.22536984621E+01  0.51368021404E+01  0.51100000000E-03 0.  1.
         12    1    3    3    0    0 -0.46108678117E+01  0.92755099088E+00  0.20135668858E+01  0.51161415561E+01  0.00000000000E+00 0. -1.
</event>
<event>
 7    1  0.7470072E-010  0.4778727E+02  0.7816164E-02  0.1312668E+00
        -11   -1    0    0    0    0  0.00000000000E+00  0.00000000000E+00  0.45593999997E+02  0.45594000000E+02  0.51100000000E-03 0. -1.
         11   -1    0    0    0    0 -0.00000000000E+00 -0.00000000000E+00 -0.45593999997E+02  0.45594000000E+02  0.51100000000E-03 0.  1.
    9900012    2    1    2    0    0  0.18929394516E+02 -0.23424751918E+02 -0.31250313692E+02  0.47787273220E+02  0.20000009921E+02 0.  0.
         12    1    1    2    0    0 -0.18929394516E+02  0.23424751918E+02  0.31250313692E+02  0.43400726780E+02  0.00000000000E+00 0. -1.
         11    1    3    3    0    0  0.17151357275E+02 -0.21492456052E+02 -0.27618788560E+02  0.38972967623E+02  0.51100000000E-03 0. -1.
        -11    1    3    3    0    0  0.37546726420E+01 -0.14527816187E+01 -0.49574898503E+01  0.63863015085E+01  0.51100000000E-03 0.  1.
         12    1    3    3    0    0 -0.19766354012E+01 -0.47951424721E+00  0.13259647184E+01  0.24280040892E+01  0.00000000000E+00 0. -1.
</event>
<event>
 7    1  0.7470072E-010  0.4778727E+02  0.7816164E-02  0.1312668E+00
        -11   -1    0    0    0    0  0.00000000000E+00  0.00000000000E+00  0.45593999997E+02  0.45594000000E+02  0.51100000000E-03 0. -1.
         11   -1    0    0    0    0 -0.00000000000E+00 -0.00000000000E+00 -0.45593999997E+02  0.45594000000E+02  0.51100000000E-03 0.  1.
    9900012    2    1    2    0    0  0.16761011739E+02 -0.25579365158E+02  0.30795904243E+02  0.47787272420E+02  0.20000006270E+02 0.  0.
        -12    1    1    2    0    0 -0.16761011739E+02  0.25579365158E+02 -0.30795904243E+02  0.43400727580E+02  0.00000000000E+00 0.  1.
         11    1    3    3    0    0  0.43700103265E+01 -0.15606306498E+02  0.16461571302E+02  0.23100587065E+02  0.51100000000E-03 0. -1.
        -11    1    3    3    0    0  0.61208410410E+01 -0.58831957682E+01 -0.28663586568E-01  0.84898474285E+01  0.51100000000E-03 0.  1.
        -12    1    3    3    0    0  0.62701603712E+01 -0.40898628913E+01  0.14362996528E+02  0.16196837926E+02  0.00000000000E+00 0.  1.
</event>
<event>
 7    1  0.7470072E-010  0.4778726E+02  0.7816164E-02  0.1312668E+00
        -11   -1    0    0    0    0  0.00000000000E+00  0.00000000000E+00  0.45593999997E+02  0.45594000000E+02  0.51100000000E-03 0.  1.
         11   -1    0    0    0    0 -0.00000000000E+00 -0.00000000000E+00 -0.45593999997E+02  0.45594000000E+02  0.51100000000E-03 0. -1.
    9900012    2    1    2    0    0  0.35275691398E+02  0.24322868997E+02 -0.69027302548E+01  0.47787262163E+02  0.19999959507E+02 0.  0.
        -12    1    1    2    0    0 -0.35275691398E+02 -0.24322868997E+02  0.69027302548E+01  0.43400737837E+02  0.00000000000E+00 0.  1.
         11    1    3    3    0    0  0.23629106867E+02  0.25095329467E+02 -0.85444032818E+01  0.35512210296E+02  0.51100000000E-03 0. -1.
        -11    1    3    3    0    0  0.56819840834E+01 -0.19339393340E+01  0.15445682701E+01  0.61976411540E+01  0.51100000000E-03 0.  1.
        -12    1    3    3    0    0  0.59646004471E+01  0.11614788635E+01  0.97104756905E-01  0.60774107132E+01  0.00000000000E+00 0.  1.
</event>
<event>
 7    1  0.7470072E-010  0.4778728E+02  0.7816164E-02  0.1312668E+00
        -11   -1    0    0    0    0  0.00000000000E+00  0.00000000000E+00  0.45593999997E+02  0.45594000000E+02  0.51100000000E-03 0.  1.
         11   -1    0    0    0    0 -0.00000000000E+00 -0.00000000000E+00 -0.45593999997E+02  0.45594000000E+02  0.51100000000E-03 0. -1.
    9900012    2    1    2    0    0  0.36481357463E+02 -0.33889154122E+01  0.23264748155E+02  0.47787277693E+02  0.20000030314E+02 0.  0.
        -12    1    1    2    0    0 -0.36481357463E+02  0.33889154122E+01 -0.23264748155E+02  0.43400722307E+02  0.00000000000E+00 0.  1.
         11    1    3    3    0    0 -0.10855312171E+01  0.13359077405E+01 -0.72854661586E+00  0.18691730650E+01  0.51100000000E-03 0. -1.
        -11    1    3    3    0    0  0.58259386591E+01 -0.10689772756E+01  0.86259036292E+01  0.10463770227E+02  0.51100000000E-03 0.  1.
         12    1    3    3    0    0  0.31740950022E+02 -0.36558458770E+01  0.15367391142E+02  0.35454334401E+02  0.00000000000E+00 0. -1.
</event>
<event>
 7    1  0.7470072E-010  0.4778727E+02  0.7816164E-02  0.1312668E+00
        -11   -1    0    0    0    0  0.00000000000E+00  0.00000000000E+00  0.45593999997E+02  0.45594000000E+02  0.51100000000E-03 0. -1.
         11   -1    0    0    0    0 -0.00000000000E+00 -0.00000000000E+00 -0.45593999997E+02  0.45594000000E+02  0.51100000000E-03 0.  1.
    9900012    2    1    2    0    0  0.25215024908E+02 -0.24176397800E+02 -0.25755147745E+02  0.47787270432E+02  0.19999997206E+02 0.  0.
         12    1    1    2    0    0 -0.25215024908E+02  0.24176397800E+02  0.25755147745E+02  0.43400729568E+02  0.00000000000E+00 0. -1.
         11    1    3    3    0    0  0.65315920859E+01  0.18061421281E+00 -0.77814790744E+00  0.65802607166E+01  0.51100000000E-03 0. -1.
        -11    1    3    3    0    0  0.15532731219E+02 -0.21388881835E+02 -0.25642197931E+02  0.36827602695E+02  0.51100000000E-03 0.  1.
        -12    1    3    3    0    0  0.31507016031E+01 -0.29681301779E+01  0.66519809318E+00  0.43794070201E+01  0.00000000000E+00 0.  1.
</event>
<event>
 7    1  0.7470072E-010  0.4778729E+02  0.7816164E-02  0.1312668E+00
        -11   -1    0    0    0    0  0.00000000000E+00  0.00000000000E+00  0.45593999997E+02  0.45594000000E+02  0.51100000000E-03 0. -1.
         11   -1    0    0    0    0 -0.00000000000E+00 -0.00000000000E+00 -0.45593999997E+02  0.45594000000E+02  0.51100000000E-03 0.  1.
    9900012    2    1    2    0    0  0.22189328748E+02 -0.37053854505E+02 -0.42740189864E+01  0.47787289381E+02  0.20000083605E+02 0.  0.
        -12    1    1    2    0    0 -0.22189328748E+02  0.37053854505E+02  0.42740189864E+01  0.43400710619E+02  0.00000000000E+00 0.  1.
         11    1    3    3    0    0  0.49109205564E+01 -0.90023228284E+01  0.58914326897E+01  0.11826577545E+02  0.51100000000E-03 0. -1.
        -11    1    3    3    0    0  0.12622811468E+02 -0.11348943404E+02 -0.68646708905E+01  0.18310040755E+02  0.51100000000E-03 0.  1.
        -12    1    3    3    0    0  0.46555967230E+01 -0.16702588272E+02 -0.33007807856E+01  0.17650671082E+02  0.00000000000E+00 0.  1.
</event>
<event>
 7    1  0.7470072E-010  0.4778728E+02  0.7816164E-02  0.1312668E+00
        -11   -1    0    0    0    0  0.00000000000E+00  0.00000000000E+00  0.45593999997E+02  0.45594000000E+02  0.51100000000E-03 0. -1.
         11   -1    0    0    0    0 -0.00000000000E+00 -0.00000000000E+00 -0.45593999997E+02  0.45594000000E+02  0.51100000000E-03 0.  1.
    9900012    2    1    2    0    0 -0.24144799971E+02  0.34369784439E+02  0.10925631556E+02  0.47787275664E+02  0.20000021060E+02 0.  0.
        -12    1    1    2    0    0  0.24144799971E+02 -0.34369784439E+02 -0.10925631556E+02  0.43400724336E+02  0.00000000000E+00 0.  1.
         11    1    3    3    0    0 -0.39447984514E+01  0.83348366125E+01  0.81669863851E+01  0.12317897672E+02  0.51100000000E-03 0. -1.
        -11    1    3    3    0    0 -0.17135187663E+02  0.25504515657E+02 -0.80831990480E+00  0.30736759043E+02  0.51100000000E-03 0.  1.
         12    1    3    3    0    0 -0.30648138571E+01  0.53043216972E+00  0.35669650756E+01  0.47326189489E+01  0.00000000000E+00 0. -1.
</event>
<event>
 7    1  0.7470072E-010  0.4778726E+02  0.7816164E-02  0.1312668E+00
        -11   -1    0    0    0    0  0.00000000000E+00  0.00000000000E+00  0.45593999997E+02  0.45594000000E+02  0.51100000000E-03 0. -1.
         11   -1    0    0    0    0 -0.00000000000E+00 -0.00000000000E+00 -0.45593999997E+02  0.45594000000E+02  0.51100000000E-03 0.  1.
    9900012    2    1    2    0    0 -0.16089616475E+01  0.92095516307E+01  0.42381827924E+02  0.47787263405E+02  0.19999965167E+02 0.  0.
        -12    1    1    2    0    0  0.16089616475E+01 -0.92095516307E+01 -0.42381827924E+02  0.43400736595E+02  0.00000000000E+00 0.  1.
         11    1    3    3    0    0 -0.50902447034E+01  0.45116044816E+01  0.19807102231E+02  0.20942456044E+02  0.51100000000E-03 0. -1.
        -11    1    3    3    0    0  0.27109199986E+01 -0.40091915770E+01  0.38641434598E+01  0.61930856024E+01  0.51100000000E-03 0.  1.
        -12    1    3    3    0    0  0.77036305732E+00  0.87071387261E+01  0.18710582234E+02  0.20651721758E+02  0.00000000000E+00 0.  1.
</event>
<event>
 7    1  0.7470072E-010  0.4778727E+02  0.7816164E-02  0.1312668E+00
        -11   -1    0    0    0    0  0.00000000000E+00  0.00000000000E+00  0.45593999997E+02  0.45594000000E+02  0.51100000000E-03 0. -1.
         11   -1    0    0    0    0 -0.00000000000E+00 -0.00000000000E+00 -0.45593999997E+02  0.45594000000E+02  0.51100000000E-03 0.  1.
    9900012    2    1    2    0    0  0.15085596630E+02 -0.85248592115E+01 -0.39791642042E+02  0.47787271588E+02  0.20000002480E+02 0.  0.
         12    1    1    2    0    0 -0.15085596630E+02  0.85248592115E+01  0.39791642042E+02  0.43400728412E+02  0.00000000000E+00 0. -1.
         11    1    3    3    0    0  0.82231030193E+01 -0.46828004126E+01 -0.86815115846E+01  0.12841989200E+02  0.51100000000E-03 0. -1.
        -11    1    3    3    0    0  0.89807663344E+01 -0.62242708193E+01 -0.15205879370E+02  0.18724702370E+02  0.51100000000E-03 0.  1.
         12    1    3    3    0    0 -0.21182727240E+01  0.23822120203E+01 -0.15904251088E+02  0.16220580018E+02  0.00000000000E+00 0. -1.
</event>
<event>
 7    1  0.7470072E-010  0.4778727E+02  0.7816164E-02  0.1312668E+00
        -11   -1    0    0    0    0  0.00000000000E+00  0.00000000000E+00  0.45593999997E+02  0.45594000000E+02  0.51100000000E-03 0. -1.
         11   -1    0    0    0    0 -0.00000000000E+00 -0.00000000000E+00 -0.45593999997E+02  0.45594000000E+02  0.51100000000E-03 0.  1.
    9900012    2    1    2    0    0  0.21263211792E+02  0.86513393189E+01  0.36832778541E+02  0.47787269329E+02  0.19999992178E+02 0.  0.
        -12    1    1    2    0    0 -0.21263211792E+02 -0.86513393189E+01 -0.36832778541E+02  0.43400730671E+02  0.00000000000E+00 0.  1.
         11    1    3    3    0    0  0.11341465842E+02  0.10651898302E+02  0.25522342212E+02  0.29891164867E+02  0.51100000000E-03 0. -1.
        -11    1    3    3    0    0  0.18460464023E+01  0.18482134733E+01  0.79024317656E+01  0.83229927570E+01  0.51100000000E-03 0.  1.
         12    1    3    3    0    0  0.80756995472E+01 -0.38487724561E+01  0.34080045637E+01  0.95731117042E+01  0.00000000000E+00 0. -1.
</event>
<event>
 7    1  0.7470072E-010  0.4778727E+02  0.7816164E-02  0.1312668E+00
        -11   -1    0    0    0    0  0.00000000000E+00  0.00000000000E+00  0.45593999997E+02  0.45594000000E+02  0.51100000000E-03 0. -1.
         11   -1    0    0    0    0 -0.00000000000E+00 -0.00000000000E+00 -0.45593999997E+02  0.45594000000E+02  0.51100000000E-03 0.  1.
    9900012    2    1    2    0    0  0.42090951014E+02  0.12929466411E+01 -0.10502567172E+02  0.47787265151E+02  0.19999973128E+02 0.  0.
         12    1    1    2    0    0 -0.42090951014E+02 -0.12929466411E+01  0.10502567172E+02  0.43400734849E+02  0.00000000000E+00 0. -1.
         11    1    3    3    0    0 -0.13789189121E+01  0.16004595649E+01 -0.20691745037E+01  0.29570883607E+01  0.51100000000E-03 0. -1.
        -11    1    3    3    0    0  0.33906363334E+02  0.22105613860E+01 -0.81231734960E+01  0.34935855565E+02  0.51100000000E-03 0.  1.
        -12    1    3    3    0    0  0.95635065921E+01 -0.25180743098E+01 -0.31021917198E+00  0.98943212249E+01  0.00000000000E+00 0.  1.
</event>
<event>
 7    1  0.8999968E-010  0.4778727E+02  0.7816164E-02  0.1312668E+00
        -11   -1    0    0    0    0  0.00000000000E+00  0.00000000000E+00  0.45593999997E+02  0.45594000000E+02  0.51100000000E-03 0. -1.
         11   -1    0    0    0    0 -0.00000000000E+00 -0.00000000000E+00 -0.45593999997E+02  0.45594000000E+02  0.51100000000E-03 0.  1.
    9900012    2    1    2    0    0 -0.20474272208E+02  0.28270124475E+02 -0.25792003439E+02  0.47787271876E+02  0.20000003794E+02 0.  0.
         12    1    1    2    0    0  0.20474272208E+02 -0.28270124475E+02  0.25792003439E+02  0.43400728124E+02  0.00000000000E+00 0. -1.
         11    1    3    3    0    0  0.12050627385E+01  0.70792891767E+01  0.35546969426E+00  0.71899144929E+01  0.51100000000E-03 0. -1.
        -11    1    3    3    0    0 -0.10227382435E+02  0.85692322343E+01 -0.15714205175E+02  0.20614735921E+02  0.51100000000E-03 0.  1.
         12    1    3    3    0    0 -0.11451952511E+02  0.12621603064E+02 -0.10433267958E+02  0.19982621462E+02  0.00000000000E+00 0. -1.
</event>
<event>
 7    1  0.7470072E-010  0.4778727E+02  0.7816164E-02  0.1312668E+00
        -11   -1    0    0    0    0  0.00000000000E+00  0.00000000000E+00  0.45593999997E+02  0.45594000000E+02  0.51100000000E-03 0. -1.
         11   -1    0    0    0    0 -0.00000000000E+00 -0.00000000000E+00 -0.45593999997E+02  0.45594000000E+02  0.51100000000E-03 0.  1.
    9900012    2    1    2    0    0 -0.38968592173E+02 -0.12118451099E+02 -0.14772098878E+02  0.47787274911E+02  0.20000017629E+02 0.  0.
         12    1    1    2    0    0  0.38968592173E+02  0.12118451099E+02  0.14772098878E+02  0.43400725089E+02  0.00000000000E+00 0. -1.
         11    1    3    3    0    0 -0.64467275949E+01 -0.36297793191E+01  0.54479376863E+00  0.74183822428E+01  0.51100000000E-03 0. -1.
        -11    1    3    3    0    0 -0.22848111099E+01 -0.54658610433E+01 -0.63530355858E+01  0.86866023374E+01  0.51100000000E-03 0.  1.
        -12    1    3    3    0    0 -0.30237053468E+02 -0.30228107371E+01 -0.89638570608E+01  0.31682290331E+02  0.00000000000E+00 0.  1.
</event>
<event>
 7    1  0.7470072E-010  0.4778727E+02  0.7816164E-02  0.1312668E+00
        -11   -1    0    0    0    0  0.00000000000E+00  0.00000000000E+00  0.45593999997E+02  0.45594000000E+02  0.51100000000E-03 0. -1.
         11   -1    0    0    0    0 -0.00000000000E+00 -0.00000000000E+00 -0.45593999997E+02  0.45594000000E+02  0.51100000000E-03 0.  1.
    9900012    2    1    2    0    0  0.19825455318E+02  0.55089518566E+01  0.38212902930E+02  0.47787272132E+02  0.20000004961E+02 0.  0.
        -12    1    1    2    0    0 -0.19825455318E+02 -0.55089518566E+01 -0.38212902930E+02  0.43400727868E+02  0.00000000000E+00 0.  1.
         11    1    3    3    0    0  0.57484731311E+01  0.32132904279E-02  0.16697050184E+02  0.17658891210E+02  0.51100000000E-03 0. -1.
        -11    1    3    3    0    0  0.87666991472E+01  0.84038104867E+01  0.61458724146E+01  0.13610686707E+02  0.51100000000E-03 0.  1.
        -12    1    3    3    0    0  0.53102830393E+01 -0.28980719205E+01  0.15369980331E+02  0.16517694216E+02  0.00000000000E+00 0.  1.
</event>
<event>
 7    1  0.7470072E-010  0.4778727E+02  0.7816164E-02  0.1312668E+00
        -11   -1    0    0    0    0  0.00000000000E+00  0.00000000000E+00  0.45593999997E+02  0.45594000000E+02  0.51100000000E-03 0. -1.
         11   -1    0    0    0    0 -0.00000000000E+00 -0.00000000000E+00 -0.45593999997E+02  0.45594000000E+02  0.51100000000E-03 0.  1.
    9900012    2    1    2    0    0 -0.24423280104E+02 -0.60345985191E+01  0.35365382444E+02  0.47787271139E+02  0.20000000429E+02 0.  0.
        -12    1    1    2    0    0  0.24423280104E+02  0.60345985191E+01 -0.35365382444E+02  0.43400728861E+02  0.00000000000E+00 0.  1.
         11    1    3    3    0    0 -0.72442026837E+01 -0.69342293089E+01  0.29675633195E+01  0.10457936744E+02  0.51100000000E-03 0. -1.
        -11    1    3    3    0    0 -0.24583268948E+01  0.23345164743E+01  0.93323792390E+01  0.99290805622E+01  0.51100000000E-03 0.  1.
         12    1    3    3    0    0 -0.14720750525E+02 -0.14348856844E+01  0.23065439885E+02  0.27400253832E+02  0.00000000000E+00 0. -1.
</event>
<event>
 7    1  0.7470072E-010  0.4778727E+02  0.7816164E-02  0.1312668E+00
        -11   -1    0    0    0    0  0.00000000000E+00  0.00000000000E+00  0.45593999997E+02  0.45594000000E+02  0.51100000000E-03 0. -1.
         11   -1    0    0    0    0 -0.00000000000E+00 -0.00000000000E+00 -0.45593999997E+02  0.45594000000E+02  0.51100000000E-03 0.  1.
    9900012    2    1    2    0    0 -0.35311120805E+02  0.36264432079E+01 -0.24971927473E+02  0.47787268387E+02  0.19999987885E+02 0.  0.
         12    1    1    2    0    0  0.35311120805E+02 -0.36264432079E+01  0.24971927473E+02  0.43400731613E+02  0.00000000000E+00 0. -1.
         11    1    3    3    0    0 -0.42488525935E+01  0.26733967514E+01  0.30615985294E+01  0.58798966290E+01  0.51100000000E-03 0. -1.
        -11    1    3    3    0    0 -0.22881179253E+02  0.11111614974E+01 -0.21772439687E+02  0.31604148052E+02  0.51100000000E-03 0.  1.
         12    1    3    3    0    0 -0.81810889579E+01 -0.15811504089E+00 -0.62610863149E+01  0.10303223706E+02  0.00000000000E+00 0. -1.
</event>
<event>
 7    1  0.7470072E-010  0.4778727E+02  0.7816164E-02  0.1312668E+00
        -11   -1    0    0    0    0  0.00000000000E+00  0.00000000000E+00  0.45593999997E+02  0.45594000000E+02  0.51100000000E-03 0.  1.
         11   -1    0    0    0    0 -0.00000000000E+00 -0.00000000000E+00 -0.45593999997E+02  0.45594000000E+02  0.51100000000E-03 0. -1.
    9900012    2    1    2    0    0  0.26894400968E+02  0.31839975144E+02  0.12104966742E+02  0.47787273733E+02  0.20000012261E+02 0.  0.
        -12    1    1    2    0    0 -0.26894400968E+02 -0.31839975144E+02 -0.12104966742E+02  0.43400726267E+02  0.00000000000E+00 0.  1.
         11    1    3    3    0    0  0.25132503072E+02  0.23057356779E+02  0.36615574873E+01  0.34302935965E+02  0.51100000000E-03 0. -1.
        -11    1    3    3    0    0  0.16208936015E+01  0.35374802176E+01  0.70546642292E+01  0.80566339128E+01  0.51100000000E-03 0.  1.
        -12    1    3    3    0    0  0.14100429446E+00  0.52451381481E+01  0.13887450251E+01  0.54277038560E+01  0.00000000000E+00 0.  1.
</event>
<event>
 7    1  0.7470072E-010  0.4778727E+02  0.7816164E-02  0.1312668E+00
        -11   -1    0    0    0    0  0.00000000000E+00  0.00000000000E+00  0.45593999997E+02  0.45594000000E+02  0.51100000000E-03 0. -1.
         11   -1    0    0    0    0 -0.00000000000E+00 -0.00000000000E+00 -0.45593999997E+02  0.45594000000E+02  0.51100000000E-03 0.  1.
    9900012    2    1    2    0    0  0.34249934319E+02  0.22139775604E+02 -0.14845726643E+02  0.47787271156E+02  0.20000000509E+02 0.  0.
         12    1    1    2    0    0 -0.34249934319E+02 -0.22139775604E+02  0.14845726643E+02  0.43400728844E+02  0.00000000000E+00 0. -1.
         11    1    3    3    0    0  0.33182377436E+01  0.51034521239E+01 -0.56259987356E+00  0.61133005965E+01  0.51100000000E-03 0. -1.
        -11    1    3    3    0    0  0.44323748067E+01  0.10500544244E+02 -0.13693202785E+01  0.11479652179E+02  0.51100000000E-03 0.  1.
        -12    1    3    3    0    0  0.26499321768E+02  0.65357792358E+01 -0.12913806491E+02  0.30194318381E+02  0.00000000000E+00 0.  1.
</event>
<event>
 7    1  0.7470072E-010  0.4778727E+02  0.7816164E-02  0.1312668E+00
        -11   -1    0    0    0    0  0.00000000000E+00  0.00000000000E+00  0.45593999997E+02  0.45594000000E+02  0.51100000000E-03 0. -1.
         11   -1    0    0    0    0 -0.00000000000E+00 -0.00000000000E+00 -0.45593999997E+02  0.45594000000E+02  0.51100000000E-03 0.  1.
    9900012    2    1    2    0    0 -0.18600391352E+01 -0.37187434817E+02 -0.22299290242E+02  0.47787269601E+02  0.19999993420E+02 0.  0.
         12    1    1    2    0    0  0.18600391352E+01  0.37187434817E+02  0.22299290242E+02  0.43400730399E+02  0.00000000000E+00 0. -1.
         11    1    3    3    0    0 -0.41732284888E+01 -0.15915169079E+02 -0.13245702462E+02  0.21122430655E+02  0.51100000000E-03 0. -1.
        -11    1    3    3    0    0 -0.29286404031E+01 -0.55668569928E+01 -0.78567594958E+01  0.10064566629E+02  0.51100000000E-03 0.  1.
         12    1    3    3    0    0  0.52418297567E+01 -0.15705408745E+02 -0.11968282845E+01  0.16600272317E+02  0.00000000000E+00 0. -1.
</event>
<event>
 7    1  0.7470072E-010  0.4778728E+02  0.7816164E-02  0.1312668E+00
        -11   -1    0    0    0    0  0.00000000000E+00  0.00000000000E+00  0.45593999997E+02  0.45594000000E+02  0.51100000000E-03 0. -1.
         11   -1    0    0    0    0 -0.00000000000E+00 -0.00000000000E+00 -0.45593999997E+02  0.45594000000E+02  0.51100000000E-03 0.  1.
    9900012    2    1    2    0    0  0.13911222665E+01 -0.33041244970E+02  0.28106290178E+02  0.47787278371E+02  0.20000033403E+02 0.  0.
        -12    1    1    2    0    0 -0.13911222665E+01  0.33041244970E+02 -0.28106290178E+02  0.43400721629E+02  0.00000000000E+00 0.  1.
         11    1    3    3    0    0 -0.43523269966E+01 -0.13788703206E+02  0.15425280728E+02  0.21142619804E+02  0.51100000000E-03 0. -1.
        -11    1    3    3    0    0  0.47989760487E+01 -0.81910693668E+00  0.37190206939E+01  0.61263547459E+01  0.51100000000E-03 0.  1.
         12    1    3    3    0    0  0.94447321438E+00 -0.18433434827E+02  0.89619887568E+01  0.20518303820E+02  0.00000000000E+00 0. -1.
</event>
<event>
 7    1  0.7470072E-010  0.4778727E+02  0.7816164E-02  0.1312668E+00
        -11   -1    0    0    0    0  0.00000000000E+00  0.00000000000E+00  0.45593999997E+02  0.45594000000E+02  0.51100000000E-03 0. -1.
         11   -1    0    0    0    0 -0.00000000000E+00 -0.00000000000E+00 -0.45593999997E+02  0.45594000000E+02  0.51100000000E-03 0.  1.
    9900012    2    1    2    0    0  0.52956550198E+01  0.71180002695E+01  0.42484273562E+02  0.47787269706E+02  0.19999993898E+02 0.  0.
        -12    1    1    2    0    0 -0.52956550198E+01 -0.71180002695E+01 -0.42484273562E+02  0.43400730294E+02  0.00000000000E+00 0.  1.
         11    1    3    3    0    0  0.10696605246E+02  0.75711399350E+01  0.33922482546E+02  0.36365840373E+02  0.51100000000E-03 0. -1.
        -11    1    3    3    0    0 -0.21592320186E+01 -0.24608157692E+01  0.20122961657E+01  0.38428158009E+01  0.51100000000E-03 0.  1.
         12    1    3    3    0    0 -0.32417182071E+01  0.20076761037E+01  0.65494948504E+01  0.75786135320E+01  0.00000000000E+00 0. -1.
</event>
<event>
 7    1  0.7470072E-010  0.4778727E+02  0.7816164E-02  0.1312668E+00
        -11   -1    0    0    0    0  0.00000000000E+00  0.00000000000E+00  0.45593999997E+02  0.45594000000E+02  0.51100000000E-03 0. -1.
         11   -1    0    0    0    0 -0.00000000000E+00 -0.00000000000E+00 -0.45593999997E+02  0.45594000000E+02  0.51100000000E-03 0.  1.
    9900012    2    1    2    0    0 -0.23628725373E+02 -0.19455013346E+02 -0.30770265346E+02  0.47787269170E+02  0.19999991456E+02 0.  0.
         12    1    1    2    0    0  0.23628725373E+02  0.19455013346E+02  0.30770265346E+02  0.43400730830E+02  0.00000000000E+00 0. -1.
         11    1    3    3    0    0 -0.86473605350E+01 -0.96249404554E+01 -0.22915996297E+02  0.26316519708E+02  0.51100000000E-03 0. -1.
        -11    1    3    3    0    0  0.11791575446E+01 -0.64424833723E+00 -0.16251364116E+00  0.13534693863E+01  0.51100000000E-03 0.  1.
         12    1    3    3    0    0 -0.16160522383E+02 -0.91858245538E+01 -0.76917554083E+01  0.20117280076E+02  0.00000000000E+00 0. -1.
</event>
<event>
 7    1  0.7470072E-010  0.4778727E+02  0.7816164E-02  0.1312668E+00
        -11   -1    0    0    0    0  0.00000000000E+00  0.00000000000E+00  0.45593999997E+02  0.45594000000E+02  0.51100000000E-03 0. -1.
         11   -1    0    0    0    0 -0.00000000000E+00 -0.00000000000E+00 -0.45593999997E+02  0.45594000000E+02  0.51100000000E-03 0.  1.
    9900012    2    1    2    0    0  0.29911655591E+02  0.20354384974E+02  0.23971138746E+02  0.47787267049E+02  0.19999981784E+02 0.  0.
        -12    1    1    2    0    0 -0.29911655591E+02 -0.20354384974E+02 -0.23971138746E+02  0.43400732951E+02  0.00000000000E+00 0.  1.
         11    1    3    3    0    0  0.53826905081E+01 -0.37423003549E+01  0.22885654610E+01  0.69437526729E+01  0.51100000000E-03 0. -1.
        -11    1    3    3    0    0  0.17961245032E+02  0.17804145520E+02  0.13816100202E+02  0.28818024670E+02  0.51100000000E-03 0.  1.
         12    1    3    3    0    0  0.65677200513E+01  0.62925398089E+01  0.78664730830E+01  0.12025489707E+02  0.00000000000E+00 0. -1.
</event>
<event>
 7    1  0.7470072E-010  0.4778728E+02  0.7816164E-02  0.1312668E+00
        -11   -1    0    0    0    0  0.00000000000E+00  0.00000000000E+00  0.45593999997E+02  0.45594000000E+02  0.51100000000E-03 0.  1.
         11   -1    0    0    0    0 -0.00000000000E+00 -0.00000000000E+00 -0.45593999997E+02  0.45594000000E+02  0.51100000000E-03 0. -1.
    9900012    2    1    2    0    0  0.11490241303E+02  0.37597524952E+02 -0.18385401003E+02  0.47787279986E+02  0.20000040766E+02 0.  0.
         12    1    1    2    0    0 -0.11490241303E+02 -0.37597524952E+02  0.18385401003E+02  0.43400720014E+02  0.00000000000E+00 0. -1.
         11    1    3    3    0    0 -0.21297800772E+01  0.95138760844E+00 -0.28012587390E+01  0.36452918049E+01  0.51100000000E-03 0. -1.
        -11    1    3    3    0    0  0.12817990094E+02  0.37106406308E+02 -0.16726101488E+02  0.42672575858E+02  0.51100000000E-03 0.  1.
        -12    1    3    3    0    0  0.80203128690E+00 -0.46026896436E+00  0.11419592238E+01  0.14694123225E+01  0.00000000000E+00 0.  1.
</event>
<event>
 7    1  0.7470072E-010  0.4778727E+02  0.7816164E-02  0.1312668E+00
        -11   -1    0    0    0    0  0.00000000000E+00  0.00000000000E+00  0.45593999997E+02  0.45594000000E+02  0.51100000000E-03 0. -1.
         11   -1    0    0    0    0 -0.00000000000E+00 -0.00000000000E+00 -0.45593999997E+02  0.45594000000E+02  0.51100000000E-03 0.  1.
    9900012    2    1    2    0    0 -0.75495767343E+01  0.25077089264E+02 -0.34608766266E+02  0.47787271696E+02  0.20000002972E+02 0.  0.
         12    1    1    2    0    0  0.75495767343E+01 -0.25077089264E+02  0.34608766266E+02  0.43400728304E+02  0.00000000000E+00 0. -1.
         11    1    3    3    0    0 -0.97954014306E+01  0.22149859678E+02 -0.27431693746E+02  0.36593223347E+02  0.51100000000E-03 0.  1.
        -11    1    3    3    0    0  0.25902914333E+00  0.53624680383E+01 -0.37789443877E+01  0.65653317133E+01  0.51100000000E-03 0. -1.
         12    1    3    3    0    0  0.19867955529E+01 -0.24352384518E+01 -0.33981281328E+01  0.46287166357E+01  0.00000000000E+00 0. -1.
</event>
<event>
 7    1  0.7470072E-010  0.4778727E+02  0.7816164E-02  0.1312668E+00
        -11   -1    0    0    0    0  0.00000000000E+00  0.00000000000E+00  0.45593999997E+02  0.45594000000E+02  0.51100000000E-03 0.  1.
         11   -1    0    0    0    0 -0.00000000000E+00 -0.00000000000E+00 -0.45593999997E+02  0.45594000000E+02  0.51100000000E-03 0. -1.
    9900012    2    1    2    0    0 -0.15288071348E+02 -0.35826679411E+02  0.19140195880E+02  0.47787272109E+02  0.20000004852E+02 0.  0.
        -12    1    1    2    0    0  0.15288071348E+02  0.35826679411E+02 -0.19140195880E+02  0.43400727891E+02  0.00000000000E+00 0.  1.
         11    1    3    3    0    0  0.97789184011E+00 -0.20315991589E+02  0.10070785870E+02  0.22696178422E+02  0.51100000000E-03 0. -1.
        -11    1    3    3    0    0 -0.58840381894E+01 -0.41921480702E+01  0.60832122653E+01  0.94446536507E+01  0.51100000000E-03 0.  1.
         12    1    3    3    0    0 -0.10381924999E+02 -0.11318539752E+02  0.29861977445E+01  0.15646440035E+02  0.00000000000E+00 0. -1.
</event>
<event>
 7    1  0.7838815E-010  0.4778727E+02  0.7816164E-02  0.1312668E+00
        -11   -1    0    0    0    0  0.00000000000E+00  0.00000000000E+00  0.45593999997E+02  0.45594000000E+02  0.51100000000E-03 0. -1.
         11   -1    0    0    0    0 -0.00000000000E+00 -0.00000000000E+00 -0.45593999997E+02  0.45594000000E+02  0.51100000000E-03 0.  1.
    9900012    2    1    2    0    0  0.11006202784E+02 -0.16967316582E+02 -0.38400480959E+02  0.47787271093E+02  0.20000000223E+02 0.  0.
         12    1    1    2    0    0 -0.11006202784E+02  0.16967316582E+02  0.38400480959E+02  0.43400728907E+02  0.00000000000E+00 0. -1.
         11    1    3    3    0    0  0.68744506129E+01 -0.56702193999E+01 -0.31965285124E+01  0.94671671615E+01  0.51100000000E-03 0. -1.
        -11    1    3    3    0    0 -0.17620833279E+01 -0.61071180284E+01 -0.22537486100E+02  0.23416663047E+02  0.51100000000E-03 0.  1.
        -12    1    3    3    0    0  0.58938354989E+01 -0.51899791541E+01 -0.12666466346E+02  0.14903440885E+02  0.00000000000E+00 0.  1.
</event>
<event>
 7    1  0.7470072E-010  0.4778726E+02  0.7816164E-02  0.1312668E+00
        -11   -1    0    0    0    0  0.00000000000E+00  0.00000000000E+00  0.45593999997E+02  0.45594000000E+02  0.51100000000E-03 0. -1.
         11   -1    0    0    0    0 -0.00000000000E+00 -0.00000000000E+00 -0.45593999997E+02  0.45594000000E+02  0.51100000000E-03 0.  1.
    9900012    2    1    2    0    0 -0.25029281564E+02 -0.25737472273E+02  0.24387324214E+02  0.47787262714E+02  0.19999962020E+02 0.  0.
        -12    1    1    2    0    0  0.25029281564E+02  0.25737472273E+02 -0.24387324214E+02  0.43400737286E+02  0.00000000000E+00 0.  1.
         11    1    3    3    0    0 -0.20988932799E+01 -0.93878847224E+00 -0.21150882456E+01  0.31241439377E+01  0.51100000000E-03 0. -1.
        -11    1    3    3    0    0 -0.18148414061E+01 -0.47213619579E+01 -0.30882047154E+00  0.50675712538E+01  0.51100000000E-03 0.  1.
         12    1    3    3    0    0 -0.21115546878E+02 -0.20077321843E+02  0.26811232931E+02  0.39595547523E+02  0.00000000000E+00 0. -1.
</event>
<event>
 7    1  0.7470072E-010  0.4778728E+02  0.7816164E-02  0.1312668E+00
        -11   -1    0    0    0    0  0.00000000000E+00  0.00000000000E+00  0.45593999997E+02  0.45594000000E+02  0.51100000000E-03 0. -1.
         11   -1    0    0    0    0 -0.00000000000E+00 -0.00000000000E+00 -0.45593999997E+02  0.45594000000E+02  0.51100000000E-03 0.  1.
    9900012    2    1    2    0    0  0.11908558373E+02 -0.13995092511E+02  0.39318526107E+02  0.47787275673E+02  0.20000021101E+02 0.  0.
        -12    1    1    2    0    0 -0.11908558373E+02  0.13995092511E+02 -0.39318526107E+02  0.43400724327E+02  0.00000000000E+00 0.  1.
         11    1    3    3    0    0  0.67983538260E+01 -0.16884393680E+02  0.27203238965E+02  0.32730972719E+02  0.51100000000E-03 0. -1.
        -11    1    3    3    0    0 -0.42557043985E+00  0.22396888723E+01  0.74396533631E+01  0.77811155285E+01  0.51100000000E-03 0.  1.
         12    1    3    3    0    0  0.55357749868E+01  0.64961229573E+00  0.46756337788E+01  0.72751874252E+01  0.00000000000E+00 0. -1.
</event>
<event>
 7    1  0.7470072E-010  0.4778727E+02  0.7816164E-02  0.1312668E+00
        -11   -1    0    0    0    0  0.00000000000E+00  0.00000000000E+00  0.45593999997E+02  0.45594000000E+02  0.51100000000E-03 0. -1.
         11   -1    0    0    0    0 -0.00000000000E+00 -0.00000000000E+00 -0.45593999997E+02  0.45594000000E+02  0.51100000000E-03 0.  1.
    9900012    2    1    2    0    0 -0.27978061465E+02  0.13112866628E+02 -0.30477934309E+02  0.47787266432E+02  0.19999978968E+02 0.  0.
         12    1    1    2    0    0  0.27978061465E+02 -0.13112866628E+02  0.30477934309E+02  0.43400733568E+02  0.00000000000E+00 0. -1.
         11    1    3    3    0    0 -0.73917914213E+01 -0.21803927844E+01 -0.62058730334E+01  0.98947235170E+01  0.51100000000E-03 0. -1.
        -11    1    3    3    0    0 -0.17856300957E+02  0.17707033365E+02 -0.19160559348E+02  0.31615084204E+02  0.51100000000E-03 0.  1.
        -12    1    3    3    0    0 -0.27299690870E+01 -0.24137739525E+01 -0.51115019275E+01  0.62774587108E+01  0.00000000000E+00 0.  1.
</event>
<event>
 7    1  0.7470072E-010  0.4778727E+02  0.7816164E-02  0.1312668E+00
        -11   -1    0    0    0    0  0.00000000000E+00  0.00000000000E+00  0.45593999997E+02  0.45594000000E+02  0.51100000000E-03 0. -1.
         11   -1    0    0    0    0 -0.00000000000E+00 -0.00000000000E+00 -0.45593999997E+02  0.45594000000E+02  0.51100000000E-03 0.  1.
    9900012    2    1    2    0    0 -0.11600588737E+01  0.14423552236E+02 -0.40917463067E+02  0.47787269827E+02  0.19999994449E+02 0.  0.
         12    1    1    2    0    0  0.11600588737E+01 -0.14423552236E+02  0.40917463067E+02  0.43400730173E+02  0.00000000000E+00 0. -1.
         11    1    3    3    0    0 -0.14463706780E+01 -0.49901467692E+01 -0.93015828626E+01  0.10654247835E+02  0.51100000000E-03 0. -1.
        -11    1    3    3    0    0 -0.19892412484E+00  0.15852649890E+02 -0.26514159607E+02  0.30892502962E+02  0.51100000000E-03 0.  1.
         12    1    3    3    0    0  0.48523592916E+00  0.35610491146E+01 -0.51017205980E+01  0.62405190300E+01  0.00000000000E+00 0. -1.
</event>
<event>
 7    1  0.7470072E-010  0.4778727E+02  0.7816164E-02  0.1312668E+00
        -11   -1    0    0    0    0  0.00000000000E+00  0.00000000000E+00  0.45593999997E+02  0.45594000000E+02  0.51100000000E-03 0. -1.
         11   -1    0    0    0    0 -0.00000000000E+00 -0.00000000000E+00 -0.45593999997E+02  0.45594000000E+02  0.51100000000E-03 0.  1.
    9900012    2    1    2    0    0  0.27134041407E+01 -0.10235921857E+02  0.42089029641E+02  0.47787273342E+02  0.20000010478E+02 0.  0.
        -12    1    1    2    0    0 -0.27134041407E+01  0.10235921857E+02 -0.42089029641E+02  0.43400726658E+02  0.00000000000E+00 0.  1.
         11    1    3    3    0    0 -0.11628193982E+01 -0.48692809487E+01  0.22106263056E+02  0.22666029923E+02  0.51100000000E-03 0. -1.
        -11    1    3    3    0    0  0.26460566625E+01 -0.76165126589E+01  0.41239909360E+01  0.90564994588E+01  0.51100000000E-03 0.  1.
         12    1    3    3    0    0  0.12301668764E+01  0.22498717511E+01  0.15858775649E+02  0.16064743960E+02  0.00000000000E+00 0. -1.
</event>
<event>
 7    1  0.7470072E-010  0.4778727E+02  0.7816164E-02  0.1312668E+00
        -11   -1    0    0    0    0  0.00000000000E+00  0.00000000000E+00  0.45593999997E+02  0.45594000000E+02  0.51100000000E-03 0. -1.
         11   -1    0    0    0    0 -0.00000000000E+00 -0.00000000000E+00 -0.45593999997E+02  0.45594000000E+02  0.51100000000E-03 0.  1.
    9900012    2    1    2    0    0  0.75804910502E+01  0.12528115955E+02  0.40855915134E+02  0.47787270336E+02  0.19999996769E+02 0.  0.
        -12    1    1    2    0    0 -0.75804910502E+01 -0.12528115955E+02 -0.40855915134E+02  0.43400729664E+02  0.00000000000E+00 0.  1.
         11    1    3    3    0    0  0.68831219851E+01 -0.21445917823E+00  0.13583497487E+02  0.15229404625E+02  0.51100000000E-03 0. -1.
        -11    1    3    3    0    0  0.52081938322E+00  0.15247916205E+02  0.22943335891E+02  0.27552982842E+02  0.51100000000E-03 0.  1.
        -12    1    3    3    0    0  0.17654968192E+00 -0.25053410719E+01  0.43290817560E+01  0.50048828684E+01  0.00000000000E+00 0.  1.
</event>
<event>
 7    1  0.7470072E-010  0.4778727E+02  0.7816164E-02  0.1312668E+00
        -11   -1    0    0    0    0  0.00000000000E+00  0.00000000000E+00  0.45593999997E+02  0.45594000000E+02  0.51100000000E-03 0. -1.
         11   -1    0    0    0    0 -0.00000000000E+00 -0.00000000000E+00 -0.45593999997E+02  0.45594000000E+02  0.51100000000E-03 0.  1.
    9900012    2    1    2    0    0  0.27648120680E+02  0.19954408230E+02 -0.26851932818E+02  0.47787270962E+02  0.19999999623E+02 0.  0.
         12    1    1    2    0    0 -0.27648120680E+02 -0.19954408230E+02  0.26851932818E+02  0.43400729038E+02  0.00000000000E+00 0. -1.
         11    1    3    3    0    0  0.10565348891E+02  0.96484685538E+01 -0.15820500500E+02  0.21330911348E+02  0.51100000000E-03 0. -1.
        -11    1    3    3    0    0  0.21231885003E+01  0.14535216646E+01  0.31182536336E+01  0.40427911920E+01  0.51100000000E-03 0.  1.
        -12    1    3    3    0    0  0.14959583289E+02  0.88524180121E+01 -0.14149685952E+02  0.22413568422E+02  0.00000000000E+00 0.  1.
</event>
<event>
 7    1  0.7470072E-010  0.4778727E+02  0.7816164E-02  0.1312668E+00
        -11   -1    0    0    0    0  0.00000000000E+00  0.00000000000E+00  0.45593999997E+02  0.45594000000E+02  0.51100000000E-03 0. -1.
         11   -1    0    0    0    0 -0.00000000000E+00 -0.00000000000E+00 -0.45593999997E+02  0.45594000000E+02  0.51100000000E-03 0.  1.
    9900012    2    1    2    0    0 -0.81631651131E+01 -0.36031222985E+02 -0.22775802452E+02  0.47787268764E+02  0.19999989603E+02 0.  0.
         12    1    1    2    0    0  0.81631651131E+01  0.36031222985E+02  0.22775802452E+02  0.43400731236E+02  0.00000000000E+00 0. -1.
         11    1    3    3    0    0 -0.89277105219E+01 -0.15258138425E+02 -0.27810869970E+01  0.17895509171E+02  0.51100000000E-03 0. -1.
        -11    1    3    3    0    0 -0.13759203019E+01 -0.19516972800E+02 -0.16434449265E+02  0.25551839599E+02  0.51100000000E-03 0.  1.
         12    1    3    3    0    0  0.21404657107E+01 -0.12561117604E+01 -0.35602661900E+01  0.43399199943E+01  0.00000000000E+00 0. -1.
</event>
<event>
 7    1  0.7470072E-010  0.4778728E+02  0.7816164E-02  0.1312668E+00
        -11   -1    0    0    0    0  0.00000000000E+00  0.00000000000E+00  0.45593999997E+02  0.45594000000E+02  0.51100000000E-03 0. -1.
         11   -1    0    0    0    0 -0.00000000000E+00 -0.00000000000E+00 -0.45593999997E+02  0.45594000000E+02  0.51100000000E-03 0.  1.
    9900012    2    1    2    0    0  0.23984960167E+02 -0.27912429472E+01 -0.36063188318E+02  0.47787275316E+02  0.20000019477E+02 0.  0.
         12    1    1    2    0    0 -0.23984960167E+02  0.27912429472E+01  0.36063188318E+02  0.43400724684E+02  0.00000000000E+00 0. -1.
         11    1    3    3    0    0  0.77580313069E+01 -0.34619342096E+01 -0.12995781777E+02  0.15526183771E+02  0.51100000000E-03 0. -1.
        -11    1    3    3    0    0  0.28912587919E+01 -0.66735851673E+01 -0.64096241632E+01  0.96942972185E+01  0.51100000000E-03 0.  1.
        -12    1    3    3    0    0  0.13335670068E+02  0.73442764297E+01 -0.16657782378E+02  0.22566794327E+02  0.00000000000E+00 0.  1.
</event>
<event>
 7    1  0.7470072E-010  0.4778727E+02  0.7816164E-02  0.1312668E+00
        -11   -1    0    0    0    0  0.00000000000E+00  0.00000000000E+00  0.45593999997E+02  0.45594000000E+02  0.51100000000E-03 0. -1.
         11   -1    0    0    0    0 -0.00000000000E+00 -0.00000000000E+00 -0.45593999997E+02  0.45594000000E+02  0.51100000000E-03 0.  1.
    9900012    2    1    2    0    0  0.19027451908E+02  0.17078611045E+00 -0.39007053793E+02  0.47787270287E+02  0.19999996546E+02 0.  0.
         12    1    1    2    0    0 -0.19027451908E+02 -0.17078611045E+00  0.39007053793E+02  0.43400729713E+02  0.00000000000E+00 0. -1.
         11    1    3    3    0    0 -0.39069150095E+01  0.21243229448E+01 -0.49131376940E+01  0.66268887969E+01  0.51100000000E-03 0. -1.
        -11    1    3    3    0    0  0.13615017407E+02 -0.18109715918E+01 -0.19887863246E+02  0.24169721178E+02  0.51100000000E-03 0.  1.
         12    1    3    3    0    0  0.93193495108E+01 -0.14256524248E+00 -0.14206052853E+02  0.16990660312E+02  0.00000000000E+00 0. -1.
</event>
<event>
 7    1  0.7470072E-010  0.4778727E+02  0.7816164E-02  0.1312668E+00
        -11   -1    0    0    0    0  0.00000000000E+00  0.00000000000E+00  0.45593999997E+02  0.45594000000E+02  0.51100000000E-03 0. -1.
         11   -1    0    0    0    0 -0.00000000000E+00 -0.00000000000E+00 -0.45593999997E+02  0.45594000000E+02  0.51100000000E-03 0.  1.
    9900012    2    1    2    0    0  0.40603844268E+00  0.42371716576E+02  0.93859601761E+01  0.47787268655E+02  0.19999989108E+02 0.  0.
        -12    1    1    2    0    0 -0.40603844268E+00 -0.42371716576E+02 -0.93859601761E+01  0.43400731345E+02  0.00000000000E+00 0.  1.
         11    1    3    3    0    0 -0.28755874432E+01  0.37010839293E+02  0.11374425063E+02  0.38825877635E+02  0.51100000000E-03 0. -1.
        -11    1    3    3    0    0 -0.95546643599E+00  0.28254495433E+01 -0.26370618681E+01  0.39812280504E+01  0.51100000000E-03 0.  1.
         12    1    3    3    0    0  0.42370923219E+01  0.25354277391E+01  0.64859698119E+00  0.49801629701E+01  0.00000000000E+00 0. -1.
</event>
<event>
 7    1  0.7470072E-010  0.4778727E+02  0.7816164E-02  0.1312668E+00
        -11   -1    0    0    0    0  0.00000000000E+00  0.00000000000E+00  0.45593999997E+02  0.45594000000E+02  0.51100000000E-03 0. -1.
         11   -1    0    0    0    0 -0.00000000000E+00 -0.00000000000E+00 -0.45593999997E+02  0.45594000000E+02  0.51100000000E-03 0.  1.
    9900012    2    1    2    0    0 -0.16994207336E+02 -0.18625054934E+02 -0.35326015286E+02  0.47787272930E+02  0.20000008595E+02 0.  0.
         12    1    1    2    0    0  0.16994207336E+02  0.18625054934E+02  0.35326015286E+02  0.43400727070E+02  0.00000000000E+00 0. -1.
         11    1    3    3    0    0 -0.36375091509E+01 -0.13570719661E+02 -0.77359006727E+01  0.16038705197E+02  0.51100000000E-03 0.  1.
        -11    1    3    3    0    0 -0.74149946396E+01 -0.74260743453E-02 -0.17434124288E+02  0.18945471506E+02  0.51100000000E-03 0. -1.
        -12    1    3    3    0    0 -0.59417035459E+01 -0.50469091991E+01 -0.10155990325E+02  0.12803096226E+02  0.00000000000E+00 0.  1.
</event>
<event>
 7    1  0.7470072E-010  0.4778727E+02  0.7816164E-02  0.1312668E+00
        -11   -1    0    0    0    0  0.00000000000E+00  0.00000000000E+00  0.45593999997E+02  0.45594000000E+02  0.51100000000E-03 0.  1.
         11   -1    0    0    0    0 -0.00000000000E+00 -0.00000000000E+00 -0.45593999997E+02  0.45594000000E+02  0.51100000000E-03 0. -1.
    9900012    2    1    2    0    0 -0.39231929779E+02  0.18330450861E+02  0.29109531095E+01  0.47787269696E+02  0.19999993851E+02 0.  0.
        -12    1    1    2    0    0  0.39231929779E+02 -0.18330450861E+02 -0.29109531095E+01  0.43400730304E+02  0.00000000000E+00 0.  1.
         11    1    3    3    0    0 -0.22005814199E+02  0.26870604070E+00  0.84544487999E+00  0.22023688129E+02  0.51100000000E-03 0. -1.
        -11    1    3    3    0    0 -0.15628821278E+02  0.15571201764E+02  0.37206950638E+01  0.22373331243E+02  0.51100000000E-03 0.  1.
         12    1    3    3    0    0 -0.15972943024E+01  0.24905430556E+01 -0.16551868343E+01  0.33902503236E+01  0.00000000000E+00 0. -1.
</event>
<event>
 7    1  0.7470072E-010  0.4778726E+02  0.7816164E-02  0.1312668E+00
        -11   -1    0    0    0    0  0.00000000000E+00  0.00000000000E+00  0.45593999997E+02  0.45594000000E+02  0.51100000000E-03 0.  1.
         11   -1    0    0    0    0 -0.00000000000E+00 -0.00000000000E+00 -0.45593999997E+02  0.45594000000E+02  0.51100000000E-03 0. -1.
    9900012    2    1    2    0    0 -0.37796877508E+02 -0.19585848301E+02 -0.84507190810E+01  0.47787262033E+02  0.19999958915E+02 0.  0.
         12    1    1    2    0    0  0.37796877508E+02  0.19585848301E+02  0.84507190810E+01  0.43400737967E+02  0.00000000000E+00 0. -1.
         11    1    3    3    0    0 -0.24174440522E+02 -0.18673110382E+02  0.44731407861E+00  0.30549774402E+02  0.51100000000E-03 0. -1.
        -11    1    3    3    0    0 -0.11743015784E+02 -0.27816733505E+01 -0.77954161353E+01  0.14366789457E+02  0.51100000000E-03 0.  1.
         12    1    3    3    0    0 -0.18794212027E+01  0.18689354314E+01 -0.11026170243E+01  0.28706981740E+01  0.00000000000E+00 0. -1.
</event>
<event>
 7    1  0.7470072E-010  0.4778727E+02  0.7816164E-02  0.1312668E+00
        -11   -1    0    0    0    0  0.00000000000E+00  0.00000000000E+00  0.45593999997E+02  0.45594000000E+02  0.51100000000E-03 0. -1.
         11   -1    0    0    0    0 -0.00000000000E+00 -0.00000000000E+00 -0.45593999997E+02  0.45594000000E+02  0.51100000000E-03 0.  1.
    9900012    2    1    2    0    0  0.19455776197E+02  0.29046349916E+01  0.38686680099E+02  0.47787270180E+02  0.19999996057E+02 0.  0.
        -12    1    1    2    0    0 -0.19455776197E+02 -0.29046349916E+01 -0.38686680099E+02  0.43400729820E+02  0.00000000000E+00 0.  1.
         11    1    3    3    0    0  0.61379742853E+01 -0.85803338735E+00  0.28066722218E+02  0.28742857303E+02  0.51100000000E-03 0. -1.
        -11    1    3    3    0    0  0.89230235075E+01 -0.13854130288E+01  0.63986611694E+01  0.11067184954E+02  0.51100000000E-03 0.  1.
         12    1    3    3    0    0  0.43947784045E+01  0.51480814077E+01  0.42212967111E+01  0.79772279226E+01  0.00000000000E+00 0. -1.
</event>
<event>
 7    1  0.7470072E-010  0.4778727E+02  0.7816164E-02  0.1312668E+00
        -11   -1    0    0    0    0  0.00000000000E+00  0.00000000000E+00  0.45593999997E+02  0.45594000000E+02  0.51100000000E-03 0. -1.
         11   -1    0    0    0    0 -0.00000000000E+00 -0.00000000000E+00 -0.45593999997E+02  0.45594000000E+02  0.51100000000E-03 0.  1.
    9900012    2    1    2    0    0  0.11378626071E+02  0.31177854327E+02 -0.27965902735E+02  0.47787269045E+02  0.19999990883E+02 0.  0.
         12    1    1    2    0    0 -0.11378626071E+02 -0.31177854327E+02  0.27965902735E+02  0.43400730955E+02  0.00000000000E+00 0. -1.
         11    1    3    3    0    0 -0.12344033314E+01  0.10317021217E+02 -0.15940111755E+02  0.19027659903E+02  0.51100000000E-03 0. -1.
        -11    1    3    3    0    0  0.12135160704E+02  0.20116946720E+02 -0.82787430700E+01  0.24909661935E+02  0.51100000000E-03 0.  1.
        -12    1    3    3    0    0  0.47786869901E+00  0.74388638953E+00 -0.37470479097E+01  0.38499472063E+01  0.00000000000E+00 0.  1.
</event>
<event>
 7    1  0.7470072E-010  0.4778728E+02  0.7816164E-02  0.1312668E+00
        -11   -1    0    0    0    0  0.00000000000E+00  0.00000000000E+00  0.45593999997E+02  0.45594000000E+02  0.51100000000E-03 0.  1.
         11   -1    0    0    0    0 -0.00000000000E+00 -0.00000000000E+00 -0.45593999997E+02  0.45594000000E+02  0.51100000000E-03 0. -1.
    9900012    2    1    2    0    0  0.33665526182E+02  0.12370585850E+02  0.24438158539E+02  0.47787278345E+02  0.20000033286E+02 0.  0.
        -12    1    1    2    0    0 -0.33665526182E+02 -0.12370585850E+02 -0.24438158539E+02  0.43400721655E+02  0.00000000000E+00 0.  1.
         11    1    3    3    0    0  0.67313678817E+01  0.79987730653E+01  0.13539239437E+01  0.10541574570E+02  0.51100000000E-03 0. -1.
        -11    1    3    3    0    0  0.43884163414E+01 -0.92523136838E+00  0.92211274859E+01  0.10253947700E+02  0.51100000000E-03 0.  1.
        -12    1    3    3    0    0  0.22545741959E+02  0.52970441527E+01  0.13863107109E+02  0.26991756074E+02  0.00000000000E+00 0.  1.
</event>
<event>
 7    1  0.7470072E-010  0.4778727E+02  0.7816164E-02  0.1312668E+00
        -11   -1    0    0    0    0  0.00000000000E+00  0.00000000000E+00  0.45593999997E+02  0.45594000000E+02  0.51100000000E-03 0. -1.
         11   -1    0    0    0    0 -0.00000000000E+00 -0.00000000000E+00 -0.45593999997E+02  0.45594000000E+02  0.51100000000E-03 0.  1.
    9900012    2    1    2    0    0  0.10224468363E+02  0.11607269841E+02 -0.40550649728E+02  0.47787266598E+02  0.19999979726E+02 0.  0.
         12    1    1    2    0    0 -0.10224468363E+02 -0.11607269841E+02  0.40550649728E+02  0.43400733402E+02  0.00000000000E+00 0. -1.
         11    1    3    3    0    0  0.81766636306E+01  0.72804650664E+01 -0.95422314615E+01  0.14522988027E+02  0.51100000000E-03 0. -1.
        -11    1    3    3    0    0 -0.23751082008E+01  0.92250778421E-01 -0.23294799603E+02  0.23415749784E+02  0.51100000000E-03 0.  1.
        -12    1    3    3    0    0  0.44229129332E+01  0.42345539964E+01 -0.77136186639E+01  0.98485287863E+01  0.00000000000E+00 0.  1.
</event>
<event>
 7    1  0.7470072E-010  0.4778727E+02  0.7816164E-02  0.1312668E+00
        -11   -1    0    0    0    0  0.00000000000E+00  0.00000000000E+00  0.45593999997E+02  0.45594000000E+02  0.51100000000E-03 0. -1.
         11   -1    0    0    0    0 -0.00000000000E+00 -0.00000000000E+00 -0.45593999997E+02  0.45594000000E+02  0.51100000000E-03 0.  1.
    9900012    2    1    2    0    0 -0.70644344316E+01 -0.31643740790E+02  0.28851190766E+02  0.47787265287E+02  0.19999973751E+02 0.  0.
        -12    1    1    2    0    0  0.70644344316E+01  0.31643740790E+02 -0.28851190766E+02  0.43400734713E+02  0.00000000000E+00 0.  1.
         11    1    3    3    0    0 -0.29211869699E+01  0.15954577835E+01  0.10170338321E+01  0.34803989612E+01  0.51100000000E-03 0.  1.
        -11    1    3    3    0    0 -0.44921664642E+01 -0.77793642005E+01  0.80413986538E+01  0.12056623054E+02  0.51100000000E-03 0. -1.
         12    1    3    3    0    0  0.34891900248E+00 -0.25459834373E+02  0.19792758280E+02  0.32250243272E+02  0.00000000000E+00 0. -1.
</event>
<event>
 7    1  0.7470072E-010  0.4778727E+02  0.7816164E-02  0.1312668E+00
        -11   -1    0    0    0    0  0.00000000000E+00  0.00000000000E+00  0.45593999997E+02  0.45594000000E+02  0.51100000000E-03 0. -1.
         11   -1    0    0    0    0 -0.00000000000E+00 -0.00000000000E+00 -0.45593999997E+02  0.45594000000E+02  0.51100000000E-03 0.  1.
    9900012    2    1    2    0    0  0.20663951710E+02 -0.22812614056E+02 -0.30597541180E+02  0.47787265138E+02  0.19999973069E+02 0.  0.
         12    1    1    2    0    0 -0.20663951710E+02  0.22812614056E+02  0.30597541180E+02  0.43400734862E+02  0.00000000000E+00 0. -1.
         11    1    3    3    0    0  0.12217901989E+02 -0.45000338369E+01 -0.18890735681E+02  0.22943132488E+02  0.51100000000E-03 0. -1.
        -11    1    3    3    0    0  0.88025254433E+01 -0.19090392752E+02 -0.10955573992E+02  0.23705529974E+02  0.51100000000E-03 0.  1.
        -12    1    3    3    0    0 -0.35647572252E+00  0.77781253240E+00 -0.75123150669E+00  0.11386026756E+01  0.00000000000E+00 0.  1.
</event>
<event>
 7    1  0.7470072E-010  0.4778726E+02  0.7816164E-02  0.1312668E+00
        -11   -1    0    0    0    0  0.00000000000E+00  0.00000000000E+00  0.45593999997E+02  0.45594000000E+02  0.51100000000E-03 0. -1.
         11   -1    0    0    0    0 -0.00000000000E+00 -0.00000000000E+00 -0.45593999997E+02  0.45594000000E+02  0.51100000000E-03 0.  1.
    9900012    2    1    2    0    0  0.11087219028E+02 -0.51321769807E+01 -0.41645630091E+02  0.47787260697E+02  0.19999952821E+02 0.  0.
         12    1    1    2    0    0 -0.11087219028E+02  0.51321769807E+01  0.41645630091E+02  0.43400739303E+02  0.00000000000E+00 0. -1.
         11    1    3    3    0    0  0.12724079769E+02 -0.24940116366E+01 -0.20706376987E+02  0.24431052949E+02  0.51100000000E-03 0. -1.
        -11    1    3    3    0    0 -0.30453073877E+01  0.31383072650E+01 -0.80292843769E+01  0.91428812440E+01  0.51100000000E-03 0.  1.
         12    1    3    3    0    0  0.14084466475E+01 -0.57764726091E+01 -0.12909968727E+02  0.14213326504E+02  0.00000000000E+00 0. -1.
</event>
<event>
 7    1  0.7470072E-010  0.4778728E+02  0.7816164E-02  0.1312668E+00
        -11   -1    0    0    0    0  0.00000000000E+00  0.00000000000E+00  0.45593999997E+02  0.45594000000E+02  0.51100000000E-03 0.  1.
         11   -1    0    0    0    0 -0.00000000000E+00 -0.00000000000E+00 -0.45593999997E+02  0.45594000000E+02  0.51100000000E-03 0. -1.
    9900012    2    1    2    0    0  0.33270455646E+02  0.19492419131E+02  0.19918459908E+02  0.47787278030E+02  0.20000031848E+02 0.  0.
         12    1    1    2    0    0 -0.33270455646E+02 -0.19492419131E+02 -0.19918459908E+02  0.43400721970E+02  0.00000000000E+00 0. -1.
         11    1    3    3    0    0 -0.18427840810E+01  0.12043080600E+01 -0.10276331900E+00  0.22038084385E+01  0.51100000000E-03 0. -1.
        -11    1    3    3    0    0  0.32177554226E+02  0.12814326512E+02  0.18113298697E+02  0.39085720536E+02  0.51100000000E-03 0.  1.
         12    1    3    3    0    0  0.29356855009E+01  0.54737845597E+01  0.19079245301E+01  0.64977490548E+01  0.00000000000E+00 0. -1.
</event>
<event>
 7    1  0.7470072E-010  0.4778727E+02  0.7816164E-02  0.1312668E+00
        -11   -1    0    0    0    0  0.00000000000E+00  0.00000000000E+00  0.45593999997E+02  0.45594000000E+02  0.51100000000E-03 0.  1.
         11   -1    0    0    0    0 -0.00000000000E+00 -0.00000000000E+00 -0.45593999997E+02  0.45594000000E+02  0.51100000000E-03 0. -1.
    9900012    2    1    2    0    0  0.77284669072E+01 -0.40745852174E+02 -0.12793345253E+02  0.47787270134E+02  0.19999995849E+02 0.  0.
        -12    1    1    2    0    0 -0.77284669072E+01  0.40745852174E+02  0.12793345253E+02  0.43400729866E+02  0.00000000000E+00 0.  1.
         11    1    3    3    0    0 -0.28403150817E+01 -0.23672732401E+02 -0.98127848465E+01  0.25782870201E+02  0.51100000000E-03 0. -1.
        -11    1    3    3    0    0  0.91339609587E+01 -0.87019551486E+01 -0.44649608134E+01  0.13382419121E+02  0.51100000000E-03 0.  1.
        -12    1    3    3    0    0  0.14348210302E+01 -0.83711646241E+01  0.14844004066E+01  0.86219808118E+01  0.00000000000E+00 0.  1.
</event>
<event>
 7    1  0.7470072E-010  0.4778727E+02  0.7816164E-02  0.1312668E+00
        -11   -1    0    0    0    0  0.00000000000E+00  0.00000000000E+00  0.45593999997E+02  0.45594000000E+02  0.51100000000E-03 0. -1.
         11   -1    0    0    0    0 -0.00000000000E+00 -0.00000000000E+00 -0.45593999997E+02  0.45594000000E+02  0.51100000000E-03 0.  1.
    9900012    2    1    2    0    0  0.42336584239E+02  0.10416719889E+01  0.94948585632E+01  0.47787265159E+02  0.19999973168E+02 0.  0.
        -12    1    1    2    0    0 -0.42336584239E+02 -0.10416719889E+01 -0.94948585632E+01  0.43400734841E+02  0.00000000000E+00 0.  1.
         11    1    3    3    0    0  0.17015276410E+02 -0.96032386626E+00  0.28623362323E+01  0.17281053851E+02  0.51100000000E-03 0. -1.
        -11    1    3    3    0    0  0.18171794027E+02  0.85161472782E+01  0.37699610884E+01  0.20419389547E+02  0.51100000000E-03 0.  1.
        -12    1    3    3    0    0  0.71495138026E+01 -0.65141514231E+01  0.28625612425E+01  0.10086821761E+02  0.00000000000E+00 0.  1.
</event>
<event>
 7    1  0.7470072E-010  0.4778727E+02  0.7816164E-02  0.1312668E+00
        -11   -1    0    0    0    0  0.00000000000E+00  0.00000000000E+00  0.45593999997E+02  0.45594000000E+02  0.51100000000E-03 0. -1.
         11   -1    0    0    0    0 -0.00000000000E+00 -0.00000000000E+00 -0.45593999997E+02  0.45594000000E+02  0.51100000000E-03 0.  1.
    9900012    2    1    2    0    0  0.19066134414E+02  0.35152210944E+02  0.16864984392E+02  0.47787272883E+02  0.20000008382E+02 0.  0.
        -12    1    1    2    0    0 -0.19066134414E+02 -0.35152210944E+02 -0.16864984392E+02  0.43400727117E+02  0.00000000000E+00 0.  1.
         11    1    3    3    0    0  0.91526691024E+01  0.26873268138E+02  0.14892602475E+02  0.32058282875E+02  0.51100000000E-03 0. -1.
        -11    1    3    3    0    0  0.57696134000E+01 -0.57550882145E+00  0.12101521925E+01  0.59231847666E+01  0.51100000000E-03 0.  1.
         12    1    3    3    0    0  0.41438519120E+01  0.88544516268E+01  0.76222972433E+00  0.98058052415E+01  0.00000000000E+00 0. -1.
</event>
<event>
 7    1  0.7470072E-010  0.4778727E+02  0.7816164E-02  0.1312668E+00
        -11   -1    0    0    0    0  0.00000000000E+00  0.00000000000E+00  0.45593999997E+02  0.45594000000E+02  0.51100000000E-03 0. -1.
         11   -1    0    0    0    0 -0.00000000000E+00 -0.00000000000E+00 -0.45593999997E+02  0.45594000000E+02  0.51100000000E-03 0.  1.
    9900012    2    1    2    0    0  0.40592637847E+02 -0.18582040465E+01 -0.15244938628E+02  0.47787270474E+02  0.19999997398E+02 0.  0.
         12    1    1    2    0    0 -0.40592637847E+02  0.18582040465E+01  0.15244938628E+02  0.43400729526E+02  0.00000000000E+00 0. -1.
         11    1    3    3    0    0  0.60894625718E+01  0.60467548171E+01 -0.13914133767E+01  0.86937235795E+01  0.51100000000E-03 0. -1.
        -11    1    3    3    0    0  0.25162195646E+02 -0.93183869202E+01 -0.80828977879E+01  0.28023234314E+02  0.51100000000E-03 0.  1.
         12    1    3    3    0    0  0.93409796296E+01  0.14134280566E+01 -0.57706274630E+01  0.11070312580E+02  0.00000000000E+00 0. -1.
</event>
<event>
 7    1  0.7470072E-010  0.4778727E+02  0.7816164E-02  0.1312668E+00
        -11   -1    0    0    0    0  0.00000000000E+00  0.00000000000E+00  0.45593999997E+02  0.45594000000E+02  0.51100000000E-03 0. -1.
         11   -1    0    0    0    0 -0.00000000000E+00 -0.00000000000E+00 -0.45593999997E+02  0.45594000000E+02  0.51100000000E-03 0.  1.
    9900012    2    1    2    0    0  0.25960129198E+01 -0.10672552272E+02  0.41987867047E+02  0.47787266892E+02  0.19999981070E+02 0.  0.
        -12    1    1    2    0    0 -0.25960129198E+01  0.10672552272E+02 -0.41987867047E+02  0.43400733108E+02  0.00000000000E+00 0.  1.
         11    1    3    3    0    0  0.47166543166E+01 -0.10930978609E+02  0.24688473966E+02  0.27409010714E+02  0.51100000000E-03 0. -1.
        -11    1    3    3    0    0 -0.25493569390E+01 -0.18790747579E+00 -0.46912550286E+00  0.25989630664E+01  0.51100000000E-03 0.  1.
         12    1    3    3    0    0  0.42871554211E+00  0.44633381223E+00  0.17768518585E+02  0.17779293113E+02  0.00000000000E+00 0. -1.
</event>
<event>
 7    1  0.7470072E-010  0.4778727E+02  0.7816164E-02  0.1312668E+00
        -11   -1    0    0    0    0  0.00000000000E+00  0.00000000000E+00  0.45593999997E+02  0.45594000000E+02  0.51100000000E-03 0. -1.
         11   -1    0    0    0    0 -0.00000000000E+00 -0.00000000000E+00 -0.45593999997E+02  0.45594000000E+02  0.51100000000E-03 0.  1.
    9900012    2    1    2    0    0 -0.28418312184E+02 -0.64194742289E+01 -0.32168518271E+02  0.47787266314E+02  0.19999978432E+02 0.  0.
         12    1    1    2    0    0  0.28418312184E+02  0.64194742289E+01  0.32168518271E+02  0.43400733686E+02  0.00000000000E+00 0. -1.
         11    1    3    3    0    0 -0.40575515956E+01 -0.81758918992E+01 -0.38408556845E+01  0.99025807721E+01  0.51100000000E-03 0. -1.
        -11    1    3    3    0    0 -0.14431020194E+02  0.27197765041E+01 -0.13093753772E+02  0.19674804095E+02  0.51100000000E-03 0.  1.
        -12    1    3    3    0    0 -0.99297403938E+01 -0.96335883374E+00 -0.15233908815E+02  0.18209881447E+02  0.00000000000E+00 0.  1.
</event>
<event>
 7    1  0.7470072E-010  0.4778724E+02  0.7816164E-02  0.1312668E+00
        -11   -1    0    0    0    0  0.00000000000E+00  0.00000000000E+00  0.45593999997E+02  0.45594000000E+02  0.51100000000E-03 0. -1.
         11   -1    0    0    0    0 -0.00000000000E+00 -0.00000000000E+00 -0.45593999997E+02  0.45594000000E+02  0.51100000000E-03 0.  1.
    9900012    2    1    2    0    0 -0.13399826398E+02 -0.11045061368E+02 -0.39775331155E+02  0.47787243133E+02  0.19999872740E+02 0.  0.
         12    1    1    2    0    0  0.13399826398E+02  0.11045061368E+02  0.39775331155E+02  0.43400756867E+02  0.00000000000E+00 0. -1.
         11    1    3    3    0    0  0.38655334371E+01 -0.27641383509E+01 -0.46178583053E+01  0.66262678157E+01  0.51100000000E-03 0. -1.
        -11    1    3    3    0    0 -0.16449128045E+02 -0.64548998767E+01 -0.23876100463E+02  0.29703665084E+02  0.51100000000E-03 0.  1.
        -12    1    3    3    0    0 -0.81623179074E+00 -0.18260231400E+01 -0.11281372387E+02  0.11457310233E+02  0.00000000000E+00 0.  1.
</event>
<event>
 7    1  0.7470072E-010  0.4778727E+02  0.7816164E-02  0.1312668E+00
        -11   -1    0    0    0    0  0.00000000000E+00  0.00000000000E+00  0.45593999997E+02  0.45594000000E+02  0.51100000000E-03 0. -1.
         11   -1    0    0    0    0 -0.00000000000E+00 -0.00000000000E+00 -0.45593999997E+02  0.45594000000E+02  0.51100000000E-03 0.  1.
    9900012    2    1    2    0    0  0.32873716427E+02  0.95614339597E+01  0.26674356259E+02  0.47787268060E+02  0.19999986394E+02 0.  0.
        -12    1    1    2    0    0 -0.32873716427E+02 -0.95614339597E+01 -0.26674356259E+02  0.43400731940E+02  0.00000000000E+00 0.  1.
         11    1    3    3    0    0  0.17690639397E+02 -0.42482046539E+01  0.16830541507E+02  0.24784533338E+02  0.51100000000E-03 0. -1.
        -11    1    3    3    0    0  0.10580649721E+02  0.75126122065E+01  0.65532738619E+01  0.14537361840E+02  0.51100000000E-03 0.  1.
         12    1    3    3    0    0  0.46024273082E+01  0.62970264071E+01  0.32905408895E+01  0.84653728828E+01  0.00000000000E+00 0. -1.
</event>
<event>
 7    1  0.7470072E-010  0.4778725E+02  0.7816164E-02  0.1312668E+00
        -11   -1    0    0    0    0  0.00000000000E+00  0.00000000000E+00  0.45593999997E+02  0.45594000000E+02  0.51100000000E-03 0. -1.
         11   -1    0    0    0    0 -0.00000000000E+00 -0.00000000000E+00 -0.45593999997E+02  0.45594000000E+02  0.51100000000E-03 0.  1.
    9900012    2    1    2    0    0  0.38968059246E+01 -0.30278683063E+02  0.30848684262E+02  0.47787250408E+02  0.19999905909E+02 0.  0.
        -12    1    1    2    0    0 -0.38968059246E+01  0.30278683063E+02 -0.30848684262E+02  0.43400749592E+02  0.00000000000E+00 0.  1.
         11    1    3    3    0    0 -0.37581815958E-01 -0.12180876747E+02  0.10938617689E+02  0.16371576831E+02  0.51100000000E-03 0. -1.
        -11    1    3    3    0    0  0.16372940522E+01 -0.10944728308E+02  0.10522843696E+01  0.11116434329E+02  0.51100000000E-03 0.  1.
        -12    1    3    3    0    0  0.22970936884E+01 -0.71530780088E+01  0.18857782203E+02  0.20299239248E+02  0.00000000000E+00 0.  1.
</event>
<event>
 7    1  0.7470072E-010  0.4778728E+02  0.7816164E-02  0.1312668E+00
        -11   -1    0    0    0    0  0.00000000000E+00  0.00000000000E+00  0.45593999997E+02  0.45594000000E+02  0.51100000000E-03 0. -1.
         11   -1    0    0    0    0 -0.00000000000E+00 -0.00000000000E+00 -0.45593999997E+02  0.45594000000E+02  0.51100000000E-03 0.  1.
    9900012    2    1    2    0    0  0.25198187206E+02  0.29633775550E+02 -0.19248725885E+02  0.47787277195E+02  0.20000028043E+02 0.  0.
         12    1    1    2    0    0 -0.25198187206E+02 -0.29633775550E+02  0.19248725885E+02  0.43400722805E+02  0.00000000000E+00 0. -1.
         11    1    3    3    0    0  0.15831698325E+02  0.44833936776E+01 -0.57362431731E+01  0.17425497890E+02  0.51100000000E-03 0.  1.
        -11    1    3    3    0    0  0.94553422946E+01  0.24388572217E+02 -0.12247965232E+02  0.28882842749E+02  0.51100000000E-03 0. -1.
        -12    1    3    3    0    0 -0.88853413416E-01  0.76180965483E+00 -0.12645174791E+01  0.14789365552E+01  0.00000000000E+00 0.  1.
</event>
<event>
 7    1  0.7470072E-010  0.4778729E+02  0.7816164E-02  0.1312668E+00
        -11   -1    0    0    0    0  0.00000000000E+00  0.00000000000E+00  0.45593999997E+02  0.45594000000E+02  0.51100000000E-03 0. -1.
         11   -1    0    0    0    0 -0.00000000000E+00 -0.00000000000E+00 -0.45593999997E+02  0.45594000000E+02  0.51100000000E-03 0.  1.
    9900012    2    1    2    0    0  0.14106526472E+02  0.18311238654E+02  0.36733170713E+02  0.47787292855E+02  0.20000099441E+02 0.  0.
        -12    1    1    2    0    0 -0.14106526472E+02 -0.18311238654E+02 -0.36733170713E+02  0.43400707145E+02  0.00000000000E+00 0.  1.
         11    1    3    3    0    0 -0.11239207325E+00  0.10850374276E+02  0.20668439710E+02  0.23343685532E+02  0.51100000000E-03 0. -1.
        -11    1    3    3    0    0  0.13486159597E+02  0.87578322224E+01  0.11854520063E+02  0.19977631794E+02  0.51100000000E-03 0.  1.
         12    1    3    3    0    0  0.73275894758E+00 -0.12969678448E+01  0.42102109398E+01  0.44659755288E+01  0.00000000000E+00 0. -1.
</event>
<event>
 7    1  0.7470072E-010  0.4778727E+02  0.7816164E-02  0.1312668E+00
        -11   -1    0    0    0    0  0.00000000000E+00  0.00000000000E+00  0.45593999997E+02  0.45594000000E+02  0.51100000000E-03 0. -1.
         11   -1    0    0    0    0 -0.00000000000E+00 -0.00000000000E+00 -0.45593999997E+02  0.45594000000E+02  0.51100000000E-03 0.  1.
    9900012    2    1    2    0    0 -0.69042299551E+01  0.18261274564E+02 -0.38761847210E+02  0.47787270293E+02  0.19999996576E+02 0.  0.
         12    1    1    2    0    0  0.69042299551E+01 -0.18261274564E+02  0.38761847210E+02  0.43400729707E+02  0.00000000000E+00 0. -1.
         11    1    3    3    0    0 -0.29497141557E+01 -0.42770079219E+00 -0.15738894655E+02  0.16018631239E+02  0.51100000000E-03 0.  1.
        -11    1    3    3    0    0 -0.82949734543E+00  0.74335988227E+00 -0.82240044688E+01  0.82990902830E+01  0.51100000000E-03 0. -1.
         12    1    3    3    0    0 -0.31250184540E+01  0.17945615474E+02 -0.14798948086E+02  0.23469548771E+02  0.00000000000E+00 0. -1.
</event>
<event>
 7    1  0.7470072E-010  0.4778727E+02  0.7816164E-02  0.1312668E+00
        -11   -1    0    0    0    0  0.00000000000E+00  0.00000000000E+00  0.45593999997E+02  0.45594000000E+02  0.51100000000E-03 0. -1.
         11   -1    0    0    0    0 -0.00000000000E+00 -0.00000000000E+00 -0.45593999997E+02  0.45594000000E+02  0.51100000000E-03 0.  1.
    9900012    2    1    2    0    0  0.32628217178E+02 -0.15564200406E+02 -0.24016215452E+02  0.47787268496E+02  0.19999988381E+02 0.  0.
         12    1    1    2    0    0 -0.32628217178E+02  0.15564200406E+02  0.24016215452E+02  0.43400731504E+02  0.00000000000E+00 0. -1.
         11    1    3    3    0    0  0.18502091056E+02 -0.15136445455E+02 -0.12081969798E+02  0.26784572965E+02  0.51100000000E-03 0. -1.
        -11    1    3    3    0    0  0.13599167581E+02  0.83900964705E+00 -0.13318875969E+02  0.19053444660E+02  0.51100000000E-03 0.  1.
        -12    1    3    3    0    0  0.52695854046E+00 -0.12667645982E+01  0.13846303147E+01  0.19492508713E+01  0.00000000000E+00 0.  1.
</event>
<event>
 7    1  0.7470072E-010  0.4778728E+02  0.7816164E-02  0.1312668E+00
        -11   -1    0    0    0    0  0.00000000000E+00  0.00000000000E+00  0.45593999997E+02  0.45594000000E+02  0.51100000000E-03 0.  1.
         11   -1    0    0    0    0 -0.00000000000E+00 -0.00000000000E+00 -0.45593999997E+02  0.45594000000E+02  0.51100000000E-03 0. -1.
    9900012    2    1    2    0    0  0.40855268368E+02 -0.14642186643E+02 -0.27525369755E+00  0.47787281714E+02  0.20000048648E+02 0.  0.
         12    1    1    2    0    0 -0.40855268368E+02  0.14642186643E+02  0.27525369755E+00  0.43400718286E+02  0.00000000000E+00 0. -1.
         11    1    3    3    0    0  0.46256627697E+01 -0.30435314540E+01  0.54397539909E+01  0.77621365301E+01  0.51100000000E-03 0. -1.
        -11    1    3    3    0    0  0.53069114001E+01 -0.45720621851E+01  0.21984543237E+01  0.73416798423E+01  0.51100000000E-03 0.  1.
         12    1    3    3    0    0  0.30922694198E+02 -0.70265930038E+01 -0.79134620121E+01  0.32683465342E+02  0.00000000000E+00 0. -1.
</event>
<event>
 7    1  0.7470072E-010  0.4778728E+02  0.7816164E-02  0.1312668E+00
        -11   -1    0    0    0    0  0.00000000000E+00  0.00000000000E+00  0.45593999997E+02  0.45594000000E+02  0.51100000000E-03 0. -1.
         11   -1    0    0    0    0 -0.00000000000E+00 -0.00000000000E+00 -0.45593999997E+02  0.45594000000E+02  0.51100000000E-03 0.  1.
    9900012    2    1    2    0    0  0.29793047371E+02  0.83606548462E+01  0.30431835776E+02  0.47787275930E+02  0.20000022275E+02 0.  0.
        -12    1    1    2    0    0 -0.29793047371E+02 -0.83606548462E+01 -0.30431835776E+02  0.43400724070E+02  0.00000000000E+00 0.  1.
         11    1    3    3    0    0  0.61168971475E+01  0.17179474231E+00  0.34161466148E+01  0.70082809662E+01  0.51100000000E-03 0. -1.
        -11    1    3    3    0    0  0.24009007321E+02  0.11647298284E+02  0.21538856937E+02  0.34293065600E+02  0.51100000000E-03 0.  1.
        -12    1    3    3    0    0 -0.33285709744E+00 -0.34584381802E+01  0.54768322244E+01  0.64859293635E+01  0.00000000000E+00 0.  1.
</event>
<event>
 7    1  0.7980497E-010  0.4778727E+02  0.7816164E-02  0.1312668E+00
        -11   -1    0    0    0    0  0.00000000000E+00  0.00000000000E+00  0.45593999997E+02  0.45594000000E+02  0.51100000000E-03 0. -1.
         11   -1    0    0    0    0 -0.00000000000E+00 -0.00000000000E+00 -0.45593999997E+02  0.45594000000E+02  0.51100000000E-03 0.  1.
    9900012    2    1    2    0    0  0.11185162401E+02 -0.24494821766E+02  0.34037027690E+02  0.47787269531E+02  0.19999993099E+02 0.  0.
        -12    1    1    2    0    0 -0.11185162401E+02  0.24494821766E+02 -0.34037027690E+02  0.43400730469E+02  0.00000000000E+00 0.  1.
         11    1    3    3    0    0  0.64017450655E+01 -0.11880775343E+02  0.28781393271E+02  0.31788421816E+02  0.51100000000E-03 0. -1.
        -11    1    3    3    0    0 -0.13607010895E+01 -0.32594463095E+01 -0.22069515212E+00  0.35389552570E+01  0.51100000000E-03 0.  1.
         12    1    3    3    0    0  0.61441184250E+01 -0.93546001138E+01  0.54763295706E+01  0.12459892458E+02  0.00000000000E+00 0. -1.
</event>
<event>
 7    1  0.7470072E-010  0.4778727E+02  0.7816164E-02  0.1312668E+00
        -11   -1    0    0    0    0  0.00000000000E+00  0.00000000000E+00  0.45593999997E+02  0.45594000000E+02  0.51100000000E-03 0. -1.
         11   -1    0    0    0    0 -0.00000000000E+00 -0.00000000000E+00 -0.45593999997E+02  0.45594000000E+02  0.51100000000E-03 0.  1.
    9900012    2    1    2    0    0 -0.23188063698E+02  0.65555333773E+01 -0.36096565254E+02  0.47787270294E+02  0.19999996576E+02 0.  0.
         12    1    1    2    0    0  0.23188063698E+02 -0.65555333773E+01  0.36096565254E+02  0.43400729706E+02  0.00000000000E+00 0. -1.
         11    1    3    3    0    0 -0.10863334060E+02 -0.37794387881E+01 -0.18641745772E+02  0.21904585596E+02  0.51100000000E-03 0. -1.
        -11    1    3    3    0    0 -0.76462196678E+00  0.69114131530E+01 -0.76921322836E+01  0.10369241913E+02  0.51100000000E-03 0.  1.
         12    1    3    3    0    0 -0.11560107672E+02  0.34235590124E+01 -0.97626871985E+01  0.15513442785E+02  0.00000000000E+00 0. -1.
</event>
<event>
 7    1  0.7470072E-010  0.4778728E+02  0.7816164E-02  0.1312668E+00
        -11   -1    0    0    0    0  0.00000000000E+00  0.00000000000E+00  0.45593999997E+02  0.45594000000E+02  0.51100000000E-03 0. -1.
         11   -1    0    0    0    0 -0.00000000000E+00 -0.00000000000E+00 -0.45593999997E+02  0.45594000000E+02  0.51100000000E-03 0.  1.
    9900012    2    1    2    0    0 -0.21294150221E+02 -0.40033405769E+01 -0.37605251346E+02  0.47787279981E+02  0.20000040746E+02 0.  0.
         12    1    1    2    0    0  0.21294150221E+02  0.40033405769E+01  0.37605251346E+02  0.43400720019E+02  0.00000000000E+00 0. -1.
         11    1    3    3    0    0 -0.98740698099E+01  0.77325107742E+01 -0.19395139479E+02  0.23096761963E+02  0.51100000000E-03 0. -1.
        -11    1    3    3    0    0 -0.58937692076E+01 -0.79831351335E+01 -0.97549659049E+01  0.13914967557E+02  0.51100000000E-03 0.  1.
         12    1    3    3    0    0 -0.55263112031E+01 -0.37527162176E+01 -0.84551459617E+01  0.10775550462E+02  0.00000000000E+00 0. -1.
</event>
<event>
 7    1  0.7470072E-010  0.4778727E+02  0.7816164E-02  0.1312668E+00
        -11   -1    0    0    0    0  0.00000000000E+00  0.00000000000E+00  0.45593999997E+02  0.45594000000E+02  0.51100000000E-03 0.  1.
         11   -1    0    0    0    0 -0.00000000000E+00 -0.00000000000E+00 -0.45593999997E+02  0.45594000000E+02  0.51100000000E-03 0. -1.
    9900012    2    1    2    0    0  0.30054795278E+02  0.55829917058E+01 -0.30808485962E+02  0.47787270480E+02  0.19999997427E+02 0.  0.
         12    1    1    2    0    0 -0.30054795278E+02 -0.55829917058E+01  0.30808485962E+02  0.43400729520E+02  0.00000000000E+00 0. -1.
         11    1    3    3    0    0  0.91734465613E-01  0.14799737352E+00 -0.74494644376E+00  0.76502542438E+00  0.51100000000E-03 0. -1.
        -11    1    3    3    0    0  0.28505628159E+02 -0.13938622656E+01 -0.20317830746E+02  0.35033240433E+02  0.51100000000E-03 0.  1.
        -12    1    3    3    0    0  0.14574326534E+01  0.68288565978E+01 -0.97457087720E+01  0.11989004623E+02  0.00000000000E+00 0.  1.
</event>
<event>
 7    1  0.7470072E-010  0.4778727E+02  0.7816164E-02  0.1312668E+00
        -11   -1    0    0    0    0  0.00000000000E+00  0.00000000000E+00  0.45593999997E+02  0.45594000000E+02  0.51100000000E-03 0. -1.
         11   -1    0    0    0    0 -0.00000000000E+00 -0.00000000000E+00 -0.45593999997E+02  0.45594000000E+02  0.51100000000E-03 0.  1.
    9900012    2    1    2    0    0 -0.24255091695E+02 -0.19663206463E+02 -0.30144195737E+02  0.47787266157E+02  0.19999977715E+02 0.  0.
         12    1    1    2    0    0  0.24255091695E+02  0.19663206463E+02  0.30144195737E+02  0.43400733843E+02  0.00000000000E+00 0. -1.
         11    1    3    3    0    0 -0.15090564930E+02 -0.15401406689E+02 -0.16896720121E+02  0.27393934164E+02  0.51100000000E-03 0. -1.
        -11    1    3    3    0    0 -0.75758100953E+01  0.28227499237E+01 -0.55154719712E+01  0.97867894152E+01  0.51100000000E-03 0.  1.
        -12    1    3    3    0    0 -0.15887166692E+01 -0.70845496978E+01 -0.77320036448E+01  0.10606542577E+02  0.00000000000E+00 0.  1.
</event>
<event>
 7    1  0.7470072E-010  0.4778727E+02  0.7816164E-02  0.1312668E+00
        -11   -1    0    0    0    0  0.00000000000E+00  0.00000000000E+00  0.45593999997E+02  0.45594000000E+02  0.51100000000E-03 0. -1.
         11   -1    0    0    0    0 -0.00000000000E+00 -0.00000000000E+00 -0.45593999997E+02  0.45594000000E+02  0.51100000000E-03 0.  1.
    9900012    2    1    2    0    0  0.92358707971E+00  0.87718697314E+01  0.42494991082E+02  0.47787274444E+02  0.20000015502E+02 0.  0.
        -12    1    1    2    0    0 -0.92358707971E+00 -0.87718697314E+01 -0.42494991082E+02  0.43400725556E+02  0.00000000000E+00 0.  1.
         11    1    3    3    0    0 -0.70905522389E+01  0.13868650234E+01  0.19701373401E+02  0.20984361791E+02  0.51100000000E-03 0. -1.
        -11    1    3    3    0    0  0.98955127387E+01  0.53904606429E+01  0.17032945270E+02  0.20423013077E+02  0.51100000000E-03 0.  1.
        -12    1    3    3    0    0 -0.18813734201E+01  0.19945440651E+01  0.57606724108E+01  0.63798995759E+01  0.00000000000E+00 0.  1.
</event>
<event>
 7    1  0.7470072E-010  0.4778727E+02  0.7816164E-02  0.1312668E+00
        -11   -1    0    0    0    0  0.00000000000E+00  0.00000000000E+00  0.45593999997E+02  0.45594000000E+02  0.51100000000E-03 0. -1.
         11   -1    0    0    0    0 -0.00000000000E+00 -0.00000000000E+00 -0.45593999997E+02  0.45594000000E+02  0.51100000000E-03 0.  1.
    9900012    2    1    2    0    0 -0.16698426373E+02  0.87478391759E+01  0.39092977020E+02  0.47787274363E+02  0.20000015128E+02 0.  0.
        -12    1    1    2    0    0  0.16698426373E+02 -0.87478391759E+01 -0.39092977020E+02  0.43400725637E+02  0.00000000000E+00 0.  1.
         11    1    3    3    0    0 -0.23075152972E+01 -0.71198930169E+00  0.55075601811E+00  0.24768706194E+01  0.51100000000E-03 0. -1.
        -11    1    3    3    0    0 -0.20517844594E+01  0.84780422766E+01  0.62604936571E+01  0.10736889745E+02  0.51100000000E-03 0.  1.
        -12    1    3    3    0    0 -0.12339126617E+02  0.98178620098E+00  0.32281727345E+02  0.34573513998E+02  0.00000000000E+00 0.  1.
</event>
<event>
 7    1  0.7470072E-010  0.4778727E+02  0.7816164E-02  0.1312668E+00
        -11   -1    0    0    0    0  0.00000000000E+00  0.00000000000E+00  0.45593999997E+02  0.45594000000E+02  0.51100000000E-03 0. -1.
         11   -1    0    0    0    0 -0.00000000000E+00 -0.00000000000E+00 -0.45593999997E+02  0.45594000000E+02  0.51100000000E-03 0.  1.
    9900012    2    1    2    0    0 -0.14706825503E+02 -0.38376997295E+01 -0.40652242501E+02  0.47787268716E+02  0.19999989386E+02 0.  0.
         12    1    1    2    0    0  0.14706825503E+02  0.38376997295E+01  0.40652242501E+02  0.43400731284E+02  0.00000000000E+00 0. -1.
         11    1    3    3    0    0  0.13601403859E+01  0.35728840130E+01 -0.73643504174E+01  0.82975381512E+01  0.51100000000E-03 0. -1.
        -11    1    3    3    0    0 -0.13219857778E+02 -0.26125881794E+01 -0.14085953114E+02  0.19493699804E+02  0.51100000000E-03 0.  1.
        -12    1    3    3    0    0 -0.28471081110E+01 -0.47979955630E+01 -0.19201938969E+02  0.19996030761E+02  0.00000000000E+00 0.  1.
</event>
<event>
 7    1  0.7470072E-010  0.4778727E+02  0.7816164E-02  0.1312668E+00
        -11   -1    0    0    0    0  0.00000000000E+00  0.00000000000E+00  0.45593999997E+02  0.45594000000E+02  0.51100000000E-03 0.  1.
         11   -1    0    0    0    0 -0.00000000000E+00 -0.00000000000E+00 -0.45593999997E+02  0.45594000000E+02  0.51100000000E-03 0. -1.
    9900012    2    1    2    0    0 -0.29147491779E+02 -0.26339483846E+02  0.18446643480E+02  0.47787270260E+02  0.19999996422E+02 0.  0.
        -12    1    1    2    0    0  0.29147491779E+02  0.26339483846E+02 -0.18446643480E+02  0.43400729740E+02  0.00000000000E+00 0.  1.
         11    1    3    3    0    0 -0.25143386964E+02 -0.14056392551E+02  0.78714591831E+01  0.29861881212E+02  0.51100000000E-03 0. -1.
        -11    1    3    3    0    0 -0.65765759504E+00 -0.55982746653E+01  0.84427946646E+01  0.10151550362E+02  0.51100000000E-03 0.  1.
         12    1    3    3    0    0 -0.33464472204E+01 -0.66848166294E+01  0.21323896326E+01  0.77738386858E+01  0.00000000000E+00 0. -1.
</event>
<event>
 7    1  0.7470072E-010  0.4778727E+02  0.7816164E-02  0.1312668E+00
        -11   -1    0    0    0    0  0.00000000000E+00  0.00000000000E+00  0.45593999997E+02  0.45594000000E+02  0.51100000000E-03 0. -1.
         11   -1    0    0    0    0 -0.00000000000E+00 -0.00000000000E+00 -0.45593999997E+02  0.45594000000E+02  0.51100000000E-03 0.  1.
    9900012    2    1    2    0    0 -0.36641365730E+01  0.82912061020E+01 -0.42443532008E+02  0.47787269537E+02  0.19999993125E+02 0.  0.
         12    1    1    2    0    0  0.36641365730E+01 -0.82912061020E+01  0.42443532008E+02  0.43400730463E+02  0.00000000000E+00 0. -1.
         11    1    3    3    0    0  0.35650407568E+01  0.78368341986E+00 -0.51570939582E+01  0.63181717020E+01  0.51100000000E-03 0. -1.
        -11    1    3    3    0    0 -0.41070018514E+01 -0.31671299821E+01 -0.45651995236E+01  0.69093576750E+01  0.51100000000E-03 0.  1.
        -12    1    3    3    0    0 -0.31221754784E+01  0.10674652664E+02 -0.32721238526E+02  0.34559740160E+02  0.00000000000E+00 0.  1.
</event>
<event>
 7    1  0.7470072E-010  0.4778727E+02  0.7816164E-02  0.1312668E+00
        -11   -1    0    0    0    0  0.00000000000E+00  0.00000000000E+00  0.45593999997E+02  0.45594000000E+02  0.51100000000E-03 0. -1.
         11   -1    0    0    0    0 -0.00000000000E+00 -0.00000000000E+00 -0.45593999997E+02  0.45594000000E+02  0.51100000000E-03 0.  1.
    9900012    2    1    2    0    0 -0.47348917826E+01 -0.18956220385E+02 -0.38753910385E+02  0.47787273490E+02  0.20000011149E+02 0.  0.
         12    1    1    2    0    0  0.47348917826E+01  0.18956220385E+02  0.38753910385E+02  0.43400726510E+02  0.00000000000E+00 0. -1.
         11    1    3    3    0    0 -0.38706514430E+01 -0.37898614402E+01 -0.17092019984E+01  0.56803489384E+01  0.51100000000E-03 0. -1.
        -11    1    3    3    0    0 -0.21917317562E+01 -0.74558782662E+01 -0.31682845783E+02  0.32622025167E+02  0.51100000000E-03 0.  1.
        -12    1    3    3    0    0  0.13274914166E+01 -0.77104806783E+01 -0.53618626034E+01  0.94848993843E+01  0.00000000000E+00 0.  1.
</event>
<event>
 7    1  0.8284103E-010  0.4778727E+02  0.7816164E-02  0.1312668E+00
        -11   -1    0    0    0    0  0.00000000000E+00  0.00000000000E+00  0.45593999997E+02  0.45594000000E+02  0.51100000000E-03 0. -1.
         11   -1    0    0    0    0 -0.00000000000E+00 -0.00000000000E+00 -0.45593999997E+02  0.45594000000E+02  0.51100000000E-03 0.  1.
    9900012    2    1    2    0    0  0.54111098310E+01  0.94906162025E+01 -0.42003228905E+02  0.47787272541E+02  0.20000006826E+02 0.  0.
         12    1    1    2    0    0 -0.54111098310E+01 -0.94906162025E+01  0.42003228905E+02  0.43400727459E+02  0.00000000000E+00 0. -1.
         11    1    3    3    0    0  0.50319197468E+01 -0.35931546790E+01 -0.12715756234E+02  0.14139357614E+02  0.51100000000E-03 0. -1.
        -11    1    3    3    0    0 -0.38886179586E+01  0.88899009677E+01 -0.23026960040E+02  0.24987848603E+02  0.51100000000E-03 0.  1.
         12    1    3    3    0    0  0.42678080428E+01  0.41938699138E+01 -0.62605126310E+01  0.86600663246E+01  0.00000000000E+00 0. -1.
</event>
<event>
 7    1  0.7470072E-010  0.4778724E+02  0.7816164E-02  0.1312668E+00
        -11   -1    0    0    0    0  0.00000000000E+00  0.00000000000E+00  0.45593999997E+02  0.45594000000E+02  0.51100000000E-03 0. -1.
         11   -1    0    0    0    0 -0.00000000000E+00 -0.00000000000E+00 -0.45593999997E+02  0.45594000000E+02  0.51100000000E-03 0.  1.
    9900012    2    1    2    0    0 -0.24434733909E+02  0.63679856140E+01 -0.35298985179E+02  0.47787241751E+02  0.19999866437E+02 0.  0.
         12    1    1    2    0    0  0.24434733909E+02 -0.63679856140E+01  0.35298985179E+02  0.43400758249E+02  0.00000000000E+00 0. -1.
         11    1    3    3    0    0 -0.41614609151E+01  0.68758087250E+01 -0.79199714404E+01  0.11283636402E+02  0.51100000000E-03 0. -1.
        -11    1    3    3    0    0 -0.39221579499E+01 -0.55696076324E+01 -0.10094818646E+02  0.12178227125E+02  0.51100000000E-03 0.  1.
        -12    1    3    3    0    0 -0.16351115044E+02  0.50617845214E+01 -0.17284195092E+02  0.24325378223E+02  0.00000000000E+00 0.  1.
</event>
<event>
 7    1  0.7470072E-010  0.4778727E+02  0.7816164E-02  0.1312668E+00
        -11   -1    0    0    0    0  0.00000000000E+00  0.00000000000E+00  0.45593999997E+02  0.45594000000E+02  0.51100000000E-03 0. -1.
         11   -1    0    0    0    0 -0.00000000000E+00 -0.00000000000E+00 -0.45593999997E+02  0.45594000000E+02  0.51100000000E-03 0.  1.
    9900012    2    1    2    0    0  0.14609307738E+02  0.10595923082E+02 -0.39470470982E+02  0.47787268001E+02  0.19999986122E+02 0.  0.
         12    1    1    2    0    0 -0.14609307738E+02 -0.10595923082E+02  0.39470470982E+02  0.43400731999E+02  0.00000000000E+00 0. -1.
         11    1    3    3    0    0 -0.33193253590E+01  0.65495910818E+01 -0.14660339577E+02  0.16396359991E+02  0.51100000000E-03 0. -1.
        -11    1    3    3    0    0  0.13633601161E+02  0.95606415365E+00 -0.20103666672E+02  0.24309392284E+02  0.51100000000E-03 0.  1.
        -12    1    3    3    0    0  0.42950319359E+01  0.30902678465E+01 -0.47064647326E+01  0.70815157256E+01  0.00000000000E+00 0.  1.
</event>
<event>
 7    1  0.7470072E-010  0.4778726E+02  0.7816164E-02  0.1312668E+00
        -11   -1    0    0    0    0  0.00000000000E+00  0.00000000000E+00  0.45593999997E+02  0.45594000000E+02  0.51100000000E-03 0. -1.
         11   -1    0    0    0    0 -0.00000000000E+00 -0.00000000000E+00 -0.45593999997E+02  0.45594000000E+02  0.51100000000E-03 0.  1.
    9900012    2    1    2    0    0  0.15332730715E+02  0.29590546149E+02 -0.27801641073E+02  0.47787259235E+02  0.19999946157E+02 0.  0.
         12    1    1    2    0    0 -0.15332730715E+02 -0.29590546149E+02  0.27801641073E+02  0.43400740765E+02  0.00000000000E+00 0. -1.
         11    1    3    3    0    0 -0.69952015097E+00  0.53516548103E+00  0.16375775463E+01  0.18594060920E+01  0.51100000000E-03 0. -1.
        -11    1    3    3    0    0  0.14026964592E+02  0.25597443793E+02 -0.30040287791E+02  0.41885603198E+02  0.51100000000E-03 0.  1.
         12    1    3    3    0    0  0.20052862742E+01  0.34579368753E+01  0.60106917194E+00  0.40422499458E+01  0.00000000000E+00 0. -1.
</event>
<event>
 7    1  0.7470072E-010  0.4778727E+02  0.7816164E-02  0.1312668E+00
        -11   -1    0    0    0    0  0.00000000000E+00  0.00000000000E+00  0.45593999997E+02  0.45594000000E+02  0.51100000000E-03 0. -1.
         11   -1    0    0    0    0 -0.00000000000E+00 -0.00000000000E+00 -0.45593999997E+02  0.45594000000E+02  0.51100000000E-03 0.  1.
    9900012    2    1    2    0    0 -0.16974599830E+02 -0.15321052330E+02 -0.36888368624E+02  0.47787269319E+02  0.19999992135E+02 0.  0.
         12    1    1    2    0    0  0.16974599830E+02  0.15321052330E+02  0.36888368624E+02  0.43400730681E+02  0.00000000000E+00 0. -1.
         11    1    3    3    0    0  0.26296538398E+00 -0.38609299927E+01 -0.13390106165E+02  0.13938108716E+02  0.51100000000E-03 0. -1.
        -11    1    3    3    0    0 -0.57943704889E+01 -0.71137645089E+01 -0.24436779996E+01  0.94948374014E+01  0.51100000000E-03 0.  1.
        -12    1    3    3    0    0 -0.11443194725E+02 -0.43463578280E+01 -0.21054584459E+02  0.24354323202E+02  0.00000000000E+00 0.  1.
</event>
<event>
 7    1  0.7470072E-010  0.4778728E+02  0.7816164E-02  0.1312668E+00
        -11   -1    0    0    0    0  0.00000000000E+00  0.00000000000E+00  0.45593999997E+02  0.45594000000E+02  0.51100000000E-03 0. -1.
         11   -1    0    0    0    0 -0.00000000000E+00 -0.00000000000E+00 -0.45593999997E+02  0.45594000000E+02  0.51100000000E-03 0.  1.
    9900012    2    1    2    0    0  0.17794353952E+02 -0.35340845899E+01  0.39427073594E+02  0.47787275137E+02  0.20000018658E+02 0.  0.
        -12    1    1    2    0    0 -0.17794353952E+02  0.35340845899E+01 -0.39427073594E+02  0.43400724863E+02  0.00000000000E+00 0.  1.
         11    1    3    3    0    0  0.11124898936E+02 -0.54510008709E+01  0.15051086042E+02  0.19493895920E+02  0.51100000000E-03 0. -1.
        -11    1    3    3    0    0  0.20843212865E+00  0.56859572459E+01  0.16398857558E+02  0.17357882452E+02  0.51100000000E-03 0.  1.
        -12    1    3    3    0    0  0.64610228878E+01 -0.37690409649E+01  0.79771299940E+01  0.10935496765E+02  0.00000000000E+00 0.  1.
</event>
<event>
 7    1  0.7470072E-010  0.4778726E+02  0.7816164E-02  0.1312668E+00
        -11   -1    0    0    0    0  0.00000000000E+00  0.00000000000E+00  0.45593999997E+02  0.45594000000E+02  0.51100000000E-03 0. -1.
         11   -1    0    0    0    0 -0.00000000000E+00 -0.00000000000E+00 -0.45593999997E+02  0.45594000000E+02  0.51100000000E-03 0.  1.
    9900012    2    1    2    0    0  0.17862539720E+02 -0.94335969058E+01  0.38413030449E+02  0.47787262862E+02  0.19999962694E+02 0.  0.
        -12    1    1    2    0    0 -0.17862539720E+02  0.94335969058E+01 -0.38413030449E+02  0.43400737138E+02  0.00000000000E+00 0.  1.
         11    1    3    3    0    0 -0.40731168072E+00  0.42826362715E+01  0.10473502404E+02  0.11322593745E+02  0.51100000000E-03 0. -1.
        -11    1    3    3    0    0  0.28029478443E+01 -0.10531508691E+00  0.39066333262E+01  0.48093026618E+01  0.51100000000E-03 0.  1.
         12    1    3    3    0    0  0.15466903557E+02 -0.13610918090E+02  0.24032894718E+02  0.31655366455E+02  0.00000000000E+00 0. -1.
</event>
<event>
 7    1  0.7470072E-010  0.4778727E+02  0.7816164E-02  0.1312668E+00
        -11   -1    0    0    0    0  0.00000000000E+00  0.00000000000E+00  0.45593999997E+02  0.45594000000E+02  0.51100000000E-03 0.  1.
         11   -1    0    0    0    0 -0.00000000000E+00 -0.00000000000E+00 -0.45593999997E+02  0.45594000000E+02  0.51100000000E-03 0. -1.
    9900012    2    1    2    0    0 -0.39200973322E+02 -0.18597255303E+02 -0.10243169305E+01  0.47787269138E+02  0.19999991307E+02 0.  0.
        -12    1    1    2    0    0  0.39200973322E+02  0.18597255303E+02  0.10243169305E+01  0.43400730862E+02  0.00000000000E+00 0.  1.
         11    1    3    3    0    0 -0.35550360398E+02 -0.10440580178E+02 -0.55915372433E+01  0.37471310731E+02  0.51100000000E-03 0. -1.
        -11    1    3    3    0    0 -0.38899602681E+01 -0.67749327265E+01  0.41844252108E+01  0.88623314620E+01  0.51100000000E-03 0.  1.
        -12    1    3    3    0    0  0.23934734413E+00 -0.13817423977E+01  0.38279510196E+00  0.14536269449E+01  0.00000000000E+00 0.  1.
</event>
<event>
 7    1  0.7470072E-010  0.4778727E+02  0.7816164E-02  0.1312668E+00
        -11   -1    0    0    0    0  0.00000000000E+00  0.00000000000E+00  0.45593999997E+02  0.45594000000E+02  0.51100000000E-03 0. -1.
         11   -1    0    0    0    0 -0.00000000000E+00 -0.00000000000E+00 -0.45593999997E+02  0.45594000000E+02  0.51100000000E-03 0.  1.
    9900012    2    1    2    0    0 -0.17208042553E+02 -0.31038663031E+01  0.39722442174E+02  0.47787272739E+02  0.20000007724E+02 0.  0.
        -12    1    1    2    0    0  0.17208042553E+02  0.31038663031E+01 -0.39722442174E+02  0.43400727261E+02  0.00000000000E+00 0.  1.
         11    1    3    3    0    0 -0.11701372019E+02  0.61185684635E+01  0.20977612398E+02  0.24787480900E+02  0.51100000000E-03 0. -1.
        -11    1    3    3    0    0 -0.57744982501E+01 -0.99546167799E+01  0.13686891172E+02  0.17882119994E+02  0.51100000000E-03 0.  1.
         12    1    3    3    0    0  0.26782771583E+00  0.73218201337E+00  0.50579386038E+01  0.51176718443E+01  0.00000000000E+00 0. -1.
</event>
<event>
 7    1  0.7470072E-010  0.4778727E+02  0.7816164E-02  0.1312668E+00
        -11   -1    0    0    0    0  0.00000000000E+00  0.00000000000E+00  0.45593999997E+02  0.45594000000E+02  0.51100000000E-03 0. -1.
         11   -1    0    0    0    0 -0.00000000000E+00 -0.00000000000E+00 -0.45593999997E+02  0.45594000000E+02  0.51100000000E-03 0.  1.
    9900012    2    1    2    0    0 -0.25892896198E+02  0.93604185370E+01  0.33549422072E+02  0.47787271549E+02  0.20000002300E+02 0.  0.
        -12    1    1    2    0    0  0.25892896198E+02 -0.93604185370E+01 -0.33549422072E+02  0.43400728451E+02  0.00000000000E+00 0.  1.
         11    1    3    3    0    0 -0.25594807453E+01 -0.32551929280E+00  0.14419076579E+02  0.14648094557E+02  0.51100000000E-03 0. -1.
        -11    1    3    3    0    0 -0.11532673987E+02  0.93247288157E+01  0.77184130060E+01  0.16719062066E+02  0.51100000000E-03 0.  1.
        -12    1    3    3    0    0 -0.11800741465E+02  0.36120901413E+00  0.11411932487E+02  0.16420114925E+02  0.00000000000E+00 0.  1.
</event>
<event>
 7    1  0.7470072E-010  0.4778727E+02  0.7816164E-02  0.1312668E+00
        -11   -1    0    0    0    0  0.00000000000E+00  0.00000000000E+00  0.45593999997E+02  0.45594000000E+02  0.51100000000E-03 0. -1.
         11   -1    0    0    0    0 -0.00000000000E+00 -0.00000000000E+00 -0.45593999997E+02  0.45594000000E+02  0.51100000000E-03 0.  1.
    9900012    2    1    2    0    0  0.49583918844E+01  0.37616306979E+02 -0.21072522421E+02  0.47787269569E+02  0.19999993272E+02 0.  0.
         12    1    1    2    0    0 -0.49583918844E+01 -0.37616306979E+02  0.21072522421E+02  0.43400730431E+02  0.00000000000E+00 0. -1.
         11    1    3    3    0    0  0.10682825184E+02  0.12871675577E+02 -0.10599147207E+02  0.19802643961E+02  0.51100000000E-03 0.  1.
        -11    1    3    3    0    0 -0.40009074219E+01  0.14940964803E+02 -0.35786640411E+01  0.15875973231E+02  0.51100000000E-03 0. -1.
        -12    1    3    3    0    0 -0.17235258779E+01  0.98036665986E+01 -0.68947111724E+01  0.12108652377E+02  0.00000000000E+00 0.  1.
</event>
<event>
 7    1  0.7470072E-010  0.4778727E+02  0.7816164E-02  0.1312668E+00
        -11   -1    0    0    0    0  0.00000000000E+00  0.00000000000E+00  0.45593999997E+02  0.45594000000E+02  0.51100000000E-03 0. -1.
         11   -1    0    0    0    0 -0.00000000000E+00 -0.00000000000E+00 -0.45593999997E+02  0.45594000000E+02  0.51100000000E-03 0.  1.
    9900012    2    1    2    0    0  0.39528489964E+01 -0.24075546917E+01  0.43153238214E+02  0.47787270707E+02  0.19999998462E+02 0.  0.
        -12    1    1    2    0    0 -0.39528489964E+01  0.24075546917E+01 -0.43153238214E+02  0.43400729293E+02  0.00000000000E+00 0.  1.
         11    1    3    3    0    0 -0.44085269594E+00 -0.41405306335E+01  0.34738036813E+02  0.34986705288E+02  0.51100000000E-03 0. -1.
        -11    1    3    3    0    0  0.26680642334E+01 -0.10533042721E+01 -0.83452316185E+00  0.29873810959E+01  0.51100000000E-03 0.  1.
        -12    1    3    3    0    0  0.17256374589E+01  0.27862802139E+01  0.92497245633E+01  0.98131843235E+01  0.00000000000E+00 0.  1.
</event>
<event>
 7    1  0.7470072E-010  0.4778728E+02  0.7816164E-02  0.1312668E+00
        -11   -1    0    0    0    0  0.00000000000E+00  0.00000000000E+00  0.45593999997E+02  0.45594000000E+02  0.51100000000E-03 0.  1.
         11   -1    0    0    0    0 -0.00000000000E+00 -0.00000000000E+00 -0.45593999997E+02  0.45594000000E+02  0.51100000000E-03 0. -1.
    9900012    2    1    2    0    0 -0.17658546847E+02  0.28279592732E+02 -0.27786015078E+02  0.47787282544E+02  0.20000052430E+02 0.  0.
         12    1    1    2    0    0  0.17658546847E+02 -0.28279592732E+02  0.27786015078E+02  0.43400717456E+02  0.00000000000E+00 0. -1.
         11    1    3    3    0    0  0.24099990279E+01  0.14449446406E+01 -0.23320033422E+01  0.36516024124E+01  0.51100000000E-03 0. -1.
        -11    1    3    3    0    0 -0.20708831495E+02  0.26367083214E+02 -0.26561446923E+02  0.42773698016E+02  0.51100000000E-03 0.  1.
        -12    1    3    3    0    0  0.64028561995E+00  0.46756487729E+00  0.11074351870E+01  0.13619821155E+01  0.00000000000E+00 0.  1.
</event>
<event>
 7    1  0.7470072E-010  0.4778726E+02  0.7816164E-02  0.1312668E+00
        -11   -1    0    0    0    0  0.00000000000E+00  0.00000000000E+00  0.45593999997E+02  0.45594000000E+02  0.51100000000E-03 0. -1.
         11   -1    0    0    0    0 -0.00000000000E+00 -0.00000000000E+00 -0.45593999997E+02  0.45594000000E+02  0.51100000000E-03 0.  1.
    9900012    2    1    2    0    0 -0.26036904735E+02 -0.19385037389E+02  0.28808408119E+02  0.47787257368E+02  0.19999937642E+02 0.  0.
        -12    1    1    2    0    0  0.26036904735E+02  0.19385037389E+02 -0.28808408119E+02  0.43400742632E+02  0.00000000000E+00 0.  1.
         11    1    3    3    0    0 -0.16922064216E+01 -0.64049665197E+01  0.52196563652E+01  0.84339772067E+01  0.51100000000E-03 0. -1.
        -11    1    3    3    0    0 -0.12099266390E+02 -0.44212772306E+01  0.19062678387E+01  0.13022050409E+02  0.51100000000E-03 0.  1.
        -12    1    3    3    0    0 -0.12245431923E+02 -0.85587936384E+01  0.21682483915E+02  0.26331229752E+02  0.00000000000E+00 0.  1.
</event>
<event>
 7    1  0.7470072E-010  0.4778727E+02  0.7816164E-02  0.1312668E+00
        -11   -1    0    0    0    0  0.00000000000E+00  0.00000000000E+00  0.45593999997E+02  0.45594000000E+02  0.51100000000E-03 0. -1.
         11   -1    0    0    0    0 -0.00000000000E+00 -0.00000000000E+00 -0.45593999997E+02  0.45594000000E+02  0.51100000000E-03 0.  1.
    9900012    2    1    2    0    0 -0.45617788816E+01  0.41021006833E+02 -0.13419786165E+02  0.47787268568E+02  0.19999988707E+02 0.  0.
         12    1    1    2    0    0  0.45617788816E+01 -0.41021006833E+02  0.13419786165E+02  0.43400731432E+02  0.00000000000E+00 0. -1.
         11    1    3    3    0    0  0.35868831427E+01  0.25344662621E+01 -0.32690020816E+01  0.54749999803E+01  0.51100000000E-03 0. -1.
        -11    1    3    3    0    0 -0.10909331343E+01  0.19052896528E+02  0.42511696089E+00  0.19088837731E+02  0.51100000000E-03 0.  1.
        -12    1    3    3    0    0 -0.70577288900E+01  0.19433644043E+02 -0.10575901044E+02  0.23223430857E+02  0.00000000000E+00 0.  1.
</event>
<event>
 7    1  0.7470072E-010  0.4778727E+02  0.7816164E-02  0.1312668E+00
        -11   -1    0    0    0    0  0.00000000000E+00  0.00000000000E+00  0.45593999997E+02  0.45594000000E+02  0.51100000000E-03 0. -1.
         11   -1    0    0    0    0 -0.00000000000E+00 -0.00000000000E+00 -0.45593999997E+02  0.45594000000E+02  0.51100000000E-03 0.  1.
    9900012    2    1    2    0    0  0.18931139988E+02  0.16620363735E+02  0.35341174437E+02  0.47787272327E+02  0.20000005847E+02 0.  0.
        -12    1    1    2    0    0 -0.18931139988E+02 -0.16620363735E+02 -0.35341174437E+02  0.43400727673E+02  0.00000000000E+00 0.  1.
         11    1    3    3    0    0  0.83267156002E-01  0.17230900562E+01  0.17024413105E+02  0.17111592988E+02  0.51100000000E-03 0. -1.
        -11    1    3    3    0    0  0.18070340171E+02  0.12211098236E+02  0.16321262984E+02  0.27240259538E+02  0.51100000000E-03 0.  1.
         12    1    3    3    0    0  0.77753266079E+00  0.26861754432E+01  0.19954983482E+01  0.34354198008E+01  0.00000000000E+00 0. -1.
</event>
<event>
 7    1  0.7470072E-010  0.4778725E+02  0.7816164E-02  0.1312668E+00
        -11   -1    0    0    0    0  0.00000000000E+00  0.00000000000E+00  0.45593999997E+02  0.45594000000E+02  0.51100000000E-03 0. -1.
         11   -1    0    0    0    0 -0.00000000000E+00 -0.00000000000E+00 -0.45593999997E+02  0.45594000000E+02  0.51100000000E-03 0.  1.
    9900012    2    1    2    0    0  0.10498293585E+02  0.81844905374E+01  0.41308893087E+02  0.47787254596E+02  0.19999925005E+02 0.  0.
        -12    1    1    2    0    0 -0.10498293585E+02 -0.81844905374E+01 -0.41308893087E+02  0.43400745404E+02  0.00000000000E+00 0.  1.
         11    1    3    3    0    0 -0.15710278866E+01  0.86424100404E+01  0.20464480832E+02  0.22270032688E+02  0.51100000000E-03 0. -1.
        -11    1    3    3    0    0  0.62343204387E+01 -0.17518318336E+01  0.39231261764E+01  0.75714321870E+01  0.51100000000E-03 0.  1.
         12    1    3    3    0    0  0.58350010332E+01  0.12939123307E+01  0.16921286078E+02  0.17945789721E+02  0.00000000000E+00 0. -1.
</event>
<event>
 7    1  0.7470072E-010  0.4778727E+02  0.7816164E-02  0.1312668E+00
        -11   -1    0    0    0    0  0.00000000000E+00  0.00000000000E+00  0.45593999997E+02  0.45594000000E+02  0.51100000000E-03 0. -1.
         11   -1    0    0    0    0 -0.00000000000E+00 -0.00000000000E+00 -0.45593999997E+02  0.45594000000E+02  0.51100000000E-03 0.  1.
    9900012    2    1    2    0    0 -0.24442151628E+02  0.75863756928E+01  0.35052126537E+02  0.47787269048E+02  0.19999990899E+02 0.  0.
        -12    1    1    2    0    0  0.24442151628E+02 -0.75863756928E+01 -0.35052126537E+02  0.43400730952E+02  0.00000000000E+00 0.  1.
         11    1    3    3    0    0 -0.48758783797E+01 -0.58218970557E+00  0.10079787588E+02  0.11212281343E+02  0.51100000000E-03 0. -1.
        -11    1    3    3    0    0 -0.41532065179E+01  0.76318460072E+01  0.17278133362E+02  0.19339805857E+02  0.51100000000E-03 0.  1.
        -12    1    3    3    0    0 -0.15413066730E+02  0.53671939123E+00  0.76942055870E+01  0.17235181848E+02  0.00000000000E+00 0.  1.
</event>
<event>
 7    1  0.7470072E-010  0.4778727E+02  0.7816164E-02  0.1312668E+00
        -11   -1    0    0    0    0  0.00000000000E+00  0.00000000000E+00  0.45593999997E+02  0.45594000000E+02  0.51100000000E-03 0. -1.
         11   -1    0    0    0    0 -0.00000000000E+00 -0.00000000000E+00 -0.45593999997E+02  0.45594000000E+02  0.51100000000E-03 0.  1.
    9900012    2    1    2    0    0 -0.52695505304E+01  0.21506105668E+02  0.37327503915E+02  0.47787270832E+02  0.19999999030E+02 0.  0.
        -12    1    1    2    0    0  0.52695505304E+01 -0.21506105668E+02 -0.37327503915E+02  0.43400729168E+02  0.00000000000E+00 0.  1.
         11    1    3    3    0    0 -0.11489809480E+02  0.15150638365E+02  0.31621856069E+02  0.36898500597E+02  0.51100000000E-03 0. -1.
        -11    1    3    3    0    0  0.48168203853E+01  0.60284478792E+01  0.41249774805E+01  0.87498218229E+01  0.51100000000E-03 0.  1.
         12    1    3    3    0    0  0.14034385640E+01  0.32701942336E+00  0.15806703656E+01  0.21389484124E+01  0.00000000000E+00 0. -1.
</event>
<event>
 7    1  0.7470072E-010  0.4778728E+02  0.7816164E-02  0.1312668E+00
        -11   -1    0    0    0    0  0.00000000000E+00  0.00000000000E+00  0.45593999997E+02  0.45594000000E+02  0.51100000000E-03 0. -1.
         11   -1    0    0    0    0 -0.00000000000E+00 -0.00000000000E+00 -0.45593999997E+02  0.45594000000E+02  0.51100000000E-03 0.  1.
    9900012    2    1    2    0    0 -0.20924861977E+02  0.16801425834E+02 -0.34109896483E+02  0.47787276540E+02  0.20000025056E+02 0.  0.
         12    1    1    2    0    0  0.20924861977E+02 -0.16801425834E+02  0.34109896483E+02  0.43400723460E+02  0.00000000000E+00 0. -1.
         11    1    3    3    0    0 -0.91282599734E+01 -0.20633574565E+01 -0.12181100696E+02  0.15361047769E+02  0.51100000000E-03 0. -1.
        -11    1    3    3    0    0 -0.53954495024E+01  0.12269324292E+02 -0.76143434799E+01  0.15415103658E+02  0.51100000000E-03 0.  1.
        -12    1    3    3    0    0 -0.64011525012E+01  0.65954589984E+01 -0.14314452307E+02  0.17011125112E+02  0.00000000000E+00 0.  1.
</event>
<event>
 7    1  0.7470072E-010  0.4778727E+02  0.7816164E-02  0.1312668E+00
        -11   -1    0    0    0    0  0.00000000000E+00  0.00000000000E+00  0.45593999997E+02  0.45594000000E+02  0.51100000000E-03 0. -1.
         11   -1    0    0    0    0 -0.00000000000E+00 -0.00000000000E+00 -0.45593999997E+02  0.45594000000E+02  0.51100000000E-03 0.  1.
    9900012    2    1    2    0    0 -0.23177236404E+02 -0.27148442281E+02  0.24686052587E+02  0.47787269615E+02  0.19999993483E+02 0.  0.
        -12    1    1    2    0    0  0.23177236404E+02  0.27148442281E+02 -0.24686052587E+02  0.43400730385E+02  0.00000000000E+00 0.  1.
         11    1    3    3    0    0 -0.43530757315E+01 -0.10940343049E+02  0.75396753450E+00  0.11798679658E+02  0.51100000000E-03 0. -1.
        -11    1    3    3    0    0 -0.18947815792E+02 -0.14344473515E+02  0.24402358619E+02  0.34062571103E+02  0.51100000000E-03 0.  1.
        -12    1    3    3    0    0  0.12365512008E+00 -0.18636257171E+01 -0.47027356588E+00  0.19260188547E+01  0.00000000000E+00 0.  1.
</event>
<event>
 7    1  0.7470072E-010  0.4778727E+02  0.7816164E-02  0.1312668E+00
        -11   -1    0    0    0    0  0.00000000000E+00  0.00000000000E+00  0.45593999997E+02  0.45594000000E+02  0.51100000000E-03 0. -1.
         11   -1    0    0    0    0 -0.00000000000E+00 -0.00000000000E+00 -0.45593999997E+02  0.45594000000E+02  0.51100000000E-03 0.  1.
    9900012    2    1    2    0    0 -0.26297290680E+02  0.33052687311E+01  0.34367876804E+02  0.47787271267E+02  0.20000001016E+02 0.  0.
        -12    1    1    2    0    0  0.26297290680E+02 -0.33052687311E+01 -0.34367876804E+02  0.43400728733E+02  0.00000000000E+00 0.  1.
         11    1    3    3    0    0 -0.24165462915E+02 -0.12860609455E+01  0.30181338512E+02  0.38685097199E+02  0.51100000000E-03 0. -1.
        -11    1    3    3    0    0 -0.21890899457E+01  0.55385335776E+01  0.13437275707E+01  0.61051677312E+01  0.51100000000E-03 0.  1.
        -12    1    3    3    0    0  0.57262180371E-01 -0.94720390092E+00  0.28428107212E+01  0.29970063370E+01  0.00000000000E+00 0.  1.
</event>
<event>
 7    1  0.7470072E-010  0.4778727E+02  0.7816164E-02  0.1312668E+00
        -11   -1    0    0    0    0  0.00000000000E+00  0.00000000000E+00  0.45593999997E+02  0.45594000000E+02  0.51100000000E-03 0. -1.
         11   -1    0    0    0    0 -0.00000000000E+00 -0.00000000000E+00 -0.45593999997E+02  0.45594000000E+02  0.51100000000E-03 0.  1.
    9900012    2    1    2    0    0  0.12860918087E+02  0.77061993627E+01 -0.40728790634E+02  0.47787272942E+02  0.20000008651E+02 0.  0.
         12    1    1    2    0    0 -0.12860918087E+02 -0.77061993627E+01  0.40728790634E+02  0.43400727058E+02  0.00000000000E+00 0. -1.
         11    1    3    3    0    0  0.21753461355E+01 -0.48110804429E+00  0.64628972400E+00  0.23197599936E+01  0.51100000000E-03 0.  1.
        -11    1    3    3    0    0  0.10885418753E+02  0.88710170066E+01 -0.42142494823E+02  0.44420458737E+02  0.51100000000E-03 0. -1.
         12    1    3    3    0    0 -0.19984680145E+00 -0.68370959965E+00  0.76741446516E+00  0.10470542116E+01  0.00000000000E+00 0. -1.
</event>
<event>
 7    1  0.7470072E-010  0.4778727E+02  0.7816164E-02  0.1312668E+00
        -11   -1    0    0    0    0  0.00000000000E+00  0.00000000000E+00  0.45593999997E+02  0.45594000000E+02  0.51100000000E-03 0. -1.
         11   -1    0    0    0    0 -0.00000000000E+00 -0.00000000000E+00 -0.45593999997E+02  0.45594000000E+02  0.51100000000E-03 0.  1.
    9900012    2    1    2    0    0  0.37625850753E+02  0.15321850616E+02  0.15269561853E+02  0.47787271085E+02  0.20000000186E+02 0.  0.
        -12    1    1    2    0    0 -0.37625850753E+02 -0.15321850616E+02 -0.15269561853E+02  0.43400728915E+02  0.00000000000E+00 0.  1.
         11    1    3    3    0    0  0.56235832736E+01  0.18948755415E+01  0.59982137028E+01  0.84376424455E+01  0.51100000000E-03 0. -1.
        -11    1    3    3    0    0  0.14459096371E+01  0.21635796224E+01  0.60970105536E+01  0.66291228238E+01  0.51100000000E-03 0.  1.
        -12    1    3    3    0    0  0.30556357842E+02  0.11263395452E+02  0.31743375967E+01  0.32720505816E+02  0.00000000000E+00 0.  1.
</event>
<event>
 7    1  0.7470072E-010  0.4778726E+02  0.7816164E-02  0.1312668E+00
        -11   -1    0    0    0    0  0.00000000000E+00  0.00000000000E+00  0.45593999997E+02  0.45594000000E+02  0.51100000000E-03 0. -1.
         11   -1    0    0    0    0 -0.00000000000E+00 -0.00000000000E+00 -0.45593999997E+02  0.45594000000E+02  0.51100000000E-03 0.  1.
    9900012    2    1    2    0    0  0.29504070652E+02  0.25903458495E+02  0.18497156051E+02  0.47787261193E+02  0.19999955084E+02 0.  0.
        -12    1    1    2    0    0 -0.29504070652E+02 -0.25903458495E+02 -0.18497156051E+02  0.43400738807E+02  0.00000000000E+00 0.  1.
         11    1    3    3    0    0  0.29190024043E+02  0.25530049622E+02  0.15955607568E+02  0.41933546838E+02  0.51100000000E-03 0. -1.
        -11    1    3    3    0    0  0.14396615861E+01 -0.19415259627E+01  0.21789288164E+01  0.32542095191E+01  0.51100000000E-03 0.  1.
         12    1    3    3    0    0 -0.11256149771E+01  0.23149348355E+01  0.36261966665E+00  0.25995048359E+01  0.00000000000E+00 0. -1.
</event>
<event>
 7    1  0.7470072E-010  0.4778727E+02  0.7816164E-02  0.1312668E+00
        -11   -1    0    0    0    0  0.00000000000E+00  0.00000000000E+00  0.45593999997E+02  0.45594000000E+02  0.51100000000E-03 0. -1.
         11   -1    0    0    0    0 -0.00000000000E+00 -0.00000000000E+00 -0.45593999997E+02  0.45594000000E+02  0.51100000000E-03 0.  1.
    9900012    2    1    2    0    0  0.16958397976E+02 -0.19894909887E+02 -0.34644313602E+02  0.47787272284E+02  0.20000005652E+02 0.  0.
         12    1    1    2    0    0 -0.16958397976E+02  0.19894909887E+02  0.34644313602E+02  0.43400727716E+02  0.00000000000E+00 0. -1.
         11    1    3    3    0    0  0.10172310429E+02  0.17391288664E+00 -0.92282850074E+01  0.13735624835E+02  0.51100000000E-03 0. -1.
        -11    1    3    3    0    0 -0.38714659150E+00 -0.21313168015E+01 -0.49988468931E-01  0.21667701539E+01  0.51100000000E-03 0.  1.
         12    1    3    3    0    0  0.71732341383E+01 -0.17937505972E+02 -0.25366040125E+02  0.31884877295E+02  0.00000000000E+00 0. -1.
</event>
<event>
 7    1  0.8608104E-010  0.4778727E+02  0.7816164E-02  0.1312668E+00
        -11   -1    0    0    0    0  0.00000000000E+00  0.00000000000E+00  0.45593999997E+02  0.45594000000E+02  0.51100000000E-03 0. -1.
         11   -1    0    0    0    0 -0.00000000000E+00 -0.00000000000E+00 -0.45593999997E+02  0.45594000000E+02  0.51100000000E-03 0.  1.
    9900012    2    1    2    0    0  0.17825415423E+01 -0.14819702634E+02  0.40753189864E+02  0.47787268156E+02  0.19999986829E+02 0.  0.
        -12    1    1    2    0    0 -0.17825415423E+01  0.14819702634E+02 -0.40753189864E+02  0.43400731844E+02  0.00000000000E+00 0.  1.
         11    1    3    3    0    0  0.38289168680E+01 -0.51095860545E+01  0.25281508578E+02  0.26075336053E+02  0.51100000000E-03 0. -1.
        -11    1    3    3    0    0  0.14979528580E+01 -0.35988330507E+01 -0.79409104774E+00  0.39781959410E+01  0.51100000000E-03 0.  1.
         12    1    3    3    0    0 -0.35443281836E+01 -0.61112835284E+01  0.16265772334E+02  0.17733736162E+02  0.00000000000E+00 0. -1.
</event>
<event>
 7    1  0.7470072E-010  0.4778727E+02  0.7816164E-02  0.1312668E+00
        -11   -1    0    0    0    0  0.00000000000E+00  0.00000000000E+00  0.45593999997E+02  0.45594000000E+02  0.51100000000E-03 0. -1.
         11   -1    0    0    0    0 -0.00000000000E+00 -0.00000000000E+00 -0.45593999997E+02  0.45594000000E+02  0.51100000000E-03 0.  1.
    9900012    2    1    2    0    0 -0.24105997364E+02 -0.35877718678E+02 -0.39132430448E+01  0.47787271002E+02  0.19999999806E+02 0.  0.
         12    1    1    2    0    0  0.24105997364E+02  0.35877718678E+02  0.39132430448E+01  0.43400728998E+02  0.00000000000E+00 0. -1.
         11    1    3    3    0    0 -0.10633539991E+02 -0.74143251025E+01 -0.76372355154E+01  0.15045655720E+02  0.51100000000E-03 0. -1.
        -11    1    3    3    0    0 -0.14399989164E+02 -0.27817469778E+02  0.31723039192E+01  0.31483881990E+02  0.51100000000E-03 0.  1.
         12    1    3    3    0    0  0.92753179089E+00 -0.64592379775E+00  0.55168855142E+00  0.12577332918E+01  0.00000000000E+00 0. -1.
</event>
<event>
 7    1  0.7470072E-010  0.4778724E+02  0.7816164E-02  0.1312668E+00
        -11   -1    0    0    0    0  0.00000000000E+00  0.00000000000E+00  0.45593999997E+02  0.45594000000E+02  0.51100000000E-03 0. -1.
         11   -1    0    0    0    0 -0.00000000000E+00 -0.00000000000E+00 -0.45593999997E+02  0.45594000000E+02  0.51100000000E-03 0.  1.
    9900012    2    1    2    0    0  0.33005772826E+02 -0.24188710982E+02 -0.14462047767E+02  0.47787244196E+02  0.19999877585E+02 0.  0.
         12    1    1    2    0    0 -0.33005772826E+02  0.24188710982E+02  0.14462047767E+02  0.43400755804E+02  0.00000000000E+00 0. -1.
         11    1    3    3    0    0  0.18981071846E+02 -0.11469343349E+02  0.13565165925E+00  0.22177586138E+02  0.51100000000E-03 0. -1.
        -11    1    3    3    0    0  0.34353774784E+01 -0.10574168442E+01 -0.75311029510E+01  0.83449062739E+01  0.51100000000E-03 0.  1.
        -12    1    3    3    0    0  0.10589323502E+02 -0.11661950788E+02 -0.70665964752E+01  0.17264751784E+02  0.00000000000E+00 0.  1.
</event>
<event>
 7    1  0.7470072E-010  0.4778727E+02  0.7816164E-02  0.1312668E+00
        -11   -1    0    0    0    0  0.00000000000E+00  0.00000000000E+00  0.45593999997E+02  0.45594000000E+02  0.51100000000E-03 0. -1.
         11   -1    0    0    0    0 -0.00000000000E+00 -0.00000000000E+00 -0.45593999997E+02  0.45594000000E+02  0.51100000000E-03 0.  1.
    9900012    2    1    2    0    0 -0.40855572307E+02 -0.60466810009E+01 -0.13337284468E+02  0.47787270783E+02  0.19999998807E+02 0.  0.
         12    1    1    2    0    0  0.40855572307E+02  0.60466810009E+01  0.13337284468E+02  0.43400729217E+02  0.00000000000E+00 0. -1.
         11    1    3    3    0    0 -0.25578017867E+01  0.14818060177E+01  0.80137913317E+00  0.30627288209E+01  0.51100000000E-03 0. -1.
        -11    1    3    3    0    0 -0.32354563574E+02 -0.18516640020E+01 -0.56267469484E+01  0.32892350556E+02  0.51100000000E-03 0.  1.
        -12    1    3    3    0    0 -0.59432069463E+01 -0.56768230165E+01 -0.85119166524E+01  0.11832191406E+02  0.00000000000E+00 0.  1.
</event>
<event>
 7    1  0.7470072E-010  0.4778727E+02  0.7816164E-02  0.1312668E+00
        -11   -1    0    0    0    0  0.00000000000E+00  0.00000000000E+00  0.45593999997E+02  0.45594000000E+02  0.51100000000E-03 0. -1.
         11   -1    0    0    0    0 -0.00000000000E+00 -0.00000000000E+00 -0.45593999997E+02  0.45594000000E+02  0.51100000000E-03 0.  1.
    9900012    2    1    2    0    0 -0.12533908225E+02  0.36384190696E+02  0.20067761604E+02  0.47787271391E+02  0.20000001579E+02 0.  0.
        -12    1    1    2    0    0  0.12533908225E+02 -0.36384190696E+02 -0.20067761604E+02  0.43400728609E+02  0.00000000000E+00 0.  1.
         11    1    3    3    0    0 -0.13970354194E+02  0.33772373576E+02  0.13361711157E+02  0.38913742284E+02  0.51100000000E-03 0. -1.
        -11    1    3    3    0    0 -0.88763536831E+00  0.14069395370E+01  0.59065231243E+01  0.61363173880E+01  0.51100000000E-03 0.  1.
        -12    1    3    3    0    0  0.23240813371E+01  0.12048775836E+01  0.79952732274E+00  0.27372117187E+01  0.00000000000E+00 0.  1.
</event>
<event>
 7    1  0.7470072E-010  0.4778727E+02  0.7816164E-02  0.1312668E+00
        -11   -1    0    0    0    0  0.00000000000E+00  0.00000000000E+00  0.45593999997E+02  0.45594000000E+02  0.51100000000E-03 0. -1.
         11   -1    0    0    0    0 -0.00000000000E+00 -0.00000000000E+00 -0.45593999997E+02  0.45594000000E+02  0.51100000000E-03 0.  1.
    9900012    2    1    2    0    0 -0.16956322506E+02 -0.13075750538E+02 -0.37750906420E+02  0.47787273501E+02  0.20000011202E+02 0.  0.
         12    1    1    2    0    0  0.16956322506E+02  0.13075750538E+02  0.37750906420E+02  0.43400726499E+02  0.00000000000E+00 0. -1.
         11    1    3    3    0    0 -0.22566184606E+01  0.22653229536E+01 -0.41456776384E+01  0.52355189144E+01  0.51100000000E-03 0. -1.
        -11    1    3    3    0    0 -0.13697763848E+02 -0.17382046682E+02 -0.33652958002E+02  0.40277609957E+02  0.51100000000E-03 0.  1.
        -12    1    3    3    0    0 -0.10019401968E+01  0.20409731897E+01  0.47729220203E-01  0.22741446299E+01  0.00000000000E+00 0.  1.
</event>
<event>
 7    1  0.7470072E-010  0.4778728E+02  0.7816164E-02  0.1312668E+00
        -11   -1    0    0    0    0  0.00000000000E+00  0.00000000000E+00  0.45593999997E+02  0.45594000000E+02  0.51100000000E-03 0. -1.
         11   -1    0    0    0    0 -0.00000000000E+00 -0.00000000000E+00 -0.45593999997E+02  0.45594000000E+02  0.51100000000E-03 0.  1.
    9900012    2    1    2    0    0  0.26007746038E+02  0.29733890963E+02  0.17975419337E+02  0.47787276204E+02  0.20000023523E+02 0.  0.
        -12    1    1    2    0    0 -0.26007746038E+02 -0.29733890963E+02 -0.17975419337E+02  0.43400723796E+02  0.00000000000E+00 0.  1.
         11    1    3    3    0    0  0.26325694657E+02  0.21102547201E+02  0.18543996708E+02  0.38499863788E+02  0.51100000000E-03 0. -1.
        -11    1    3    3    0    0 -0.73605332249E+00  0.43791900992E+01 -0.18738949702E+01  0.48198094401E+01  0.51100000000E-03 0.  1.
         12    1    3    3    0    0  0.41810470317E+00  0.42521536627E+01  0.13053175992E+01  0.44676029757E+01  0.00000000000E+00 0. -1.
</event>
<event>
 7    1  0.7470072E-010  0.4778727E+02  0.7816164E-02  0.1312668E+00
        -11   -1    0    0    0    0  0.00000000000E+00  0.00000000000E+00  0.45593999997E+02  0.45594000000E+02  0.51100000000E-03 0. -1.
         11   -1    0    0    0    0 -0.00000000000E+00 -0.00000000000E+00 -0.45593999997E+02  0.45594000000E+02  0.51100000000E-03 0.  1.
    9900012    2    1    2    0    0 -0.28109608325E+02 -0.24213616671E+02 -0.22520521315E+02  0.47787271979E+02  0.20000004259E+02 0.  0.
         12    1    1    2    0    0  0.28109608325E+02  0.24213616671E+02  0.22520521315E+02  0.43400728021E+02  0.00000000000E+00 0. -1.
         11    1    3    3    0    0 -0.30494289811E+01 -0.13441467387E+02 -0.11565755974E+02  0.17992742263E+02  0.51100000000E-03 0. -1.
        -11    1    3    3    0    0 -0.21221766246E+02 -0.76117965227E+01 -0.10273783181E+02  0.24776065669E+02  0.51100000000E-03 0.  1.
         12    1    3    3    0    0 -0.38384130982E+01 -0.31603527622E+01 -0.68098215950E+00  0.50184640474E+01  0.00000000000E+00 0. -1.
</event>
<event>
 7    1  0.7470072E-010  0.4778730E+02  0.7816164E-02  0.1312668E+00
        -11   -1    0    0    0    0  0.00000000000E+00  0.00000000000E+00  0.45593999997E+02  0.45594000000E+02  0.51100000000E-03 0. -1.
         11   -1    0    0    0    0 -0.00000000000E+00 -0.00000000000E+00 -0.45593999997E+02  0.45594000000E+02  0.51100000000E-03 0.  1.
    9900012    2    1    2    0    0  0.35975980060E+01  0.54024825443E+01  0.42912604115E+02  0.47787295847E+02  0.20000113083E+02 0.  0.
        -12    1    1    2    0    0 -0.35975980060E+01 -0.54024825443E+01 -0.42912604115E+02  0.43400704153E+02  0.00000000000E+00 0.  1.
         11    1    3    3    0    0  0.71408164092E+01 -0.40148798965E+01  0.18970545398E+02  0.20663787468E+02  0.51100000000E-03 0. -1.
        -11    1    3    3    0    0  0.85833834864E-01  0.75681111343E+01  0.96592998340E+01  0.12271338441E+02  0.51100000000E-03 0.  1.
         12    1    3    3    0    0 -0.36290522381E+01  0.18492513065E+01  0.14282758884E+02  0.14852169938E+02  0.00000000000E+00 0. -1.
</event>
<event>
 7    1  0.7470072E-010  0.4778727E+02  0.7816164E-02  0.1312668E+00
        -11   -1    0    0    0    0  0.00000000000E+00  0.00000000000E+00  0.45593999997E+02  0.45594000000E+02  0.51100000000E-03 0. -1.
         11   -1    0    0    0    0 -0.00000000000E+00 -0.00000000000E+00 -0.45593999997E+02  0.45594000000E+02  0.51100000000E-03 0.  1.
    9900012    2    1    2    0    0  0.41441269661E+02 -0.45370732572E+01  0.12068939283E+02  0.47787272353E+02  0.20000005967E+02 0.  0.
        -12    1    1    2    0    0 -0.41441269661E+02  0.45370732572E+01 -0.12068939283E+02  0.43400727647E+02  0.00000000000E+00 0.  1.
         11    1    3    3    0    0  0.24532220728E+02 -0.45196990214E+01  0.84202653738E+01  0.26327901594E+02  0.51100000000E-03 0. -1.
        -11    1    3    3    0    0 -0.55763750101E+00  0.20736120435E+01 -0.20492349628E+01  0.29681965372E+01  0.51100000000E-03 0.  1.
        -12    1    3    3    0    0  0.17466686434E+02 -0.20909862793E+01  0.56979088724E+01  0.18491174222E+02  0.00000000000E+00 0.  1.
</event>
<event>
 7    1  0.7470072E-010  0.4778727E+02  0.7816164E-02  0.1312668E+00
        -11   -1    0    0    0    0  0.00000000000E+00  0.00000000000E+00  0.45593999997E+02  0.45594000000E+02  0.51100000000E-03 0. -1.
         11   -1    0    0    0    0 -0.00000000000E+00 -0.00000000000E+00 -0.45593999997E+02  0.45594000000E+02  0.51100000000E-03 0.  1.
    9900012    2    1    2    0    0  0.14766295925E+02 -0.29357235290E+02 -0.28350173804E+02  0.47787272886E+02  0.20000008398E+02 0.  0.
         12    1    1    2    0    0 -0.14766295925E+02  0.29357235290E+02  0.28350173804E+02  0.43400727114E+02  0.00000000000E+00 0. -1.
         11    1    3    3    0    0  0.22688774017E+01 -0.68054353475E+01 -0.13947895830E+02  0.15684564172E+02  0.51100000000E-03 0. -1.
        -11    1    3    3    0    0  0.62116108456E+01 -0.20958326775E+02 -0.89131865465E+01  0.23606788540E+02  0.51100000000E-03 0.  1.
         12    1    3    3    0    0  0.62858076778E+01 -0.15934731682E+01 -0.54890914279E+01  0.84959201741E+01  0.00000000000E+00 0. -1.
</event>
<event>
 7    1  0.7470072E-010  0.4778727E+02  0.7816164E-02  0.1312668E+00
        -11   -1    0    0    0    0  0.00000000000E+00  0.00000000000E+00  0.45593999997E+02  0.45594000000E+02  0.51100000000E-03 0. -1.
         11   -1    0    0    0    0 -0.00000000000E+00 -0.00000000000E+00 -0.45593999997E+02  0.45594000000E+02  0.51100000000E-03 0.  1.
    9900012    2    1    2    0    0 -0.38141599797E+01  0.41917645041E+02 -0.10582368388E+02  0.47787270711E+02  0.19999998480E+02 0.  0.
         12    1    1    2    0    0  0.38141599797E+01 -0.41917645041E+02  0.10582368388E+02  0.43400729289E+02  0.00000000000E+00 0. -1.
         11    1    3    3    0    0  0.43869750035E+01  0.23196745317E+02 -0.16843033417E+00  0.23608534728E+02  0.51100000000E-03 0. -1.
        -11    1    3    3    0    0 -0.30253853386E+01  0.84006398259E+00 -0.21900515760E+01  0.38281836566E+01  0.51100000000E-03 0.  1.
         12    1    3    3    0    0 -0.51757496446E+01  0.17880835741E+02 -0.82238864774E+01  0.20350552326E+02  0.00000000000E+00 0. -1.
</event>
<event>
 7    1  0.7470072E-010  0.4778728E+02  0.7816164E-02  0.1312668E+00
        -11   -1    0    0    0    0  0.00000000000E+00  0.00000000000E+00  0.45593999997E+02  0.45594000000E+02  0.51100000000E-03 0. -1.
         11   -1    0    0    0    0 -0.00000000000E+00 -0.00000000000E+00 -0.45593999997E+02  0.45594000000E+02  0.51100000000E-03 0.  1.
    9900012    2    1    2    0    0 -0.83584869632E+01  0.19476604567E+02 -0.37873744038E+02  0.47787275153E+02  0.20000018734E+02 0.  0.
         12    1    1    2    0    0  0.83584869632E+01 -0.19476604567E+02  0.37873744038E+02  0.43400724847E+02  0.00000000000E+00 0. -1.
         11    1    3    3    0    0 -0.18251391857E+01 -0.30796639721E+01 -0.29846463245E+01  0.46608558412E+01  0.51100000000E-03 0. -1.
        -11    1    3    3    0    0 -0.28794298110E+01  0.15411208807E+02 -0.15078997226E+02  0.21752531589E+02  0.51100000000E-03 0.  1.
         12    1    3    3    0    0 -0.36539179664E+01  0.71450597316E+01 -0.19810100488E+02  0.21373887723E+02  0.00000000000E+00 0. -1.
</event>
<event>
 7    1  0.7470072E-010  0.4778727E+02  0.7816164E-02  0.1312668E+00
        -11   -1    0    0    0    0  0.00000000000E+00  0.00000000000E+00  0.45593999997E+02  0.45594000000E+02  0.51100000000E-03 0. -1.
         11   -1    0    0    0    0 -0.00000000000E+00 -0.00000000000E+00 -0.45593999997E+02  0.45594000000E+02  0.51100000000E-03 0.  1.
    9900012    2    1    2    0    0  0.14748116951E+02 -0.28095730076E+02  0.29609897614E+02  0.47787273753E+02  0.20000012348E+02 0.  0.
        -12    1    1    2    0    0 -0.14748116951E+02  0.28095730076E+02 -0.29609897614E+02  0.43400726247E+02  0.00000000000E+00 0.  1.
         11    1    3    3    0    0 -0.39426024620E+01 -0.24260716030E+01  0.19975627603E+01  0.50418443886E+01  0.51100000000E-03 0. -1.
        -11    1    3    3    0    0  0.15544254462E+01 -0.12121799890E+01  0.47269092288E+01  0.51214538866E+01  0.51100000000E-03 0.  1.
         12    1    3    3    0    0  0.17136293967E+02 -0.24457478484E+02  0.22885425625E+02  0.37623975477E+02  0.00000000000E+00 0. -1.
</event>
<event>
 7    1  0.7470072E-010  0.4778727E+02  0.7816164E-02  0.1312668E+00
        -11   -1    0    0    0    0  0.00000000000E+00  0.00000000000E+00  0.45593999997E+02  0.45594000000E+02  0.51100000000E-03 0. -1.
         11   -1    0    0    0    0 -0.00000000000E+00 -0.00000000000E+00 -0.45593999997E+02  0.45594000000E+02  0.51100000000E-03 0.  1.
    9900012    2    1    2    0    0  0.26099534336E+02 -0.32200459523E+02 -0.12867331743E+02  0.47787268298E+02  0.19999987480E+02 0.  0.
         12    1    1    2    0    0 -0.26099534336E+02  0.32200459523E+02  0.12867331743E+02  0.43400731702E+02  0.00000000000E+00 0. -1.
         11    1    3    3    0    0  0.32768206092E+01 -0.85600766203E+01  0.45076715735E+01  0.10214282565E+02  0.51100000000E-03 0. -1.
        -11    1    3    3    0    0  0.21593747838E+02 -0.23426821323E+02 -0.15798263618E+02  0.35562494803E+02  0.51100000000E-03 0.  1.
        -12    1    3    3    0    0  0.12289658884E+01 -0.21356157980E+00 -0.15767396987E+01  0.20104909303E+01  0.00000000000E+00 0.  1.
</event>
<event>
 7    1  0.7470072E-010  0.4778729E+02  0.7816164E-02  0.1312668E+00
        -11   -1    0    0    0    0  0.00000000000E+00  0.00000000000E+00  0.45593999997E+02  0.45594000000E+02  0.51100000000E-03 0. -1.
         11   -1    0    0    0    0 -0.00000000000E+00 -0.00000000000E+00 -0.45593999997E+02  0.45594000000E+02  0.51100000000E-03 0.  1.
    9900012    2    1    2    0    0 -0.25796710626E+01  0.14199276121E+02  0.40931013850E+02  0.47787285260E+02  0.20000064815E+02 0.  0.
        -12    1    1    2    0    0  0.25796710626E+01 -0.14199276121E+02 -0.40931013850E+02  0.43400714740E+02  0.00000000000E+00 0.  1.
         11    1    3    3    0    0  0.24396847835E+01  0.76794790318E+01  0.73024511424E+01  0.10874385178E+02  0.51100000000E-03 0. -1.
        -11    1    3    3    0    0 -0.47983210721E+01  0.23627046000E+01  0.31998115416E+02  0.32442035210E+02  0.51100000000E-03 0.  1.
        -12    1    3    3    0    0 -0.22103477402E+00  0.41570924896E+01  0.16304472914E+01  0.44708648725E+01  0.00000000000E+00 0.  1.
</event>
<event>
 7    1  0.7470072E-010  0.4778727E+02  0.7816164E-02  0.1312668E+00
        -11   -1    0    0    0    0  0.00000000000E+00  0.00000000000E+00  0.45593999997E+02  0.45594000000E+02  0.51100000000E-03 0. -1.
         11   -1    0    0    0    0 -0.00000000000E+00 -0.00000000000E+00 -0.45593999997E+02  0.45594000000E+02  0.51100000000E-03 0.  1.
    9900012    2    1    2    0    0  0.22419003769E+02 -0.26048981905E+02  0.26504003689E+02  0.47787269593E+02  0.19999993385E+02 0.  0.
        -12    1    1    2    0    0 -0.22419003769E+02  0.26048981905E+02 -0.26504003689E+02  0.43400730407E+02  0.00000000000E+00 0.  1.
         11    1    3    3    0    0  0.76929783604E+01 -0.21897152156E+02  0.17302282734E+02  0.28948854497E+02  0.51100000000E-03 0. -1.
        -11    1    3    3    0    0  0.88584932213E+01 -0.25724023184E+01  0.20419491785E+01  0.94477358424E+01  0.51100000000E-03 0.  1.
         12    1    3    3    0    0  0.58675321869E+01 -0.15794274311E+01  0.71597717762E+01  0.93906792546E+01  0.00000000000E+00 0. -1.
</event>
<event>
 7    1  0.7470072E-010  0.4778727E+02  0.7816164E-02  0.1312668E+00
        -11   -1    0    0    0    0  0.00000000000E+00  0.00000000000E+00  0.45593999997E+02  0.45594000000E+02  0.51100000000E-03 0.  1.
         11   -1    0    0    0    0 -0.00000000000E+00 -0.00000000000E+00 -0.45593999997E+02  0.45594000000E+02  0.51100000000E-03 0. -1.
    9900012    2    1    2    0    0  0.41914893459E+02  0.11112493468E+02 -0.18104044086E+01  0.47787269950E+02  0.19999995008E+02 0.  0.
         12    1    1    2    0    0 -0.41914893459E+02 -0.11112493468E+02  0.18104044086E+01  0.43400730050E+02  0.00000000000E+00 0. -1.
         11    1    3    3    0    0 -0.61234044156E+00 -0.73160517170E+00 -0.28708275385E+00  0.99630502975E+00  0.51100000000E-03 0. -1.
        -11    1    3    3    0    0  0.88580683950E+01  0.40704256498E+01 -0.67300308790E+01  0.11845972166E+02  0.51100000000E-03 0.  1.
        -12    1    3    3    0    0  0.33669165506E+02  0.77736729899E+01  0.52067092242E+01  0.34944992754E+02  0.00000000000E+00 0.  1.
</event>
<event>
 7    1  0.7470072E-010  0.4778727E+02  0.7816164E-02  0.1312668E+00
        -11   -1    0    0    0    0  0.00000000000E+00  0.00000000000E+00  0.45593999997E+02  0.45594000000E+02  0.51100000000E-03 0. -1.
         11   -1    0    0    0    0 -0.00000000000E+00 -0.00000000000E+00 -0.45593999997E+02  0.45594000000E+02  0.51100000000E-03 0.  1.
    9900012    2    1    2    0    0 -0.38309748867E+02 -0.16494345164E+02 -0.11996801638E+02  0.47787268092E+02  0.19999986539E+02 0.  0.
         12    1    1    2    0    0  0.38309748867E+02  0.16494345164E+02  0.11996801638E+02  0.43400731908E+02  0.00000000000E+00 0. -1.
         11    1    3    3    0    0  0.43862175859E+00 -0.22063431520E+01 -0.19800242298E+01  0.29968041917E+01  0.51100000000E-03 0. -1.
        -11    1    3    3    0    0 -0.30668285181E+02 -0.10008830085E+02 -0.14999544344E+01  0.32295050073E+02  0.51100000000E-03 0.  1.
        -12    1    3    3    0    0 -0.80800854440E+01 -0.42791719265E+01 -0.85168229735E+01  0.12495413828E+02  0.00000000000E+00 0.  1.
</event>
<event>
 7    1  0.7470072E-010  0.4778727E+02  0.7816164E-02  0.1312668E+00
        -11   -1    0    0    0    0  0.00000000000E+00  0.00000000000E+00  0.45593999997E+02  0.45594000000E+02  0.51100000000E-03 0. -1.
         11   -1    0    0    0    0 -0.00000000000E+00 -0.00000000000E+00 -0.45593999997E+02  0.45594000000E+02  0.51100000000E-03 0.  1.
    9900012    2    1    2    0    0  0.24769875461E+02  0.29412469519E+02  0.20124191705E+02  0.47787272065E+02  0.20000004652E+02 0.  0.
        -12    1    1    2    0    0 -0.24769875461E+02 -0.29412469519E+02 -0.20124191705E+02  0.43400727935E+02  0.00000000000E+00 0.  1.
         11    1    3    3    0    0 -0.38279909499E+00  0.75565274695E+01  0.82136431074E+01  0.11167433720E+02  0.51100000000E-03 0. -1.
        -11    1    3    3    0    0  0.21752738640E+02  0.17053617371E+02  0.13145849836E+02  0.30607529661E+02  0.51100000000E-03 0.  1.
         12    1    3    3    0    0  0.33999359159E+01  0.48023246785E+01 -0.12353012390E+01  0.60123086831E+01  0.00000000000E+00 0. -1.
</event>
<event>
 7    1  0.7470072E-010  0.4778727E+02  0.7816164E-02  0.1312668E+00
        -11   -1    0    0    0    0  0.00000000000E+00  0.00000000000E+00  0.45593999997E+02  0.45594000000E+02  0.51100000000E-03 0. -1.
         11   -1    0    0    0    0 -0.00000000000E+00 -0.00000000000E+00 -0.45593999997E+02  0.45594000000E+02  0.51100000000E-03 0.  1.
    9900012    2    1    2    0    0 -0.20038231998E+02  0.22020690889E+02 -0.31578192113E+02  0.47787265145E+02  0.19999973103E+02 0.  0.
         12    1    1    2    0    0  0.20038231998E+02 -0.22020690889E+02  0.31578192113E+02  0.43400734855E+02  0.00000000000E+00 0. -1.
         11    1    3    3    0    0 -0.14038871944E+01 -0.33450420448E-01  0.18512231341E+00  0.14164352147E+01  0.51100000000E-03 0. -1.
        -11    1    3    3    0    0  0.12435212463E+01  0.84121360126E+00  0.15491497347E+01  0.21572785112E+01  0.51100000000E-03 0.  1.
        -12    1    3    3    0    0 -0.19877866049E+02  0.21212927708E+02 -0.33312464161E+02  0.44213551419E+02  0.00000000000E+00 0.  1.
</event>
<event>
 7    1  0.7470072E-010  0.4778727E+02  0.7816164E-02  0.1312668E+00
        -11   -1    0    0    0    0  0.00000000000E+00  0.00000000000E+00  0.45593999997E+02  0.45594000000E+02  0.51100000000E-03 0. -1.
         11   -1    0    0    0    0 -0.00000000000E+00 -0.00000000000E+00 -0.45593999997E+02  0.45594000000E+02  0.51100000000E-03 0.  1.
    9900012    2    1    2    0    0  0.27333448086E+02  0.26503730958E+02 -0.20834057886E+02  0.47787272967E+02  0.20000008766E+02 0.  0.
         12    1    1    2    0    0 -0.27333448086E+02 -0.26503730958E+02  0.20834057886E+02  0.43400727033E+02  0.00000000000E+00 0. -1.
         11    1    3    3    0    0  0.18029111162E+02  0.20330130614E+02 -0.15695491812E+02  0.31380113505E+02  0.51100000000E-03 0.  1.
        -11    1    3    3    0    0  0.66101862336E+01  0.33559133842E+01  0.25064590616E+01  0.78255385740E+01  0.51100000000E-03 0. -1.
         12    1    3    3    0    0  0.26941506906E+01  0.28176869599E+01 -0.76450251354E+01  0.85816208882E+01  0.00000000000E+00 0. -1.
</event>
<event>
 7    1  0.7470072E-010  0.4778727E+02  0.7816164E-02  0.1312668E+00
        -11   -1    0    0    0    0  0.00000000000E+00  0.00000000000E+00  0.45593999997E+02  0.45594000000E+02  0.51100000000E-03 0. -1.
         11   -1    0    0    0    0 -0.00000000000E+00 -0.00000000000E+00 -0.45593999997E+02  0.45594000000E+02  0.51100000000E-03 0.  1.
    9900012    2    1    2    0    0 -0.12825756085E+02 -0.37361820342E+02  0.17978252782E+02  0.47787271762E+02  0.20000003274E+02 0.  0.
        -12    1    1    2    0    0  0.12825756085E+02  0.37361820342E+02 -0.17978252782E+02  0.43400728238E+02  0.00000000000E+00 0.  1.
         11    1    3    3    0    0  0.18411787478E+01 -0.96697784983E+01  0.10568010776E+02  0.14442209229E+02  0.51100000000E-03 0.  1.
        -11    1    3    3    0    0 -0.10372979071E+02 -0.18314697736E+02  0.73772971623E+00  0.21061127542E+02  0.51100000000E-03 0. -1.
         12    1    3    3    0    0 -0.42939557620E+01 -0.93773441086E+01  0.66725122903E+01  0.12283934992E+02  0.00000000000E+00 0. -1.
</event>
<event>
 7    1  0.7470072E-010  0.4778727E+02  0.7816164E-02  0.1312668E+00
        -11   -1    0    0    0    0  0.00000000000E+00  0.00000000000E+00  0.45593999997E+02  0.45594000000E+02  0.51100000000E-03 0. -1.
         11   -1    0    0    0    0 -0.00000000000E+00 -0.00000000000E+00 -0.45593999997E+02  0.45594000000E+02  0.51100000000E-03 0.  1.
    9900012    2    1    2    0    0  0.42534178046E+01 -0.61642658223E+01 -0.42749661880E+02  0.47787270433E+02  0.19999997211E+02 0.  0.
         12    1    1    2    0    0 -0.42534178046E+01  0.61642658223E+01  0.42749661880E+02  0.43400729567E+02  0.00000000000E+00 0. -1.
         11    1    3    3    0    0  0.94305171776E+01 -0.79663059400E+01 -0.18308992989E+02  0.22082026834E+02  0.51100000000E-03 0. -1.
        -11    1    3    3    0    0 -0.30034584760E+01 -0.16279407579E+01 -0.15699620343E+02  0.16067016933E+02  0.51100000000E-03 0.  1.
         12    1    3    3    0    0 -0.21736408971E+01  0.34299808756E+01 -0.87410485477E+01  0.96382266662E+01  0.00000000000E+00 0. -1.
</event>
<event>
 7    1  0.7470072E-010  0.4778728E+02  0.7816164E-02  0.1312668E+00
        -11   -1    0    0    0    0  0.00000000000E+00  0.00000000000E+00  0.45593999997E+02  0.45594000000E+02  0.51100000000E-03 0.  1.
         11   -1    0    0    0    0 -0.00000000000E+00 -0.00000000000E+00 -0.45593999997E+02  0.45594000000E+02  0.51100000000E-03 0. -1.
    9900012    2    1    2    0    0  0.10947225862E+02 -0.41078696099E+02  0.87362210151E+01  0.47787278982E+02  0.20000036191E+02 0.  0.
        -12    1    1    2    0    0 -0.10947225862E+02  0.41078696099E+02 -0.87362210151E+01  0.43400721018E+02  0.00000000000E+00 0.  1.
         11    1    3    3    0    0  0.29395219644E+01 -0.87051165617E+01  0.83623526304E+01  0.12423718667E+02  0.51100000000E-03 0. -1.
        -11    1    3    3    0    0  0.72365895090E+01 -0.30671329981E+02 -0.28449130716E+01  0.31641621974E+02  0.51100000000E-03 0.  1.
        -12    1    3    3    0    0  0.77111438848E+00 -0.17022495560E+01  0.32187814563E+01  0.37219383410E+01  0.00000000000E+00 0.  1.
</event>
<event>
 7    1  0.7470072E-010  0.4778728E+02  0.7816164E-02  0.1312668E+00
        -11   -1    0    0    0    0  0.00000000000E+00  0.00000000000E+00  0.45593999997E+02  0.45594000000E+02  0.51100000000E-03 0. -1.
         11   -1    0    0    0    0 -0.00000000000E+00 -0.00000000000E+00 -0.45593999997E+02  0.45594000000E+02  0.51100000000E-03 0.  1.
    9900012    2    1    2    0    0 -0.13823154205E+02  0.88024546135E+01  0.40187809914E+02  0.47787275754E+02  0.20000021472E+02 0.  0.
        -12    1    1    2    0    0  0.13823154205E+02 -0.88024546135E+01 -0.40187809914E+02  0.43400724246E+02  0.00000000000E+00 0.  1.
         11    1    3    3    0    0  0.38863990826E-01  0.14083583403E+01  0.93892719122E+01  0.94943883914E+01  0.51100000000E-03 0. -1.
        -11    1    3    3    0    0  0.23022402841E+01  0.53543962684E+01  0.45288736162E+01  0.73810951909E+01  0.51100000000E-03 0.  1.
        -12    1    3    3    0    0 -0.16164258480E+02  0.20397000048E+01  0.26269664386E+02  0.30911792172E+02  0.00000000000E+00 0.  1.
</event>
<event>
 7    1  0.7470072E-010  0.4778727E+02  0.7816164E-02  0.1312668E+00
        -11   -1    0    0    0    0  0.00000000000E+00  0.00000000000E+00  0.45593999997E+02  0.45594000000E+02  0.51100000000E-03 0. -1.
         11   -1    0    0    0    0 -0.00000000000E+00 -0.00000000000E+00 -0.45593999997E+02  0.45594000000E+02  0.51100000000E-03 0.  1.
    9900012    2    1    2    0    0 -0.68611909536E+01  0.22963327788E+02 -0.36183319705E+02  0.47787274323E+02  0.20000014947E+02 0.  0.
         12    1    1    2    0    0  0.68611909536E+01 -0.22963327788E+02  0.36183319705E+02  0.43400725677E+02  0.00000000000E+00 0. -1.
         11    1    3    3    0    0 -0.61505233772E+01  0.16255231431E+02 -0.32418243907E+02  0.36783203028E+02  0.51100000000E-03 0.  1.
        -11    1    3    3    0    0  0.30562966049E+01  0.44695730027E+01 -0.30929102222E+00  0.54234392189E+01  0.51100000000E-03 0. -1.
        -12    1    3    3    0    0 -0.37669641812E+01  0.22385233545E+01 -0.34557847760E+01  0.55806320761E+01  0.00000000000E+00 0.  1.
</event>
<event>
 7    1  0.7470072E-010  0.4778727E+02  0.7816164E-02  0.1312668E+00
        -11   -1    0    0    0    0  0.00000000000E+00  0.00000000000E+00  0.45593999997E+02  0.45594000000E+02  0.51100000000E-03 0. -1.
         11   -1    0    0    0    0 -0.00000000000E+00 -0.00000000000E+00 -0.45593999997E+02  0.45594000000E+02  0.51100000000E-03 0.  1.
    9900012    2    1    2    0    0 -0.12178164455E+02  0.16484136171E+02  0.38256876992E+02  0.47787273370E+02  0.20000010605E+02 0.  0.
        -12    1    1    2    0    0  0.12178164455E+02 -0.16484136171E+02 -0.38256876992E+02  0.43400726630E+02  0.00000000000E+00 0.  1.
         11    1    3    3    0    0 -0.42709484452E+01 -0.17706624703E+01  0.10552345016E+02  0.11520773924E+02  0.51100000000E-03 0. -1.
        -11    1    3    3    0    0 -0.84166313510E+01  0.11738631114E+02  0.10485858121E+02  0.17849043799E+02  0.51100000000E-03 0.  1.
        -12    1    3    3    0    0  0.50941534070E+00  0.65161675274E+01  0.17218673854E+02  0.18417455648E+02  0.00000000000E+00 0.  1.
</event>
<event>
 7    1  0.7470072E-010  0.4778727E+02  0.7816164E-02  0.1312668E+00
        -11   -1    0    0    0    0  0.00000000000E+00  0.00000000000E+00  0.45593999997E+02  0.45594000000E+02  0.51100000000E-03 0. -1.
         11   -1    0    0    0    0 -0.00000000000E+00 -0.00000000000E+00 -0.45593999997E+02  0.45594000000E+02  0.51100000000E-03 0.  1.
    9900012    2    1    2    0    0  0.14008208209E+02 -0.10342809518E+02 -0.39754490007E+02  0.47787273259E+02  0.20000010096E+02 0.  0.
         12    1    1    2    0    0 -0.14008208209E+02  0.10342809518E+02  0.39754490007E+02  0.43400726741E+02  0.00000000000E+00 0. -1.
         11    1    3    3    0    0 -0.32721577414E+01 -0.46223425639E+01 -0.92279554344E+01  0.10827198568E+02  0.51100000000E-03 0. -1.
        -11    1    3    3    0    0  0.78655335850E+01  0.24077190961E+01 -0.14530881273E+02  0.16697611825E+02  0.51100000000E-03 0.  1.
         12    1    3    3    0    0  0.94148323650E+01 -0.81281860499E+01 -0.15995653299E+02  0.20262462866E+02  0.00000000000E+00 0. -1.
</event>
<event>
 7    1  0.7470072E-010  0.4778727E+02  0.7816164E-02  0.1312668E+00
        -11   -1    0    0    0    0  0.00000000000E+00  0.00000000000E+00  0.45593999997E+02  0.45594000000E+02  0.51100000000E-03 0. -1.
         11   -1    0    0    0    0 -0.00000000000E+00 -0.00000000000E+00 -0.45593999997E+02  0.45594000000E+02  0.51100000000E-03 0.  1.
    9900012    2    1    2    0    0  0.14392881306E+02 -0.36953808366E+02  0.17631923881E+02  0.47787265850E+02  0.19999976317E+02 0.  0.
        -12    1    1    2    0    0 -0.14392881306E+02  0.36953808366E+02 -0.17631923881E+02  0.43400734150E+02  0.00000000000E+00 0.  1.
         11    1    3    3    0    0  0.14469322308E+02 -0.32278958384E+02  0.13462029118E+02  0.37848628385E+02  0.51100000000E-03 0. -1.
        -11    1    3    3    0    0  0.19618403388E+01  0.63545550844E+00  0.36940999716E+01  0.42307205154E+01  0.51100000000E-03 0.  1.
         12    1    3    3    0    0 -0.20382813399E+01 -0.53103054903E+01  0.47579479069E+00  0.57079169496E+01  0.00000000000E+00 0. -1.
</event>
<event>
 7    1  0.7470072E-010  0.4778728E+02  0.7816164E-02  0.1312668E+00
        -11   -1    0    0    0    0  0.00000000000E+00  0.00000000000E+00  0.45593999997E+02  0.45594000000E+02  0.51100000000E-03 0. -1.
         11   -1    0    0    0    0 -0.00000000000E+00 -0.00000000000E+00 -0.45593999997E+02  0.45594000000E+02  0.51100000000E-03 0.  1.
    9900012    2    1    2    0    0  0.17269586069E+02 -0.16286997663E+02  0.36333418155E+02  0.47787283753E+02  0.20000057945E+02 0.  0.
        -12    1    1    2    0    0 -0.17269586069E+02  0.16286997663E+02 -0.36333418155E+02  0.43400716247E+02  0.00000000000E+00 0.  1.
         11    1    3    3    0    0 -0.74180861711E+00 -0.40864356477E+01  0.63823262995E+01  0.76146782980E+01  0.51100000000E-03 0. -1.
        -11    1    3    3    0    0  0.94172435846E+01 -0.76990620462E+01  0.27641849978E+02  0.30199865953E+02  0.51100000000E-03 0.  1.
        -12    1    3    3    0    0  0.85941511012E+01 -0.45014999695E+01  0.23092418774E+01  0.99727395020E+01  0.00000000000E+00 0.  1.
</event>
<event>
 7    1  0.7470072E-010  0.4778727E+02  0.7816164E-02  0.1312668E+00
        -11   -1    0    0    0    0  0.00000000000E+00  0.00000000000E+00  0.45593999997E+02  0.45594000000E+02  0.51100000000E-03 0. -1.
         11   -1    0    0    0    0 -0.00000000000E+00 -0.00000000000E+00 -0.45593999997E+02  0.45594000000E+02  0.51100000000E-03 0.  1.
    9900012    2    1    2    0    0  0.29228212736E+02  0.55848097747E+01  0.31593430919E+02  0.47787269624E+02  0.19999993524E+02 0.  0.
        -12    1    1    2    0    0 -0.29228212736E+02 -0.55848097747E+01 -0.31593430919E+02  0.43400730376E+02  0.00000000000E+00 0.  1.
         11    1    3    3    0    0  0.14576351594E+02  0.99343547416E+01  0.82589413836E+01  0.19477462436E+02  0.51100000000E-03 0.  1.
        -11    1    3    3    0    0  0.13128606291E+02 -0.27186578860E+01  0.17376060446E+02  0.21947183890E+02  0.51100000000E-03 0. -1.
        -12    1    3    3    0    0  0.15232548515E+01 -0.16308870809E+01  0.59584290896E+01  0.63626232978E+01  0.00000000000E+00 0.  1.
</event>
<event>
 7    1  0.7470072E-010  0.4778727E+02  0.7816164E-02  0.1312668E+00
        -11   -1    0    0    0    0  0.00000000000E+00  0.00000000000E+00  0.45593999997E+02  0.45594000000E+02  0.51100000000E-03 0. -1.
         11   -1    0    0    0    0 -0.00000000000E+00 -0.00000000000E+00 -0.45593999997E+02  0.45594000000E+02  0.51100000000E-03 0.  1.
    9900012    2    1    2    0    0 -0.24572898159E+02 -0.14220156671E+02 -0.32826560721E+02  0.47787271107E+02  0.20000000286E+02 0.  0.
         12    1    1    2    0    0  0.24572898159E+02  0.14220156671E+02  0.32826560721E+02  0.43400728893E+02  0.00000000000E+00 0. -1.
         11    1    3    3    0    0 -0.84883848298E+00 -0.53888421512E+01 -0.73615604454E+01  0.91625716343E+01  0.51100000000E-03 0. -1.
        -11    1    3    3    0    0 -0.20808084075E+02 -0.77506902077E+01 -0.12898616182E+02  0.25679249624E+02  0.51100000000E-03 0.  1.
        -12    1    3    3    0    0 -0.29159756004E+01 -0.10806243125E+01 -0.12566384093E+02  0.12945449849E+02  0.00000000000E+00 0.  1.
</event>
<event>
 7    1  0.7470072E-010  0.4778727E+02  0.7816164E-02  0.1312668E+00
        -11   -1    0    0    0    0  0.00000000000E+00  0.00000000000E+00  0.45593999997E+02  0.45594000000E+02  0.51100000000E-03 0. -1.
         11   -1    0    0    0    0 -0.00000000000E+00 -0.00000000000E+00 -0.45593999997E+02  0.45594000000E+02  0.51100000000E-03 0.  1.
    9900012    2    1    2    0    0 -0.12942339261E+02 -0.28282899124E+02  0.30268739869E+02  0.47787272568E+02  0.20000006945E+02 0.  0.
        -12    1    1    2    0    0  0.12942339261E+02  0.28282899124E+02 -0.30268739869E+02  0.43400727432E+02  0.00000000000E+00 0.  1.
         11    1    3    3    0    0 -0.48893508426E+01 -0.23290380063E+01  0.21187180812E+01  0.58154222775E+01  0.51100000000E-03 0. -1.
        -11    1    3    3    0    0 -0.18457650615E+01 -0.21684400391E+01  0.12524122765E+02  0.12843777955E+02  0.51100000000E-03 0.  1.
        -12    1    3    3    0    0 -0.62072233564E+01 -0.23785421079E+02  0.15625899023E+02  0.29128072335E+02  0.00000000000E+00 0.  1.
</event>
<event>
 7    1  0.7470072E-010  0.4778727E+02  0.7816164E-02  0.1312668E+00
        -11   -1    0    0    0    0  0.00000000000E+00  0.00000000000E+00  0.45593999997E+02  0.45594000000E+02  0.51100000000E-03 0. -1.
         11   -1    0    0    0    0 -0.00000000000E+00 -0.00000000000E+00 -0.45593999997E+02  0.45594000000E+02  0.51100000000E-03 0.  1.
    9900012    2    1    2    0    0  0.31220103315E+02 -0.17925694672E+02 -0.24240423916E+02  0.47787268070E+02  0.19999986437E+02 0.  0.
         12    1    1    2    0    0 -0.31220103315E+02  0.17925694672E+02  0.24240423916E+02  0.43400731930E+02  0.00000000000E+00 0. -1.
         11    1    3    3    0    0 -0.13159037081E+01  0.10328635445E+00  0.15713264814E+01  0.20521544319E+01  0.51100000000E-03 0. -1.
        -11    1    3    3    0    0  0.25151229047E+02 -0.16401690243E+02 -0.18826482838E+02  0.35440601317E+02  0.51100000000E-03 0.  1.
        -12    1    3    3    0    0  0.73847779755E+01 -0.16272907833E+01 -0.69852675596E+01  0.10294512321E+02  0.00000000000E+00 0.  1.
</event>
<event>
 7    1  0.7470072E-010  0.4778727E+02  0.7816164E-02  0.1312668E+00
        -11   -1    0    0    0    0  0.00000000000E+00  0.00000000000E+00  0.45593999997E+02  0.45594000000E+02  0.51100000000E-03 0. -1.
         11   -1    0    0    0    0 -0.00000000000E+00 -0.00000000000E+00 -0.45593999997E+02  0.45594000000E+02  0.51100000000E-03 0.  1.
    9900012    2    1    2    0    0  0.15084236059E+02 -0.18974956516E+02 -0.36000555706E+02  0.47787272317E+02  0.20000005801E+02 0.  0.
         12    1    1    2    0    0 -0.15084236059E+02  0.18974956516E+02  0.36000555706E+02  0.43400727683E+02  0.00000000000E+00 0. -1.
         11    1    3    3    0    0  0.48004002085E+01 -0.53071182401E+01  0.66354700468E+00  0.71867684716E+01  0.51100000000E-03 0. -1.
        -11    1    3    3    0    0  0.72809623191E+01 -0.74891457408E+01 -0.24437146139E+02  0.26575812836E+02  0.51100000000E-03 0.  1.
         12    1    3    3    0    0  0.30028735315E+01 -0.61786925355E+01 -0.12226956572E+02  0.14024691009E+02  0.00000000000E+00 0. -1.
</event>
<event>
 7    1  0.7470072E-010  0.4778727E+02  0.7816164E-02  0.1312668E+00
        -11   -1    0    0    0    0  0.00000000000E+00  0.00000000000E+00  0.45593999997E+02  0.45594000000E+02  0.51100000000E-03 0. -1.
         11   -1    0    0    0    0 -0.00000000000E+00 -0.00000000000E+00 -0.45593999997E+02  0.45594000000E+02  0.51100000000E-03 0.  1.
    9900012    2    1    2    0    0  0.29267711935E+02 -0.15745341551E+02  0.27912514210E+02  0.47787271988E+02  0.20000004300E+02 0.  0.
        -12    1    1    2    0    0 -0.29267711935E+02  0.15745341551E+02 -0.27912514210E+02  0.43400728012E+02  0.00000000000E+00 0.  1.
         11    1    3    3    0    0  0.87721515694E+01 -0.53377131852E+01  0.57012359301E+01  0.11745037956E+02  0.51100000000E-03 0. -1.
        -11    1    3    3    0    0  0.22390964964E+02 -0.66649581800E+01  0.15199262725E+02  0.27871034556E+02  0.51100000000E-03 0.  1.
        -12    1    3    3    0    0 -0.18954045989E+01 -0.37426701858E+01  0.70120155556E+01  0.81711994753E+01  0.00000000000E+00 0.  1.
</event>
<event>
 7    1  0.7470072E-010  0.4778728E+02  0.7816164E-02  0.1312668E+00
        -11   -1    0    0    0    0  0.00000000000E+00  0.00000000000E+00  0.45593999997E+02  0.45594000000E+02  0.51100000000E-03 0. -1.
         11   -1    0    0    0    0 -0.00000000000E+00 -0.00000000000E+00 -0.45593999997E+02  0.45594000000E+02  0.51100000000E-03 0.  1.
    9900012    2    1    2    0    0 -0.68429654090E+01 -0.14220042481E+02 -0.40430027501E+02  0.47787275266E+02  0.20000019248E+02 0.  0.
         12    1    1    2    0    0  0.68429654090E+01  0.14220042481E+02  0.40430027501E+02  0.43400724734E+02  0.00000000000E+00 0. -1.
         11    1    3    3    0    0 -0.39601200608E+01 -0.57140852997E+01 -0.10296476936E+02  0.12423798102E+02  0.51100000000E-03 0. -1.
        -11    1    3    3    0    0 -0.29705751216E+01 -0.10572112624E+01  0.10338194704E+01  0.33182518236E+01  0.51100000000E-03 0.  1.
        -12    1    3    3    0    0  0.87729773362E-01 -0.74487459185E+01 -0.31167370035E+02  0.32045225341E+02  0.00000000000E+00 0.  1.
</event>
<event>
 7    1  0.7470072E-010  0.4778726E+02  0.7816164E-02  0.1312668E+00
        -11   -1    0    0    0    0  0.00000000000E+00  0.00000000000E+00  0.45593999997E+02  0.45594000000E+02  0.51100000000E-03 0. -1.
         11   -1    0    0    0    0 -0.00000000000E+00 -0.00000000000E+00 -0.45593999997E+02  0.45594000000E+02  0.51100000000E-03 0.  1.
    9900012    2    1    2    0    0 -0.95211199786E+01  0.31922947489E+02  0.27819019782E+02  0.47787260794E+02  0.19999953262E+02 0.  0.
        -12    1    1    2    0    0  0.95211199786E+01 -0.31922947489E+02 -0.27819019782E+02  0.43400739206E+02  0.00000000000E+00 0.  1.
         11    1    3    3    0    0 -0.58182675136E+01  0.16401196699E+02  0.15494827132E+02  0.23301097788E+02  0.51100000000E-03 0.  1.
        -11    1    3    3    0    0  0.10152617917E+01  0.62535563838E+01 -0.21259388401E+01  0.66826147700E+01  0.51100000000E-03 0. -1.
        -12    1    3    3    0    0 -0.47181142566E+01  0.92681944060E+01  0.14450131490E+02  0.17803548235E+02  0.00000000000E+00 0.  1.
</event>
<event>
 7    1  0.7470072E-010  0.4778727E+02  0.7816164E-02  0.1312668E+00
        -11   -1    0    0    0    0  0.00000000000E+00  0.00000000000E+00  0.45593999997E+02  0.45594000000E+02  0.51100000000E-03 0. -1.
         11   -1    0    0    0    0 -0.00000000000E+00 -0.00000000000E+00 -0.45593999997E+02  0.45594000000E+02  0.51100000000E-03 0.  1.
    9900012    2    1    2    0    0 -0.38559144029E+02  0.82934808290E+01 -0.18111704082E+02  0.47787271466E+02  0.20000001923E+02 0.  0.
         12    1    1    2    0    0  0.38559144029E+02 -0.82934808290E+01  0.18111704082E+02  0.43400728534E+02  0.00000000000E+00 0. -1.
         11    1    3    3    0    0 -0.74646503501E+00 -0.88939501711E+00  0.57698808413E+00  0.12965913216E+01  0.51100000000E-03 0. -1.
        -11    1    3    3    0    0 -0.63714147322E+01  0.78366186484E+01 -0.90932792474E+01  0.13590262884E+02  0.51100000000E-03 0.  1.
        -12    1    3    3    0    0 -0.31441264262E+02  0.13462571977E+01 -0.95954129188E+01  0.32900417260E+02  0.00000000000E+00 0.  1.
</event>
<event>
 7    1  0.7470072E-010  0.4778727E+02  0.7816164E-02  0.1312668E+00
        -11   -1    0    0    0    0  0.00000000000E+00  0.00000000000E+00  0.45593999997E+02  0.45594000000E+02  0.51100000000E-03 0. -1.
         11   -1    0    0    0    0 -0.00000000000E+00 -0.00000000000E+00 -0.45593999997E+02  0.45594000000E+02  0.51100000000E-03 0.  1.
    9900012    2    1    2    0    0 -0.13135003124E+01 -0.33048641037E+02  0.28101343795E+02  0.47787268664E+02  0.19999989147E+02 0.  0.
        -12    1    1    2    0    0  0.13135003124E+01  0.33048641037E+02 -0.28101343795E+02  0.43400731336E+02  0.00000000000E+00 0.  1.
         11    1    3    3    0    0  0.88353449770E+00 -0.17054953445E+02  0.23803628844E+02  0.29296157029E+02  0.51100000000E-03 0. -1.
        -11    1    3    3    0    0  0.10383956096E+01 -0.13981309632E+02  0.23620065221E+01  0.14217396370E+02  0.51100000000E-03 0.  1.
        -12    1    3    3    0    0 -0.32354304197E+01 -0.20123779596E+01  0.19357084280E+01  0.42737152655E+01  0.00000000000E+00 0.  1.
</event>
<event>
 7    1  0.7470072E-010  0.4778728E+02  0.7816164E-02  0.1312668E+00
        -11   -1    0    0    0    0  0.00000000000E+00  0.00000000000E+00  0.45593999997E+02  0.45594000000E+02  0.51100000000E-03 0. -1.
         11   -1    0    0    0    0 -0.00000000000E+00 -0.00000000000E+00 -0.45593999997E+02  0.45594000000E+02  0.51100000000E-03 0.  1.
    9900012    2    1    2    0    0 -0.31025793032E+02 -0.11667735295E+02  0.28015822322E+02  0.47787283640E+02  0.20000057429E+02 0.  0.
        -12    1    1    2    0    0  0.31025793032E+02  0.11667735295E+02 -0.28015822322E+02  0.43400716360E+02  0.00000000000E+00 0.  1.
         11    1    3    3    0    0 -0.21783936264E+02 -0.25745230850E+01  0.22102715069E+02  0.31139975304E+02  0.51100000000E-03 0. -1.
        -11    1    3    3    0    0 -0.34483321156E+01 -0.89297491207E+01  0.23957599321E+01  0.98676785340E+01  0.51100000000E-03 0.  1.
         12    1    3    3    0    0 -0.57935246520E+01 -0.16346308942E+00  0.35173473211E+01  0.67796298020E+01  0.00000000000E+00 0. -1.
</event>
<event>
 7    1  0.8575873E-010  0.4778727E+02  0.7816164E-02  0.1312668E+00
        -11   -1    0    0    0    0  0.00000000000E+00  0.00000000000E+00  0.45593999997E+02  0.45594000000E+02  0.51100000000E-03 0. -1.
         11   -1    0    0    0    0 -0.00000000000E+00 -0.00000000000E+00 -0.45593999997E+02  0.45594000000E+02  0.51100000000E-03 0.  1.
    9900012    2    1    2    0    0  0.91932435339E+01 -0.37915394788E+02  0.19013948443E+02  0.47787272772E+02  0.20000007875E+02 0.  0.
        -12    1    1    2    0    0 -0.91932435339E+01  0.37915394788E+02 -0.19013948443E+02  0.43400727228E+02  0.00000000000E+00 0.  1.
         11    1    3    3    0    0  0.99353720873E+01 -0.28528388333E+02  0.11320002367E+02  0.32260238890E+02  0.51100000000E-03 0. -1.
        -11    1    3    3    0    0 -0.41701818114E+00 -0.17921348990E+01 -0.23158717878E+01  0.29578563282E+01  0.51100000000E-03 0.  1.
         12    1    3    3    0    0 -0.32511037223E+00 -0.75948715554E+01  0.10009817864E+02  0.12569177553E+02  0.00000000000E+00 0. -1.
</event>
<event>
 7    1  0.7470072E-010  0.4778727E+02  0.7816164E-02  0.1312668E+00
        -11   -1    0    0    0    0  0.00000000000E+00  0.00000000000E+00  0.45593999997E+02  0.45594000000E+02  0.51100000000E-03 0. -1.
         11   -1    0    0    0    0 -0.00000000000E+00 -0.00000000000E+00 -0.45593999997E+02  0.45594000000E+02  0.51100000000E-03 0.  1.
    9900012    2    1    2    0    0 -0.28884655722E+02  0.12029064226E+02 -0.30076595685E+02  0.47787270394E+02  0.19999997035E+02 0.  0.
         12    1    1    2    0    0  0.28884655722E+02 -0.12029064226E+02  0.30076595685E+02  0.43400729606E+02  0.00000000000E+00 0. -1.
         11    1    3    3    0    0 -0.12770107384E+02  0.27826977267E+01 -0.13812464628E+01  0.13142560302E+02  0.51100000000E-03 0. -1.
        -11    1    3    3    0    0 -0.13534683391E+02  0.56888317091E+01 -0.19097865450E+02  0.24088979341E+02  0.51100000000E-03 0.  1.
         12    1    3    3    0    0 -0.25798649471E+01  0.35575347899E+01 -0.95974837722E+01  0.10555730751E+02  0.00000000000E+00 0. -1.
</event>
<event>
 7    1  0.7470072E-010  0.4778727E+02  0.7816164E-02  0.1312668E+00
        -11   -1    0    0    0    0  0.00000000000E+00  0.00000000000E+00  0.45593999997E+02  0.45594000000E+02  0.51100000000E-03 0. -1.
         11   -1    0    0    0    0 -0.00000000000E+00 -0.00000000000E+00 -0.45593999997E+02  0.45594000000E+02  0.51100000000E-03 0.  1.
    9900012    2    1    2    0    0 -0.24422324282E-01  0.12736462368E+02 -0.41489822604E+02  0.47787269017E+02  0.19999990757E+02 0.  0.
         12    1    1    2    0    0  0.24422324282E-01 -0.12736462368E+02  0.41489822604E+02  0.43400730983E+02  0.00000000000E+00 0. -1.
         11    1    3    3    0    0 -0.24510883874E+01  0.69863630382E+00 -0.28384038008E+02  0.28498237505E+02  0.51100000000E-03 0. -1.
        -11    1    3    3    0    0  0.44434185865E+01  0.48361746935E+01 -0.49547427936E+01  0.82269089464E+01  0.51100000000E-03 0.  1.
         12    1    3    3    0    0 -0.20167525235E+01  0.72016513703E+01 -0.81510418027E+01  0.11062122566E+02  0.00000000000E+00 0. -1.
</event>
<event>
 7    1  0.7470072E-010  0.4778727E+02  0.7816164E-02  0.1312668E+00
        -11   -1    0    0    0    0  0.00000000000E+00  0.00000000000E+00  0.45593999997E+02  0.45594000000E+02  0.51100000000E-03 0. -1.
         11   -1    0    0    0    0 -0.00000000000E+00 -0.00000000000E+00 -0.45593999997E+02  0.45594000000E+02  0.51100000000E-03 0.  1.
    9900012    2    1    2    0    0 -0.12954555607E+02 -0.28297095295E+02 -0.30250237523E+02  0.47787274392E+02  0.20000015264E+02 0.  0.
         12    1    1    2    0    0  0.12954555607E+02  0.28297095295E+02  0.30250237523E+02  0.43400725608E+02  0.00000000000E+00 0. -1.
         11    1    3    3    0    0 -0.33712983782E+01 -0.14989480527E+02 -0.77317208783E+01  0.17199700208E+02  0.51100000000E-03 0. -1.
        -11    1    3    3    0    0 -0.30142352293E+01 -0.49924679595E+01 -0.18257179873E+02  0.19165984647E+02  0.51100000000E-03 0.  1.
        -12    1    3    3    0    0 -0.65690219997E+01 -0.83151468080E+01 -0.42613367717E+01  0.11421589537E+02  0.00000000000E+00 0.  1.
</event>
<event>
 7    1  0.7470072E-010  0.4778727E+02  0.7816164E-02  0.1312668E+00
        -11   -1    0    0    0    0  0.00000000000E+00  0.00000000000E+00  0.45593999997E+02  0.45594000000E+02  0.51100000000E-03 0. -1.
         11   -1    0    0    0    0 -0.00000000000E+00 -0.00000000000E+00 -0.45593999997E+02  0.45594000000E+02  0.51100000000E-03 0.  1.
    9900012    2    1    2    0    0  0.10486028018E+02 -0.40178146378E+02  0.12624704750E+02  0.47787269592E+02  0.19999993378E+02 0.  0.
        -12    1    1    2    0    0 -0.10486028018E+02  0.40178146378E+02 -0.12624704750E+02  0.43400730408E+02  0.00000000000E+00 0.  1.
         11    1    3    3    0    0  0.65329292261E+01 -0.14126821791E+02 -0.88432242892E+00  0.15589364471E+02  0.51100000000E-03 0. -1.
        -11    1    3    3    0    0  0.72396956750E+01 -0.20057472106E+02  0.13724070991E+02  0.25358736277E+02  0.51100000000E-03 0.  1.
        -12    1    3    3    0    0 -0.32865968835E+01 -0.59938524802E+01 -0.21504381233E+00  0.68391688436E+01  0.00000000000E+00 0.  1.
</event>
<event>
 7    1  0.7470072E-010  0.4778727E+02  0.7816164E-02  0.1312668E+00
        -11   -1    0    0    0    0  0.00000000000E+00  0.00000000000E+00  0.45593999997E+02  0.45594000000E+02  0.51100000000E-03 0. -1.
         11   -1    0    0    0    0 -0.00000000000E+00 -0.00000000000E+00 -0.45593999997E+02  0.45594000000E+02  0.51100000000E-03 0.  1.
    9900012    2    1    2    0    0  0.32962727384E+01  0.30083719916E+02  0.31108321764E+02  0.47787270733E+02  0.19999998579E+02 0.  0.
        -12    1    1    2    0    0 -0.32962727384E+01 -0.30083719916E+02 -0.31108321764E+02  0.43400729267E+02  0.00000000000E+00 0.  1.
         11    1    3    3    0    0  0.12578441252E+01  0.20124475248E+02  0.25497701900E+02  0.32507068128E+02  0.51100000000E-03 0. -1.
        -11    1    3    3    0    0 -0.15667558655E+00 -0.16593137265E+01  0.25839956807E+01  0.30748826354E+01  0.51100000000E-03 0.  1.
         12    1    3    3    0    0  0.21951041998E+01  0.11618558394E+02  0.30266241838E+01  0.12205319969E+02  0.00000000000E+00 0. -1.
</event>
<event>
 7    1  0.7470072E-010  0.4778727E+02  0.7816164E-02  0.1312668E+00
        -11   -1    0    0    0    0  0.00000000000E+00  0.00000000000E+00  0.45593999997E+02  0.45594000000E+02  0.51100000000E-03 0. -1.
         11   -1    0    0    0    0 -0.00000000000E+00 -0.00000000000E+00 -0.45593999997E+02  0.45594000000E+02  0.51100000000E-03 0.  1.
    9900012    2    1    2    0    0 -0.21301551158E+02 -0.27257320369E+02  0.26208886319E+02  0.47787270542E+02  0.19999997708E+02 0.  0.
        -12    1    1    2    0    0  0.21301551158E+02  0.27257320369E+02 -0.26208886319E+02  0.43400729458E+02  0.00000000000E+00 0.  1.
         11    1    3    3    0    0 -0.10757024172E+02 -0.43163861536E+01  0.99058070486E+01  0.15246959435E+02  0.51100000000E-03 0. -1.
        -11    1    3    3    0    0 -0.58499409858E+01 -0.22706441522E+02  0.13949400723E+02  0.27283512914E+02  0.51100000000E-03 0.  1.
        -12    1    3    3    0    0 -0.46945859997E+01 -0.23449269289E+00  0.23536785477E+01  0.52567981926E+01  0.00000000000E+00 0.  1.
</event>
<event>
 7    1  0.7470072E-010  0.4778727E+02  0.7816164E-02  0.1312668E+00
        -11   -1    0    0    0    0  0.00000000000E+00  0.00000000000E+00  0.45593999997E+02  0.45594000000E+02  0.51100000000E-03 0. -1.
         11   -1    0    0    0    0 -0.00000000000E+00 -0.00000000000E+00 -0.45593999997E+02  0.45594000000E+02  0.51100000000E-03 0.  1.
    9900012    2    1    2    0    0  0.34245039237E+02 -0.21110081013E+02  0.16286962320E+02  0.47787269887E+02  0.19999994724E+02 0.  0.
        -12    1    1    2    0    0 -0.34245039237E+02  0.21110081013E+02 -0.16286962320E+02  0.43400730113E+02  0.00000000000E+00 0.  1.
         11    1    3    3    0    0  0.28634531096E+02 -0.17668626387E+02  0.17489809931E+02  0.37921104694E+02  0.51100000000E-03 0.  1.
        -11    1    3    3    0    0 -0.16349431806E+01 -0.66125485574E+00  0.66361582878E+00  0.18843257195E+01  0.51100000000E-03 0. -1.
        -12    1    3    3    0    0  0.72454513213E+01 -0.27801997703E+01 -0.18664634402E+01  0.79818394738E+01  0.00000000000E+00 0.  1.
</event>
<event>
 7    1  0.7470072E-010  0.4778728E+02  0.7816164E-02  0.1312668E+00
        -11   -1    0    0    0    0  0.00000000000E+00  0.00000000000E+00  0.45593999997E+02  0.45594000000E+02  0.51100000000E-03 0. -1.
         11   -1    0    0    0    0 -0.00000000000E+00 -0.00000000000E+00 -0.45593999997E+02  0.45594000000E+02  0.51100000000E-03 0.  1.
    9900012    2    1    2    0    0  0.72768158537E+01 -0.35126518135E+02 -0.24429460227E+02  0.47787275902E+02  0.20000022146E+02 0.  0.
         12    1    1    2    0    0 -0.72768158537E+01  0.35126518135E+02  0.24429460227E+02  0.43400724098E+02  0.00000000000E+00 0. -1.
         11    1    3    3    0    0  0.37906329114E+01 -0.98238443523E+01  0.21583805657E+01  0.10748740515E+02  0.51100000000E-03 0. -1.
        -11    1    3    3    0    0  0.61308219065E+00 -0.14269922675E+02 -0.13133740525E+02  0.19403651805E+02  0.51100000000E-03 0.  1.
         12    1    3    3    0    0  0.28731007516E+01 -0.11032751108E+02 -0.13454100267E+02  0.17634883582E+02  0.00000000000E+00 0. -1.
</event>
<event>
 7    1  0.7470072E-010  0.4778727E+02  0.7816164E-02  0.1312668E+00
        -11   -1    0    0    0    0  0.00000000000E+00  0.00000000000E+00  0.45593999997E+02  0.45594000000E+02  0.51100000000E-03 0. -1.
         11   -1    0    0    0    0 -0.00000000000E+00 -0.00000000000E+00 -0.45593999997E+02  0.45594000000E+02  0.51100000000E-03 0.  1.
    9900012    2    1    2    0    0  0.24008793368E+02 -0.14796533618E+01 -0.36124950459E+02  0.47787267533E+02  0.19999983989E+02 0.  0.
         12    1    1    2    0    0 -0.24008793368E+02  0.14796533618E+01  0.36124950459E+02  0.43400732467E+02  0.00000000000E+00 0. -1.
         11    1    3    3    0    0  0.16439534449E+02  0.57468659158E+01 -0.27229150434E+02  0.32321995520E+02  0.51100000000E-03 0. -1.
        -11    1    3    3    0    0  0.87975649418E+01 -0.66442313075E+01 -0.87935253619E+01  0.14102093714E+02  0.51100000000E-03 0.  1.
         12    1    3    3    0    0 -0.12283060232E+01 -0.58228797017E+00 -0.10227466235E+00  0.13631782985E+01  0.00000000000E+00 0. -1.
</event>
<event>
 7    1  0.7470072E-010  0.4778727E+02  0.7816164E-02  0.1312668E+00
        -11   -1    0    0    0    0  0.00000000000E+00  0.00000000000E+00  0.45593999997E+02  0.45594000000E+02  0.51100000000E-03 0. -1.
         11   -1    0    0    0    0 -0.00000000000E+00 -0.00000000000E+00 -0.45593999997E+02  0.45594000000E+02  0.51100000000E-03 0.  1.
    9900012    2    1    2    0    0  0.80270392241E+01  0.88056727164E+01  0.41733082358E+02  0.47787269663E+02  0.19999993702E+02 0.  0.
        -12    1    1    2    0    0 -0.80270392241E+01 -0.88056727164E+01 -0.41733082358E+02  0.43400730337E+02  0.00000000000E+00 0.  1.
         11    1    3    3    0    0  0.79590671037E+01 -0.39816718343E+00  0.60166216054E+01  0.99852402110E+01  0.51100000000E-03 0. -1.
        -11    1    3    3    0    0  0.34532953486E+00  0.88349135446E+01  0.17755495856E+02  0.19835135068E+02  0.51100000000E-03 0.  1.
        -12    1    3    3    0    0 -0.27735741441E+00  0.36892635523E+00  0.17960964896E+02  0.17966894384E+02  0.00000000000E+00 0.  1.
</event>
<event>
 7    1  0.8558347E-010  0.4778727E+02  0.7816164E-02  0.1312668E+00
        -11   -1    0    0    0    0  0.00000000000E+00  0.00000000000E+00  0.45593999997E+02  0.45594000000E+02  0.51100000000E-03 0. -1.
         11   -1    0    0    0    0 -0.00000000000E+00 -0.00000000000E+00 -0.45593999997E+02  0.45594000000E+02  0.51100000000E-03 0.  1.
    9900012    2    1    2    0    0  0.27858055698E+02  0.63493854556E+01 -0.32668596571E+02  0.47787272301E+02  0.20000005728E+02 0.  0.
         12    1    1    2    0    0 -0.27858055698E+02 -0.63493854556E+01  0.32668596571E+02  0.43400727699E+02  0.00000000000E+00 0. -1.
         11    1    3    3    0    0  0.50472039423E+01 -0.17312519482E+01  0.38434541140E+00  0.53496936921E+01  0.51100000000E-03 0. -1.
        -11    1    3    3    0    0  0.23879575679E+02  0.85950390814E+01 -0.32068509586E+02  0.40896187337E+02  0.51100000000E-03 0.  1.
        -12    1    3    3    0    0 -0.10687239229E+01 -0.51440167750E+00 -0.98443239573E+00  0.15413912712E+01  0.00000000000E+00 0.  1.
</event>
<event>
 7    1  0.7470072E-010  0.4778727E+02  0.7816164E-02  0.1312668E+00
        -11   -1    0    0    0    0  0.00000000000E+00  0.00000000000E+00  0.45593999997E+02  0.45594000000E+02  0.51100000000E-03 0. -1.
         11   -1    0    0    0    0 -0.00000000000E+00 -0.00000000000E+00 -0.45593999997E+02  0.45594000000E+02  0.51100000000E-03 0.  1.
    9900012    2    1    2    0    0  0.12665075937E+02 -0.78678680942E+01 -0.40759242001E+02  0.47787270682E+02  0.19999998350E+02 0.  0.
         12    1    1    2    0    0 -0.12665075937E+02  0.78678680942E+01  0.40759242001E+02  0.43400729318E+02  0.00000000000E+00 0. -1.
         11    1    3    3    0    0  0.23016039522E+01 -0.59526118312E+00  0.20120429732E+01  0.31144877293E+01  0.51100000000E-03 0. -1.
        -11    1    3    3    0    0  0.79792786197E+01 -0.57540384515E+01 -0.36333460122E+02  0.37641707858E+02  0.51100000000E-03 0.  1.
         12    1    3    3    0    0  0.23841933652E+01 -0.15185684596E+01 -0.64378248516E+01  0.70310750948E+01  0.00000000000E+00 0. -1.
</event>
<event>
 7    1  0.7470072E-010  0.4778727E+02  0.7816164E-02  0.1312668E+00
        -11   -1    0    0    0    0  0.00000000000E+00  0.00000000000E+00  0.45593999997E+02  0.45594000000E+02  0.51100000000E-03 0. -1.
         11   -1    0    0    0    0 -0.00000000000E+00 -0.00000000000E+00 -0.45593999997E+02  0.45594000000E+02  0.51100000000E-03 0.  1.
    9900012    2    1    2    0    0 -0.17916655825E+02 -0.45473126824E+01 -0.39267525673E+02  0.47787272113E+02  0.20000004873E+02 0.  0.
         12    1    1    2    0    0  0.17916655825E+02  0.45473126824E+01  0.39267525673E+02  0.43400727887E+02  0.00000000000E+00 0. -1.
         11    1    3    3    0    0  0.33070239066E+01 -0.12654810312E+00 -0.17934089005E+01  0.37641383193E+01  0.51100000000E-03 0. -1.
        -11    1    3    3    0    0 -0.14331225386E+02 -0.67222223897E+01 -0.25194603599E+02  0.29754669309E+02  0.51100000000E-03 0.  1.
         12    1    3    3    0    0 -0.68924543464E+01  0.23014578104E+01 -0.12279513174E+02  0.14268464485E+02  0.00000000000E+00 0. -1.
</event>
<event>
 7    1  0.7470072E-010  0.4778727E+02  0.7816164E-02  0.1312668E+00
        -11   -1    0    0    0    0  0.00000000000E+00  0.00000000000E+00  0.45593999997E+02  0.45594000000E+02  0.51100000000E-03 0. -1.
         11   -1    0    0    0    0 -0.00000000000E+00 -0.00000000000E+00 -0.45593999997E+02  0.45594000000E+02  0.51100000000E-03 0.  1.
    9900012    2    1    2    0    0  0.29380149733E+02 -0.61185959788E+01 -0.31352715633E+02  0.47787271980E+02  0.20000004266E+02 0.  0.
         12    1    1    2    0    0 -0.29380149733E+02  0.61185959788E+01  0.31352715633E+02  0.43400728020E+02  0.00000000000E+00 0. -1.
         11    1    3    3    0    0  0.11260935630E+01  0.76852657660E+00  0.10414175361E+01  0.17155962687E+01  0.51100000000E-03 0. -1.
        -11    1    3    3    0    0  0.15229208461E+02  0.13702726271E+01 -0.24152426475E+02  0.28585768178E+02  0.51100000000E-03 0.  1.
        -12    1    3    3    0    0  0.13024847709E+02 -0.82573951824E+01 -0.82417066937E+01  0.17485907533E+02  0.00000000000E+00 0.  1.
</event>
<event>
 7    1  0.7470072E-010  0.4778727E+02  0.7816164E-02  0.1312668E+00
        -11   -1    0    0    0    0  0.00000000000E+00  0.00000000000E+00  0.45593999997E+02  0.45594000000E+02  0.51100000000E-03 0.  1.
         11   -1    0    0    0    0 -0.00000000000E+00 -0.00000000000E+00 -0.45593999997E+02  0.45594000000E+02  0.51100000000E-03 0. -1.
    9900012    2    1    2    0    0 -0.68249361335E+01 -0.42079522745E+02 -0.81460303507E+01  0.47787265004E+02  0.19999972461E+02 0.  0.
         12    1    1    2    0    0  0.68249361335E+01  0.42079522745E+02  0.81460303507E+01  0.43400734996E+02  0.00000000000E+00 0. -1.
         11    1    3    3    0    0  0.27167374463E+01 -0.52513620167E+01  0.40930527877E+01  0.71910045729E+01  0.51100000000E-03 0. -1.
        -11    1    3    3    0    0 -0.13523796797E+01 -0.54874062711E+01  0.73989267690E+00  0.56998245426E+01  0.51100000000E-03 0.  1.
         12    1    3    3    0    0 -0.81892939000E+01 -0.31340754457E+02 -0.12978975815E+02  0.34896435889E+02  0.00000000000E+00 0. -1.
</event>
<event>
 7    1  0.7470072E-010  0.4778727E+02  0.7816164E-02  0.1312668E+00
        -11   -1    0    0    0    0  0.00000000000E+00  0.00000000000E+00  0.45593999997E+02  0.45594000000E+02  0.51100000000E-03 0. -1.
         11   -1    0    0    0    0 -0.00000000000E+00 -0.00000000000E+00 -0.45593999997E+02  0.45594000000E+02  0.51100000000E-03 0.  1.
    9900012    2    1    2    0    0 -0.19419971019E+02 -0.23012974998E+02  0.31255254222E+02  0.47787271791E+02  0.20000003403E+02 0.  0.
        -12    1    1    2    0    0  0.19419971019E+02  0.23012974998E+02 -0.31255254222E+02  0.43400728209E+02  0.00000000000E+00 0.  1.
         11    1    3    3    0    0 -0.19253554199E+02 -0.18271712245E+02  0.30343063459E+02  0.40314467849E+02  0.51100000000E-03 0. -1.
        -11    1    3    3    0    0 -0.63983244070E+00  0.47589063479E-01 -0.18264703824E+01  0.19358834133E+01  0.51100000000E-03 0.  1.
         12    1    3    3    0    0  0.47341561990E+00 -0.47888518165E+01  0.27386611454E+01  0.55369205285E+01  0.00000000000E+00 0. -1.
</event>
<event>
 7    1  0.7470072E-010  0.4778728E+02  0.7816164E-02  0.1312668E+00
        -11   -1    0    0    0    0  0.00000000000E+00  0.00000000000E+00  0.45593999997E+02  0.45594000000E+02  0.51100000000E-03 0. -1.
         11   -1    0    0    0    0 -0.00000000000E+00 -0.00000000000E+00 -0.45593999997E+02  0.45594000000E+02  0.51100000000E-03 0.  1.
    9900012    2    1    2    0    0 -0.11598566705E+02 -0.18946599631E+02 -0.37284337093E+02  0.47787283651E+02  0.20000057477E+02 0.  0.
         12    1    1    2    0    0  0.11598566705E+02  0.18946599631E+02  0.37284337093E+02  0.43400716349E+02  0.00000000000E+00 0. -1.
         11    1    3    3    0    0  0.34061938490E+01 -0.26227522844E+01 -0.57716287262E+01  0.71967134510E+01  0.51100000000E-03 0. -1.
        -11    1    3    3    0    0 -0.14291186146E+02 -0.18293487071E+02 -0.30298501899E+02  0.38169213880E+02  0.51100000000E-03 0.  1.
        -12    1    3    3    0    0 -0.71357440878E+00  0.19696397243E+01 -0.12142064675E+01  0.24213563195E+01  0.00000000000E+00 0.  1.
</event>
<event>
 7    1  0.7470072E-010  0.4778729E+02  0.7816164E-02  0.1312668E+00
        -11   -1    0    0    0    0  0.00000000000E+00  0.00000000000E+00  0.45593999997E+02  0.45594000000E+02  0.51100000000E-03 0. -1.
         11   -1    0    0    0    0 -0.00000000000E+00 -0.00000000000E+00 -0.45593999997E+02  0.45594000000E+02  0.51100000000E-03 0.  1.
    9900012    2    1    2    0    0  0.16648879844E+02 -0.14722153202E+02 -0.37278606824E+02  0.47787291231E+02  0.20000092036E+02 0.  0.
         12    1    1    2    0    0 -0.16648879844E+02  0.14722153202E+02  0.37278606824E+02  0.43400708769E+02  0.00000000000E+00 0. -1.
         11    1    3    3    0    0  0.24338193203E+01 -0.40373038891E+01 -0.26030235879E+02  0.26453666652E+02  0.51100000000E-03 0. -1.
        -11    1    3    3    0    0  0.96160879877E+01 -0.73991140919E+01 -0.56715469818E+01  0.13393374592E+02  0.51100000000E-03 0.  1.
         12    1    3    3    0    0  0.45989725362E+01 -0.32857352206E+01 -0.55768239631E+01  0.79402499862E+01  0.00000000000E+00 0. -1.
</event>
<event>
 7    1  0.7470072E-010  0.4778728E+02  0.7816164E-02  0.1312668E+00
        -11   -1    0    0    0    0  0.00000000000E+00  0.00000000000E+00  0.45593999997E+02  0.45594000000E+02  0.51100000000E-03 0. -1.
         11   -1    0    0    0    0 -0.00000000000E+00 -0.00000000000E+00 -0.45593999997E+02  0.45594000000E+02  0.51100000000E-03 0.  1.
    9900012    2    1    2    0    0 -0.35720926284E+02  0.50246716374E+01 -0.24132770705E+02  0.47787279712E+02  0.20000039518E+02 0.  0.
         12    1    1    2    0    0  0.35720926284E+02 -0.50246716374E+01  0.24132770705E+02  0.43400720288E+02  0.00000000000E+00 0. -1.
         11    1    3    3    0    0 -0.41602314874E+01  0.68108060027E+01 -0.26206457518E+01  0.84001421924E+01  0.51100000000E-03 0. -1.
        -11    1    3    3    0    0 -0.29078479654E+02 -0.64367660224E+00 -0.22175895620E+02  0.36575164324E+02  0.51100000000E-03 0.  1.
        -12    1    3    3    0    0 -0.24822151421E+01 -0.11424577630E+01  0.66377066609E+00  0.28119731950E+01  0.00000000000E+00 0.  1.
</event>
<event>
 7    1  0.7470072E-010  0.4778728E+02  0.7816164E-02  0.1312668E+00
        -11   -1    0    0    0    0  0.00000000000E+00  0.00000000000E+00  0.45593999997E+02  0.45594000000E+02  0.51100000000E-03 0. -1.
         11   -1    0    0    0    0 -0.00000000000E+00 -0.00000000000E+00 -0.45593999997E+02  0.45594000000E+02  0.51100000000E-03 0.  1.
    9900012    2    1    2    0    0  0.12113487094E+01  0.28391547825E+02  0.32803588153E+02  0.47787277087E+02  0.20000027553E+02 0.  0.
        -12    1    1    2    0    0 -0.12113487094E+01 -0.28391547825E+02 -0.32803588153E+02  0.43400722913E+02  0.00000000000E+00 0.  1.
         11    1    3    3    0    0 -0.59390674567E+00  0.12199723460E+02  0.16651129896E+01  0.12327148059E+02  0.51100000000E-03 0.  1.
        -11    1    3    3    0    0  0.28371242267E+01  0.13880492588E+02  0.28358088979E+02  0.31700135002E+02  0.51100000000E-03 0. -1.
         12    1    3    3    0    0 -0.10318687717E+01  0.23113317770E+01  0.27803861851E+01  0.37599940270E+01  0.00000000000E+00 0. -1.
</event>
<event>
 7    1  0.7470072E-010  0.4778727E+02  0.7816164E-02  0.1312668E+00
        -11   -1    0    0    0    0  0.00000000000E+00  0.00000000000E+00  0.45593999997E+02  0.45594000000E+02  0.51100000000E-03 0.  1.
         11   -1    0    0    0    0 -0.00000000000E+00 -0.00000000000E+00 -0.45593999997E+02  0.45594000000E+02  0.51100000000E-03 0. -1.
    9900012    2    1    2    0    0 -0.19296892141E+02 -0.25011390716E+02 -0.29760439772E+02  0.47787268586E+02  0.19999988791E+02 0.  0.
         12    1    1    2    0    0  0.19296892141E+02  0.25011390716E+02  0.29760439772E+02  0.43400731414E+02  0.00000000000E+00 0. -1.
         11    1    3    3    0    0  0.24089166662E+01 -0.10025577336E+00 -0.68184080666E+01  0.72321241381E+01  0.51100000000E-03 0. -1.
        -11    1    3    3    0    0 -0.18467725206E+02 -0.20293630620E+02 -0.21128721942E+02  0.34631072885E+02  0.51100000000E-03 0.  1.
        -12    1    3    3    0    0 -0.32380836019E+01 -0.46175043232E+01 -0.18133097630E+01  0.59240715630E+01  0.00000000000E+00 0.  1.
</event>
<event>
 7    1  0.7470072E-010  0.4778727E+02  0.7816164E-02  0.1312668E+00
        -11   -1    0    0    0    0  0.00000000000E+00  0.00000000000E+00  0.45593999997E+02  0.45594000000E+02  0.51100000000E-03 0. -1.
         11   -1    0    0    0    0 -0.00000000000E+00 -0.00000000000E+00 -0.45593999997E+02  0.45594000000E+02  0.51100000000E-03 0.  1.
    9900012    2    1    2    0    0  0.70054437355E+01  0.12339851717E+02  0.41015546156E+02  0.47787271794E+02  0.20000003416E+02 0.  0.
        -12    1    1    2    0    0 -0.70054437355E+01 -0.12339851717E+02 -0.41015546156E+02  0.43400728206E+02  0.00000000000E+00 0.  1.
         11    1    3    3    0    0  0.43721889543E+01 -0.29159188559E+01  0.98690854799E+01  0.11181121030E+02  0.51100000000E-03 0. -1.
        -11    1    3    3    0    0 -0.10610322682E+01 -0.13737130599E+01  0.10657127052E+01  0.20368163580E+01  0.51100000000E-03 0.  1.
         12    1    3    3    0    0  0.36942870494E+01  0.16629483633E+02  0.30080747971E+02  0.34569334405E+02  0.00000000000E+00 0. -1.
</event>
<event>
 7    1  0.7470072E-010  0.4778727E+02  0.7816164E-02  0.1312668E+00
        -11   -1    0    0    0    0  0.00000000000E+00  0.00000000000E+00  0.45593999997E+02  0.45594000000E+02  0.51100000000E-03 0.  1.
         11   -1    0    0    0    0 -0.00000000000E+00 -0.00000000000E+00 -0.45593999997E+02  0.45594000000E+02  0.51100000000E-03 0. -1.
    9900012    2    1    2    0    0 -0.37393974693E+02 -0.19217771601E+02 -0.10769936856E+02  0.47787266958E+02  0.19999981369E+02 0.  0.
         12    1    1    2    0    0  0.37393974693E+02  0.19217771601E+02  0.10769936856E+02  0.43400733042E+02  0.00000000000E+00 0. -1.
         11    1    3    3    0    0 -0.20903654999E+02 -0.77097832616E+01 -0.68524896179E+01  0.23310087183E+02  0.51100000000E-03 0. -1.
        -11    1    3    3    0    0 -0.12952568869E+00 -0.59534855268E+01  0.18927367766E+01  0.62484573767E+01  0.51100000000E-03 0.  1.
        -12    1    3    3    0    0 -0.16360794006E+02 -0.55545028124E+01 -0.58101840150E+01  0.18228722399E+02  0.00000000000E+00 0.  1.
</event>
<event>
 7    1  0.7470072E-010  0.4778727E+02  0.7816164E-02  0.1312668E+00
        -11   -1    0    0    0    0  0.00000000000E+00  0.00000000000E+00  0.45593999997E+02  0.45594000000E+02  0.51100000000E-03 0. -1.
         11   -1    0    0    0    0 -0.00000000000E+00 -0.00000000000E+00 -0.45593999997E+02  0.45594000000E+02  0.51100000000E-03 0.  1.
    9900012    2    1    2    0    0 -0.33957336760E+02  0.24832600845E+02  0.10670738386E+02  0.47787269104E+02  0.19999991155E+02 0.  0.
         12    1    1    2    0    0  0.33957336760E+02 -0.24832600845E+02 -0.10670738386E+02  0.43400730896E+02  0.00000000000E+00 0. -1.
         11    1    3    3    0    0 -0.11248167701E+02  0.19797788120E+02  0.22049080563E+01  0.22876523137E+02  0.51100000000E-03 0. -1.
        -11    1    3    3    0    0 -0.16401853359E+02  0.48545168404E+01  0.58139373998E+01  0.18066239114E+02  0.51100000000E-03 0.  1.
         12    1    3    3    0    0 -0.63073157006E+01  0.18029588473E+00  0.26518929303E+01  0.68445068535E+01  0.00000000000E+00 0. -1.
</event>
<event>
 7    1  0.7470072E-010  0.4778727E+02  0.7816164E-02  0.1312668E+00
        -11   -1    0    0    0    0  0.00000000000E+00  0.00000000000E+00  0.45593999997E+02  0.45594000000E+02  0.51100000000E-03 0. -1.
         11   -1    0    0    0    0 -0.00000000000E+00 -0.00000000000E+00 -0.45593999997E+02  0.45594000000E+02  0.51100000000E-03 0.  1.
    9900012    2    1    2    0    0  0.15095151480E+02 -0.21140490422E+02 -0.34768365516E+02  0.47787272193E+02  0.20000005237E+02 0.  0.
         12    1    1    2    0    0 -0.15095151480E+02  0.21140490422E+02  0.34768365516E+02  0.43400727807E+02  0.00000000000E+00 0. -1.
         11    1    3    3    0    0 -0.43817882011E+00 -0.92468626996E+00  0.20057989252E+01  0.22517271072E+01  0.51100000000E-03 0. -1.
        -11    1    3    3    0    0  0.65278013165E+01 -0.15092797521E+02 -0.21199383497E+02  0.26829435104E+02  0.51100000000E-03 0.  1.
         12    1    3    3    0    0  0.90055289838E+01 -0.51230066311E+01 -0.15574780944E+02  0.18706109982E+02  0.00000000000E+00 0. -1.
</event>
<event>
 7    1  0.7470072E-010  0.4778727E+02  0.7816164E-02  0.1312668E+00
        -11   -1    0    0    0    0  0.00000000000E+00  0.00000000000E+00  0.45593999997E+02  0.45594000000E+02  0.51100000000E-03 0. -1.
         11   -1    0    0    0    0 -0.00000000000E+00 -0.00000000000E+00 -0.45593999997E+02  0.45594000000E+02  0.51100000000E-03 0.  1.
    9900012    2    1    2    0    0 -0.31696552975E+01  0.20424779444E+02  0.38162872453E+02  0.47787272311E+02  0.20000005776E+02 0.  0.
        -12    1    1    2    0    0  0.31696552975E+01 -0.20424779444E+02 -0.38162872453E+02  0.43400727689E+02  0.00000000000E+00 0.  1.
         11    1    3    3    0    0  0.18558247444E+00  0.10541760843E+02  0.18542448812E+02  0.21330390778E+02  0.51100000000E-03 0. -1.
        -11    1    3    3    0    0  0.30179860308E+00 -0.80557271447E+00 -0.19366456066E+01  0.21191097805E+01  0.51100000000E-03 0.  1.
        -12    1    3    3    0    0 -0.36570363750E+01  0.10688591316E+02  0.21557069248E+02  0.24337771753E+02  0.00000000000E+00 0.  1.
</event>
<event>
 7    1  0.7470072E-010  0.4778728E+02  0.7816164E-02  0.1312668E+00
        -11   -1    0    0    0    0  0.00000000000E+00  0.00000000000E+00  0.45593999997E+02  0.45594000000E+02  0.51100000000E-03 0. -1.
         11   -1    0    0    0    0 -0.00000000000E+00 -0.00000000000E+00 -0.45593999997E+02  0.45594000000E+02  0.51100000000E-03 0.  1.
    9900012    2    1    2    0    0  0.36413422661E+02  0.10145461901E+02  0.21324987078E+02  0.47787276263E+02  0.20000023793E+02 0.  0.
        -12    1    1    2    0    0 -0.36413422661E+02 -0.10145461901E+02 -0.21324987078E+02  0.43400723737E+02  0.00000000000E+00 0.  1.
         11    1    3    3    0    0  0.16119550821E+02  0.16760351134E+01 -0.16326702775E+00  0.16207272095E+02  0.51100000000E-03 0. -1.
        -11    1    3    3    0    0  0.15254069500E+00 -0.61342513852E+00  0.20722968527E+01  0.21665580008E+01  0.51100000000E-03 0.  1.
         12    1    3    3    0    0  0.20141331145E+02  0.90828519256E+01  0.19415957253E+02  0.29413446167E+02  0.00000000000E+00 0. -1.
</event>
<event>
 7    1  0.7470072E-010  0.4778727E+02  0.7816164E-02  0.1312668E+00
        -11   -1    0    0    0    0  0.00000000000E+00  0.00000000000E+00  0.45593999997E+02  0.45594000000E+02  0.51100000000E-03 0. -1.
         11   -1    0    0    0    0 -0.00000000000E+00 -0.00000000000E+00 -0.45593999997E+02  0.45594000000E+02  0.51100000000E-03 0.  1.
    9900012    2    1    2    0    0 -0.37738685727E+02  0.35332658971E+01 -0.21140739211E+02  0.47787271634E+02  0.20000002688E+02 0.  0.
         12    1    1    2    0    0  0.37738685727E+02 -0.35332658971E+01  0.21140739211E+02  0.43400728366E+02  0.00000000000E+00 0. -1.
         11    1    3    3    0    0 -0.15855128455E+02 -0.70890725466E+01 -0.90242939971E+01  0.19572376716E+02  0.51100000000E-03 0. -1.
        -11    1    3    3    0    0 -0.21395222212E+02  0.85087042985E+01 -0.97491928981E+01  0.25004006575E+02  0.51100000000E-03 0.  1.
         12    1    3    3    0    0 -0.48833505975E+00  0.21136341452E+01 -0.23672523156E+01  0.32108883438E+01  0.00000000000E+00 0. -1.
</event>
<event>
 7    1  0.7470072E-010  0.4778726E+02  0.7816164E-02  0.1312668E+00
        -11   -1    0    0    0    0  0.00000000000E+00  0.00000000000E+00  0.45593999997E+02  0.45594000000E+02  0.51100000000E-03 0. -1.
         11   -1    0    0    0    0 -0.00000000000E+00 -0.00000000000E+00 -0.45593999997E+02  0.45594000000E+02  0.51100000000E-03 0.  1.
    9900012    2    1    2    0    0  0.34559914728E+01  0.39246887172E+02  0.18203345128E+02  0.47787264941E+02  0.19999972173E+02 0.  0.
        -12    1    1    2    0    0 -0.34559914728E+01 -0.39246887172E+02 -0.18203345128E+02  0.43400735059E+02  0.00000000000E+00 0.  1.
         11    1    3    3    0    0  0.69592267774E+01  0.66385733204E+01  0.93080243069E+01  0.13384349436E+02  0.51100000000E-03 0. -1.
        -11    1    3    3    0    0 -0.42541623223E+01  0.30572080825E+02  0.92065902147E+01  0.32210422640E+02  0.51100000000E-03 0.  1.
         12    1    3    3    0    0  0.75092701762E+00  0.20362330271E+01 -0.31126939348E+00  0.21924928647E+01  0.00000000000E+00 0. -1.
</event>
<event>
 7    1  0.7470072E-010  0.4778728E+02  0.7816164E-02  0.1312668E+00
        -11   -1    0    0    0    0  0.00000000000E+00  0.00000000000E+00  0.45593999997E+02  0.45594000000E+02  0.51100000000E-03 0.  1.
         11   -1    0    0    0    0 -0.00000000000E+00 -0.00000000000E+00 -0.45593999997E+02  0.45594000000E+02  0.51100000000E-03 0. -1.
    9900012    2    1    2    0    0 -0.37016442364E+02 -0.11584028087E+02  0.19473457483E+02  0.47787282744E+02  0.20000053343E+02 0.  0.
        -12    1    1    2    0    0  0.37016442364E+02  0.11584028087E+02 -0.19473457483E+02  0.43400717256E+02  0.00000000000E+00 0.  1.
         11    1    3    3    0    0 -0.33596697342E+01  0.23847112438E+01 -0.17902032393E+01  0.44921104548E+01  0.51100000000E-03 0. -1.
        -11    1    3    3    0    0 -0.22608719867E+02 -0.10495451582E+02  0.19353919156E+02  0.31557612471E+02  0.51100000000E-03 0.  1.
        -12    1    3    3    0    0 -0.11048052762E+02 -0.34732877488E+01  0.19097415663E+01  0.11737559818E+02  0.00000000000E+00 0.  1.
</event>
<event>
 7    1  0.7470072E-010  0.4778727E+02  0.7816164E-02  0.1312668E+00
        -11   -1    0    0    0    0  0.00000000000E+00  0.00000000000E+00  0.45593999997E+02  0.45594000000E+02  0.51100000000E-03 0. -1.
         11   -1    0    0    0    0 -0.00000000000E+00 -0.00000000000E+00 -0.45593999997E+02  0.45594000000E+02  0.51100000000E-03 0.  1.
    9900012    2    1    2    0    0 -0.31780714734E+01  0.18988657581E+02  0.38896708876E+02  0.47787271707E+02  0.20000003020E+02 0.  0.
        -12    1    1    2    0    0  0.31780714734E+01 -0.18988657581E+02 -0.38896708876E+02  0.43400728293E+02  0.00000000000E+00 0.  1.
         11    1    3    3    0    0 -0.13554376664E+01  0.25120709125E+01  0.71159032248E+01  0.76670587908E+01  0.51100000000E-03 0. -1.
        -11    1    3    3    0    0 -0.63427101908E+01  0.15694272859E+02  0.31200152168E+02  0.35496333173E+02  0.51100000000E-03 0.  1.
        -12    1    3    3    0    0  0.45200763839E+01  0.78231380962E+00  0.58065348312E+00  0.46238797433E+01  0.00000000000E+00 0.  1.
</event>
<event>
 7    1  0.7470072E-010  0.4778728E+02  0.7816164E-02  0.1312668E+00
        -11   -1    0    0    0    0  0.00000000000E+00  0.00000000000E+00  0.45593999997E+02  0.45594000000E+02  0.51100000000E-03 0. -1.
         11   -1    0    0    0    0 -0.00000000000E+00 -0.00000000000E+00 -0.45593999997E+02  0.45594000000E+02  0.51100000000E-03 0.  1.
    9900012    2    1    2    0    0  0.52798102429E+01  0.34066636921E+02 -0.26366844201E+02  0.47787278572E+02  0.20000034323E+02 0.  0.
         12    1    1    2    0    0 -0.52798102429E+01 -0.34066636921E+02  0.26366844201E+02  0.43400721428E+02  0.00000000000E+00 0. -1.
         11    1    3    3    0    0  0.31159287990E+01  0.49833909924E+01 -0.14151227863E+02  0.15323199677E+02  0.51100000000E-03 0. -1.
        -11    1    3    3    0    0  0.22751492782E+01  0.20299154045E+02 -0.11971458054E+02  0.23675890002E+02  0.51100000000E-03 0.  1.
         12    1    3    3    0    0 -0.11126783429E+00  0.87840918840E+01 -0.24415828433E+00  0.87881888933E+01  0.00000000000E+00 0. -1.
</event>
<event>
 7    1  0.7470072E-010  0.4778727E+02  0.7816164E-02  0.1312668E+00
        -11   -1    0    0    0    0  0.00000000000E+00  0.00000000000E+00  0.45593999997E+02  0.45594000000E+02  0.51100000000E-03 0. -1.
         11   -1    0    0    0    0 -0.00000000000E+00 -0.00000000000E+00 -0.45593999997E+02  0.45594000000E+02  0.51100000000E-03 0.  1.
    9900012    2    1    2    0    0  0.11110108922E+02  0.36438231904E+02  0.20795292274E+02  0.47787269069E+02  0.19999990994E+02 0.  0.
        -12    1    1    2    0    0 -0.11110108922E+02 -0.36438231904E+02 -0.20795292274E+02  0.43400730931E+02  0.00000000000E+00 0.  1.
         11    1    3    3    0    0  0.71097262481E+01  0.11247149352E+02  0.85990384364E+01  0.15842665122E+02  0.51100000000E-03 0. -1.
        -11    1    3    3    0    0 -0.70353364139E-01  0.74296249065E+01 -0.31993657834E+01  0.80895128114E+01  0.51100000000E-03 0.  1.
        -12    1    3    3    0    0  0.40707360377E+01  0.17761457646E+02  0.15395619621E+02  0.23855091136E+02  0.00000000000E+00 0.  1.
</event>
<event>
 7    1  0.7470072E-010  0.4778727E+02  0.7816164E-02  0.1312668E+00
        -11   -1    0    0    0    0  0.00000000000E+00  0.00000000000E+00  0.45593999997E+02  0.45594000000E+02  0.51100000000E-03 0. -1.
         11   -1    0    0    0    0 -0.00000000000E+00 -0.00000000000E+00 -0.45593999997E+02  0.45594000000E+02  0.51100000000E-03 0.  1.
    9900012    2    1    2    0    0 -0.33025650047E+02 -0.27048444721E+02 -0.78301452385E+01  0.47787273078E+02  0.20000009272E+02 0.  0.
         12    1    1    2    0    0  0.33025650047E+02  0.27048444721E+02  0.78301452385E+01  0.43400726922E+02  0.00000000000E+00 0. -1.
         11    1    3    3    0    0 -0.10030894017E+02  0.22612767292E+00 -0.38695490573E+01  0.10753761141E+02  0.51100000000E-03 0. -1.
        -11    1    3    3    0    0 -0.20262011704E+02 -0.18144793290E+02 -0.40769891929E+01  0.27502808637E+02  0.51100000000E-03 0.  1.
        -12    1    3    3    0    0 -0.27327443263E+01 -0.91297791045E+01  0.11639301167E+00  0.95307032995E+01  0.00000000000E+00 0.  1.
</event>
<event>
 7    1  0.7470072E-010  0.4778727E+02  0.7816164E-02  0.1312668E+00
        -11   -1    0    0    0    0  0.00000000000E+00  0.00000000000E+00  0.45593999997E+02  0.45594000000E+02  0.51100000000E-03 0. -1.
         11   -1    0    0    0    0 -0.00000000000E+00 -0.00000000000E+00 -0.45593999997E+02  0.45594000000E+02  0.51100000000E-03 0.  1.
    9900012    2    1    2    0    0 -0.10082541352E+02 -0.14712236697E+02 -0.39566600075E+02  0.47787269704E+02  0.19999993889E+02 0.  0.
         12    1    1    2    0    0  0.10082541352E+02  0.14712236697E+02  0.39566600075E+02  0.43400730296E+02  0.00000000000E+00 0. -1.
         11    1    3    3    0    0 -0.32493402679E+01 -0.14446326218E+01 -0.23982035761E+02  0.24244240864E+02  0.51100000000E-03 0. -1.
        -11    1    3    3    0    0 -0.83149231742E+01 -0.64244481563E+01 -0.10763123245E+02  0.15041818499E+02  0.51100000000E-03 0.  1.
         12    1    3    3    0    0  0.14817220900E+01 -0.68431559190E+01 -0.48214410688E+01  0.85012103411E+01  0.00000000000E+00 0. -1.
</event>
<event>
 7    1  0.7470072E-010  0.4778727E+02  0.7816164E-02  0.1312668E+00
        -11   -1    0    0    0    0  0.00000000000E+00  0.00000000000E+00  0.45593999997E+02  0.45594000000E+02  0.51100000000E-03 0. -1.
         11   -1    0    0    0    0 -0.00000000000E+00 -0.00000000000E+00 -0.45593999997E+02  0.45594000000E+02  0.51100000000E-03 0.  1.
    9900012    2    1    2    0    0  0.25431829151E+02  0.13351619542E+01 -0.35143455033E+02  0.47787273934E+02  0.20000013173E+02 0.  0.
         12    1    1    2    0    0 -0.25431829151E+02 -0.13351619542E+01  0.35143455033E+02  0.43400726066E+02  0.00000000000E+00 0. -1.
         11    1    3    3    0    0  0.16357962819E+02  0.32686594294E+01 -0.26707116656E+02  0.31488683085E+02  0.51100000000E-03 0. -1.
        -11    1    3    3    0    0  0.11081839161E+02 -0.30026552674E+01 -0.59608006303E+01  0.12936546768E+02  0.51100000000E-03 0.  1.
         12    1    3    3    0    0 -0.20079728296E+01  0.10691577922E+01 -0.24755377469E+01  0.33620440814E+01  0.00000000000E+00 0. -1.
</event>
<event>
 7    1  0.7470072E-010  0.4778727E+02  0.7816164E-02  0.1312668E+00
        -11   -1    0    0    0    0  0.00000000000E+00  0.00000000000E+00  0.45593999997E+02  0.45594000000E+02  0.51100000000E-03 0. -1.
         11   -1    0    0    0    0 -0.00000000000E+00 -0.00000000000E+00 -0.45593999997E+02  0.45594000000E+02  0.51100000000E-03 0.  1.
    9900012    2    1    2    0    0  0.22437419392E+01  0.15907418261E+02  0.40318019083E+02  0.47787274241E+02  0.20000014575E+02 0.  0.
        -12    1    1    2    0    0 -0.22437419392E+01 -0.15907418261E+02 -0.40318019083E+02  0.43400725759E+02  0.00000000000E+00 0.  1.
         11    1    3    3    0    0  0.14839524260E+01  0.21319059756E+01 -0.11565424921E+01  0.28433657324E+01  0.51100000000E-03 0. -1.
        -11    1    3    3    0    0  0.27250702951E+01  0.12826717953E+00  0.29108341630E+01  0.39894130355E+01  0.51100000000E-03 0.  1.
         12    1    3    3    0    0 -0.19652807819E+01  0.13647245106E+02  0.38563727412E+02  0.40954495473E+02  0.00000000000E+00 0. -1.
</event>
<event>
 7    1  0.7470072E-010  0.4778725E+02  0.7816164E-02  0.1312668E+00
        -11   -1    0    0    0    0  0.00000000000E+00  0.00000000000E+00  0.45593999997E+02  0.45594000000E+02  0.51100000000E-03 0. -1.
         11   -1    0    0    0    0 -0.00000000000E+00 -0.00000000000E+00 -0.45593999997E+02  0.45594000000E+02  0.51100000000E-03 0.  1.
    9900012    2    1    2    0    0  0.30508840014E+02 -0.28571326759E+01  0.30735530705E+02  0.47787246852E+02  0.19999889695E+02 0.  0.
        -12    1    1    2    0    0 -0.30508840014E+02  0.28571326759E+01 -0.30735530705E+02  0.43400753148E+02  0.00000000000E+00 0.  1.
         11    1    3    3    0    0  0.20010604157E+02 -0.37574947720E+01  0.15874304033E+02  0.25817369628E+02  0.51100000000E-03 0. -1.
        -11    1    3    3    0    0  0.35212093747E+00 -0.14991504986E+01  0.10592495306E+02  0.10703849702E+02  0.51100000000E-03 0.  1.
        -12    1    3    3    0    0  0.10146114920E+02  0.23995125948E+01  0.42687313654E+01  0.11266027522E+02  0.00000000000E+00 0.  1.
</event>
<event>
 7    1  0.7470072E-010  0.4778727E+02  0.7816164E-02  0.1312668E+00
        -11   -1    0    0    0    0  0.00000000000E+00  0.00000000000E+00  0.45593999997E+02  0.45594000000E+02  0.51100000000E-03 0.  1.
         11   -1    0    0    0    0 -0.00000000000E+00 -0.00000000000E+00 -0.45593999997E+02  0.45594000000E+02  0.51100000000E-03 0. -1.
    9900012    2    1    2    0    0  0.32989695057E+02 -0.16969930526E+02 -0.22523872200E+02  0.47787270272E+02  0.19999996480E+02 0.  0.
         12    1    1    2    0    0 -0.32989695057E+02  0.16969930526E+02  0.22523872200E+02  0.43400729728E+02  0.00000000000E+00 0. -1.
         11    1    3    3    0    0  0.24516077079E+02 -0.59436440323E+01 -0.11841426410E+02  0.27867262503E+02  0.51100000000E-03 0. -1.
        -11    1    3    3    0    0  0.10426192943E+01 -0.73226654402E+01 -0.15122716811E+01  0.75495331008E+01  0.51100000000E-03 0.  1.
        -12    1    3    3    0    0  0.74309986842E+01 -0.37036210530E+01 -0.91701741084E+01  0.12370474669E+02  0.00000000000E+00 0.  1.
</event>
<event>
 7    1  0.7470072E-010  0.4778727E+02  0.7816164E-02  0.1312668E+00
        -11   -1    0    0    0    0  0.00000000000E+00  0.00000000000E+00  0.45593999997E+02  0.45594000000E+02  0.51100000000E-03 0. -1.
         11   -1    0    0    0    0 -0.00000000000E+00 -0.00000000000E+00 -0.45593999997E+02  0.45594000000E+02  0.51100000000E-03 0.  1.
    9900012    2    1    2    0    0  0.28995512849E+02 -0.17678495718E+02  0.27025071990E+02  0.47787268528E+02  0.19999988525E+02 0.  0.
        -12    1    1    2    0    0 -0.28995512849E+02  0.17678495718E+02 -0.27025071990E+02  0.43400731472E+02  0.00000000000E+00 0.  1.
         11    1    3    3    0    0 -0.18315406317E+01 -0.26987830029E+01  0.20667099973E+01  0.38612512552E+01  0.51100000000E-03 0. -1.
        -11    1    3    3    0    0  0.30923982055E+02 -0.14276600167E+02  0.25869653048E+02  0.42770935547E+02  0.51100000000E-03 0.  1.
        -12    1    3    3    0    0 -0.96928574342E-01 -0.70311254836E+00 -0.91129105539E+00  0.11550817252E+01  0.00000000000E+00 0.  1.
</event>
<event>
 7    1  0.7470072E-010  0.4778727E+02  0.7816164E-02  0.1312668E+00
        -11   -1    0    0    0    0  0.00000000000E+00  0.00000000000E+00  0.45593999997E+02  0.45594000000E+02  0.51100000000E-03 0. -1.
         11   -1    0    0    0    0 -0.00000000000E+00 -0.00000000000E+00 -0.45593999997E+02  0.45594000000E+02  0.51100000000E-03 0.  1.
    9900012    2    1    2    0    0 -0.92116642369E+01 -0.12764114291E+02 -0.40445593556E+02  0.47787269479E+02  0.19999992864E+02 0.  0.
         12    1    1    2    0    0  0.92116642369E+01  0.12764114291E+02  0.40445593556E+02  0.43400730521E+02  0.00000000000E+00 0. -1.
         11    1    3    3    0    0 -0.68256686836E+01 -0.12245563447E+01 -0.30299952138E+02  0.31083378051E+02  0.51100000000E-03 0.  1.
        -11    1    3    3    0    0 -0.42065693432E+01 -0.10041053673E+02 -0.79330495845E+01  0.13470384570E+02  0.51100000000E-03 0. -1.
        -12    1    3    3    0    0  0.18205737900E+01 -0.14985042737E+01 -0.22125918328E+01  0.32335068581E+01  0.00000000000E+00 0.  1.
</event>
<event>
 7    1  0.7470072E-010  0.4778725E+02  0.7816164E-02  0.1312668E+00
        -11   -1    0    0    0    0  0.00000000000E+00  0.00000000000E+00  0.45593999997E+02  0.45594000000E+02  0.51100000000E-03 0. -1.
         11   -1    0    0    0    0 -0.00000000000E+00 -0.00000000000E+00 -0.45593999997E+02  0.45594000000E+02  0.51100000000E-03 0.  1.
    9900012    2    1    2    0    0  0.75388930383E+01  0.86396908786E+00  0.42732232768E+02  0.47787250374E+02  0.19999905754E+02 0.  0.
        -12    1    1    2    0    0 -0.75388930383E+01 -0.86396908786E+00 -0.42732232768E+02  0.43400749626E+02  0.00000000000E+00 0.  1.
         11    1    3    3    0    0  0.10112285920E+02  0.35614027660E+01  0.31811532446E+02  0.33569562300E+02  0.51100000000E-03 0. -1.
        -11    1    3    3    0    0 -0.26202116704E+01 -0.70231096167E+00 -0.38261372417E+00  0.27395516800E+01  0.51100000000E-03 0.  1.
        -12    1    3    3    0    0  0.46818788307E-01 -0.19951227165E+01  0.11303314046E+02  0.11478136393E+02  0.00000000000E+00 0.  1.
</event>
<event>
 7    1  0.7470072E-010  0.4778727E+02  0.7816164E-02  0.1312668E+00
        -11   -1    0    0    0    0  0.00000000000E+00  0.00000000000E+00  0.45593999997E+02  0.45594000000E+02  0.51100000000E-03 0. -1.
         11   -1    0    0    0    0 -0.00000000000E+00 -0.00000000000E+00 -0.45593999997E+02  0.45594000000E+02  0.51100000000E-03 0.  1.
    9900012    2    1    2    0    0 -0.93646740729E+01 -0.18526192800E+01  0.42337851509E+02  0.47787274326E+02  0.20000014960E+02 0.  0.
        -12    1    1    2    0    0  0.93646740729E+01  0.18526192800E+01 -0.42337851509E+02  0.43400725674E+02  0.00000000000E+00 0.  1.
         11    1    3    3    0    0 -0.12807135795E+02 -0.91641109044E+00  0.24242225881E+02  0.27432609290E+02  0.51100000000E-03 0. -1.
        -11    1    3    3    0    0  0.44414433198E+00 -0.43085804515E+01  0.12091228110E+02  0.12843633721E+02  0.51100000000E-03 0.  1.
         12    1    3    3    0    0  0.29983173904E+01  0.33723722619E+01  0.60043975183E+01  0.75110313143E+01  0.00000000000E+00 0. -1.
</event>
<event>
 7    1  0.7470072E-010  0.4778727E+02  0.7816164E-02  0.1312668E+00
        -11   -1    0    0    0    0  0.00000000000E+00  0.00000000000E+00  0.45593999997E+02  0.45594000000E+02  0.51100000000E-03 0. -1.
         11   -1    0    0    0    0 -0.00000000000E+00 -0.00000000000E+00 -0.45593999997E+02  0.45594000000E+02  0.51100000000E-03 0.  1.
    9900012    2    1    2    0    0  0.38337414574E+02 -0.63985590418E+01 -0.19311253310E+02  0.47787269379E+02  0.19999992404E+02 0.  0.
         12    1    1    2    0    0 -0.38337414574E+02  0.63985590418E+01  0.19311253310E+02  0.43400730621E+02  0.00000000000E+00 0. -1.
         11    1    3    3    0    0  0.22667078349E+01  0.23331627077E+01 -0.16335653881E+01  0.36400753795E+01  0.51100000000E-03 0. -1.
        -11    1    3    3    0    0  0.23569602389E+02 -0.14755413172E+01 -0.34520793264E+01  0.23866718059E+02  0.51100000000E-03 0.  1.
        -12    1    3    3    0    0  0.12501104350E+02 -0.72561804323E+01 -0.14225608596E+02  0.20280475940E+02  0.00000000000E+00 0.  1.
</event>
<event>
 7    1  0.9622162E-010  0.4778726E+02  0.7816164E-02  0.1312668E+00
        -11   -1    0    0    0    0  0.00000000000E+00  0.00000000000E+00  0.45593999997E+02  0.45594000000E+02  0.51100000000E-03 0. -1.
         11   -1    0    0    0    0 -0.00000000000E+00 -0.00000000000E+00 -0.45593999997E+02  0.45594000000E+02  0.51100000000E-03 0.  1.
    9900012    2    1    2    0    0  0.21848099047E+02 -0.38371155628E+00  0.37498502669E+02  0.47787258429E+02  0.19999942480E+02 0.  0.
        -12    1    1    2    0    0 -0.21848099047E+02  0.38371155628E+00 -0.37498502669E+02  0.43400741571E+02  0.00000000000E+00 0.  1.
         11    1    3    3    0    0  0.15768407279E+02  0.20172045268E+01  0.12202609352E+02  0.20040345743E+02  0.51100000000E-03 0. -1.
        -11    1    3    3    0    0  0.14975895694E+00  0.95738377699E+00 -0.48280229151E+00  0.10826401782E+01  0.51100000000E-03 0.  1.
         12    1    3    3    0    0  0.59299328106E+01 -0.33582998600E+01  0.25778695608E+02  0.26664272508E+02  0.00000000000E+00 0. -1.
</event>
<event>
 7    1  0.7470072E-010  0.4778728E+02  0.7816164E-02  0.1312668E+00
        -11   -1    0    0    0    0  0.00000000000E+00  0.00000000000E+00  0.45593999997E+02  0.45594000000E+02  0.51100000000E-03 0. -1.
         11   -1    0    0    0    0 -0.00000000000E+00 -0.00000000000E+00 -0.45593999997E+02  0.45594000000E+02  0.51100000000E-03 0.  1.
    9900012    2    1    2    0    0  0.22890453126E+02 -0.23795537084E+02 -0.28167755759E+02  0.47787275422E+02  0.20000019960E+02 0.  0.
         12    1    1    2    0    0 -0.22890453126E+02  0.23795537084E+02  0.28167755759E+02  0.43400724578E+02  0.00000000000E+00 0. -1.
         11    1    3    3    0    0  0.19294514587E+01  0.13444478994E+01  0.41940763199E-01  0.23520379194E+01  0.51100000000E-03 0. -1.
        -11    1    3    3    0    0  0.10800068043E+02 -0.13955593912E+02 -0.23924771885E+02  0.29728686167E+02  0.51100000000E-03 0.  1.
        -12    1    3    3    0    0  0.10160933624E+02 -0.11184391071E+02 -0.42849246368E+01  0.15706551336E+02  0.00000000000E+00 0.  1.
</event>
<event>
 7    1  0.7470072E-010  0.4778727E+02  0.7816164E-02  0.1312668E+00
        -11   -1    0    0    0    0  0.00000000000E+00  0.00000000000E+00  0.45593999997E+02  0.45594000000E+02  0.51100000000E-03 0. -1.
         11   -1    0    0    0    0 -0.00000000000E+00 -0.00000000000E+00 -0.45593999997E+02  0.45594000000E+02  0.51100000000E-03 0.  1.
    9900012    2    1    2    0    0  0.27689671399E+02  0.16783038028E+02 -0.28900431994E+02  0.47787271468E+02  0.20000001933E+02 0.  0.
         12    1    1    2    0    0 -0.27689671399E+02 -0.16783038028E+02  0.28900431994E+02  0.43400728532E+02  0.00000000000E+00 0. -1.
         11    1    3    3    0    0  0.10076241488E+02  0.70239744103E+01 -0.22278141761E+01  0.12483189308E+02  0.51100000000E-03 0. -1.
        -11    1    3    3    0    0  0.11079562564E+01  0.53028986097E+01 -0.32906485458E+01  0.63385068308E+01  0.51100000000E-03 0.  1.
         12    1    3    3    0    0  0.16505473655E+02  0.44561650085E+01 -0.23381969272E+02  0.28965575330E+02  0.00000000000E+00 0. -1.
</event>
<event>
 7    1  0.7470072E-010  0.4778727E+02  0.7816164E-02  0.1312668E+00
        -11   -1    0    0    0    0  0.00000000000E+00  0.00000000000E+00  0.45593999997E+02  0.45594000000E+02  0.51100000000E-03 0. -1.
         11   -1    0    0    0    0 -0.00000000000E+00 -0.00000000000E+00 -0.45593999997E+02  0.45594000000E+02  0.51100000000E-03 0.  1.
    9900012    2    1    2    0    0  0.12291335085E+02  0.33396003395E+02  0.24844577777E+02  0.47787274133E+02  0.20000014080E+02 0.  0.
        -12    1    1    2    0    0 -0.12291335085E+02 -0.33396003395E+02 -0.24844577777E+02  0.43400725867E+02  0.00000000000E+00 0.  1.
         11    1    3    3    0    0 -0.13904428148E+01  0.17885065675E+02  0.46989388555E+01  0.18544242558E+02  0.51100000000E-03 0. -1.
        -11    1    3    3    0    0  0.74311456424E+01  0.90260224783E+01  0.14445450923E+02  0.18583919392E+02  0.51100000000E-03 0.  1.
        -12    1    3    3    0    0  0.62506322576E+01  0.64849152411E+01  0.57001879984E+01  0.10659112183E+02  0.00000000000E+00 0.  1.
</event>
<event>
 7    1  0.7470072E-010  0.4778727E+02  0.7816164E-02  0.1312668E+00
        -11   -1    0    0    0    0  0.00000000000E+00  0.00000000000E+00  0.45593999997E+02  0.45594000000E+02  0.51100000000E-03 0. -1.
         11   -1    0    0    0    0 -0.00000000000E+00 -0.00000000000E+00 -0.45593999997E+02  0.45594000000E+02  0.51100000000E-03 0.  1.
    9900012    2    1    2    0    0 -0.13281281612E+01  0.40690626333E+02 -0.15037696980E+02  0.47787270441E+02  0.19999997249E+02 0.  0.
         12    1    1    2    0    0  0.13281281612E+01 -0.40690626333E+02  0.15037696980E+02  0.43400729559E+02  0.00000000000E+00 0. -1.
         11    1    3    3    0    0  0.19821837600E+01  0.15288900388E+02 -0.47239904310E+01  0.16124379473E+02  0.51100000000E-03 0. -1.
        -11    1    3    3    0    0 -0.75067471489E+01  0.22879811329E+02 -0.53018996589E+01  0.24656584505E+02  0.51100000000E-03 0.  1.
        -12    1    3    3    0    0  0.41964352277E+01  0.25219146160E+01 -0.50118068901E+01  0.70063064630E+01  0.00000000000E+00 0.  1.
</event>
<event>
 7    1  0.7470072E-010  0.4778724E+02  0.7816164E-02  0.1312668E+00
        -11   -1    0    0    0    0  0.00000000000E+00  0.00000000000E+00  0.45593999997E+02  0.45594000000E+02  0.51100000000E-03 0. -1.
         11   -1    0    0    0    0 -0.00000000000E+00 -0.00000000000E+00 -0.45593999997E+02  0.45594000000E+02  0.51100000000E-03 0.  1.
    9900012    2    1    2    0    0  0.10440251901E+02 -0.94246329459E+01  0.41058531934E+02  0.47787244125E+02  0.19999877265E+02 0.  0.
        -12    1    1    2    0    0 -0.10440251901E+02  0.94246329459E+01 -0.41058531934E+02  0.43400755875E+02  0.00000000000E+00 0.  1.
         11    1    3    3    0    0  0.13767376308E+02 -0.31363568518E+01  0.19170371480E+02  0.23809252984E+02  0.51100000000E-03 0. -1.
        -11    1    3    3    0    0  0.56329356295E+00  0.11586032612E+01  0.42496979780E+01  0.44406749847E+01  0.51100000000E-03 0.  1.
         12    1    3    3    0    0 -0.38904179694E+01 -0.74468793552E+01  0.17638462476E+02  0.19537316157E+02  0.00000000000E+00 0. -1.
</event>
<event>
 7    1  0.7470072E-010  0.4778728E+02  0.7816164E-02  0.1312668E+00
        -11   -1    0    0    0    0  0.00000000000E+00  0.00000000000E+00  0.45593999997E+02  0.45594000000E+02  0.51100000000E-03 0. -1.
         11   -1    0    0    0    0 -0.00000000000E+00 -0.00000000000E+00 -0.45593999997E+02  0.45594000000E+02  0.51100000000E-03 0.  1.
    9900012    2    1    2    0    0 -0.47437172046E+01 -0.33991274284E+02 -0.26565261303E+02  0.47787277789E+02  0.20000030751E+02 0.  0.
         12    1    1    2    0    0  0.47437172046E+01  0.33991274284E+02  0.26565261303E+02  0.43400722211E+02  0.00000000000E+00 0. -1.
         11    1    3    3    0    0 -0.19156061004E+01  0.11579262653E+01  0.10604806672E+01  0.24768850346E+01  0.51100000000E-03 0. -1.
        -11    1    3    3    0    0 -0.42193497231E+01 -0.31398628994E+02 -0.22747014096E+02  0.39001326456E+02  0.51100000000E-03 0.  1.
        -12    1    3    3    0    0  0.13912386189E+01 -0.37505715549E+01 -0.48787278744E+01  0.63090662982E+01  0.00000000000E+00 0.  1.
</event>
<event>
 7    1  0.7470072E-010  0.4778727E+02  0.7816164E-02  0.1312668E+00
        -11   -1    0    0    0    0  0.00000000000E+00  0.00000000000E+00  0.45593999997E+02  0.45594000000E+02  0.51100000000E-03 0. -1.
         11   -1    0    0    0    0 -0.00000000000E+00 -0.00000000000E+00 -0.45593999997E+02  0.45594000000E+02  0.51100000000E-03 0.  1.
    9900012    2    1    2    0    0  0.16777460445E+02  0.23488842640E+02 -0.32410092737E+02  0.47787273984E+02  0.20000013402E+02 0.  0.
         12    1    1    2    0    0 -0.16777460445E+02 -0.23488842640E+02  0.32410092737E+02  0.43400726016E+02  0.00000000000E+00 0. -1.
         11    1    3    3    0    0  0.25295824286E+01  0.36865073283E+01  0.41828692269E+00  0.44904440488E+01  0.51100000000E-03 0. -1.
        -11    1    3    3    0    0  0.23852060364E+01  0.14424496652E+02 -0.12947188999E+02  0.19529081257E+02  0.51100000000E-03 0.  1.
        -12    1    3    3    0    0  0.11862671980E+02  0.53778386594E+01 -0.19881190661E+02  0.23767748678E+02  0.00000000000E+00 0.  1.
</event>
<event>
 7    1  0.7470072E-010  0.4778727E+02  0.7816164E-02  0.1312668E+00
        -11   -1    0    0    0    0  0.00000000000E+00  0.00000000000E+00  0.45593999997E+02  0.45594000000E+02  0.51100000000E-03 0. -1.
         11   -1    0    0    0    0 -0.00000000000E+00 -0.00000000000E+00 -0.45593999997E+02  0.45594000000E+02  0.51100000000E-03 0.  1.
    9900012    2    1    2    0    0  0.18198774543E+02 -0.32783306741E+02  0.21855956609E+02  0.47787269188E+02  0.19999991535E+02 0.  0.
        -12    1    1    2    0    0 -0.18198774543E+02  0.32783306741E+02 -0.21855956609E+02  0.43400730812E+02  0.00000000000E+00 0.  1.
         11    1    3    3    0    0 -0.29836466578E+01 -0.61898690022E+01  0.22015839820E+01  0.72155109268E+01  0.51100000000E-03 0. -1.
        -11    1    3    3    0    0  0.18117089181E+02 -0.24160675550E+02  0.20587366397E+02  0.36548691069E+02  0.51100000000E-03 0.  1.
        -12    1    3    3    0    0  0.30653320198E+01 -0.24327621883E+01 -0.93299377013E+00  0.40230671920E+01  0.00000000000E+00 0.  1.
</event>
<event>
 7    1  0.7470072E-010  0.4778728E+02  0.7816164E-02  0.1312668E+00
        -11   -1    0    0    0    0  0.00000000000E+00  0.00000000000E+00  0.45593999997E+02  0.45594000000E+02  0.51100000000E-03 0. -1.
         11   -1    0    0    0    0 -0.00000000000E+00 -0.00000000000E+00 -0.45593999997E+02  0.45594000000E+02  0.51100000000E-03 0.  1.
    9900012    2    1    2    0    0 -0.13170233181E+02  0.33110667334E+02 -0.24776026330E+02  0.47787276342E+02  0.20000024153E+02 0.  0.
         12    1    1    2    0    0  0.13170233181E+02 -0.33110667334E+02  0.24776026330E+02  0.43400723658E+02  0.00000000000E+00 0. -1.
         11    1    3    3    0    0 -0.85205751506E+01  0.53927587273E+01 -0.77709273602E+01  0.12730646483E+02  0.51100000000E-03 0. -1.
        -11    1    3    3    0    0  0.26016624073E+00  0.23719559676E+02 -0.10381131071E+02  0.25893108740E+02  0.51100000000E-03 0.  1.
        -12    1    3    3    0    0 -0.49098242710E+01  0.39983489312E+01 -0.66239678992E+01  0.91635211178E+01  0.00000000000E+00 0.  1.
</event>
<event>
 7    1  0.7470072E-010  0.4778730E+02  0.7816164E-02  0.1312668E+00
        -11   -1    0    0    0    0  0.00000000000E+00  0.00000000000E+00  0.45593999997E+02  0.45594000000E+02  0.51100000000E-03 0. -1.
         11   -1    0    0    0    0 -0.00000000000E+00 -0.00000000000E+00 -0.45593999997E+02  0.45594000000E+02  0.51100000000E-03 0.  1.
    9900012    2    1    2    0    0  0.15600938017E+02  0.28072971482E+02 -0.29191431489E+02  0.47787301074E+02  0.20000136918E+02 0.  0.
         12    1    1    2    0    0 -0.15600938017E+02 -0.28072971482E+02  0.29191431489E+02  0.43400698926E+02  0.00000000000E+00 0. -1.
         11    1    3    3    0    0  0.17696399972E+01  0.55761758647E+01  0.10015343186E+01  0.59353546016E+01  0.51100000000E-03 0. -1.
        -11    1    3    3    0    0  0.59919527805E+01  0.81150954616E+01 -0.20426947838E+02  0.22781976883E+02  0.51100000000E-03 0.  1.
        -12    1    3    3    0    0  0.78393452396E+01  0.14381700156E+02 -0.97660179697E+01  0.19069969590E+02  0.00000000000E+00 0.  1.
</event>
<event>
 7    1  0.7470072E-010  0.4778728E+02  0.7816164E-02  0.1312668E+00
        -11   -1    0    0    0    0  0.00000000000E+00  0.00000000000E+00  0.45593999997E+02  0.45594000000E+02  0.51100000000E-03 0. -1.
         11   -1    0    0    0    0 -0.00000000000E+00 -0.00000000000E+00 -0.45593999997E+02  0.45594000000E+02  0.51100000000E-03 0.  1.
    9900012    2    1    2    0    0  0.12871816168E+02  0.16117254552E+02  0.38186036411E+02  0.47787275092E+02  0.20000018456E+02 0.  0.
        -12    1    1    2    0    0 -0.12871816168E+02 -0.16117254552E+02 -0.38186036411E+02  0.43400724908E+02  0.00000000000E+00 0.  1.
         11    1    3    3    0    0  0.12369282889E+02  0.11489345644E+02  0.38521160780E+02  0.42058103269E+02  0.51100000000E-03 0. -1.
        -11    1    3    3    0    0 -0.11366494176E+01  0.25022375801E+01  0.72629167038E+00  0.28426509911E+01  0.51100000000E-03 0.  1.
         12    1    3    3    0    0  0.16391826959E+01  0.21256713281E+01 -0.10614160393E+01  0.28865208321E+01  0.00000000000E+00 0. -1.
</event>
<event>
 7    1  0.7470072E-010  0.4778726E+02  0.7816164E-02  0.1312668E+00
        -11   -1    0    0    0    0  0.00000000000E+00  0.00000000000E+00  0.45593999997E+02  0.45594000000E+02  0.51100000000E-03 0. -1.
         11   -1    0    0    0    0 -0.00000000000E+00 -0.00000000000E+00 -0.45593999997E+02  0.45594000000E+02  0.51100000000E-03 0.  1.
    9900012    2    1    2    0    0  0.16443377156E+02 -0.72866510500E-01 -0.40165083249E+02  0.47787264128E+02  0.19999968464E+02 0.  0.
         12    1    1    2    0    0 -0.16443377156E+02  0.72866510500E-01  0.40165083249E+02  0.43400735872E+02  0.00000000000E+00 0. -1.
         11    1    3    3    0    0 -0.33765899394E+01  0.25910738462E+01 -0.47716387788E+01  0.63940253512E+01  0.51100000000E-03 0. -1.
        -11    1    3    3    0    0  0.13822132085E+02 -0.19687549383E+01 -0.30766862854E+02  0.33786494069E+02  0.51100000000E-03 0.  1.
         12    1    3    3    0    0  0.59978350110E+01 -0.69518541837E+00 -0.46265816166E+01  0.76067447072E+01  0.00000000000E+00 0. -1.
</event>
<event>
 7    1  0.7470072E-010  0.4778727E+02  0.7816164E-02  0.1312668E+00
        -11   -1    0    0    0    0  0.00000000000E+00  0.00000000000E+00  0.45593999997E+02  0.45594000000E+02  0.51100000000E-03 0. -1.
         11   -1    0    0    0    0 -0.00000000000E+00 -0.00000000000E+00 -0.45593999997E+02  0.45594000000E+02  0.51100000000E-03 0.  1.
    9900012    2    1    2    0    0  0.28960444343E+01 -0.35851973149E+02 -0.24287279881E+02  0.47787274015E+02  0.20000013543E+02 0.  0.
         12    1    1    2    0    0 -0.28960444343E+01  0.35851973149E+02  0.24287279881E+02  0.43400725985E+02  0.00000000000E+00 0. -1.
         11    1    3    3    0    0  0.89907529999E+01 -0.79350992826E+01 -0.74282633339E+01  0.14105975207E+02  0.51100000000E-03 0. -1.
        -11    1    3    3    0    0 -0.42206295671E+01 -0.19096371541E+02 -0.82896646687E+01  0.21241555041E+02  0.51100000000E-03 0.  1.
        -12    1    3    3    0    0 -0.18740789984E+01 -0.88205023253E+01 -0.85693518788E+01  0.12439743767E+02  0.00000000000E+00 0.  1.
</event>
<event>
 7    1  0.7470072E-010  0.4778727E+02  0.7816164E-02  0.1312668E+00
        -11   -1    0    0    0    0  0.00000000000E+00  0.00000000000E+00  0.45593999997E+02  0.45594000000E+02  0.51100000000E-03 0.  1.
         11   -1    0    0    0    0 -0.00000000000E+00 -0.00000000000E+00 -0.45593999997E+02  0.45594000000E+02  0.51100000000E-03 0. -1.
    9900012    2    1    2    0    0 -0.37827937480E+02  0.21271079534E+02 -0.45989863743E+00  0.47787272065E+02  0.20000004654E+02 0.  0.
         12    1    1    2    0    0  0.37827937480E+02 -0.21271079534E+02  0.45989863743E+00  0.43400727935E+02  0.00000000000E+00 0. -1.
         11    1    3    3    0    0  0.95962682224E+00 -0.59558028862E+00 -0.23768902801E+00  0.11541645694E+01  0.51100000000E-03 0. -1.
        -11    1    3    3    0    0 -0.36805919605E+02  0.21904940168E+02  0.29063257882E+01  0.42929580147E+02  0.51100000000E-03 0.  1.
        -12    1    3    3    0    0 -0.19816446968E+01 -0.38280345185E-01 -0.31285353976E+01  0.37035273488E+01  0.00000000000E+00 0.  1.
</event>
<event>
 7    1  0.7470072E-010  0.4778727E+02  0.7816164E-02  0.1312668E+00
        -11   -1    0    0    0    0  0.00000000000E+00  0.00000000000E+00  0.45593999997E+02  0.45594000000E+02  0.51100000000E-03 0.  1.
         11   -1    0    0    0    0 -0.00000000000E+00 -0.00000000000E+00 -0.45593999997E+02  0.45594000000E+02  0.51100000000E-03 0. -1.
    9900012    2    1    2    0    0  0.11857686104E+02  0.36405296499E+02 -0.20437047279E+02  0.47787271499E+02  0.20000002075E+02 0.  0.
         12    1    1    2    0    0 -0.11857686104E+02 -0.36405296499E+02  0.20437047279E+02  0.43400728501E+02  0.00000000000E+00 0. -1.
         11    1    3    3    0    0  0.74719669675E+01  0.87190440093E+01 -0.30679939482E+01  0.11885478784E+02  0.51100000000E-03 0. -1.
        -11    1    3    3    0    0  0.15461837259E+00  0.27624594602E+01 -0.87745466436E+01  0.92004216302E+01  0.51100000000E-03 0.  1.
        -12    1    3    3    0    0  0.42311007643E+01  0.24923793029E+02 -0.85945066870E+01  0.26701371085E+02  0.00000000000E+00 0.  1.
</event>
<event>
 7    1  0.1079876E-009  0.4778727E+02  0.7816164E-02  0.1312668E+00
        -11   -1    0    0    0    0  0.00000000000E+00  0.00000000000E+00  0.45593999997E+02  0.45594000000E+02  0.51100000000E-03 0. -1.
         11   -1    0    0    0    0 -0.00000000000E+00 -0.00000000000E+00 -0.45593999997E+02  0.45594000000E+02  0.51100000000E-03 0.  1.
    9900012    2    1    2    0    0  0.30411563036E+02  0.27018798246E+01 -0.30845750783E+02  0.47787266570E+02  0.19999979599E+02 0.  0.
         12    1    1    2    0    0 -0.30411563036E+02 -0.27018798246E+01  0.30845750783E+02  0.43400733430E+02  0.00000000000E+00 0. -1.
         11    1    3    3    0    0 -0.78546168042E+00 -0.12917671708E+01  0.82489317317E+00  0.17222257353E+01  0.51100000000E-03 0. -1.
        -11    1    3    3    0    0  0.26874839995E+02  0.12985421706E+01 -0.20626007570E+02  0.33902439809E+02  0.51100000000E-03 0.  1.
        -12    1    3    3    0    0  0.43221847220E+01  0.26951048247E+01 -0.11044636387E+02  0.12162601025E+02  0.00000000000E+00 0.  1.
</event>
<event>
 7    1  0.7470072E-010  0.4778727E+02  0.7816164E-02  0.1312668E+00
        -11   -1    0    0    0    0  0.00000000000E+00  0.00000000000E+00  0.45593999997E+02  0.45594000000E+02  0.51100000000E-03 0. -1.
         11   -1    0    0    0    0 -0.00000000000E+00 -0.00000000000E+00 -0.45593999997E+02  0.45594000000E+02  0.51100000000E-03 0.  1.
    9900012    2    1    2    0    0 -0.41577882014E+01  0.32610784617E+02  0.28335011108E+02  0.47787270391E+02  0.19999997022E+02 0.  0.
        -12    1    1    2    0    0  0.41577882014E+01 -0.32610784617E+02 -0.28335011108E+02  0.43400729609E+02  0.00000000000E+00 0.  1.
         11    1    3    3    0    0  0.15587202088E+01  0.28684354333E+02  0.28803840533E+02  0.40680253464E+02  0.51100000000E-03 0. -1.
        -11    1    3    3    0    0 -0.34555897218E+01  0.17675133829E+01  0.28318740442E+00  0.38917090399E+01  0.51100000000E-03 0.  1.
         12    1    3    3    0    0 -0.22609186884E+01  0.21589169014E+01 -0.75201682866E+00  0.32153078878E+01  0.00000000000E+00 0. -1.
</event>
<event>
 7    1  0.7470072E-010  0.4778727E+02  0.7816164E-02  0.1312668E+00
        -11   -1    0    0    0    0  0.00000000000E+00  0.00000000000E+00  0.45593999997E+02  0.45594000000E+02  0.51100000000E-03 0. -1.
         11   -1    0    0    0    0 -0.00000000000E+00 -0.00000000000E+00 -0.45593999997E+02  0.45594000000E+02  0.51100000000E-03 0.  1.
    9900012    2    1    2    0    0 -0.33599849437E+02 -0.20475580237E+02  0.18314584186E+02  0.47787271180E+02  0.20000000618E+02 0.  0.
        -12    1    1    2    0    0  0.33599849437E+02  0.20475580237E+02 -0.18314584186E+02  0.43400728820E+02  0.00000000000E+00 0.  1.
         11    1    3    3    0    0 -0.44699811196E+01 -0.10084893166E+02  0.65447458370E+01  0.12826515494E+02  0.51100000000E-03 0. -1.
        -11    1    3    3    0    0 -0.29281289559E+02 -0.11480470109E+02  0.10240221604E+02  0.33076536259E+02  0.51100000000E-03 0.  1.
         12    1    3    3    0    0  0.15142124129E+00  0.10897830385E+01  0.15296167449E+01  0.18842194271E+01  0.00000000000E+00 0. -1.
</event>
<event>
 7    1  0.7470072E-010  0.4778727E+02  0.7816164E-02  0.1312668E+00
        -11   -1    0    0    0    0  0.00000000000E+00  0.00000000000E+00  0.45593999997E+02  0.45594000000E+02  0.51100000000E-03 0. -1.
         11   -1    0    0    0    0 -0.00000000000E+00 -0.00000000000E+00 -0.45593999997E+02  0.45594000000E+02  0.51100000000E-03 0.  1.
    9900012    2    1    2    0    0 -0.35267540063E+02  0.97698447846E+01  0.23331823474E+02  0.47787271483E+02  0.20000001999E+02 0.  0.
        -12    1    1    2    0    0  0.35267540063E+02 -0.97698447846E+01 -0.23331823474E+02  0.43400728517E+02  0.00000000000E+00 0.  1.
         11    1    3    3    0    0 -0.22461746344E+02  0.12545147634E+01  0.10317095870E+02  0.24749673201E+02  0.51100000000E-03 0. -1.
        -11    1    3    3    0    0 -0.16535145371E+01  0.34890215876E+01 -0.14226149290E+01  0.41147558203E+01  0.51100000000E-03 0.  1.
         12    1    3    3    0    0 -0.11152279182E+02  0.50263084337E+01  0.14437342532E+02  0.18922842462E+02  0.00000000000E+00 0. -1.
</event>
<event>
 7    1  0.7470072E-010  0.4778727E+02  0.7816164E-02  0.1312668E+00
        -11   -1    0    0    0    0  0.00000000000E+00  0.00000000000E+00  0.45593999997E+02  0.45594000000E+02  0.51100000000E-03 0. -1.
         11   -1    0    0    0    0 -0.00000000000E+00 -0.00000000000E+00 -0.45593999997E+02  0.45594000000E+02  0.51100000000E-03 0.  1.
    9900012    2    1    2    0    0 -0.17563980359E+02 -0.32622651931E+02  0.22602927715E+02  0.47787272283E+02  0.20000005647E+02 0.  0.
        -12    1    1    2    0    0  0.17563980359E+02  0.32622651931E+02 -0.22602927715E+02  0.43400727717E+02  0.00000000000E+00 0.  1.
         11    1    3    3    0    0 -0.66677162750E+01 -0.15930046750E+02  0.18115778387E+02  0.25028109330E+02  0.51100000000E-03 0. -1.
        -11    1    3    3    0    0 -0.64345492714E+01 -0.13966412684E+02 -0.70092271363E+00  0.15393355726E+02  0.51100000000E-03 0.  1.
        -12    1    3    3    0    0 -0.44617148127E+01 -0.27261924963E+01  0.51880720414E+01  0.73658072269E+01  0.00000000000E+00 0.  1.
</event>
<event>
 7    1  0.7470072E-010  0.4778727E+02  0.7816164E-02  0.1312668E+00
        -11   -1    0    0    0    0  0.00000000000E+00  0.00000000000E+00  0.45593999997E+02  0.45594000000E+02  0.51100000000E-03 0. -1.
         11   -1    0    0    0    0 -0.00000000000E+00 -0.00000000000E+00 -0.45593999997E+02  0.45594000000E+02  0.51100000000E-03 0.  1.
    9900012    2    1    2    0    0  0.32384003048E+02 -0.18766261983E+02  0.21971042046E+02  0.47787274997E+02  0.20000018021E+02 0.  0.
        -12    1    1    2    0    0 -0.32384003048E+02  0.18766261983E+02 -0.21971042046E+02  0.43400725003E+02  0.00000000000E+00 0.  1.
         11    1    3    3    0    0  0.45452834401E+01  0.29134193701E+01  0.27731161187E+01  0.60694140776E+01  0.51100000000E-03 0. -1.
        -11    1    3    3    0    0 -0.12488809071E+00 -0.16080867316E+01  0.35648574083E+01  0.39127673806E+01  0.51100000000E-03 0.  1.
         12    1    3    3    0    0  0.27963607698E+02 -0.20071594621E+02  0.15633068519E+02  0.37805093539E+02  0.00000000000E+00 0. -1.
</event>
<event>
 7    1  0.7470072E-010  0.4778727E+02  0.7816164E-02  0.1312668E+00
        -11   -1    0    0    0    0  0.00000000000E+00  0.00000000000E+00  0.45593999997E+02  0.45594000000E+02  0.51100000000E-03 0. -1.
         11   -1    0    0    0    0 -0.00000000000E+00 -0.00000000000E+00 -0.45593999997E+02  0.45594000000E+02  0.51100000000E-03 0.  1.
    9900012    2    1    2    0    0  0.10521720259E+02 -0.72095852776E+00  0.42099845720E+02  0.47787269729E+02  0.19999994002E+02 0.  0.
        -12    1    1    2    0    0 -0.10521720259E+02  0.72095852776E+00 -0.42099845720E+02  0.43400730271E+02  0.00000000000E+00 0.  1.
         11    1    3    3    0    0  0.88694916958E+01 -0.73963238208E+01  0.22334030172E+02  0.25143237520E+02  0.51100000000E-03 0. -1.
        -11    1    3    3    0    0 -0.15360570588E+01 -0.10807677122E+01  0.10891867331E+01  0.21711421271E+01  0.51100000000E-03 0.  1.
         12    1    3    3    0    0  0.31882856218E+01  0.77561330052E+01  0.18676628815E+02  0.20472890081E+02  0.00000000000E+00 0. -1.
</event>
<event>
 7    1  0.7470072E-010  0.4778727E+02  0.7816164E-02  0.1312668E+00
        -11   -1    0    0    0    0  0.00000000000E+00  0.00000000000E+00  0.45593999997E+02  0.45594000000E+02  0.51100000000E-03 0. -1.
         11   -1    0    0    0    0 -0.00000000000E+00 -0.00000000000E+00 -0.45593999997E+02  0.45594000000E+02  0.51100000000E-03 0.  1.
    9900012    2    1    2    0    0 -0.31231207523E+02 -0.16423074563E+02  0.25268909852E+02  0.47787268364E+02  0.19999987777E+02 0.  0.
        -12    1    1    2    0    0  0.31231207523E+02  0.16423074563E+02 -0.25268909852E+02  0.43400731636E+02  0.00000000000E+00 0.  1.
         11    1    3    3    0    0 -0.44352691935E+01 -0.69907121722E+01  0.12806211346E+02  0.15249285846E+02  0.51100000000E-03 0. -1.
        -11    1    3    3    0    0 -0.10468022284E+02  0.10779801191E+01  0.30361203476E+01  0.10952605110E+02  0.51100000000E-03 0.  1.
         12    1    3    3    0    0 -0.16327916046E+02 -0.10510342509E+02  0.94265781583E+01  0.21585377408E+02  0.00000000000E+00 0. -1.
</event>
<event>
 7    1  0.7470072E-010  0.4778728E+02  0.7816164E-02  0.1312668E+00
        -11   -1    0    0    0    0  0.00000000000E+00  0.00000000000E+00  0.45593999997E+02  0.45594000000E+02  0.51100000000E-03 0. -1.
         11   -1    0    0    0    0 -0.00000000000E+00 -0.00000000000E+00 -0.45593999997E+02  0.45594000000E+02  0.51100000000E-03 0.  1.
    9900012    2    1    2    0    0 -0.62305635635E+01  0.15900544686E+02 -0.39899560024E+02  0.47787284180E+02  0.20000059889E+02 0.  0.
         12    1    1    2    0    0  0.62305635635E+01 -0.15900544686E+02  0.39899560024E+02  0.43400715820E+02  0.00000000000E+00 0. -1.
         11    1    3    3    0    0 -0.70993446509E+01  0.11337897414E+01 -0.22792899363E+02  0.23899841742E+02  0.51100000000E-03 0. -1.
        -11    1    3    3    0    0 -0.25715732250E+01  0.60701723972E+01 -0.37572248671E+01  0.75879325739E+01  0.51100000000E-03 0.  1.
         12    1    3    3    0    0  0.34403543125E+01  0.86965825473E+01 -0.13349435794E+02  0.16299509864E+02  0.00000000000E+00 0. -1.
</event>
<event>
 7    1  0.7470072E-010  0.4778727E+02  0.7816164E-02  0.1312668E+00
        -11   -1    0    0    0    0  0.00000000000E+00  0.00000000000E+00  0.45593999997E+02  0.45594000000E+02  0.51100000000E-03 0. -1.
         11   -1    0    0    0    0 -0.00000000000E+00 -0.00000000000E+00 -0.45593999997E+02  0.45594000000E+02  0.51100000000E-03 0.  1.
    9900012    2    1    2    0    0 -0.10581548038E+02 -0.25720746311E+02  0.33318123226E+02  0.47787270917E+02  0.19999999417E+02 0.  0.
        -12    1    1    2    0    0  0.10581548038E+02  0.25720746311E+02 -0.33318123226E+02  0.43400729083E+02  0.00000000000E+00 0.  1.
         11    1    3    3    0    0 -0.11476049601E+02 -0.18461846858E+02  0.21954384689E+02  0.30895541930E+02  0.51100000000E-03 0. -1.
        -11    1    3    3    0    0  0.33805799821E+01  0.10602109657E-01  0.76389517671E+01  0.83535631788E+01  0.51100000000E-03 0.  1.
        -12    1    3    3    0    0 -0.24860784190E+01 -0.72695015625E+01  0.37247867704E+01  0.85381658076E+01  0.00000000000E+00 0.  1.
</event>
<event>
 7    1  0.7470072E-010  0.4778729E+02  0.7816164E-02  0.1312668E+00
        -11   -1    0    0    0    0  0.00000000000E+00  0.00000000000E+00  0.45593999997E+02  0.45594000000E+02  0.51100000000E-03 0. -1.
         11   -1    0    0    0    0 -0.00000000000E+00 -0.00000000000E+00 -0.45593999997E+02  0.45594000000E+02  0.51100000000E-03 0.  1.
    9900012    2    1    2    0    0  0.13034422151E+02  0.54706040646E+01  0.41034111919E+02  0.47787285598E+02  0.20000066357E+02 0.  0.
        -12    1    1    2    0    0 -0.13034422151E+02 -0.54706040646E+01 -0.41034111919E+02  0.43400714402E+02  0.00000000000E+00 0.  1.
         11    1    3    3    0    0  0.16433870397E+02  0.56984727376E+01  0.40119338885E+02  0.43727634748E+02  0.51100000000E-03 0. -1.
        -11    1    3    3    0    0 -0.18239758246E+01 -0.93819162807E+00  0.10897121765E+01  0.23226201214E+01  0.51100000000E-03 0.  1.
         12    1    3    3    0    0 -0.15754724212E+01  0.71032295501E+00 -0.17493914333E+00  0.17370307293E+01  0.00000000000E+00 0. -1.
</event>
<event>
 7    1  0.7470072E-010  0.4778727E+02  0.7816164E-02  0.1312668E+00
        -11   -1    0    0    0    0  0.00000000000E+00  0.00000000000E+00  0.45593999997E+02  0.45594000000E+02  0.51100000000E-03 0. -1.
         11   -1    0    0    0    0 -0.00000000000E+00 -0.00000000000E+00 -0.45593999997E+02  0.45594000000E+02  0.51100000000E-03 0.  1.
    9900012    2    1    2    0    0  0.11505841869E+02  0.29417991815E+02 -0.29762733899E+02  0.47787274560E+02  0.20000016031E+02 0.  0.
         12    1    1    2    0    0 -0.11505841869E+02 -0.29417991815E+02  0.29762733899E+02  0.43400725440E+02  0.00000000000E+00 0. -1.
         11    1    3    3    0    0  0.13302829061E+01  0.54127120990E+01  0.16403640877E+01  0.58101548584E+01  0.51100000000E-03 0. -1.
        -11    1    3    3    0    0  0.72128898503E+01  0.15738546305E+02 -0.27197988962E+02  0.32240630013E+02  0.51100000000E-03 0.  1.
        -12    1    3    3    0    0  0.29626691123E+01  0.82667334109E+01 -0.42051090249E+01  0.97364896892E+01  0.00000000000E+00 0.  1.
</event>
<event>
 7    1  0.7470072E-010  0.4778726E+02  0.7816164E-02  0.1312668E+00
        -11   -1    0    0    0    0  0.00000000000E+00  0.00000000000E+00  0.45593999997E+02  0.45594000000E+02  0.51100000000E-03 0. -1.
         11   -1    0    0    0    0 -0.00000000000E+00 -0.00000000000E+00 -0.45593999997E+02  0.45594000000E+02  0.51100000000E-03 0.  1.
    9900012    2    1    2    0    0  0.22564086342E+01  0.23456681277E+02 -0.36446079105E+02  0.47787263157E+02  0.19999964036E+02 0.  0.
         12    1    1    2    0    0 -0.22564086342E+01 -0.23456681277E+02  0.36446079105E+02  0.43400736843E+02  0.00000000000E+00 0. -1.
         11    1    3    3    0    0 -0.45226295074E+01  0.40992048395E+01 -0.39109642739E+00  0.61164217198E+01  0.51100000000E-03 0. -1.
        -11    1    3    3    0    0  0.44586621560E+01  0.12068628016E+02 -0.18630318053E+02  0.22641117495E+02  0.51100000000E-03 0.  1.
         12    1    3    3    0    0  0.23203759856E+01  0.72888484213E+01 -0.17424664624E+02  0.19029723942E+02  0.00000000000E+00 0. -1.
</event>
<event>
 7    1  0.7470072E-010  0.4778727E+02  0.7816164E-02  0.1312668E+00
        -11   -1    0    0    0    0  0.00000000000E+00  0.00000000000E+00  0.45593999997E+02  0.45594000000E+02  0.51100000000E-03 0. -1.
         11   -1    0    0    0    0 -0.00000000000E+00 -0.00000000000E+00 -0.45593999997E+02  0.45594000000E+02  0.51100000000E-03 0.  1.
    9900012    2    1    2    0    0 -0.11746254246E+01  0.42821058146E+01 -0.43172991654E+02  0.47787269782E+02  0.19999994246E+02 0.  0.
         12    1    1    2    0    0  0.11746254246E+01 -0.42821058146E+01  0.43172991654E+02  0.43400730218E+02  0.00000000000E+00 0. -1.
         11    1    3    3    0    0  0.15402645934E+01  0.98279567599E+01 -0.27565902505E+02  0.29305974310E+02  0.51100000000E-03 0. -1.
        -11    1    3    3    0    0  0.14021727982E+01 -0.46403279734E+01 -0.45520289414E+01  0.66497894705E+01  0.51100000000E-03 0.  1.
         12    1    3    3    0    0 -0.41170628162E+01 -0.90552297192E+00 -0.11055060208E+02  0.11831506002E+02  0.00000000000E+00 0. -1.
</event>
<event>
 7    1  0.7470072E-010  0.4778727E+02  0.7816164E-02  0.1312668E+00
        -11   -1    0    0    0    0  0.00000000000E+00  0.00000000000E+00  0.45593999997E+02  0.45594000000E+02  0.51100000000E-03 0.  1.
         11   -1    0    0    0    0 -0.00000000000E+00 -0.00000000000E+00 -0.45593999997E+02  0.45594000000E+02  0.51100000000E-03 0. -1.
    9900012    2    1    2    0    0  0.27246681806E+02  0.29457270552E+02  0.16538164208E+02  0.47787270361E+02  0.19999996884E+02 0.  0.
        -12    1    1    2    0    0 -0.27246681806E+02 -0.29457270552E+02 -0.16538164208E+02  0.43400729639E+02  0.00000000000E+00 0.  1.
         11    1    3    3    0    0  0.27719893156E+00  0.81005619375E+01  0.47661628263E+00  0.81193045449E+01  0.51100000000E-03 0. -1.
        -11    1    3    3    0    0  0.16968480305E+02  0.11561999566E+02  0.15377164894E+02  0.25652804102E+02  0.51100000000E-03 0.  1.
        -12    1    3    3    0    0  0.10001002570E+02  0.97947090486E+01  0.68438303063E+00  0.14015161714E+02  0.00000000000E+00 0.  1.
</event>
<event>
 7    1  0.7470072E-010  0.4778729E+02  0.7816164E-02  0.1312668E+00
        -11   -1    0    0    0    0  0.00000000000E+00  0.00000000000E+00  0.45593999997E+02  0.45594000000E+02  0.51100000000E-03 0. -1.
         11   -1    0    0    0    0 -0.00000000000E+00 -0.00000000000E+00 -0.45593999997E+02  0.45594000000E+02  0.51100000000E-03 0.  1.
    9900012    2    1    2    0    0 -0.14839200363E+02  0.80623302908E+01 -0.39980224120E+02  0.47787293119E+02  0.20000100646E+02 0.  0.
         12    1    1    2    0    0  0.14839200363E+02 -0.80623302908E+01  0.39980224120E+02  0.43400706881E+02  0.00000000000E+00 0. -1.
         11    1    3    3    0    0 -0.34406311033E+01  0.60949106128E+01 -0.19455302407E+01  0.72643627350E+01  0.51100000000E-03 0. -1.
        -11    1    3    3    0    0 -0.79399725705E+01  0.43859935106E+01 -0.31185093870E+02  0.32477533519E+02  0.51100000000E-03 0.  1.
        -12    1    3    3    0    0 -0.34585966890E+01 -0.24185738325E+01 -0.68496000087E+01  0.80453968652E+01  0.00000000000E+00 0.  1.
</event>
<event>
 7    1  0.7470072E-010  0.4778727E+02  0.7816164E-02  0.1312668E+00
        -11   -1    0    0    0    0  0.00000000000E+00  0.00000000000E+00  0.45593999997E+02  0.45594000000E+02  0.51100000000E-03 0. -1.
         11   -1    0    0    0    0 -0.00000000000E+00 -0.00000000000E+00 -0.45593999997E+02  0.45594000000E+02  0.51100000000E-03 0.  1.
    9900012    2    1    2    0    0 -0.34014104054E+02  0.67410704039E+01 -0.26100229373E+02  0.47787270995E+02  0.19999999777E+02 0.  0.
         12    1    1    2    0    0  0.34014104054E+02 -0.67410704039E+01  0.26100229373E+02  0.43400729005E+02  0.00000000000E+00 0. -1.
         11    1    3    3    0    0 -0.96298525319E+01  0.12280245581E+01  0.10324623408E+01  0.97625858689E+01  0.51100000000E-03 0. -1.
        -11    1    3    3    0    0 -0.10892181391E+02 -0.11354386093E+01 -0.15651521652E+02  0.19102328826E+02  0.51100000000E-03 0.  1.
         12    1    3    3    0    0 -0.13492070131E+02  0.66484844551E+01 -0.11481170061E+02  0.18922356300E+02  0.00000000000E+00 0. -1.
</event>
<event>
 7    1  0.7470072E-010  0.4778727E+02  0.7816164E-02  0.1312668E+00
        -11   -1    0    0    0    0  0.00000000000E+00  0.00000000000E+00  0.45593999997E+02  0.45594000000E+02  0.51100000000E-03 0. -1.
         11   -1    0    0    0    0 -0.00000000000E+00 -0.00000000000E+00 -0.45593999997E+02  0.45594000000E+02  0.51100000000E-03 0.  1.
    9900012    2    1    2    0    0 -0.19636994652E+02 -0.32376298182E+02  0.21208184181E+02  0.47787270522E+02  0.19999997619E+02 0.  0.
        -12    1    1    2    0    0  0.19636994652E+02  0.32376298182E+02 -0.21208184181E+02  0.43400729478E+02  0.00000000000E+00 0.  1.
         11    1    3    3    0    0 -0.16632728670E+02 -0.15995343863E+02  0.12575939818E+02  0.26280276841E+02  0.51100000000E-03 0. -1.
        -11    1    3    3    0    0  0.27547308702E+01 -0.10083995481E+02  0.18706975053E+01  0.10619558204E+02  0.51100000000E-03 0.  1.
         12    1    3    3    0    0 -0.57589968519E+01 -0.62969588387E+01  0.67615468580E+01  0.10887435477E+02  0.00000000000E+00 0. -1.
</event>
<event>
 7    1  0.7470072E-010  0.4778727E+02  0.7816164E-02  0.1312668E+00
        -11   -1    0    0    0    0  0.00000000000E+00  0.00000000000E+00  0.45593999997E+02  0.45594000000E+02  0.51100000000E-03 0. -1.
         11   -1    0    0    0    0 -0.00000000000E+00 -0.00000000000E+00 -0.45593999997E+02  0.45594000000E+02  0.51100000000E-03 0.  1.
    9900012    2    1    2    0    0 -0.35302301277E+02  0.22486581159E+02 -0.11477122583E+02  0.47787272466E+02  0.20000006483E+02 0.  0.
         12    1    1    2    0    0  0.35302301277E+02 -0.22486581159E+02  0.11477122583E+02  0.43400727534E+02  0.00000000000E+00 0. -1.
         11    1    3    3    0    0 -0.49961987669E+00  0.86237979909E+00 -0.14013626187E+01  0.17196326321E+01  0.51100000000E-03 0. -1.
        -11    1    3    3    0    0 -0.34608650047E+01  0.29397264918E+01  0.48503421969E+01  0.66442003368E+01  0.51100000000E-03 0.  1.
        -12    1    3    3    0    0 -0.31341816396E+02  0.18684474868E+02 -0.14926102161E+02  0.39423439497E+02  0.00000000000E+00 0.  1.
</event>
<event>
 7    1  0.7470072E-010  0.4778727E+02  0.7816164E-02  0.1312668E+00
        -11   -1    0    0    0    0  0.00000000000E+00  0.00000000000E+00  0.45593999997E+02  0.45594000000E+02  0.51100000000E-03 0.  1.
         11   -1    0    0    0    0 -0.00000000000E+00 -0.00000000000E+00 -0.45593999997E+02  0.45594000000E+02  0.51100000000E-03 0. -1.
    9900012    2    1    2    0    0  0.34056519034E+02  0.72990737369E+01 -0.25894026789E+02  0.47787267408E+02  0.19999983420E+02 0.  0.
         12    1    1    2    0    0 -0.34056519034E+02 -0.72990737369E+01  0.25894026789E+02  0.43400732592E+02  0.00000000000E+00 0. -1.
         11    1    3    3    0    0  0.12877111813E+01  0.12962552060E+01 -0.93646983613E+01  0.95412815336E+01  0.51100000000E-03 0. -1.
        -11    1    3    3    0    0  0.18043634964E+02 -0.12269250962E+01 -0.86225505821E+01  0.20035630429E+02  0.51100000000E-03 0.  1.
         12    1    3    3    0    0  0.14725172890E+02  0.72297436272E+01 -0.79067778458E+01  0.18210355445E+02  0.00000000000E+00 0. -1.
</event>
<event>
 7    1  0.7470072E-010  0.4778728E+02  0.7816164E-02  0.1312668E+00
        -11   -1    0    0    0    0  0.00000000000E+00  0.00000000000E+00  0.45593999997E+02  0.45594000000E+02  0.51100000000E-03 0. -1.
         11   -1    0    0    0    0 -0.00000000000E+00 -0.00000000000E+00 -0.45593999997E+02  0.45594000000E+02  0.51100000000E-03 0.  1.
    9900012    2    1    2    0    0 -0.23261460157E+02 -0.23867390380E+02 -0.27800629236E+02  0.47787276064E+02  0.20000022887E+02 0.  0.
         12    1    1    2    0    0  0.23261460157E+02  0.23867390380E+02  0.27800629236E+02  0.43400723936E+02  0.00000000000E+00 0. -1.
         11    1    3    3    0    0 -0.11330186149E+02 -0.79343755808E+01 -0.25295253880E+01  0.14061505360E+02  0.51100000000E-03 0. -1.
        -11    1    3    3    0    0 -0.29891359254E+00 -0.17346235752E+01 -0.90833534096E+01  0.92523282317E+01  0.51100000000E-03 0.  1.
        -12    1    3    3    0    0 -0.11632360416E+02 -0.14198391224E+02 -0.16187750439E+02  0.24473442473E+02  0.00000000000E+00 0.  1.
</event>
<event>
 7    1  0.7470072E-010  0.4778726E+02  0.7816164E-02  0.1312668E+00
        -11   -1    0    0    0    0  0.00000000000E+00  0.00000000000E+00  0.45593999997E+02  0.45594000000E+02  0.51100000000E-03 0. -1.
         11   -1    0    0    0    0 -0.00000000000E+00 -0.00000000000E+00 -0.45593999997E+02  0.45594000000E+02  0.51100000000E-03 0.  1.
    9900012    2    1    2    0    0 -0.20541108744E+02  0.14101912026E+02  0.35536229082E+02  0.47787255207E+02  0.19999927792E+02 0.  0.
        -12    1    1    2    0    0  0.20541108744E+02 -0.14101912026E+02 -0.35536229082E+02  0.43400744793E+02  0.00000000000E+00 0.  1.
         11    1    3    3    0    0 -0.29885882086E+01 -0.35992023106E-01  0.94765838231E+01  0.99367296493E+01  0.51100000000E-03 0. -1.
        -11    1    3    3    0    0 -0.14569273043E+02  0.25969405698E+01  0.10043035980E+02  0.17884920723E+02  0.51100000000E-03 0.  1.
        -12    1    3    3    0    0 -0.29832474924E+01  0.11540963479E+02  0.16016609279E+02  0.19965604835E+02  0.00000000000E+00 0.  1.
</event>
<event>
 7    1  0.7470072E-010  0.4778729E+02  0.7816164E-02  0.1312668E+00
        -11   -1    0    0    0    0  0.00000000000E+00  0.00000000000E+00  0.45593999997E+02  0.45594000000E+02  0.51100000000E-03 0. -1.
         11   -1    0    0    0    0 -0.00000000000E+00 -0.00000000000E+00 -0.45593999997E+02  0.45594000000E+02  0.51100000000E-03 0.  1.
    9900012    2    1    2    0    0 -0.26091122835E+01  0.17119190714E+02  0.39796322048E+02  0.47787292561E+02  0.20000098103E+02 0.  0.
        -12    1    1    2    0    0  0.26091122835E+01 -0.17119190714E+02 -0.39796322048E+02  0.43400707439E+02  0.00000000000E+00 0.  1.
         11    1    3    3    0    0 -0.35878904726E+01  0.10362679797E+02  0.55331184164E+01  0.12283057042E+02  0.51100000000E-03 0.  1.
        -11    1    3    3    0    0 -0.12912843294E+01  0.62924232317E+01  0.29697380619E+02  0.30384147532E+02  0.51100000000E-03 0. -1.
         12    1    3    3    0    0  0.22700625185E+01  0.46408768547E+00  0.45658230127E+01  0.51200879877E+01  0.00000000000E+00 0. -1.
</event>
<event>
 7    1  0.7470072E-010  0.4778727E+02  0.7816164E-02  0.1312668E+00
        -11   -1    0    0    0    0  0.00000000000E+00  0.00000000000E+00  0.45593999997E+02  0.45594000000E+02  0.51100000000E-03 0. -1.
         11   -1    0    0    0    0 -0.00000000000E+00 -0.00000000000E+00 -0.45593999997E+02  0.45594000000E+02  0.51100000000E-03 0.  1.
    9900012    2    1    2    0    0 -0.12193313166E+02  0.17850736838E+02 -0.37633731522E+02  0.47787269132E+02  0.19999991279E+02 0.  0.
         12    1    1    2    0    0  0.12193313166E+02 -0.17850736838E+02  0.37633731522E+02  0.43400730868E+02  0.00000000000E+00 0. -1.
         11    1    3    3    0    0 -0.52089330074E+01  0.53247225524E+01 -0.24151022362E+02  0.25273652975E+02  0.51100000000E-03 0. -1.
        -11    1    3    3    0    0  0.63221135678E+00  0.91826755408E+01 -0.97121442486E+01  0.13380843301E+02  0.51100000000E-03 0.  1.
         12    1    3    3    0    0 -0.76165915149E+01  0.33433387449E+01 -0.37705649121E+01  0.91327728552E+01  0.00000000000E+00 0. -1.
</event>
<event>
 7    1  0.7470072E-010  0.4778727E+02  0.7816164E-02  0.1312668E+00
        -11   -1    0    0    0    0  0.00000000000E+00  0.00000000000E+00  0.45593999997E+02  0.45594000000E+02  0.51100000000E-03 0.  1.
         11   -1    0    0    0    0 -0.00000000000E+00 -0.00000000000E+00 -0.45593999997E+02  0.45594000000E+02  0.51100000000E-03 0. -1.
    9900012    2    1    2    0    0 -0.39938990370E+02  0.16949035773E+02 -0.11091964802E+01  0.47787273252E+02  0.20000010067E+02 0.  0.
        -12    1    1    2    0    0  0.39938990370E+02 -0.16949035773E+02  0.11091964802E+01  0.43400726748E+02  0.00000000000E+00 0.  1.
         11    1    3    3    0    0 -0.71006675569E+01  0.98294955772E+01 -0.24741101514E+01  0.12375770051E+02  0.51100000000E-03 0. -1.
        -11    1    3    3    0    0 -0.26736869906E+02  0.74248054185E+01  0.51533079662E+01  0.28223120507E+02  0.51100000000E-03 0.  1.
         12    1    3    3    0    0 -0.61014529068E+01 -0.30526522226E+00 -0.37883942950E+01  0.71883826946E+01  0.00000000000E+00 0. -1.
</event>
<event>
 7    1  0.7470072E-010  0.4778727E+02  0.7816164E-02  0.1312668E+00
        -11   -1    0    0    0    0  0.00000000000E+00  0.00000000000E+00  0.45593999997E+02  0.45594000000E+02  0.51100000000E-03 0. -1.
         11   -1    0    0    0    0 -0.00000000000E+00 -0.00000000000E+00 -0.45593999997E+02  0.45594000000E+02  0.51100000000E-03 0.  1.
    9900012    2    1    2    0    0  0.30491226848E+02  0.15055693133E+02  0.26967293250E+02  0.47787265955E+02  0.19999976794E+02 0.  0.
        -12    1    1    2    0    0 -0.30491226848E+02 -0.15055693133E+02 -0.26967293250E+02  0.43400734045E+02  0.00000000000E+00 0.  1.
         11    1    3    3    0    0  0.15778802585E+02  0.12198441315E+02  0.18871121607E+02  0.27457090386E+02  0.51100000000E-03 0. -1.
        -11    1    3    3    0    0  0.15981274793E+02  0.77485234280E+00  0.59146735881E+01  0.17058279634E+02  0.51100000000E-03 0.  1.
        -12    1    3    3    0    0 -0.12688505292E+01  0.20823994754E+01  0.21814980555E+01  0.32718959345E+01  0.00000000000E+00 0.  1.
</event>
<event>
 7    1  0.7470072E-010  0.4778727E+02  0.7816164E-02  0.1312668E+00
        -11   -1    0    0    0    0  0.00000000000E+00  0.00000000000E+00  0.45593999997E+02  0.45594000000E+02  0.51100000000E-03 0.  1.
         11   -1    0    0    0    0 -0.00000000000E+00 -0.00000000000E+00 -0.45593999997E+02  0.45594000000E+02  0.51100000000E-03 0. -1.
    9900012    2    1    2    0    0 -0.10106407881E+02 -0.39405797450E+02  0.15121728913E+02  0.47787273759E+02  0.20000012376E+02 0.  0.
         12    1    1    2    0    0  0.10106407881E+02  0.39405797450E+02 -0.15121728913E+02  0.43400726241E+02  0.00000000000E+00 0. -1.
         11    1    3    3    0    0  0.20415636408E+01 -0.28990721769E+02  0.11591620790E+02  0.31288905440E+02  0.51100000000E-03 0. -1.
        -11    1    3    3    0    0 -0.42225063569E+01 -0.27648645429E+01  0.17386863247E+01  0.53382643501E+01  0.51100000000E-03 0.  1.
         12    1    3    3    0    0 -0.79254651652E+01 -0.76502111381E+01  0.17914217980E+01  0.11160103969E+02  0.00000000000E+00 0. -1.
</event>
<event>
 7    1  0.7470072E-010  0.4778727E+02  0.7816164E-02  0.1312668E+00
        -11   -1    0    0    0    0  0.00000000000E+00  0.00000000000E+00  0.45593999997E+02  0.45594000000E+02  0.51100000000E-03 0. -1.
         11   -1    0    0    0    0 -0.00000000000E+00 -0.00000000000E+00 -0.45593999997E+02  0.45594000000E+02  0.51100000000E-03 0.  1.
    9900012    2    1    2    0    0 -0.26954742196E+02  0.13603011242E+02  0.31177288686E+02  0.47787269920E+02  0.19999994872E+02 0.  0.
        -12    1    1    2    0    0  0.26954742196E+02 -0.13603011242E+02 -0.31177288686E+02  0.43400730080E+02  0.00000000000E+00 0.  1.
         11    1    3    3    0    0 -0.10001014430E+02  0.79567839707E+00  0.19059645185E+02  0.21538882714E+02  0.51100000000E-03 0. -1.
        -11    1    3    3    0    0 -0.16984006036E+02  0.88022789006E+01  0.11097256053E+02  0.22115281301E+02  0.51100000000E-03 0.  1.
         12    1    3    3    0    0  0.30278270557E-01  0.40050539442E+01  0.10203874481E+01  0.41331059040E+01  0.00000000000E+00 0. -1.
</event>
<event>
 7    1  0.7470072E-010  0.4778728E+02  0.7816164E-02  0.1312668E+00
        -11   -1    0    0    0    0  0.00000000000E+00  0.00000000000E+00  0.45593999997E+02  0.45594000000E+02  0.51100000000E-03 0. -1.
         11   -1    0    0    0    0 -0.00000000000E+00 -0.00000000000E+00 -0.45593999997E+02  0.45594000000E+02  0.51100000000E-03 0.  1.
    9900012    2    1    2    0    0 -0.15042531575E+02 -0.14889209701E+02  0.37890059443E+02  0.47787275048E+02  0.20000018256E+02 0.  0.
        -12    1    1    2    0    0  0.15042531575E+02  0.14889209701E+02 -0.37890059443E+02  0.43400724952E+02  0.00000000000E+00 0.  1.
         11    1    3    3    0    0 -0.11619808474E+02 -0.63205335984E+01  0.95713113521E+01  0.16327250081E+02  0.51100000000E-03 0. -1.
        -11    1    3    3    0    0  0.32412719807E+01 -0.52183373612E+01  0.10907591189E+02  0.12518483721E+02  0.51100000000E-03 0.  1.
        -12    1    3    3    0    0 -0.66639950824E+01 -0.33503387418E+01  0.17411156902E+02  0.18941541247E+02  0.00000000000E+00 0.  1.
</event>
<event>
 7    1  0.7470072E-010  0.4778726E+02  0.7816164E-02  0.1312668E+00
        -11   -1    0    0    0    0  0.00000000000E+00  0.00000000000E+00  0.45593999997E+02  0.45594000000E+02  0.51100000000E-03 0. -1.
         11   -1    0    0    0    0 -0.00000000000E+00 -0.00000000000E+00 -0.45593999997E+02  0.45594000000E+02  0.51100000000E-03 0.  1.
    9900012    2    1    2    0    0 -0.64588444890E+01  0.12487556517E+02 -0.41060544714E+02  0.47787261848E+02  0.19999958071E+02 0.  0.
         12    1    1    2    0    0  0.64588444890E+01 -0.12487556517E+02  0.41060544714E+02  0.43400738152E+02  0.00000000000E+00 0. -1.
         11    1    3    3    0    0 -0.25932689534E+01  0.54644621838E+00  0.12540033052E+01  0.29319228988E+01  0.51100000000E-03 0. -1.
        -11    1    3    3    0    0 -0.44471298799E+01  0.99269833227E+01 -0.40911180380E+02  0.42332571885E+02  0.51100000000E-03 0.  1.
        -12    1    3    3    0    0  0.58155434435E+00  0.20141269758E+01 -0.14033676396E+01  0.25227670646E+01  0.00000000000E+00 0.  1.
</event>
<event>
 7    1  0.7470072E-010  0.4778727E+02  0.7816164E-02  0.1312668E+00
        -11   -1    0    0    0    0  0.00000000000E+00  0.00000000000E+00  0.45593999997E+02  0.45594000000E+02  0.51100000000E-03 0. -1.
         11   -1    0    0    0    0 -0.00000000000E+00 -0.00000000000E+00 -0.45593999997E+02  0.45594000000E+02  0.51100000000E-03 0.  1.
    9900012    2    1    2    0    0 -0.96113907794E+01 -0.53118039138E+01 -0.41988438984E+02  0.47787273027E+02  0.20000009038E+02 0.  0.
         12    1    1    2    0    0  0.96113907794E+01  0.53118039138E+01  0.41988438984E+02  0.43400726973E+02  0.00000000000E+00 0. -1.
         11    1    3    3    0    0 -0.11135718984E+02 -0.34487847377E+01 -0.12033496452E+02  0.16754205160E+02  0.51100000000E-03 0. -1.
        -11    1    3    3    0    0 -0.26904158948E+01  0.95800409013E+00 -0.78383804688E+01  0.83424407794E+01  0.51100000000E-03 0.  1.
         12    1    3    3    0    0  0.42147440990E+01 -0.28210232662E+01 -0.22116562063E+02  0.22690627087E+02  0.00000000000E+00 0. -1.
</event>
<event>
 7    1  0.7470072E-010  0.4778727E+02  0.7816164E-02  0.1312668E+00
        -11   -1    0    0    0    0  0.00000000000E+00  0.00000000000E+00  0.45593999997E+02  0.45594000000E+02  0.51100000000E-03 0. -1.
         11   -1    0    0    0    0 -0.00000000000E+00 -0.00000000000E+00 -0.45593999997E+02  0.45594000000E+02  0.51100000000E-03 0.  1.
    9900012    2    1    2    0    0  0.50108464444E+01 -0.30503935369E+02  0.30463497328E+02  0.47787270461E+02  0.19999997339E+02 0.  0.
        -12    1    1    2    0    0 -0.50108464444E+01  0.30503935369E+02 -0.30463497328E+02  0.43400729539E+02  0.00000000000E+00 0.  1.
         11    1    3    3    0    0  0.43630643914E+01 -0.24225286397E+02  0.29363902814E+02  0.38316310112E+02  0.51100000000E-03 0. -1.
        -11    1    3    3    0    0 -0.58007988884E+00 -0.16915542057E+01  0.36618728631E+01  0.40751885153E+01  0.51100000000E-03 0.  1.
         12    1    3    3    0    0  0.12278619418E+01 -0.45870947662E+01 -0.25622783486E+01  0.53957718334E+01  0.00000000000E+00 0. -1.
</event>
<event>
 7    1  0.7470072E-010  0.4778730E+02  0.7816164E-02  0.1312668E+00
        -11   -1    0    0    0    0  0.00000000000E+00  0.00000000000E+00  0.45593999997E+02  0.45594000000E+02  0.51100000000E-03 0. -1.
         11   -1    0    0    0    0 -0.00000000000E+00 -0.00000000000E+00 -0.45593999997E+02  0.45594000000E+02  0.51100000000E-03 0.  1.
    9900012    2    1    2    0    0  0.11610132497E+02 -0.75367850770E+01  0.41134195627E+02  0.47787304662E+02  0.20000153277E+02 0.  0.
        -12    1    1    2    0    0 -0.11610132497E+02  0.75367850770E+01 -0.41134195627E+02  0.43400695338E+02  0.00000000000E+00 0.  1.
         11    1    3    3    0    0  0.13836877508E+02 -0.12402331531E+02  0.29161177272E+02  0.34578190622E+02  0.51100000000E-03 0. -1.
        -11    1    3    3    0    0 -0.58683764560E+00  0.30628471904E+01  0.61119841990E+01  0.68616151483E+01  0.51100000000E-03 0.  1.
         12    1    3    3    0    0 -0.16399073650E+01  0.18026992632E+01  0.58610341563E+01  0.63474988918E+01  0.00000000000E+00 0. -1.
</event>
<event>
 7    1  0.7470072E-010  0.4778727E+02  0.7816164E-02  0.1312668E+00
        -11   -1    0    0    0    0  0.00000000000E+00  0.00000000000E+00  0.45593999997E+02  0.45594000000E+02  0.51100000000E-03 0. -1.
         11   -1    0    0    0    0 -0.00000000000E+00 -0.00000000000E+00 -0.45593999997E+02  0.45594000000E+02  0.51100000000E-03 0.  1.
    9900012    2    1    2    0    0 -0.16369908154E+02 -0.10423818244E+02  0.38820010603E+02  0.47787273013E+02  0.20000008976E+02 0.  0.
        -12    1    1    2    0    0  0.16369908154E+02  0.10423818244E+02 -0.38820010603E+02  0.43400726987E+02  0.00000000000E+00 0.  1.
         11    1    3    3    0    0 -0.97461068719E+01 -0.84004356810E+01  0.11342658269E+02  0.17152545457E+02  0.51100000000E-03 0. -1.
        -11    1    3    3    0    0  0.24002524519E+01  0.15175030345E+01  0.12316656361E+02  0.12639780515E+02  0.51100000000E-03 0.  1.
        -12    1    3    3    0    0 -0.90240537342E+01 -0.35408855970E+01  0.15160695973E+02  0.17994947041E+02  0.00000000000E+00 0.  1.
</event>
<event>
 7    1  0.7470072E-010  0.4778727E+02  0.7816164E-02  0.1312668E+00
        -11   -1    0    0    0    0  0.00000000000E+00  0.00000000000E+00  0.45593999997E+02  0.45594000000E+02  0.51100000000E-03 0. -1.
         11   -1    0    0    0    0 -0.00000000000E+00 -0.00000000000E+00 -0.45593999997E+02  0.45594000000E+02  0.51100000000E-03 0.  1.
    9900012    2    1    2    0    0 -0.26784484112E+02 -0.17013309516E+02 -0.29610165069E+02  0.47787272296E+02  0.20000005706E+02 0.  0.
         12    1    1    2    0    0  0.26784484112E+02  0.17013309516E+02  0.29610165069E+02  0.43400727704E+02  0.00000000000E+00 0. -1.
         11    1    3    3    0    0 -0.17058181365E+02 -0.23571709251E+01 -0.13846663505E+02  0.22096784760E+02  0.51100000000E-03 0. -1.
        -11    1    3    3    0    0 -0.44512798961E+01 -0.12091671925E+02 -0.15002166479E+02  0.19775930370E+02  0.51100000000E-03 0.  1.
        -12    1    3    3    0    0 -0.52750228508E+01 -0.25644666657E+01 -0.76133508452E+00  0.59145571657E+01  0.00000000000E+00 0.  1.
</event>
<event>
 7    1  0.7470072E-010  0.4778727E+02  0.7816164E-02  0.1312668E+00
        -11   -1    0    0    0    0  0.00000000000E+00  0.00000000000E+00  0.45593999997E+02  0.45594000000E+02  0.51100000000E-03 0. -1.
         11   -1    0    0    0    0 -0.00000000000E+00 -0.00000000000E+00 -0.45593999997E+02  0.45594000000E+02  0.51100000000E-03 0.  1.
    9900012    2    1    2    0    0  0.21456191663E+02  0.87502005956E+01  0.36697261454E+02  0.47787272248E+02  0.20000005490E+02 0.  0.
        -12    1    1    2    0    0 -0.21456191663E+02 -0.87502005956E+01 -0.36697261454E+02  0.43400727752E+02  0.00000000000E+00 0.  1.
         11    1    3    3    0    0  0.14276810801E+01 -0.33228849108E-01  0.45731280012E+01  0.47909161336E+01  0.51100000000E-03 0. -1.
        -11    1    3    3    0    0  0.17304398991E+02  0.59336054118E+01  0.34016398219E+02  0.38623376932E+02  0.51100000000E-03 0.  1.
        -12    1    3    3    0    0  0.27241115928E+01  0.28498240329E+01 -0.18922647660E+01  0.43729791828E+01  0.00000000000E+00 0.  1.
</event>
<event>
 7    1  0.7470072E-010  0.4778727E+02  0.7816164E-02  0.1312668E+00
        -11   -1    0    0    0    0  0.00000000000E+00  0.00000000000E+00  0.45593999997E+02  0.45594000000E+02  0.51100000000E-03 0.  1.
         11   -1    0    0    0    0 -0.00000000000E+00 -0.00000000000E+00 -0.45593999997E+02  0.45594000000E+02  0.51100000000E-03 0. -1.
    9900012    2    1    2    0    0  0.29875035009E+02 -0.28025602377E+02 -0.14341234499E+02  0.47787272906E+02  0.20000008487E+02 0.  0.
         12    1    1    2    0    0 -0.29875035009E+02  0.28025602377E+02  0.14341234499E+02  0.43400727094E+02  0.00000000000E+00 0. -1.
         11    1    3    3    0    0  0.44785385561E+01 -0.71982511772E+01  0.29316701159E+01  0.89703298456E+01  0.51100000000E-03 0. -1.
        -11    1    3    3    0    0  0.15138515493E+02 -0.13568022306E+02 -0.16576922443E+02  0.26230902359E+02  0.51100000000E-03 0.  1.
        -12    1    3    3    0    0  0.10257980959E+02 -0.72593288934E+01 -0.69598217180E+00  0.12586040701E+02  0.00000000000E+00 0.  1.
</event>
<event>
 7    1  0.7470072E-010  0.4778727E+02  0.7816164E-02  0.1312668E+00
        -11   -1    0    0    0    0  0.00000000000E+00  0.00000000000E+00  0.45593999997E+02  0.45594000000E+02  0.51100000000E-03 0. -1.
         11   -1    0    0    0    0 -0.00000000000E+00 -0.00000000000E+00 -0.45593999997E+02  0.45594000000E+02  0.51100000000E-03 0.  1.
    9900012    2    1    2    0    0 -0.13584250929E+02  0.39444293848E+01  0.41030874093E+02  0.47787273908E+02  0.20000013057E+02 0.  0.
        -12    1    1    2    0    0  0.13584250929E+02 -0.39444293848E+01 -0.41030874093E+02  0.43400726092E+02  0.00000000000E+00 0.  1.
         11    1    3    3    0    0 -0.13923518052E+02  0.36455802811E+01  0.14167478862E+02  0.20195842842E+02  0.51100000000E-03 0. -1.
        -11    1    3    3    0    0  0.12246970312E+01  0.22776469750E+01  0.23131207296E+02  0.23275315461E+02  0.51100000000E-03 0.  1.
        -12    1    3    3    0    0 -0.88542990788E+00 -0.19787978713E+01  0.37321879348E+01  0.43161156052E+01  0.00000000000E+00 0.  1.
</event>
<event>
 7    1  0.7470072E-010  0.4778727E+02  0.7816164E-02  0.1312668E+00
        -11   -1    0    0    0    0  0.00000000000E+00  0.00000000000E+00  0.45593999997E+02  0.45594000000E+02  0.51100000000E-03 0.  1.
         11   -1    0    0    0    0 -0.00000000000E+00 -0.00000000000E+00 -0.45593999997E+02  0.45594000000E+02  0.51100000000E-03 0. -1.
    9900012    2    1    2    0    0  0.41447689369E+02  0.12307080215E+02  0.37746549691E+01  0.47787271924E+02  0.20000004010E+02 0.  0.
        -12    1    1    2    0    0 -0.41447689369E+02 -0.12307080215E+02 -0.37746549691E+01  0.43400728076E+02  0.00000000000E+00 0.  1.
         11    1    3    3    0    0  0.14752938183E+02  0.10571511359E+02 -0.13717852229E+01  0.18201314030E+02  0.51100000000E-03 0. -1.
        -11    1    3    3    0    0  0.10247436228E+02 -0.27585720726E+01  0.65617933010E+01  0.12477050963E+02  0.51100000000E-03 0.  1.
        -12    1    3    3    0    0  0.16447314957E+02  0.44941409285E+01 -0.14153531091E+01  0.17108906932E+02  0.00000000000E+00 0.  1.
</event>
<event>
 7    1  0.7470072E-010  0.4778727E+02  0.7816164E-02  0.1312668E+00
        -11   -1    0    0    0    0  0.00000000000E+00  0.00000000000E+00  0.45593999997E+02  0.45594000000E+02  0.51100000000E-03 0. -1.
         11   -1    0    0    0    0 -0.00000000000E+00 -0.00000000000E+00 -0.45593999997E+02  0.45594000000E+02  0.51100000000E-03 0.  1.
    9900012    2    1    2    0    0 -0.31302561708E+01 -0.38485840755E+02  0.19815767137E+02  0.47787273399E+02  0.20000010734E+02 0.  0.
        -12    1    1    2    0    0  0.31302561708E+01  0.38485840755E+02 -0.19815767137E+02  0.43400726601E+02  0.00000000000E+00 0.  1.
         11    1    3    3    0    0 -0.27294021352E+01 -0.26373198566E+02  0.15397486502E+02  0.30660688666E+02  0.51100000000E-03 0. -1.
        -11    1    3    3    0    0 -0.33905269226E+01  0.10828945411E+00  0.28831616490E+01  0.44519681911E+01  0.51100000000E-03 0.  1.
         12    1    3    3    0    0  0.29896728869E+01 -0.12220931643E+02  0.15351189862E+01  0.12674616542E+02  0.00000000000E+00 0. -1.
</event>
<event>
 7    1  0.7470072E-010  0.4778727E+02  0.7816164E-02  0.1312668E+00
        -11   -1    0    0    0    0  0.00000000000E+00  0.00000000000E+00  0.45593999997E+02  0.45594000000E+02  0.51100000000E-03 0. -1.
         11   -1    0    0    0    0 -0.00000000000E+00 -0.00000000000E+00 -0.45593999997E+02  0.45594000000E+02  0.51100000000E-03 0.  1.
    9900012    2    1    2    0    0 -0.51332957434E+01 -0.50119735409E+01  0.42803653800E+02  0.47787269792E+02  0.19999994290E+02 0.  0.
        -12    1    1    2    0    0  0.51332957434E+01  0.50119735409E+01 -0.42803653800E+02  0.43400730208E+02  0.00000000000E+00 0.  1.
         11    1    3    3    0    0 -0.26036406413E+01  0.10296584968E+01  0.15598038022E+02  0.15847332003E+02  0.51100000000E-03 0. -1.
        -11    1    3    3    0    0 -0.21688665970E+01 -0.42002456368E+01  0.28976669180E+02  0.29359724160E+02  0.51100000000E-03 0.  1.
        -12    1    3    3    0    0 -0.36078850507E+00 -0.18413864008E+01 -0.17710534019E+01  0.25802136297E+01  0.00000000000E+00 0.  1.
</event>
<event>
 7    1  0.7470072E-010  0.4778721E+02  0.7816164E-02  0.1312668E+00
        -11   -1    0    0    0    0  0.00000000000E+00  0.00000000000E+00  0.45593999997E+02  0.45594000000E+02  0.51100000000E-03 0. -1.
         11   -1    0    0    0    0 -0.00000000000E+00 -0.00000000000E+00 -0.45593999997E+02  0.45594000000E+02  0.51100000000E-03 0.  1.
    9900012    2    1    2    0    0 -0.19744281299E+02  0.10985760783E+02 -0.37055432312E+02  0.47787209134E+02  0.19999717722E+02 0.  0.
         12    1    1    2    0    0  0.19744281299E+02 -0.10985760783E+02  0.37055432312E+02  0.43400790866E+02  0.00000000000E+00 0. -1.
         11    1    3    3    0    0 -0.26647353704E+01 -0.32812125078E+01 -0.34406995016E+01  0.54502828768E+01  0.51100000000E-03 0. -1.
        -11    1    3    3    0    0 -0.17624994340E+02  0.84644432428E+01 -0.28621538603E+02  0.34662367161E+02  0.51100000000E-03 0.  1.
        -12    1    3    3    0    0  0.54544841163E+00  0.58025300484E+01 -0.49931942072E+01  0.76745590964E+01  0.00000000000E+00 0.  1.
</event>
<event>
 7    1  0.7470072E-010  0.4778728E+02  0.7816164E-02  0.1312668E+00
        -11   -1    0    0    0    0  0.00000000000E+00  0.00000000000E+00  0.45593999997E+02  0.45594000000E+02  0.51100000000E-03 0. -1.
         11   -1    0    0    0    0 -0.00000000000E+00 -0.00000000000E+00 -0.45593999997E+02  0.45594000000E+02  0.51100000000E-03 0.  1.
    9900012    2    1    2    0    0 -0.36204025975E+02 -0.37686394336E+01  0.23636596944E+02  0.47787275870E+02  0.20000022001E+02 0.  0.
        -12    1    1    2    0    0  0.36204025975E+02  0.37686394336E+01 -0.23636596944E+02  0.43400724130E+02  0.00000000000E+00 0.  1.
         11    1    3    3    0    0 -0.18527040438E+02 -0.47318972374E+01  0.11307537588E+02  0.22214915832E+02  0.51100000000E-03 0. -1.
        -11    1    3    3    0    0 -0.15644543402E+02  0.48521456123E+01  0.13274915577E+02  0.21083605933E+02  0.51100000000E-03 0.  1.
        -12    1    3    3    0    0 -0.20324421343E+01 -0.38888878084E+01 -0.94585622220E+00  0.44887541043E+01  0.00000000000E+00 0.  1.
</event>
<event>
 7    1  0.7470072E-010  0.4778727E+02  0.7816164E-02  0.1312668E+00
        -11   -1    0    0    0    0  0.00000000000E+00  0.00000000000E+00  0.45593999997E+02  0.45594000000E+02  0.51100000000E-03 0.  1.
         11   -1    0    0    0    0 -0.00000000000E+00 -0.00000000000E+00 -0.45593999997E+02  0.45594000000E+02  0.51100000000E-03 0. -1.
    9900012    2    1    2    0    0 -0.11606229989E+02 -0.38910639325E+02  0.15325822857E+02  0.47787271049E+02  0.20000000020E+02 0.  0.
        -12    1    1    2    0    0  0.11606229989E+02  0.38910639325E+02 -0.15325822857E+02  0.43400728951E+02  0.00000000000E+00 0.  1.
         11    1    3    3    0    0 -0.36303570910E+01 -0.24527748996E+01 -0.31429548775E+01  0.53920091747E+01  0.51100000000E-03 0.  1.
        -11    1    3    3    0    0 -0.70305408266E+01 -0.28072826792E+02  0.10490417209E+02  0.30782478163E+02  0.51100000000E-03 0. -1.
         12    1    3    3    0    0 -0.94533207121E+00 -0.83850376338E+01  0.79783605253E+01  0.11612783711E+02  0.00000000000E+00 0. -1.
</event>
<event>
 7    1  0.7470072E-010  0.4778727E+02  0.7816164E-02  0.1312668E+00
        -11   -1    0    0    0    0  0.00000000000E+00  0.00000000000E+00  0.45593999997E+02  0.45594000000E+02  0.51100000000E-03 0. -1.
         11   -1    0    0    0    0 -0.00000000000E+00 -0.00000000000E+00 -0.45593999997E+02  0.45594000000E+02  0.51100000000E-03 0.  1.
    9900012    2    1    2    0    0  0.20980133438E+02 -0.12702730838E+02  0.35806393849E+02  0.47787271777E+02  0.20000003341E+02 0.  0.
        -12    1    1    2    0    0 -0.20980133438E+02  0.12702730838E+02 -0.35806393849E+02  0.43400728223E+02  0.00000000000E+00 0.  1.
         11    1    3    3    0    0  0.16418728400E+01 -0.14000493334E+01 -0.45947652734E+00  0.22061286225E+01  0.51100000000E-03 0. -1.
        -11    1    3    3    0    0  0.10480738267E+02 -0.14745793303E+02  0.22989338735E+02  0.29253956835E+02  0.51100000000E-03 0.  1.
        -12    1    3    3    0    0  0.88575223312E+01  0.34431117989E+01  0.13276531641E+02  0.16327186320E+02  0.00000000000E+00 0.  1.
</event>
<event>
 7    1  0.7470072E-010  0.4778727E+02  0.7816164E-02  0.1312668E+00
        -11   -1    0    0    0    0  0.00000000000E+00  0.00000000000E+00  0.45593999997E+02  0.45594000000E+02  0.51100000000E-03 0.  1.
         11   -1    0    0    0    0 -0.00000000000E+00 -0.00000000000E+00 -0.45593999997E+02  0.45594000000E+02  0.51100000000E-03 0. -1.
    9900012    2    1    2    0    0 -0.26744223628E+02 -0.31028903421E+02 -0.14337947998E+02  0.47787273073E+02  0.20000009251E+02 0.  0.
        -12    1    1    2    0    0  0.26744223628E+02  0.31028903421E+02  0.14337947998E+02  0.43400726927E+02  0.00000000000E+00 0.  1.
         11    1    3    3    0    0 -0.80806621776E+01 -0.10636760260E+02 -0.64502211061E+01  0.14833850567E+02  0.51100000000E-03 0. -1.
        -11    1    3    3    0    0 -0.16321116314E+02 -0.19652815440E+02 -0.11952460946E+02  0.28204136494E+02  0.51100000000E-03 0.  1.
        -12    1    3    3    0    0 -0.23424451363E+01 -0.73932772057E+00  0.40647340543E+01  0.47492860123E+01  0.00000000000E+00 0.  1.
</event>
<event>
 7    1  0.7470072E-010  0.4778727E+02  0.7816164E-02  0.1312668E+00
        -11   -1    0    0    0    0  0.00000000000E+00  0.00000000000E+00  0.45593999997E+02  0.45594000000E+02  0.51100000000E-03 0. -1.
         11   -1    0    0    0    0 -0.00000000000E+00 -0.00000000000E+00 -0.45593999997E+02  0.45594000000E+02  0.51100000000E-03 0.  1.
    9900012    2    1    2    0    0 -0.18467006828E+02 -0.37927134956E+01 -0.39092304297E+02  0.47787271065E+02  0.20000000096E+02 0.  0.
         12    1    1    2    0    0  0.18467006828E+02  0.37927134956E+01  0.39092304297E+02  0.43400728935E+02  0.00000000000E+00 0. -1.
         11    1    3    3    0    0  0.28230441908E+00 -0.54256746704E+01 -0.78513522145E+01  0.95478465254E+01  0.51100000000E-03 0. -1.
        -11    1    3    3    0    0 -0.19046376432E+02  0.40732737109E+01 -0.28857281837E+02  0.34815208303E+02  0.51100000000E-03 0.  1.
        -12    1    3    3    0    0  0.29706518561E+00 -0.24403125360E+01 -0.23836702451E+01  0.34242162366E+01  0.00000000000E+00 0.  1.
</event>
<event>
 7    1  0.7470072E-010  0.4778727E+02  0.7816164E-02  0.1312668E+00
        -11   -1    0    0    0    0  0.00000000000E+00  0.00000000000E+00  0.45593999997E+02  0.45594000000E+02  0.51100000000E-03 0.  1.
         11   -1    0    0    0    0 -0.00000000000E+00 -0.00000000000E+00 -0.45593999997E+02  0.45594000000E+02  0.51100000000E-03 0. -1.
    9900012    2    1    2    0    0  0.37685202559E+02  0.17679261191E+02  0.12283830280E+02  0.47787271268E+02  0.20000001018E+02 0.  0.
        -12    1    1    2    0    0 -0.37685202559E+02 -0.17679261191E+02 -0.12283830280E+02  0.43400728732E+02  0.00000000000E+00 0.  1.
         11    1    3    3    0    0  0.16971169688E+02  0.51703888030E+01  0.15863289921E+01  0.17812073458E+02  0.51100000000E-03 0. -1.
        -11    1    3    3    0    0  0.21477942878E+02  0.13786814554E+02  0.11804571808E+02  0.28119854225E+02  0.51100000000E-03 0.  1.
        -12    1    3    3    0    0 -0.76391000723E+00 -0.12779421656E+01 -0.11070705205E+01  0.18553435841E+01  0.00000000000E+00 0.  1.
</event>
<event>
 7    1  0.7470072E-010  0.4778727E+02  0.7816164E-02  0.1312668E+00
        -11   -1    0    0    0    0  0.00000000000E+00  0.00000000000E+00  0.45593999997E+02  0.45594000000E+02  0.51100000000E-03 0.  1.
         11   -1    0    0    0    0 -0.00000000000E+00 -0.00000000000E+00 -0.45593999997E+02  0.45594000000E+02  0.51100000000E-03 0. -1.
    9900012    2    1    2    0    0 -0.59610819508E+01  0.36754637655E+02  0.22297662741E+02  0.47787266701E+02  0.19999980199E+02 0.  0.
        -12    1    1    2    0    0  0.59610819508E+01 -0.36754637655E+02 -0.22297662741E+02  0.43400733299E+02  0.00000000000E+00 0.  1.
         11    1    3    3    0    0 -0.70040638559E+01  0.35344941154E+02  0.14407150316E+02  0.38805769625E+02  0.51100000000E-03 0. -1.
        -11    1    3    3    0    0 -0.43267351636E-02  0.22470150895E+01  0.70488831087E+01  0.73983679872E+01  0.51100000000E-03 0.  1.
         12    1    3    3    0    0  0.10473086402E+01 -0.83731858914E+00  0.84162931592E+00  0.15831290892E+01  0.00000000000E+00 0. -1.
</event>
<event>
 7    1  0.7470072E-010  0.4778727E+02  0.7816164E-02  0.1312668E+00
        -11   -1    0    0    0    0  0.00000000000E+00  0.00000000000E+00  0.45593999997E+02  0.45594000000E+02  0.51100000000E-03 0.  1.
         11   -1    0    0    0    0 -0.00000000000E+00 -0.00000000000E+00 -0.45593999997E+02  0.45594000000E+02  0.51100000000E-03 0. -1.
    9900012    2    1    2    0    0  0.37316516158E+02  0.20232909368E+02  0.90404843243E+01  0.47787270092E+02  0.19999995659E+02 0.  0.
        -12    1    1    2    0    0 -0.37316516158E+02 -0.20232909368E+02 -0.90404843243E+01  0.43400729908E+02  0.00000000000E+00 0.  1.
         11    1    3    3    0    0  0.19764726624E+02  0.17387660489E+02  0.56000142267E-01  0.26324480851E+02  0.51100000000E-03 0. -1.
        -11    1    3    3    0    0  0.17121562063E+02  0.37914951050E+01  0.98472003978E+01  0.20111953623E+02  0.51100000000E-03 0.  1.
         12    1    3    3    0    0  0.43022747195E+00 -0.94624622634E+00 -0.86271621580E+00  0.13508356182E+01  0.00000000000E+00 0. -1.
</event>
<event>
 7    1  0.7470072E-010  0.4778727E+02  0.7816164E-02  0.1312668E+00
        -11   -1    0    0    0    0  0.00000000000E+00  0.00000000000E+00  0.45593999997E+02  0.45594000000E+02  0.51100000000E-03 0. -1.
         11   -1    0    0    0    0 -0.00000000000E+00 -0.00000000000E+00 -0.45593999997E+02  0.45594000000E+02  0.51100000000E-03 0.  1.
    9900012    2    1    2    0    0 -0.10534750482E+02 -0.20343951434E+02  0.36861446756E+02  0.47787267465E+02  0.19999983680E+02 0.  0.
        -12    1    1    2    0    0  0.10534750482E+02  0.20343951434E+02 -0.36861446756E+02  0.43400732535E+02  0.00000000000E+00 0.  1.
         11    1    3    3    0    0 -0.37540368062E+01 -0.17623274960E+02  0.35966234100E+02  0.40227386297E+02  0.51100000000E-03 0. -1.
        -11    1    3    3    0    0 -0.30888245265E+01 -0.44533832818E+00  0.80192733972E+00  0.32221500433E+01  0.51100000000E-03 0.  1.
         12    1    3    3    0    0 -0.36918891490E+01 -0.22753381453E+01  0.93285316077E-01  0.43377311252E+01  0.00000000000E+00 0. -1.
</event>
<event>
 7    1  0.7470072E-010  0.4778727E+02  0.7816164E-02  0.1312668E+00
        -11   -1    0    0    0    0  0.00000000000E+00  0.00000000000E+00  0.45593999997E+02  0.45594000000E+02  0.51100000000E-03 0. -1.
         11   -1    0    0    0    0 -0.00000000000E+00 -0.00000000000E+00 -0.45593999997E+02  0.45594000000E+02  0.51100000000E-03 0.  1.
    9900012    2    1    2    0    0 -0.47091537419E+00 -0.19577212362E+02  0.38731566957E+02  0.47787270927E+02  0.19999999463E+02 0.  0.
        -12    1    1    2    0    0  0.47091537419E+00  0.19577212362E+02 -0.38731566957E+02  0.43400729073E+02  0.00000000000E+00 0.  1.
         11    1    3    3    0    0 -0.74852489204E+01 -0.87910752993E+01  0.27116696671E+02  0.29472481995E+02  0.51100000000E-03 0. -1.
        -11    1    3    3    0    0  0.39756188044E+01 -0.10337234286E+02  0.94183901950E+01  0.14538570483E+02  0.51100000000E-03 0.  1.
         12    1    3    3    0    0  0.30387147418E+01 -0.44890277684E+00  0.21964800910E+01  0.37762184491E+01  0.00000000000E+00 0. -1.
</event>
<event>
 7    1  0.7470072E-010  0.4778727E+02  0.7816164E-02  0.1312668E+00
        -11   -1    0    0    0    0  0.00000000000E+00  0.00000000000E+00  0.45593999997E+02  0.45594000000E+02  0.51100000000E-03 0. -1.
         11   -1    0    0    0    0 -0.00000000000E+00 -0.00000000000E+00 -0.45593999997E+02  0.45594000000E+02  0.51100000000E-03 0.  1.
    9900012    2    1    2    0    0 -0.25515144412E+02 -0.23900737055E+02 -0.25716837018E+02  0.47787268067E+02  0.19999986424E+02 0.  0.
         12    1    1    2    0    0  0.25515144412E+02  0.23900737055E+02  0.25716837018E+02  0.43400731933E+02  0.00000000000E+00 0. -1.
         11    1    3    3    0    0  0.64596849129E+00  0.24009327056E+01 -0.66818701765E+00  0.25745343852E+01  0.51100000000E-03 0. -1.
        -11    1    3    3    0    0 -0.13804844623E+02 -0.11669004345E+02 -0.15504805800E+02  0.23814667762E+02  0.51100000000E-03 0.  1.
         12    1    3    3    0    0 -0.12356268280E+02 -0.14632665415E+02 -0.95438442004E+01  0.21398065919E+02  0.00000000000E+00 0. -1.
</event>
<event>
 7    1  0.7470072E-010  0.4778727E+02  0.7816164E-02  0.1312668E+00
        -11   -1    0    0    0    0  0.00000000000E+00  0.00000000000E+00  0.45593999997E+02  0.45594000000E+02  0.51100000000E-03 0. -1.
         11   -1    0    0    0    0 -0.00000000000E+00 -0.00000000000E+00 -0.45593999997E+02  0.45594000000E+02  0.51100000000E-03 0.  1.
    9900012    2    1    2    0    0 -0.63792967380E+01  0.90854758507E+01  0.41956908565E+02  0.47787268732E+02  0.19999989455E+02 0.  0.
        -12    1    1    2    0    0  0.63792967380E+01 -0.90854758507E+01 -0.41956908565E+02  0.43400731268E+02  0.00000000000E+00 0.  1.
         11    1    3    3    0    0 -0.65920638709E+01  0.47012615288E+01  0.19329246299E+02  0.20956548589E+02  0.51100000000E-03 0. -1.
        -11    1    3    3    0    0  0.31814860409E+01 -0.42120431602E+01  0.73084034232E+01  0.90153159606E+01  0.51100000000E-03 0.  1.
        -12    1    3    3    0    0 -0.29687189080E+01  0.85962574821E+01  0.15319258843E+02  0.17815404182E+02  0.00000000000E+00 0.  1.
</event>
<event>
 7    1  0.7470072E-010  0.4778728E+02  0.7816164E-02  0.1312668E+00
        -11   -1    0    0    0    0  0.00000000000E+00  0.00000000000E+00  0.45593999997E+02  0.45594000000E+02  0.51100000000E-03 0. -1.
         11   -1    0    0    0    0 -0.00000000000E+00 -0.00000000000E+00 -0.45593999997E+02  0.45594000000E+02  0.51100000000E-03 0.  1.
    9900012    2    1    2    0    0 -0.22631808701E+02  0.63081859609E+01  0.36491516797E+02  0.47787276811E+02  0.20000026291E+02 0.  0.
        -12    1    1    2    0    0  0.22631808701E+02 -0.63081859609E+01 -0.36491516797E+02  0.43400723189E+02  0.00000000000E+00 0.  1.
         11    1    3    3    0    0 -0.10811814258E+02  0.10084831209E+02  0.21132876584E+02  0.25791425339E+02  0.51100000000E-03 0. -1.
        -11    1    3    3    0    0 -0.31049137341E+01 -0.55141562830E+01  0.92679660769E+01  0.11222370706E+02  0.51100000000E-03 0.  1.
        -12    1    3    3    0    0 -0.87150807088E+01  0.17375110352E+01  0.60906741361E+01  0.10773480765E+02  0.00000000000E+00 0.  1.
</event>
<event>
 7    1  0.7470072E-010  0.4778727E+02  0.7816164E-02  0.1312668E+00
        -11   -1    0    0    0    0  0.00000000000E+00  0.00000000000E+00  0.45593999997E+02  0.45594000000E+02  0.51100000000E-03 0. -1.
         11   -1    0    0    0    0 -0.00000000000E+00 -0.00000000000E+00 -0.45593999997E+02  0.45594000000E+02  0.51100000000E-03 0.  1.
    9900012    2    1    2    0    0 -0.79196754626E+00 -0.36017030617E+02 -0.24202682098E+02  0.47787268119E+02  0.19999986662E+02 0.  0.
         12    1    1    2    0    0  0.79196754626E+00  0.36017030617E+02  0.24202682098E+02  0.43400731881E+02  0.00000000000E+00 0. -1.
         11    1    3    3    0    0 -0.96949424681E+00 -0.28307304056E+02 -0.19044021863E+02  0.34130897307E+02  0.51100000000E-03 0. -1.
        -11    1    3    3    0    0  0.42070033943E+00 -0.10160971287E+02 -0.43817049585E+01  0.11073466705E+02  0.51100000000E-03 0.  1.
         12    1    3    3    0    0 -0.24317363888E+00  0.24512447255E+01 -0.77695527633E+00  0.25829041067E+01  0.00000000000E+00 0. -1.
</event>
<event>
 7    1  0.7470072E-010  0.4778727E+02  0.7816164E-02  0.1312668E+00
        -11   -1    0    0    0    0  0.00000000000E+00  0.00000000000E+00  0.45593999997E+02  0.45594000000E+02  0.51100000000E-03 0. -1.
         11   -1    0    0    0    0 -0.00000000000E+00 -0.00000000000E+00 -0.45593999997E+02  0.45594000000E+02  0.51100000000E-03 0.  1.
    9900012    2    1    2    0    0  0.36560681961E+02 -0.20391348425E+02 -0.11451310963E+02  0.47787273292E+02  0.20000010248E+02 0.  0.
         12    1    1    2    0    0 -0.36560681961E+02  0.20391348425E+02  0.11451310963E+02  0.43400726708E+02  0.00000000000E+00 0. -1.
         11    1    3    3    0    0  0.17186370376E+02  0.89379874959E+00 -0.69769204101E+01  0.18570073279E+02  0.51100000000E-03 0. -1.
        -11    1    3    3    0    0  0.15781896116E+02 -0.17355702638E+02 -0.45359478095E+01  0.23892749567E+02  0.51100000000E-03 0.  1.
         12    1    3    3    0    0  0.35924154687E+01 -0.39294445365E+01  0.61557256894E-01  0.53244504469E+01  0.00000000000E+00 0. -1.
</event>
<event>
 7    1  0.7470072E-010  0.4778726E+02  0.7816164E-02  0.1312668E+00
        -11   -1    0    0    0    0  0.00000000000E+00  0.00000000000E+00  0.45593999997E+02  0.45594000000E+02  0.51100000000E-03 0. -1.
         11   -1    0    0    0    0 -0.00000000000E+00 -0.00000000000E+00 -0.45593999997E+02  0.45594000000E+02  0.51100000000E-03 0.  1.
    9900012    2    1    2    0    0 -0.17077521594E+02 -0.31454131671E+02 -0.24548313711E+02  0.47787264418E+02  0.19999969789E+02 0.  0.
         12    1    1    2    0    0  0.17077521594E+02  0.31454131671E+02  0.24548313711E+02  0.43400735582E+02  0.00000000000E+00 0. -1.
         11    1    3    3    0    0 -0.19448687245E+00 -0.41477568423E+01 -0.18882552902E+01  0.45614932061E+01  0.51100000000E-03 0. -1.
        -11    1    3    3    0    0  0.57087748826E+00  0.20786432173E+01  0.10866756362E+00  0.21583483574E+01  0.51100000000E-03 0.  1.
        -12    1    3    3    0    0 -0.17453912210E+02 -0.29385018045E+02 -0.22768725985E+02  0.41067422855E+02  0.00000000000E+00 0.  1.
</event>
<event>
 7    1  0.7470072E-010  0.4778727E+02  0.7816164E-02  0.1312668E+00
        -11   -1    0    0    0    0  0.00000000000E+00  0.00000000000E+00  0.45593999997E+02  0.45594000000E+02  0.51100000000E-03 0.  1.
         11   -1    0    0    0    0 -0.00000000000E+00 -0.00000000000E+00 -0.45593999997E+02  0.45594000000E+02  0.51100000000E-03 0. -1.
    9900012    2    1    2    0    0 -0.24329232191E+02  0.28598035777E+02 -0.21768419913E+02  0.47787270803E+02  0.19999998899E+02 0.  0.
         12    1    1    2    0    0  0.24329232191E+02 -0.28598035777E+02  0.21768419913E+02  0.43400729197E+02  0.00000000000E+00 0. -1.
         11    1    3    3    0    0 -0.12247725108E+02  0.15487297837E+02 -0.19647285399E+02  0.27854604438E+02  0.51100000000E-03 0. -1.
        -11    1    3    3    0    0 -0.11225136509E+02  0.14021856386E+02 -0.32439720067E+01  0.18252109489E+02  0.51100000000E-03 0.  1.
         12    1    3    3    0    0 -0.85637057378E+00 -0.91111844462E+00  0.11228374923E+01  0.16805568761E+01  0.00000000000E+00 0. -1.
</event>
<event>
 7    1  0.9650854E-010  0.4778727E+02  0.7816164E-02  0.1312668E+00
        -11   -1    0    0    0    0  0.00000000000E+00  0.00000000000E+00  0.45593999997E+02  0.45594000000E+02  0.51100000000E-03 0. -1.
         11   -1    0    0    0    0 -0.00000000000E+00 -0.00000000000E+00 -0.45593999997E+02  0.45594000000E+02  0.51100000000E-03 0.  1.
    9900012    2    1    2    0    0 -0.13893372203E+02  0.19810507508E+02 -0.36029726634E+02  0.47787271893E+02  0.20000003868E+02 0.  0.
         12    1    1    2    0    0  0.13893372203E+02 -0.19810507508E+02  0.36029726634E+02  0.43400728107E+02  0.00000000000E+00 0. -1.
         11    1    3    3    0    0 -0.38769117486E+01  0.49619691390E+01 -0.74296380200E+00  0.63406291418E+01  0.51100000000E-03 0. -1.
        -11    1    3    3    0    0 -0.92356872726E+01  0.16783593015E+02 -0.28449948380E+02  0.34298490884E+02  0.51100000000E-03 0.  1.
        -12    1    3    3    0    0 -0.78077318133E+00 -0.19350546456E+01 -0.68368144529E+01  0.71481518665E+01  0.00000000000E+00 0.  1.
</event>
<event>
 7    1  0.8321398E-010  0.4778727E+02  0.7816164E-02  0.1312668E+00
        -11   -1    0    0    0    0  0.00000000000E+00  0.00000000000E+00  0.45593999997E+02  0.45594000000E+02  0.51100000000E-03 0. -1.
         11   -1    0    0    0    0 -0.00000000000E+00 -0.00000000000E+00 -0.45593999997E+02  0.45594000000E+02  0.51100000000E-03 0.  1.
    9900012    2    1    2    0    0  0.24052092201E+02  0.97009517206E+01  0.34799596906E+02  0.47787267883E+02  0.19999985584E+02 0.  0.
        -12    1    1    2    0    0 -0.24052092201E+02 -0.97009517206E+01 -0.34799596906E+02  0.43400732117E+02  0.00000000000E+00 0.  1.
         11    1    3    3    0    0  0.75173141902E+01 -0.45510494586E+01  0.82475176560E+01  0.12051705753E+02  0.51100000000E-03 0. -1.
        -11    1    3    3    0    0  0.43545623390E+01  0.18162009211E-01  0.18455236245E+01  0.47295349383E+01  0.51100000000E-03 0.  1.
         12    1    3    3    0    0  0.12180215672E+02  0.14233839170E+02  0.24706555625E+02  0.31006027191E+02  0.00000000000E+00 0. -1.
</event>
<event>
 7    1  0.7470072E-010  0.4778727E+02  0.7816164E-02  0.1312668E+00
        -11   -1    0    0    0    0  0.00000000000E+00  0.00000000000E+00  0.45593999997E+02  0.45594000000E+02  0.51100000000E-03 0.  1.
         11   -1    0    0    0    0 -0.00000000000E+00 -0.00000000000E+00 -0.45593999997E+02  0.45594000000E+02  0.51100000000E-03 0. -1.
    9900012    2    1    2    0    0  0.24707189483E+02 -0.33513658691E+02  0.12247959662E+02  0.47787273660E+02  0.20000011924E+02 0.  0.
         12    1    1    2    0    0 -0.24707189483E+02  0.33513658691E+02 -0.12247959662E+02  0.43400726340E+02  0.00000000000E+00 0. -1.
         11    1    3    3    0    0  0.14385739361E+02 -0.88349092117E+01  0.44722761577E+00  0.16888017366E+02  0.51100000000E-03 0. -1.
        -11    1    3    3    0    0  0.29370949189E+01 -0.17588105672E+02  0.10184037725E+02  0.20534912036E+02  0.51100000000E-03 0.  1.
        -12    1    3    3    0    0  0.73843552029E+01 -0.70906438072E+01  0.16166943216E+01  0.10364344258E+02  0.00000000000E+00 0.  1.
</event>
<event>
 7    1  0.7470072E-010  0.4778727E+02  0.7816164E-02  0.1312668E+00
        -11   -1    0    0    0    0  0.00000000000E+00  0.00000000000E+00  0.45593999997E+02  0.45594000000E+02  0.51100000000E-03 0. -1.
         11   -1    0    0    0    0 -0.00000000000E+00 -0.00000000000E+00 -0.45593999997E+02  0.45594000000E+02  0.51100000000E-03 0.  1.
    9900012    2    1    2    0    0  0.25469765580E+02  0.11690048324E+02  0.33139969668E+02  0.47787265236E+02  0.19999973515E+02 0.  0.
        -12    1    1    2    0    0 -0.25469765580E+02 -0.11690048324E+02 -0.33139969668E+02  0.43400734764E+02  0.00000000000E+00 0.  1.
         11    1    3    3    0    0  0.21078474134E+02  0.87836798639E+01  0.24650379608E+02  0.33602028493E+02  0.51100000000E-03 0. -1.
        -11    1    3    3    0    0  0.18646319917E+01  0.46147965249E+01 -0.19453224911E+00  0.49810684083E+01  0.51100000000E-03 0.  1.
        -12    1    3    3    0    0  0.25266594537E+01 -0.17084280646E+01  0.86841223086E+01  0.92041683338E+01  0.00000000000E+00 0.  1.
</event>
<event>
 7    1  0.7470072E-010  0.4778728E+02  0.7816164E-02  0.1312668E+00
        -11   -1    0    0    0    0  0.00000000000E+00  0.00000000000E+00  0.45593999997E+02  0.45594000000E+02  0.51100000000E-03 0. -1.
         11   -1    0    0    0    0 -0.00000000000E+00 -0.00000000000E+00 -0.45593999997E+02  0.45594000000E+02  0.51100000000E-03 0.  1.
    9900012    2    1    2    0    0 -0.33568214438E+02  0.23512055948E+02 -0.14282190703E+02  0.47787276887E+02  0.20000026639E+02 0.  0.
         12    1    1    2    0    0  0.33568214438E+02 -0.23512055948E+02  0.14282190703E+02  0.43400723113E+02  0.00000000000E+00 0. -1.
         11    1    3    3    0    0 -0.10864272192E+01  0.16583898446E+01  0.13537047864E+01  0.24006453068E+01  0.51100000000E-03 0. -1.
        -11    1    3    3    0    0 -0.86832048282E+01  0.41586931038E+01  0.33267357615E+01  0.10186262588E+02  0.51100000000E-03 0.  1.
        -12    1    3    3    0    0 -0.23798582390E+02  0.17694972999E+02 -0.18962631251E+02  0.35200368993E+02  0.00000000000E+00 0.  1.
</event>
<event>
 7    1  0.7470072E-010  0.4778727E+02  0.7816164E-02  0.1312668E+00
        -11   -1    0    0    0    0  0.00000000000E+00  0.00000000000E+00  0.45593999997E+02  0.45594000000E+02  0.51100000000E-03 0. -1.
         11   -1    0    0    0    0 -0.00000000000E+00 -0.00000000000E+00 -0.45593999997E+02  0.45594000000E+02  0.51100000000E-03 0.  1.
    9900012    2    1    2    0    0  0.20859917371E+02  0.21080048512E+02  0.31687829878E+02  0.47787272353E+02  0.20000005964E+02 0.  0.
        -12    1    1    2    0    0 -0.20859917371E+02 -0.21080048512E+02 -0.31687829878E+02  0.43400727647E+02  0.00000000000E+00 0.  1.
         11    1    3    3    0    0  0.50041636461E+01  0.14574232461E+02  0.16691941393E+02  0.22717192022E+02  0.51100000000E-03 0. -1.
        -11    1    3    3    0    0  0.12724446233E+02  0.71696443644E+01  0.64909352107E+01  0.15982727315E+02  0.51100000000E-03 0.  1.
        -12    1    3    3    0    0  0.31313074914E+01 -0.66382831387E+00  0.85049532742E+01  0.90873530157E+01  0.00000000000E+00 0.  1.
</event>
<event>
 7    1  0.7470072E-010  0.4778727E+02  0.7816164E-02  0.1312668E+00
        -11   -1    0    0    0    0  0.00000000000E+00  0.00000000000E+00  0.45593999997E+02  0.45594000000E+02  0.51100000000E-03 0. -1.
         11   -1    0    0    0    0 -0.00000000000E+00 -0.00000000000E+00 -0.45593999997E+02  0.45594000000E+02  0.51100000000E-03 0.  1.
    9900012    2    1    2    0    0 -0.30513106116E+02  0.29743622250E+02  0.82395723508E+01  0.47787271182E+02  0.20000000628E+02 0.  0.
        -12    1    1    2    0    0  0.30513106116E+02 -0.29743622250E+02 -0.82395723508E+01  0.43400728818E+02  0.00000000000E+00 0.  1.
         11    1    3    3    0    0 -0.76995162715E+01  0.16014021976E+02  0.42061292576E+01  0.18259873336E+02  0.51100000000E-03 0. -1.
        -11    1    3    3    0    0 -0.24170692134E+02  0.13873847495E+02  0.36338431633E+01  0.28105352141E+02  0.51100000000E-03 0.  1.
        -12    1    3    3    0    0  0.13571022897E+01 -0.14424722021E+00  0.39959992995E+00  0.14220457057E+01  0.00000000000E+00 0.  1.
</event>
<event>
 7    1  0.7470072E-010  0.4778729E+02  0.7816164E-02  0.1312668E+00
        -11   -1    0    0    0    0  0.00000000000E+00  0.00000000000E+00  0.45593999997E+02  0.45594000000E+02  0.51100000000E-03 0. -1.
         11   -1    0    0    0    0 -0.00000000000E+00 -0.00000000000E+00 -0.45593999997E+02  0.45594000000E+02  0.51100000000E-03 0.  1.
    9900012    2    1    2    0    0 -0.51211496426E+01  0.12369834991E+02  0.41284166497E+02  0.47787292693E+02  0.20000098706E+02 0.  0.
        -12    1    1    2    0    0  0.51211496426E+01 -0.12369834991E+02 -0.41284166497E+02  0.43400707307E+02  0.00000000000E+00 0.  1.
         11    1    3    3    0    0 -0.19256963634E-01  0.17986272250E+01  0.37926231964E+01  0.41975494870E+01  0.51100000000E-03 0. -1.
        -11    1    3    3    0    0 -0.11056165084E+00 -0.26947329465E+01  0.23565507191E+02  0.23719336816E+02  0.51100000000E-03 0.  1.
        -12    1    3    3    0    0 -0.49913310281E+01  0.13265940712E+02  0.13926036109E+02  0.19870406391E+02  0.00000000000E+00 0.  1.
</event>
<event>
 7    1  0.7470072E-010  0.4778727E+02  0.7816164E-02  0.1312668E+00
        -11   -1    0    0    0    0  0.00000000000E+00  0.00000000000E+00  0.45593999997E+02  0.45594000000E+02  0.51100000000E-03 0. -1.
         11   -1    0    0    0    0 -0.00000000000E+00 -0.00000000000E+00 -0.45593999997E+02  0.45594000000E+02  0.51100000000E-03 0.  1.
    9900012    2    1    2    0    0  0.28821959573E+02 -0.12124392569E+02  0.30098455109E+02  0.47787271334E+02  0.20000001321E+02 0.  0.
        -12    1    1    2    0    0 -0.28821959573E+02  0.12124392569E+02 -0.30098455109E+02  0.43400728666E+02  0.00000000000E+00 0.  1.
         11    1    3    3    0    0  0.15759441573E+02 -0.71965734378E+01  0.39472944680E+01  0.17768843570E+02  0.51100000000E-03 0. -1.
        -11    1    3    3    0    0  0.92474333029E-01  0.51882908480E+00  0.35334445114E+00  0.63449797775E+00  0.51100000000E-03 0.  1.
         12    1    3    3    0    0  0.12970043666E+02 -0.54466482160E+01  0.25797816190E+02  0.29383929786E+02  0.00000000000E+00 0. -1.
</event>
<event>
 7    1  0.9615201E-010  0.4778726E+02  0.7816164E-02  0.1312668E+00
        -11   -1    0    0    0    0  0.00000000000E+00  0.00000000000E+00  0.45593999997E+02  0.45594000000E+02  0.51100000000E-03 0. -1.
         11   -1    0    0    0    0 -0.00000000000E+00 -0.00000000000E+00 -0.45593999997E+02  0.45594000000E+02  0.51100000000E-03 0.  1.
    9900012    2    1    2    0    0 -0.26233226759E+01  0.90598988807E+01 -0.42363432959E+02  0.47787262199E+02  0.19999959672E+02 0.  0.
         12    1    1    2    0    0  0.26233226759E+01 -0.90598988807E+01  0.42363432959E+02  0.43400737801E+02  0.00000000000E+00 0. -1.
         11    1    3    3    0    0 -0.60415569626E+00  0.27855093411E+01  0.87272980225E+00  0.29808931487E+01  0.51100000000E-03 0. -1.
        -11    1    3    3    0    0  0.26882214676E+01  0.47521415437E+01 -0.32867079071E+02  0.33317476957E+02  0.51100000000E-03 0.  1.
         12    1    3    3    0    0 -0.47073884473E+01  0.15222479959E+01 -0.10369083690E+02  0.11488892093E+02  0.00000000000E+00 0. -1.
</event>
<event>
 7    1  0.7470072E-010  0.4778727E+02  0.7816164E-02  0.1312668E+00
        -11   -1    0    0    0    0  0.00000000000E+00  0.00000000000E+00  0.45593999997E+02  0.45594000000E+02  0.51100000000E-03 0.  1.
         11   -1    0    0    0    0 -0.00000000000E+00 -0.00000000000E+00 -0.45593999997E+02  0.45594000000E+02  0.51100000000E-03 0. -1.
    9900012    2    1    2    0    0 -0.42834297913E+02  0.40085089855E+01 -0.57252376815E+01  0.47787267650E+02  0.19999984524E+02 0.  0.
        -12    1    1    2    0    0  0.42834297913E+02 -0.40085089855E+01  0.57252376815E+01  0.43400732350E+02  0.00000000000E+00 0.  1.
         11    1    3    3    0    0 -0.34669581622E+02  0.90856757491E+01 -0.25732662841E+01  0.35932590963E+02  0.51100000000E-03 0. -1.
        -11    1    3    3    0    0 -0.79284982134E+01 -0.46160022798E+01 -0.46386075851E+01  0.10280332755E+02  0.51100000000E-03 0.  1.
        -12    1    3    3    0    0 -0.23621807745E+00 -0.46116448382E+00  0.14866361877E+01  0.15743439319E+01  0.00000000000E+00 0.  1.
</event>
<event>
 7    1  0.7470072E-010  0.4778727E+02  0.7816164E-02  0.1312668E+00
        -11   -1    0    0    0    0  0.00000000000E+00  0.00000000000E+00  0.45593999997E+02  0.45594000000E+02  0.51100000000E-03 0. -1.
         11   -1    0    0    0    0 -0.00000000000E+00 -0.00000000000E+00 -0.45593999997E+02  0.45594000000E+02  0.51100000000E-03 0.  1.
    9900012    2    1    2    0    0 -0.12909044326E+02 -0.33967669157E+02 -0.23731352124E+02  0.47787273658E+02  0.20000011917E+02 0.  0.
         12    1    1    2    0    0  0.12909044326E+02  0.33967669157E+02  0.23731352124E+02  0.43400726342E+02  0.00000000000E+00 0. -1.
         11    1    3    3    0    0 -0.13534620931E+02 -0.19142572251E+02 -0.11951138600E+02  0.26314515960E+02  0.51100000000E-03 0.  1.
        -11    1    3    3    0    0  0.38009358667E+01 -0.13556072222E+02 -0.11230301357E+02  0.18009271956E+02  0.51100000000E-03 0. -1.
         12    1    3    3    0    0 -0.31753592620E+01 -0.12690246834E+01 -0.54991216730E+00  0.34634857415E+01  0.00000000000E+00 0. -1.
</event>
<event>
 7    1  0.7470072E-010  0.4778727E+02  0.7816164E-02  0.1312668E+00
        -11   -1    0    0    0    0  0.00000000000E+00  0.00000000000E+00  0.45593999997E+02  0.45594000000E+02  0.51100000000E-03 0. -1.
         11   -1    0    0    0    0 -0.00000000000E+00 -0.00000000000E+00 -0.45593999997E+02  0.45594000000E+02  0.51100000000E-03 0.  1.
    9900012    2    1    2    0    0 -0.25919535304E+02  0.59157698832E+01  0.34304586220E+02  0.47787270981E+02  0.19999999711E+02 0.  0.
        -12    1    1    2    0    0  0.25919535304E+02 -0.59157698832E+01 -0.34304586220E+02  0.43400729019E+02  0.00000000000E+00 0.  1.
         11    1    3    3    0    0 -0.16364110322E+02  0.96788003441E+01  0.22763425347E+02  0.29658671861E+02  0.51100000000E-03 0. -1.
        -11    1    3    3    0    0 -0.72417956947E+01 -0.43719958727E+01  0.25656576290E+01  0.88397144821E+01  0.51100000000E-03 0.  1.
        -12    1    3    3    0    0 -0.23136292873E+01  0.60896541177E+00  0.89755032434E+01  0.92888846383E+01  0.00000000000E+00 0.  1.
</event>
<event>
 7    1  0.7470072E-010  0.4778726E+02  0.7816164E-02  0.1312668E+00
        -11   -1    0    0    0    0  0.00000000000E+00  0.00000000000E+00  0.45593999997E+02  0.45594000000E+02  0.51100000000E-03 0. -1.
         11   -1    0    0    0    0 -0.00000000000E+00 -0.00000000000E+00 -0.45593999997E+02  0.45594000000E+02  0.51100000000E-03 0.  1.
    9900012    2    1    2    0    0 -0.98991753609E+01 -0.69428585162E+01 -0.41682455910E+02  0.47787261667E+02  0.19999957243E+02 0.  0.
         12    1    1    2    0    0  0.98991753609E+01  0.69428585162E+01  0.41682455910E+02  0.43400738333E+02  0.00000000000E+00 0. -1.
         11    1    3    3    0    0  0.48545755276E+01  0.16873879945E-01 -0.38385227365E+01  0.61888161502E+01  0.51100000000E-03 0. -1.
        -11    1    3    3    0    0 -0.92871170081E+01 -0.13661172637E+01 -0.22385874323E+02  0.24274352477E+02  0.51100000000E-03 0.  1.
        -12    1    3    3    0    0 -0.54666338804E+01 -0.55936151325E+01 -0.15458058850E+02  0.17324093040E+02  0.00000000000E+00 0.  1.
</event>
<event>
 7    1  0.7470072E-010  0.4778728E+02  0.7816164E-02  0.1312668E+00
        -11   -1    0    0    0    0  0.00000000000E+00  0.00000000000E+00  0.45593999997E+02  0.45594000000E+02  0.51100000000E-03 0. -1.
         11   -1    0    0    0    0 -0.00000000000E+00 -0.00000000000E+00 -0.45593999997E+02  0.45594000000E+02  0.51100000000E-03 0.  1.
    9900012    2    1    2    0    0  0.20908186941E+02 -0.23642164973E+02 -0.29791250849E+02  0.47787275664E+02  0.20000021061E+02 0.  0.
         12    1    1    2    0    0 -0.20908186941E+02  0.23642164973E+02  0.29791250849E+02  0.43400724336E+02  0.00000000000E+00 0. -1.
         11    1    3    3    0    0  0.14036994439E+02 -0.60717423956E+01 -0.18691550827E+02  0.24151135401E+02  0.51100000000E-03 0. -1.
        -11    1    3    3    0    0 -0.14601825369E+01 -0.55781301019E+01 -0.55843004478E+01  0.80269595880E+01  0.51100000000E-03 0.  1.
         12    1    3    3    0    0  0.83313750394E+01 -0.11992292475E+02 -0.55153995741E+01  0.15609180674E+02  0.00000000000E+00 0. -1.
</event>
<event>
 7    1  0.7470072E-010  0.4778726E+02  0.7816164E-02  0.1312668E+00
        -11   -1    0    0    0    0  0.00000000000E+00  0.00000000000E+00  0.45593999997E+02  0.45594000000E+02  0.51100000000E-03 0. -1.
         11   -1    0    0    0    0 -0.00000000000E+00 -0.00000000000E+00 -0.45593999997E+02  0.45594000000E+02  0.51100000000E-03 0.  1.
    9900012    2    1    2    0    0  0.18785013300E+02  0.12833814013E+02 -0.36959983307E+02  0.47787264144E+02  0.19999968538E+02 0.  0.
         12    1    1    2    0    0 -0.18785013300E+02 -0.12833814013E+02  0.36959983307E+02  0.43400735856E+02  0.00000000000E+00 0. -1.
         11    1    3    3    0    0  0.81434132613E+01 -0.15373023499E+01 -0.45025777795E+01  0.94314200935E+01  0.51100000000E-03 0. -1.
        -11    1    3    3    0    0  0.10256854510E+02  0.65397528864E+01 -0.15754690815E+02  0.19904313985E+02  0.51100000000E-03 0.  1.
         12    1    3    3    0    0  0.38474552875E+00  0.78313634761E+01 -0.16702714712E+02  0.18451530066E+02  0.00000000000E+00 0. -1.
</event>
<event>
 7    1  0.7470072E-010  0.4778728E+02  0.7816164E-02  0.1312668E+00
        -11   -1    0    0    0    0  0.00000000000E+00  0.00000000000E+00  0.45593999997E+02  0.45594000000E+02  0.51100000000E-03 0. -1.
         11   -1    0    0    0    0 -0.00000000000E+00 -0.00000000000E+00 -0.45593999997E+02  0.45594000000E+02  0.51100000000E-03 0.  1.
    9900012    2    1    2    0    0  0.15282271720E+02 -0.31003969077E+02  0.26245550367E+02  0.47787276025E+02  0.20000022710E+02 0.  0.
        -12    1    1    2    0    0 -0.15282271720E+02  0.31003969077E+02 -0.26245550367E+02  0.43400723975E+02  0.00000000000E+00 0.  1.
         11    1    3    3    0    0  0.14364408136E+01 -0.37306469657E+01  0.50337827660E+00  0.40292032642E+01  0.51100000000E-03 0. -1.
        -11    1    3    3    0    0 -0.36025903314E+01 -0.82499861039E+01  0.34146267518E+01  0.96281152842E+01  0.51100000000E-03 0.  1.
        -12    1    3    3    0    0  0.17448421238E+02 -0.19023336008E+02  0.22327545338E+02  0.34129957477E+02  0.00000000000E+00 0.  1.
</event>
<event>
 7    1  0.7470072E-010  0.4778727E+02  0.7816164E-02  0.1312668E+00
        -11   -1    0    0    0    0  0.00000000000E+00  0.00000000000E+00  0.45593999997E+02  0.45594000000E+02  0.51100000000E-03 0. -1.
         11   -1    0    0    0    0 -0.00000000000E+00 -0.00000000000E+00 -0.45593999997E+02  0.45594000000E+02  0.51100000000E-03 0.  1.
    9900012    2    1    2    0    0  0.29598619051E+02  0.12612964769E+02  0.29128299035E+02  0.47787274952E+02  0.20000017815E+02 0.  0.
        -12    1    1    2    0    0 -0.29598619051E+02 -0.12612964769E+02 -0.29128299035E+02  0.43400725048E+02  0.00000000000E+00 0.  1.
         11    1    3    3    0    0  0.16122778198E+02  0.53178361301E+01  0.64989235582E+01  0.18178541350E+02  0.51100000000E-03 0. -1.
        -11    1    3    3    0    0 -0.95058173022E+00  0.39962263689E+01  0.67572867895E+01  0.79078667056E+01  0.51100000000E-03 0.  1.
         12    1    3    3    0    0  0.14426422583E+02  0.32989022703E+01  0.15872088688E+02  0.21700866896E+02  0.00000000000E+00 0. -1.
</event>
<event>
 7    1  0.7470072E-010  0.4778727E+02  0.7816164E-02  0.1312668E+00
        -11   -1    0    0    0    0  0.00000000000E+00  0.00000000000E+00  0.45593999997E+02  0.45594000000E+02  0.51100000000E-03 0. -1.
         11   -1    0    0    0    0 -0.00000000000E+00 -0.00000000000E+00 -0.45593999997E+02  0.45594000000E+02  0.51100000000E-03 0.  1.
    9900012    2    1    2    0    0 -0.58062220883E+01  0.95116897242E+01  0.41945664687E+02  0.47787271407E+02  0.20000001655E+02 0.  0.
        -12    1    1    2    0    0  0.58062220883E+01 -0.95116897242E+01 -0.41945664687E+02  0.43400728593E+02  0.00000000000E+00 0.  1.
         11    1    3    3    0    0 -0.47392638683E+01  0.29939575091E+01  0.16390018692E+02  0.17322156810E+02  0.51100000000E-03 0. -1.
        -11    1    3    3    0    0  0.33756699796E+01  0.45437150900E+01  0.14079312906E+01  0.58329036860E+01  0.51100000000E-03 0.  1.
        -12    1    3    3    0    0 -0.44426281997E+01  0.19740171251E+01  0.24147714704E+02  0.24632210911E+02  0.00000000000E+00 0.  1.
</event>
<event>
 7    1  0.7619993E-010  0.4778727E+02  0.7816164E-02  0.1312668E+00
        -11   -1    0    0    0    0  0.00000000000E+00  0.00000000000E+00  0.45593999997E+02  0.45594000000E+02  0.51100000000E-03 0. -1.
         11   -1    0    0    0    0 -0.00000000000E+00 -0.00000000000E+00 -0.45593999997E+02  0.45594000000E+02  0.51100000000E-03 0.  1.
    9900012    2    1    2    0    0  0.43849258628E+01  0.74926470007E+01 -0.42523590640E+02  0.47787273107E+02  0.20000009405E+02 0.  0.
         12    1    1    2    0    0 -0.43849258628E+01 -0.74926470007E+01  0.42523590640E+02  0.43400726893E+02  0.00000000000E+00 0. -1.
         11    1    3    3    0    0 -0.11972790610E+01 -0.17857323232E+01 -0.24943911524E+02  0.25036394299E+02  0.51100000000E-03 0. -1.
        -11    1    3    3    0    0 -0.49187905404E+00  0.25448864311E+01 -0.11605766774E+02  0.11891686787E+02  0.51100000000E-03 0.  1.
         12    1    3    3    0    0  0.60740839779E+01  0.67334928928E+01 -0.59739123414E+01  0.10859192022E+02  0.00000000000E+00 0. -1.
</event>
<event>
 7    1  0.7470072E-010  0.4778728E+02  0.7816164E-02  0.1312668E+00
        -11   -1    0    0    0    0  0.00000000000E+00  0.00000000000E+00  0.45593999997E+02  0.45594000000E+02  0.51100000000E-03 0. -1.
         11   -1    0    0    0    0 -0.00000000000E+00 -0.00000000000E+00 -0.45593999997E+02  0.45594000000E+02  0.51100000000E-03 0.  1.
    9900012    2    1    2    0    0  0.21596396174E+01 -0.12370486455E+02 -0.41544310324E+02  0.47787277671E+02  0.20000030212E+02 0.  0.
         12    1    1    2    0    0 -0.21596396174E+01  0.12370486455E+02  0.41544310324E+02  0.43400722329E+02  0.00000000000E+00 0. -1.
         11    1    3    3    0    0  0.78391675104E+00  0.18461510917E+01  0.10788284936E+01  0.22774262898E+01  0.51100000000E-03 0. -1.
        -11    1    3    3    0    0  0.25302399351E+00 -0.14417455653E+02 -0.41391220220E+02  0.43831041057E+02  0.51100000000E-03 0.  1.
        -12    1    3    3    0    0  0.11226988728E+01  0.20081810601E+00 -0.12319185977E+01  0.16788103235E+01  0.00000000000E+00 0.  1.
</event>
<event>
 7    1  0.7470072E-010  0.4778725E+02  0.7816164E-02  0.1312668E+00
        -11   -1    0    0    0    0  0.00000000000E+00  0.00000000000E+00  0.45593999997E+02  0.45594000000E+02  0.51100000000E-03 0. -1.
         11   -1    0    0    0    0 -0.00000000000E+00 -0.00000000000E+00 -0.45593999997E+02  0.45594000000E+02  0.51100000000E-03 0.  1.
    9900012    2    1    2    0    0 -0.49468282231E+01 -0.22279557561E+02 -0.36915781852E+02  0.47787254104E+02  0.19999922762E+02 0.  0.
         12    1    1    2    0    0  0.49468282231E+01  0.22279557561E+02  0.36915781852E+02  0.43400745896E+02  0.00000000000E+00 0. -1.
         11    1    3    3    0    0 -0.72580853492E+01 -0.18977244956E+02 -0.23502667863E+02  0.31067523655E+02  0.51100000000E-03 0.  1.
        -11    1    3    3    0    0  0.39793133677E+01 -0.11199706505E-01 -0.12204928472E+02  0.12837263711E+02  0.51100000000E-03 0. -1.
         12    1    3    3    0    0 -0.16680562416E+01 -0.32911128983E+01 -0.12081855166E+01  0.38824667387E+01  0.00000000000E+00 0. -1.
</event>
<event>
 7    1  0.8055068E-010  0.4778727E+02  0.7816164E-02  0.1312668E+00
        -11   -1    0    0    0    0  0.00000000000E+00  0.00000000000E+00  0.45593999997E+02  0.45594000000E+02  0.51100000000E-03 0. -1.
         11   -1    0    0    0    0 -0.00000000000E+00 -0.00000000000E+00 -0.45593999997E+02  0.45594000000E+02  0.51100000000E-03 0.  1.
    9900012    2    1    2    0    0  0.69891036637E+01  0.11516397825E+02 -0.41257100777E+02  0.47787270129E+02  0.19999995824E+02 0.  0.
         12    1    1    2    0    0 -0.69891036637E+01 -0.11516397825E+02  0.41257100777E+02  0.43400729871E+02  0.00000000000E+00 0. -1.
         11    1    3    3    0    0  0.14001603278E+00 -0.19204453210E+01 -0.12904744339E+02  0.13047610565E+02  0.51100000000E-03 0.  1.
        -11    1    3    3    0    0  0.10514893763E+02  0.10651898772E+02 -0.24621722982E+02  0.28814148975E+02  0.51100000000E-03 0. -1.
        -12    1    3    3    0    0 -0.36658061316E+01  0.27849443741E+01 -0.37306334546E+01  0.59255105885E+01  0.00000000000E+00 0.  1.
</event>
<event>
 7    1  0.7470072E-010  0.4778727E+02  0.7816164E-02  0.1312668E+00
        -11   -1    0    0    0    0  0.00000000000E+00  0.00000000000E+00  0.45593999997E+02  0.45594000000E+02  0.51100000000E-03 0.  1.
         11   -1    0    0    0    0 -0.00000000000E+00 -0.00000000000E+00 -0.45593999997E+02  0.45594000000E+02  0.51100000000E-03 0. -1.
    9900012    2    1    2    0    0  0.42741218570E+02  0.59535184974E+01  0.46224834057E+01  0.47787268438E+02  0.19999988115E+02 0.  0.
        -12    1    1    2    0    0 -0.42741218570E+02 -0.59535184974E+01 -0.46224834057E+01  0.43400731562E+02  0.00000000000E+00 0.  1.
         11    1    3    3    0    0  0.13736802829E+02  0.93003848496E+01  0.45496365174E+01  0.17201630825E+02  0.51100000000E-03 0. -1.
        -11    1    3    3    0    0  0.23653005126E+01 -0.24844684544E+01  0.18051851458E+01  0.38763286351E+01  0.51100000000E-03 0.  1.
         12    1    3    3    0    0  0.26639115228E+02 -0.86239789783E+00 -0.17323382575E+01  0.26709308978E+02  0.00000000000E+00 0. -1.
</event>
<event>
 7    1  0.7470072E-010  0.4778727E+02  0.7816164E-02  0.1312668E+00
        -11   -1    0    0    0    0  0.00000000000E+00  0.00000000000E+00  0.45593999997E+02  0.45594000000E+02  0.51100000000E-03 0. -1.
         11   -1    0    0    0    0 -0.00000000000E+00 -0.00000000000E+00 -0.45593999997E+02  0.45594000000E+02  0.51100000000E-03 0.  1.
    9900012    2    1    2    0    0  0.14670227032E+02 -0.18582671253E+02  0.36374328557E+02  0.47787274084E+02  0.20000013859E+02 0.  0.
        -12    1    1    2    0    0 -0.14670227032E+02  0.18582671253E+02 -0.36374328557E+02  0.43400725916E+02  0.00000000000E+00 0.  1.
         11    1    3    3    0    0  0.55099225173E+01 -0.14527741430E+02  0.12956566841E+02  0.20230846294E+02  0.51100000000E-03 0. -1.
        -11    1    3    3    0    0  0.91666010936E+01  0.74110110344E+00  0.11604815599E+02  0.14807010225E+02  0.51100000000E-03 0.  1.
        -12    1    3    3    0    0 -0.62965788093E-02 -0.47960309261E+01  0.11812946117E+02  0.12749417565E+02  0.00000000000E+00 0.  1.
</event>
<event>
 7    1  0.7470072E-010  0.4778727E+02  0.7816164E-02  0.1312668E+00
        -11   -1    0    0    0    0  0.00000000000E+00  0.00000000000E+00  0.45593999997E+02  0.45594000000E+02  0.51100000000E-03 0. -1.
         11   -1    0    0    0    0 -0.00000000000E+00 -0.00000000000E+00 -0.45593999997E+02  0.45594000000E+02  0.51100000000E-03 0.  1.
    9900012    2    1    2    0    0  0.15080473633E+02 -0.13371861441E+02 -0.38436909981E+02  0.47787269450E+02  0.19999992728E+02 0.  0.
         12    1    1    2    0    0 -0.15080473633E+02  0.13371861441E+02  0.38436909981E+02  0.43400730550E+02  0.00000000000E+00 0. -1.
         11    1    3    3    0    0  0.10532147199E+02 -0.10456766396E+02 -0.94732156132E+01  0.17607154864E+02  0.51100000000E-03 0. -1.
        -11    1    3    3    0    0  0.48688306174E+01  0.59659781104E+00 -0.18443449907E+02  0.19084608596E+02  0.51100000000E-03 0.  1.
         12    1    3    3    0    0 -0.32050418311E+00 -0.35116928554E+01 -0.10520244461E+02  0.11095505990E+02  0.00000000000E+00 0. -1.
</event>
<event>
 7    1  0.7470072E-010  0.4778727E+02  0.7816164E-02  0.1312668E+00
        -11   -1    0    0    0    0  0.00000000000E+00  0.00000000000E+00  0.45593999997E+02  0.45594000000E+02  0.51100000000E-03 0. -1.
         11   -1    0    0    0    0 -0.00000000000E+00 -0.00000000000E+00 -0.45593999997E+02  0.45594000000E+02  0.51100000000E-03 0.  1.
    9900012    2    1    2    0    0 -0.84448591880E+00 -0.33126302735E+02 -0.28027815568E+02  0.47787268038E+02  0.19999986291E+02 0.  0.
         12    1    1    2    0    0  0.84448591880E+00  0.33126302735E+02  0.28027815568E+02  0.43400731962E+02  0.00000000000E+00 0. -1.
         11    1    3    3    0    0 -0.78473063666E+00 -0.95426565933E+01  0.13714143530E+01  0.96725836578E+01  0.51100000000E-03 0. -1.
        -11    1    3    3    0    0  0.12837525697E+01 -0.17948797241E+02 -0.18724648508E+02  0.25969593856E+02  0.51100000000E-03 0.  1.
         12    1    3    3    0    0 -0.13435078518E+01 -0.56348489011E+01 -0.10674581413E+02  0.12145090524E+02  0.00000000000E+00 0. -1.
</event>
<event>
 7    1  0.7470072E-010  0.4778728E+02  0.7816164E-02  0.1312668E+00
        -11   -1    0    0    0    0  0.00000000000E+00  0.00000000000E+00  0.45593999997E+02  0.45594000000E+02  0.51100000000E-03 0. -1.
         11   -1    0    0    0    0 -0.00000000000E+00 -0.00000000000E+00 -0.45593999997E+02  0.45594000000E+02  0.51100000000E-03 0.  1.
    9900012    2    1    2    0    0 -0.16745338162E+02 -0.33781482889E+02 -0.21494820610E+02  0.47787282847E+02  0.20000053811E+02 0.  0.
         12    1    1    2    0    0  0.16745338162E+02  0.33781482889E+02  0.21494820610E+02  0.43400717153E+02  0.00000000000E+00 0. -1.
         11    1    3    3    0    0 -0.94303145091E+01 -0.70984168624E+01 -0.41458247505E+00  0.11810598316E+02  0.51100000000E-03 0. -1.
        -11    1    3    3    0    0 -0.80444217282E+01 -0.17780507823E+02 -0.17939551647E+02  0.26508238209E+02  0.51100000000E-03 0.  1.
         12    1    3    3    0    0  0.72939807528E+00 -0.89025582043E+01 -0.31406864881E+01  0.94684463218E+01  0.00000000000E+00 0. -1.
</event>
<event>
 7    1  0.7470072E-010  0.4778727E+02  0.7816164E-02  0.1312668E+00
        -11   -1    0    0    0    0  0.00000000000E+00  0.00000000000E+00  0.45593999997E+02  0.45594000000E+02  0.51100000000E-03 0. -1.
         11   -1    0    0    0    0 -0.00000000000E+00 -0.00000000000E+00 -0.45593999997E+02  0.45594000000E+02  0.51100000000E-03 0.  1.
    9900012    2    1    2    0    0 -0.15984515773E+02 -0.34659072424E+02 -0.20660766845E+02  0.47787270370E+02  0.19999996923E+02 0.  0.
         12    1    1    2    0    0  0.15984515773E+02  0.34659072424E+02  0.20660766845E+02  0.43400729630E+02  0.00000000000E+00 0. -1.
         11    1    3    3    0    0 -0.15470702139E+02 -0.21533096945E+02 -0.12744994004E+02  0.29418561507E+02  0.51100000000E-03 0. -1.
        -11    1    3    3    0    0 -0.37246275122E+01 -0.60567257534E+01 -0.78673063071E+01  0.10604305057E+02  0.51100000000E-03 0.  1.
         12    1    3    3    0    0  0.32108138778E+01 -0.70692497262E+01 -0.48466533530E-01  0.77644038055E+01  0.00000000000E+00 0. -1.
</event>
<event>
 7    1  0.7470072E-010  0.4778728E+02  0.7816164E-02  0.1312668E+00
        -11   -1    0    0    0    0  0.00000000000E+00  0.00000000000E+00  0.45593999997E+02  0.45594000000E+02  0.51100000000E-03 0. -1.
         11   -1    0    0    0    0 -0.00000000000E+00 -0.00000000000E+00 -0.45593999997E+02  0.45594000000E+02  0.51100000000E-03 0.  1.
    9900012    2    1    2    0    0 -0.26573822799E+02  0.24805023087E+02 -0.23710031479E+02  0.47787276259E+02  0.20000023775E+02 0.  0.
         12    1    1    2    0    0  0.26573822799E+02 -0.24805023087E+02  0.23710031479E+02  0.43400723741E+02  0.00000000000E+00 0. -1.
         11    1    3    3    0    0 -0.16982786049E+02  0.15963711475E+02 -0.93282555138E+01  0.25105207771E+02  0.51100000000E-03 0. -1.
        -11    1    3    3    0    0 -0.73350556232E+01  0.60775024003E+01 -0.19168768949E+01  0.97166606255E+01  0.51100000000E-03 0.  1.
        -12    1    3    3    0    0 -0.22559811272E+01  0.27638092123E+01 -0.12464899070E+02  0.12965407863E+02  0.00000000000E+00 0.  1.
</event>
<event>
 7    1  0.7470072E-010  0.4778727E+02  0.7816164E-02  0.1312668E+00
        -11   -1    0    0    0    0  0.00000000000E+00  0.00000000000E+00  0.45593999997E+02  0.45594000000E+02  0.51100000000E-03 0. -1.
         11   -1    0    0    0    0 -0.00000000000E+00 -0.00000000000E+00 -0.45593999997E+02  0.45594000000E+02  0.51100000000E-03 0.  1.
    9900012    2    1    2    0    0 -0.30890476959E+02 -0.20896483017E+02 -0.22197719127E+02  0.47787270701E+02  0.19999998432E+02 0.  0.
         12    1    1    2    0    0  0.30890476959E+02  0.20896483017E+02  0.22197719127E+02  0.43400729299E+02  0.00000000000E+00 0. -1.
         11    1    3    3    0    0 -0.17630226999E+02 -0.13631419054E+02 -0.78835025154E+01  0.23638741541E+02  0.51100000000E-03 0. -1.
        -11    1    3    3    0    0 -0.14764509657E+02 -0.67427057962E+01 -0.89129773251E+01  0.18517451010E+02  0.51100000000E-03 0.  1.
         12    1    3    3    0    0  0.15042596969E+01 -0.52235816757E+00 -0.54012392869E+01  0.56310781495E+01  0.00000000000E+00 0. -1.
</event>
<event>
 7    1  0.7470072E-010  0.4778727E+02  0.7816164E-02  0.1312668E+00
        -11   -1    0    0    0    0  0.00000000000E+00  0.00000000000E+00  0.45593999997E+02  0.45594000000E+02  0.51100000000E-03 0. -1.
         11   -1    0    0    0    0 -0.00000000000E+00 -0.00000000000E+00 -0.45593999997E+02  0.45594000000E+02  0.51100000000E-03 0.  1.
    9900012    2    1    2    0    0 -0.39270646151E+02  0.67221849869E+01  0.17211964145E+02  0.47787272704E+02  0.20000007565E+02 0.  0.
        -12    1    1    2    0    0  0.39270646151E+02 -0.67221849869E+01 -0.17211964145E+02  0.43400727296E+02  0.00000000000E+00 0.  1.
         11    1    3    3    0    0 -0.12939943498E+02  0.23909262851E+01  0.75652820675E+01  0.15178674490E+02  0.51100000000E-03 0. -1.
        -11    1    3    3    0    0 -0.16115966025E+02 -0.18790857239E+01  0.12303450254E+02  0.20362470687E+02  0.51100000000E-03 0.  1.
        -12    1    3    3    0    0 -0.10214736628E+02  0.62103444257E+01 -0.26567681762E+01  0.12246127527E+02  0.00000000000E+00 0.  1.
</event>
<event>
 7    1  0.7470072E-010  0.4778727E+02  0.7816164E-02  0.1312668E+00
        -11   -1    0    0    0    0  0.00000000000E+00  0.00000000000E+00  0.45593999997E+02  0.45594000000E+02  0.51100000000E-03 0. -1.
         11   -1    0    0    0    0 -0.00000000000E+00 -0.00000000000E+00 -0.45593999997E+02  0.45594000000E+02  0.51100000000E-03 0.  1.
    9900012    2    1    2    0    0  0.24615263090E+02  0.13800711388E+02  0.32973513378E+02  0.47787269634E+02  0.19999993569E+02 0.  0.
        -12    1    1    2    0    0 -0.24615263090E+02 -0.13800711388E+02 -0.32973513378E+02  0.43400730366E+02  0.00000000000E+00 0.  1.
         11    1    3    3    0    0 -0.77306585608E+00  0.51061481358E+01  0.83657035826E+00  0.52316565089E+01  0.51100000000E-03 0. -1.
        -11    1    3    3    0    0  0.18352304228E+02  0.88687741495E+01  0.20190370776E+02  0.28689951162E+02  0.51100000000E-03 0.  1.
         12    1    3    3    0    0  0.70360247185E+01 -0.17421089744E+00  0.11946572244E+02  0.13865661963E+02  0.00000000000E+00 0. -1.
</event>
<event>
 7    1  0.7470072E-010  0.4778727E+02  0.7816164E-02  0.1312668E+00
        -11   -1    0    0    0    0  0.00000000000E+00  0.00000000000E+00  0.45593999997E+02  0.45594000000E+02  0.51100000000E-03 0. -1.
         11   -1    0    0    0    0 -0.00000000000E+00 -0.00000000000E+00 -0.45593999997E+02  0.45594000000E+02  0.51100000000E-03 0.  1.
    9900012    2    1    2    0    0  0.40678807459E+01 -0.15328258201E+02 -0.40399511093E+02  0.47787266714E+02  0.19999980254E+02 0.  0.
         12    1    1    2    0    0 -0.40678807459E+01  0.15328258201E+02  0.40399511093E+02  0.43400733286E+02  0.00000000000E+00 0. -1.
         11    1    3    3    0    0 -0.46396810750E+01 -0.38244391729E+01 -0.12422673539E+02  0.13801296808E+02  0.51100000000E-03 0. -1.
        -11    1    3    3    0    0  0.51003351791E+01 -0.50087643309E+01 -0.27025205768E+01  0.76423004907E+01  0.51100000000E-03 0.  1.
        -12    1    3    3    0    0  0.36072266418E+01 -0.64950546977E+01 -0.25274316977E+02  0.26343669415E+02  0.00000000000E+00 0.  1.
</event>
<event>
 7    1  0.7470072E-010  0.4778728E+02  0.7816164E-02  0.1312668E+00
        -11   -1    0    0    0    0  0.00000000000E+00  0.00000000000E+00  0.45593999997E+02  0.45594000000E+02  0.51100000000E-03 0. -1.
         11   -1    0    0    0    0 -0.00000000000E+00 -0.00000000000E+00 -0.45593999997E+02  0.45594000000E+02  0.51100000000E-03 0.  1.
    9900012    2    1    2    0    0  0.36661941374E+02 -0.27799591655E-01 -0.23227642599E+02  0.47787284581E+02  0.20000061721E+02 0.  0.
         12    1    1    2    0    0 -0.36661941374E+02  0.27799591655E-01  0.23227642599E+02  0.43400715419E+02  0.00000000000E+00 0. -1.
         11    1    3    3    0    0  0.15227338088E+02 -0.39792370709E+01 -0.64441815035E+01  0.17006870036E+02  0.51100000000E-03 0. -1.
        -11    1    3    3    0    0  0.15131152411E+02  0.90923298544E+01 -0.10993599018E+02  0.20796188475E+02  0.51100000000E-03 0.  1.
         12    1    3    3    0    0  0.63034508753E+01 -0.51408923751E+01 -0.57898620774E+01  0.99842260704E+01  0.00000000000E+00 0. -1.
</event>
<event>
 7    1  0.7470072E-010  0.4778727E+02  0.7816164E-02  0.1312668E+00
        -11   -1    0    0    0    0  0.00000000000E+00  0.00000000000E+00  0.45593999997E+02  0.45594000000E+02  0.51100000000E-03 0.  1.
         11   -1    0    0    0    0 -0.00000000000E+00 -0.00000000000E+00 -0.45593999997E+02  0.45594000000E+02  0.51100000000E-03 0. -1.
    9900012    2    1    2    0    0 -0.39496817473E+02  0.17945495442E+02  0.12584823102E+01  0.47787272185E+02  0.20000005201E+02 0.  0.
         12    1    1    2    0    0  0.39496817473E+02 -0.17945495442E+02 -0.12584823102E+01  0.43400727815E+02  0.00000000000E+00 0. -1.
         11    1    3    3    0    0 -0.31468769188E+00 -0.79151759760E+00 -0.29628253905E+01  0.30828336002E+01  0.51100000000E-03 0. -1.
        -11    1    3    3    0    0 -0.27313091196E+02  0.97952890834E+01  0.63198747354E+01  0.29696690992E+02  0.51100000000E-03 0.  1.
         12    1    3    3    0    0 -0.11869038584E+02  0.89417239560E+01 -0.20985670347E+01  0.15007747593E+02  0.00000000000E+00 0. -1.
</event>
<event>
 7    1  0.7748769E-010  0.4778727E+02  0.7816164E-02  0.1312668E+00
        -11   -1    0    0    0    0  0.00000000000E+00  0.00000000000E+00  0.45593999997E+02  0.45594000000E+02  0.51100000000E-03 0. -1.
         11   -1    0    0    0    0 -0.00000000000E+00 -0.00000000000E+00 -0.45593999997E+02  0.45594000000E+02  0.51100000000E-03 0.  1.
    9900012    2    1    2    0    0  0.60601630839E+01 -0.37105724595E+01 -0.42815063139E+02  0.47787267792E+02  0.19999985169E+02 0.  0.
         12    1    1    2    0    0 -0.60601630839E+01  0.37105724595E+01  0.42815063139E+02  0.43400732208E+02  0.00000000000E+00 0. -1.
         11    1    3    3    0    0  0.64514263856E+01 -0.57847544747E+01 -0.12208497001E+02  0.14971028222E+02  0.51100000000E-03 0. -1.
        -11    1    3    3    0    0 -0.57482962192E+01 -0.25357082624E+00 -0.18503377675E+02  0.19377362907E+02  0.51100000000E-03 0.  1.
        -12    1    3    3    0    0  0.53570329175E+01  0.23277528414E+01 -0.12103188463E+02  0.13438876662E+02  0.00000000000E+00 0.  1.
</event>
<event>
 7    1  0.7470072E-010  0.4778727E+02  0.7816164E-02  0.1312668E+00
        -11   -1    0    0    0    0  0.00000000000E+00  0.00000000000E+00  0.45593999997E+02  0.45594000000E+02  0.51100000000E-03 0.  1.
         11   -1    0    0    0    0 -0.00000000000E+00 -0.00000000000E+00 -0.45593999997E+02  0.45594000000E+02  0.51100000000E-03 0. -1.
    9900012    2    1    2    0    0  0.39606193748E+02  0.10529125987E+02  0.14286707091E+02  0.47787273315E+02  0.20000010353E+02 0.  0.
        -12    1    1    2    0    0 -0.39606193748E+02 -0.10529125987E+02 -0.14286707091E+02  0.43400726685E+02  0.00000000000E+00 0.  1.
         11    1    3    3    0    0  0.37607786305E+02  0.41512432667E+01  0.13460004460E+02  0.40159060394E+02  0.51100000000E-03 0. -1.
        -11    1    3    3    0    0  0.18403233442E+00  0.19620497984E+01 -0.13424615180E+01  0.23844727929E+01  0.51100000000E-03 0.  1.
         12    1    3    3    0    0  0.18143751090E+01  0.44158329218E+01  0.21691641486E+01  0.52437401283E+01  0.00000000000E+00 0. -1.
</event>
<event>
 7    1  0.7470072E-010  0.4778722E+02  0.7816164E-02  0.1312668E+00
        -11   -1    0    0    0    0  0.00000000000E+00  0.00000000000E+00  0.45593999997E+02  0.45594000000E+02  0.51100000000E-03 0. -1.
         11   -1    0    0    0    0 -0.00000000000E+00 -0.00000000000E+00 -0.45593999997E+02  0.45594000000E+02  0.51100000000E-03 0.  1.
    9900012    2    1    2    0    0 -0.34361394758E+02 -0.27188710439E+01  0.26372899116E+02  0.47787222158E+02  0.19999777108E+02 0.  0.
        -12    1    1    2    0    0  0.34361394758E+02  0.27188710439E+01 -0.26372899116E+02  0.43400777842E+02  0.00000000000E+00 0.  1.
         11    1    3    3    0    0 -0.47712910959E+01 -0.45292985047E+01  0.11680202420E+02  0.13405479943E+02  0.51100000000E-03 0.  1.
        -11    1    3    3    0    0 -0.84583168270E+01  0.38526233821E+01  0.15779535361E+01  0.94273945549E+01  0.51100000000E-03 0. -1.
         12    1    3    3    0    0 -0.21131786835E+02 -0.20421959212E+01  0.13114743160E+02  0.24954347661E+02  0.00000000000E+00 0. -1.
</event>
<event>
 7    1  0.7470072E-010  0.4778727E+02  0.7816164E-02  0.1312668E+00
        -11   -1    0    0    0    0  0.00000000000E+00  0.00000000000E+00  0.45593999997E+02  0.45594000000E+02  0.51100000000E-03 0. -1.
         11   -1    0    0    0    0 -0.00000000000E+00 -0.00000000000E+00 -0.45593999997E+02  0.45594000000E+02  0.51100000000E-03 0.  1.
    9900012    2    1    2    0    0  0.42012273244E+02 -0.49783810699E+01 -0.96854542100E+01  0.47787269540E+02  0.19999993139E+02 0.  0.
         12    1    1    2    0    0 -0.42012273244E+02  0.49783810699E+01  0.96854542100E+01  0.43400730460E+02  0.00000000000E+00 0. -1.
         11    1    3    3    0    0  0.72065779437E+01 -0.26967766682E-01 -0.40098616988E+01  0.82470894274E+01  0.51100000000E-03 0. -1.
        -11    1    3    3    0    0  0.30671148774E+02  0.22804654643E+01 -0.52353396060E+01  0.31198215828E+02  0.51100000000E-03 0.  1.
        -12    1    3    3    0    0  0.41345465272E+01 -0.72318787675E+01 -0.44025290531E+00  0.83419642839E+01  0.00000000000E+00 0.  1.
</event>
<event>
 7    1  0.7470072E-010  0.4778727E+02  0.7816164E-02  0.1312668E+00
        -11   -1    0    0    0    0  0.00000000000E+00  0.00000000000E+00  0.45593999997E+02  0.45594000000E+02  0.51100000000E-03 0. -1.
         11   -1    0    0    0    0 -0.00000000000E+00 -0.00000000000E+00 -0.45593999997E+02  0.45594000000E+02  0.51100000000E-03 0.  1.
    9900012    2    1    2    0    0 -0.18087523649E+02  0.15225206560E+02 -0.36395848658E+02  0.47787271595E+02  0.20000002509E+02 0.  0.
         12    1    1    2    0    0  0.18087523649E+02 -0.15225206560E+02  0.36395848658E+02  0.43400728405E+02  0.00000000000E+00 0. -1.
         11    1    3    3    0    0 -0.11525857935E+00  0.13212300639E+01  0.40925613222E+00  0.13879568670E+01  0.51100000000E-03 0. -1.
        -11    1    3    3    0    0  0.16934657411E+01  0.82093069164E+00 -0.12002376330E+02  0.12149024292E+02  0.51100000000E-03 0.  1.
        -12    1    3    3    0    0 -0.19665730811E+02  0.13083045804E+02 -0.24802728460E+02  0.34250290436E+02  0.00000000000E+00 0.  1.
</event>
<event>
 7    1  0.7470072E-010  0.4778728E+02  0.7816164E-02  0.1312668E+00
        -11   -1    0    0    0    0  0.00000000000E+00  0.00000000000E+00  0.45593999997E+02  0.45594000000E+02  0.51100000000E-03 0. -1.
         11   -1    0    0    0    0 -0.00000000000E+00 -0.00000000000E+00 -0.45593999997E+02  0.45594000000E+02  0.51100000000E-03 0.  1.
    9900012    2    1    2    0    0  0.17823394941E+02  0.36933404547E+01  0.39399345453E+02  0.47787278887E+02  0.20000035759E+02 0.  0.
        -12    1    1    2    0    0 -0.17823394941E+02 -0.36933404547E+01 -0.39399345453E+02  0.43400721113E+02  0.00000000000E+00 0.  1.
         11    1    3    3    0    0  0.13241993646E+02  0.10182988711E+02  0.30680658323E+02  0.34933457462E+02  0.51100000000E-03 0. -1.
        -11    1    3    3    0    0  0.94979240097E+00 -0.14074574480E+01 -0.45278230042E+00  0.17572860170E+01  0.51100000000E-03 0.  1.
         12    1    3    3    0    0  0.36316088941E+01 -0.50821908081E+01  0.91714694304E+01  0.11096535409E+02  0.00000000000E+00 0. -1.
</event>
<event>
 7    1  0.7470072E-010  0.4778727E+02  0.7816164E-02  0.1312668E+00
        -11   -1    0    0    0    0  0.00000000000E+00  0.00000000000E+00  0.45593999997E+02  0.45594000000E+02  0.51100000000E-03 0. -1.
         11   -1    0    0    0    0 -0.00000000000E+00 -0.00000000000E+00 -0.45593999997E+02  0.45594000000E+02  0.51100000000E-03 0.  1.
    9900012    2    1    2    0    0  0.13807596081E+02  0.16919471947E+01 -0.41110961374E+02  0.47787267979E+02  0.19999986025E+02 0.  0.
         12    1    1    2    0    0 -0.13807596081E+02 -0.16919471947E+01  0.41110961374E+02  0.43400732021E+02  0.00000000000E+00 0. -1.
         11    1    3    3    0    0  0.14597135537E+02 -0.26149782157E+01 -0.15408832350E+02  0.21385663226E+02  0.51100000000E-03 0. -1.
        -11    1    3    3    0    0 -0.18111401871E+01  0.46208320740E+01 -0.21550862470E+02  0.22114972107E+02  0.51100000000E-03 0.  1.
         12    1    3    3    0    0  0.10216007313E+01 -0.31390666357E+00 -0.41512665534E+01  0.42866326464E+01  0.00000000000E+00 0. -1.
</event>
<event>
 7    1  0.1063358E-009  0.4778727E+02  0.7816164E-02  0.1312668E+00
        -11   -1    0    0    0    0  0.00000000000E+00  0.00000000000E+00  0.45593999997E+02  0.45594000000E+02  0.51100000000E-03 0. -1.
         11   -1    0    0    0    0 -0.00000000000E+00 -0.00000000000E+00 -0.45593999997E+02  0.45594000000E+02  0.51100000000E-03 0.  1.
    9900012    2    1    2    0    0 -0.17280333692E+02  0.41330956989E+01 -0.39597107247E+02  0.47787270572E+02  0.19999997848E+02 0.  0.
         12    1    1    2    0    0  0.17280333692E+02 -0.41330956989E+01  0.39597107247E+02  0.43400729428E+02  0.00000000000E+00 0. -1.
         11    1    3    3    0    0 -0.20188680019E+01  0.53939732858E+01 -0.40748858927E+01  0.70551733584E+01  0.51100000000E-03 0. -1.
        -11    1    3    3    0    0 -0.72911660729E+01 -0.69952699981E+01 -0.18619155009E+02  0.21184141205E+02  0.51100000000E-03 0.  1.
        -12    1    3    3    0    0 -0.79702996168E+01  0.57343924112E+01 -0.16903066344E+02  0.19547956010E+02  0.00000000000E+00 0.  1.
</event>
<event>
 7    1  0.7470072E-010  0.4778727E+02  0.7816164E-02  0.1312668E+00
        -11   -1    0    0    0    0  0.00000000000E+00  0.00000000000E+00  0.45593999997E+02  0.45594000000E+02  0.51100000000E-03 0. -1.
         11   -1    0    0    0    0 -0.00000000000E+00 -0.00000000000E+00 -0.45593999997E+02  0.45594000000E+02  0.51100000000E-03 0.  1.
    9900012    2    1    2    0    0 -0.35599013420E+02  0.98738559808E+01  0.22778077912E+02  0.47787267037E+02  0.19999981726E+02 0.  0.
        -12    1    1    2    0    0  0.35599013420E+02 -0.98738559808E+01 -0.22778077912E+02  0.43400732963E+02  0.00000000000E+00 0.  1.
         11    1    3    3    0    0 -0.97744338397E+01  0.44829789898E+00 -0.77474883263E-01  0.97850156112E+01  0.51100000000E-03 0. -1.
        -11    1    3    3    0    0 -0.25659799418E+02  0.11614077751E+02  0.21143062246E+02  0.35218477957E+02  0.51100000000E-03 0.  1.
        -12    1    3    3    0    0 -0.16478016240E+00 -0.21885196693E+01  0.17124905488E+01  0.27837734686E+01  0.00000000000E+00 0.  1.
</event>
<event>
 7    1  0.7470072E-010  0.4778727E+02  0.7816164E-02  0.1312668E+00
        -11   -1    0    0    0    0  0.00000000000E+00  0.00000000000E+00  0.45593999997E+02  0.45594000000E+02  0.51100000000E-03 0. -1.
         11   -1    0    0    0    0 -0.00000000000E+00 -0.00000000000E+00 -0.45593999997E+02  0.45594000000E+02  0.51100000000E-03 0.  1.
    9900012    2    1    2    0    0 -0.20770191468E+02  0.28902865761E+02 -0.24836399996E+02  0.47787271117E+02  0.20000000330E+02 0.  0.
         12    1    1    2    0    0  0.20770191468E+02 -0.28902865761E+02  0.24836399996E+02  0.43400728883E+02  0.00000000000E+00 0. -1.
         11    1    3    3    0    0 -0.96306388735E+00  0.56684041974E+01 -0.10939587618E+02  0.12358514300E+02  0.51100000000E-03 0. -1.
        -11    1    3    3    0    0 -0.17181995909E+02  0.12601530108E+02 -0.67513196256E+01  0.22351730613E+02  0.51100000000E-03 0.  1.
         12    1    3    3    0    0 -0.26251316716E+01  0.10632931456E+02 -0.71454927526E+01  0.13077026203E+02  0.00000000000E+00 0. -1.
</event>
<event>
 7    1  0.7470072E-010  0.4778728E+02  0.7816164E-02  0.1312668E+00
        -11   -1    0    0    0    0  0.00000000000E+00  0.00000000000E+00  0.45593999997E+02  0.45594000000E+02  0.51100000000E-03 0. -1.
         11   -1    0    0    0    0 -0.00000000000E+00 -0.00000000000E+00 -0.45593999997E+02  0.45594000000E+02  0.51100000000E-03 0.  1.
    9900012    2    1    2    0    0  0.26241926935E+02  0.29391333122E+01 -0.34443364978E+02  0.47787278521E+02  0.20000034088E+02 0.  0.
         12    1    1    2    0    0 -0.26241926935E+02 -0.29391333122E+01  0.34443364978E+02  0.43400721479E+02  0.00000000000E+00 0. -1.
         11    1    3    3    0    0 -0.17061518508E+01 -0.33408487417E+01 -0.30190725645E+01  0.48152906313E+01  0.51100000000E-03 0. -1.
        -11    1    3    3    0    0  0.17506210905E+02  0.64199209145E+01 -0.22607234885E+02  0.29304775621E+02  0.51100000000E-03 0.  1.
         12    1    3    3    0    0  0.10441867881E+02 -0.13993886052E+00 -0.88170575285E+01  0.13667212269E+02  0.00000000000E+00 0. -1.
</event>
<event>
 7    1  0.7470072E-010  0.4778726E+02  0.7816164E-02  0.1312668E+00
        -11   -1    0    0    0    0  0.00000000000E+00  0.00000000000E+00  0.45593999997E+02  0.45594000000E+02  0.51100000000E-03 0. -1.
         11   -1    0    0    0    0 -0.00000000000E+00 -0.00000000000E+00 -0.45593999997E+02  0.45594000000E+02  0.51100000000E-03 0.  1.
    9900012    2    1    2    0    0  0.12331631860E+02  0.20554806056E+02 -0.36180867088E+02  0.47787258767E+02  0.19999944023E+02 0.  0.
         12    1    1    2    0    0 -0.12331631860E+02 -0.20554806056E+02  0.36180867088E+02  0.43400741233E+02  0.00000000000E+00 0. -1.
         11    1    3    3    0    0 -0.53574226890E-02  0.95144310455E+00 -0.67135963792E+00  0.11644727166E+01  0.51100000000E-03 0. -1.
        -11    1    3    3    0    0 -0.17380781387E+01  0.98870918155E+01 -0.40700757570E+01  0.10832405878E+02  0.51100000000E-03 0.  1.
        -12    1    3    3    0    0  0.14075067422E+02  0.97162711359E+01 -0.31439431693E+02  0.35790380172E+02  0.00000000000E+00 0.  1.
</event>
<event>
 7    1  0.7470072E-010  0.4778727E+02  0.7816164E-02  0.1312668E+00
        -11   -1    0    0    0    0  0.00000000000E+00  0.00000000000E+00  0.45593999997E+02  0.45594000000E+02  0.51100000000E-03 0. -1.
         11   -1    0    0    0    0 -0.00000000000E+00 -0.00000000000E+00 -0.45593999997E+02  0.45594000000E+02  0.51100000000E-03 0.  1.
    9900012    2    1    2    0    0 -0.31291953508E+02 -0.97117688618E+01  0.28462577741E+02  0.47787272582E+02  0.20000007009E+02 0.  0.
        -12    1    1    2    0    0  0.31291953508E+02  0.97117688618E+01 -0.28462577741E+02  0.43400727418E+02  0.00000000000E+00 0.  1.
         11    1    3    3    0    0 -0.21494240368E+02 -0.69378267029E+01  0.15167843313E+02  0.27206603599E+02  0.51100000000E-03 0. -1.
        -11    1    3    3    0    0  0.50170370323E+00  0.20589859879E+01 -0.97330496375E+00  0.23320490385E+01  0.51100000000E-03 0.  1.
        -12    1    3    3    0    0 -0.10299416843E+02 -0.48329281468E+01  0.14268039392E+02  0.18248619944E+02  0.00000000000E+00 0.  1.
</event>
<event>
 7    1  0.7470072E-010  0.4778727E+02  0.7816164E-02  0.1312668E+00
        -11   -1    0    0    0    0  0.00000000000E+00  0.00000000000E+00  0.45593999997E+02  0.45594000000E+02  0.51100000000E-03 0. -1.
         11   -1    0    0    0    0 -0.00000000000E+00 -0.00000000000E+00 -0.45593999997E+02  0.45594000000E+02  0.51100000000E-03 0.  1.
    9900012    2    1    2    0    0  0.32509826211E+02  0.18810851015E+02  0.21745948862E+02  0.47787271803E+02  0.20000003458E+02 0.  0.
        -12    1    1    2    0    0 -0.32509826211E+02 -0.18810851015E+02 -0.21745948862E+02  0.43400728197E+02  0.00000000000E+00 0.  1.
         11    1    3    3    0    0  0.24969781117E+02  0.20896645918E+02  0.19284797429E+02  0.37842610795E+02  0.51100000000E-03 0. -1.
        -11    1    3    3    0    0  0.15396772996E+00 -0.19670971776E+01  0.15348315498E+01  0.24997770931E+01  0.51100000000E-03 0.  1.
         12    1    3    3    0    0  0.73860773641E+01 -0.11869772560E+00  0.92631988243E+00  0.74448839147E+01  0.00000000000E+00 0. -1.
</event>
<event>
 7    1  0.7470072E-010  0.4778727E+02  0.7816164E-02  0.1312668E+00
        -11   -1    0    0    0    0  0.00000000000E+00  0.00000000000E+00  0.45593999997E+02  0.45594000000E+02  0.51100000000E-03 0. -1.
         11   -1    0    0    0    0 -0.00000000000E+00 -0.00000000000E+00 -0.45593999997E+02  0.45594000000E+02  0.51100000000E-03 0.  1.
    9900012    2    1    2    0    0  0.10431767389E+02 -0.89213327824E+01 -0.41172944942E+02  0.47787270229E+02  0.19999996284E+02 0.  0.
         12    1    1    2    0    0 -0.10431767389E+02  0.89213327824E+01  0.41172944942E+02  0.43400729771E+02  0.00000000000E+00 0. -1.
         11    1    3    3    0    0  0.13883911603E+01 -0.29007920692E-01  0.16527203737E+01  0.21586932085E+01  0.51100000000E-03 0. -1.
        -11    1    3    3    0    0  0.56665289154E+01 -0.33503086332E+01 -0.34234855665E+02  0.34862005975E+02  0.51100000000E-03 0.  1.
        -12    1    3    3    0    0  0.33768473131E+01 -0.55420162286E+01 -0.85908096498E+01  0.10766571046E+02  0.00000000000E+00 0.  1.
</event>
<event>
 7    1  0.7470072E-010  0.4778726E+02  0.7816164E-02  0.1312668E+00
        -11   -1    0    0    0    0  0.00000000000E+00  0.00000000000E+00  0.45593999997E+02  0.45594000000E+02  0.51100000000E-03 0. -1.
         11   -1    0    0    0    0 -0.00000000000E+00 -0.00000000000E+00 -0.45593999997E+02  0.45594000000E+02  0.51100000000E-03 0.  1.
    9900012    2    1    2    0    0  0.62657028076E+01  0.16762417369E+02  0.39539680302E+02  0.47787262839E+02  0.19999962590E+02 0.  0.
        -12    1    1    2    0    0 -0.62657028076E+01 -0.16762417369E+02 -0.39539680302E+02  0.43400737161E+02  0.00000000000E+00 0.  1.
         11    1    3    3    0    0  0.84165919548E+01  0.44415466988E+01  0.22735381011E+02  0.24646782897E+02  0.51100000000E-03 0. -1.
        -11    1    3    3    0    0 -0.54069359770E+01  0.82671850058E+01  0.14271987917E+02  0.17357158291E+02  0.51100000000E-03 0.  1.
         12    1    3    3    0    0  0.32560468298E+01  0.40536856649E+01  0.25323113741E+01  0.57833216514E+01  0.00000000000E+00 0. -1.
</event>
<event>
 7    1  0.7470072E-010  0.4778727E+02  0.7816164E-02  0.1312668E+00
        -11   -1    0    0    0    0  0.00000000000E+00  0.00000000000E+00  0.45593999997E+02  0.45594000000E+02  0.51100000000E-03 0. -1.
         11   -1    0    0    0    0 -0.00000000000E+00 -0.00000000000E+00 -0.45593999997E+02  0.45594000000E+02  0.51100000000E-03 0.  1.
    9900012    2    1    2    0    0 -0.94117060932E+00 -0.27427555335E+02 -0.33622410180E+02  0.47787273508E+02  0.20000011231E+02 0.  0.
         12    1    1    2    0    0  0.94117060932E+00  0.27427555335E+02  0.33622410180E+02  0.43400726492E+02  0.00000000000E+00 0. -1.
         11    1    3    3    0    0  0.11174808551E+01 -0.15444218964E+02 -0.69924434022E+01  0.16990200936E+02  0.51100000000E-03 0. -1.
        -11    1    3    3    0    0 -0.55975972964E+01 -0.56318293556E+01 -0.11082933014E+02  0.13633854989E+02  0.51100000000E-03 0.  1.
         12    1    3    3    0    0  0.35389458320E+01 -0.63515070155E+01 -0.15547033763E+02  0.17163217583E+02  0.00000000000E+00 0. -1.
</event>
<event>
 7    1  0.7470072E-010  0.4778728E+02  0.7816164E-02  0.1312668E+00
        -11   -1    0    0    0    0  0.00000000000E+00  0.00000000000E+00  0.45593999997E+02  0.45594000000E+02  0.51100000000E-03 0. -1.
         11   -1    0    0    0    0 -0.00000000000E+00 -0.00000000000E+00 -0.45593999997E+02  0.45594000000E+02  0.51100000000E-03 0.  1.
    9900012    2    1    2    0    0  0.35952974887E+02 -0.21058675166E+02  0.12146539534E+02  0.47787278513E+02  0.20000034051E+02 0.  0.
        -12    1    1    2    0    0 -0.35952974887E+02  0.21058675166E+02 -0.12146539534E+02  0.43400721487E+02  0.00000000000E+00 0.  1.
         11    1    3    3    0    0  0.22918153064E+02 -0.22009336648E+02  0.84750896215E+01  0.32885859938E+02  0.51100000000E-03 0. -1.
        -11    1    3    3    0    0  0.12852087240E+02 -0.47239493209E+00  0.39208520114E+01  0.13445162109E+02  0.51100000000E-03 0.  1.
         12    1    3    3    0    0  0.18273458379E+00  0.14230564141E+01 -0.24940209912E+00  0.14562564653E+01  0.00000000000E+00 0. -1.
</event>
<event>
 7    1  0.7470072E-010  0.4778727E+02  0.7816164E-02  0.1312668E+00
        -11   -1    0    0    0    0  0.00000000000E+00  0.00000000000E+00  0.45593999997E+02  0.45594000000E+02  0.51100000000E-03 0. -1.
         11   -1    0    0    0    0 -0.00000000000E+00 -0.00000000000E+00 -0.45593999997E+02  0.45594000000E+02  0.51100000000E-03 0.  1.
    9900012    2    1    2    0    0 -0.29334251660E+02 -0.21326069578E+02  0.23839540368E+02  0.47787271330E+02  0.20000001304E+02 0.  0.
         12    1    1    2    0    0  0.29334251660E+02  0.21326069578E+02 -0.23839540368E+02  0.43400728670E+02  0.00000000000E+00 0. -1.
         11    1    3    3    0    0  0.52894664645E+00 -0.16717519271E+01 -0.97714888994E+00  0.20073263996E+01  0.51100000000E-03 0. -1.
        -11    1    3    3    0    0 -0.25820119115E+02 -0.16194729727E+02  0.13620575775E+02  0.33383647296E+02  0.51100000000E-03 0.  1.
        -12    1    3    3    0    0 -0.40430791918E+01 -0.34595879233E+01  0.11196113482E+02  0.12396297635E+02  0.00000000000E+00 0.  1.
</event>
<event>
 7    1  0.7470072E-010  0.4778726E+02  0.7816164E-02  0.1312668E+00
        -11   -1    0    0    0    0  0.00000000000E+00  0.00000000000E+00  0.45593999997E+02  0.45594000000E+02  0.51100000000E-03 0. -1.
         11   -1    0    0    0    0 -0.00000000000E+00 -0.00000000000E+00 -0.45593999997E+02  0.45594000000E+02  0.51100000000E-03 0.  1.
    9900012    2    1    2    0    0 -0.15450118157E+02 -0.18600889375E+02 -0.36040606100E+02  0.47787256635E+02  0.19999934301E+02 0.  0.
         12    1    1    2    0    0  0.15450118157E+02  0.18600889375E+02  0.36040606100E+02  0.43400743365E+02  0.00000000000E+00 0. -1.
         11    1    3    3    0    0  0.38970330160E+01 -0.16047000635E+01 -0.63703637329E+01  0.76382892700E+01  0.51100000000E-03 0. -1.
        -11    1    3    3    0    0 -0.11818260253E+02 -0.71138285858E+01 -0.10633199854E+02  0.17416738269E+02  0.51100000000E-03 0.  1.
         12    1    3    3    0    0 -0.75288909206E+01 -0.98823607256E+01 -0.19037042513E+02  0.22732229095E+02  0.00000000000E+00 0. -1.
</event>
<event>
 7    1  0.7470072E-010  0.4778727E+02  0.7816164E-02  0.1312668E+00
        -11   -1    0    0    0    0  0.00000000000E+00  0.00000000000E+00  0.45593999997E+02  0.45594000000E+02  0.51100000000E-03 0. -1.
         11   -1    0    0    0    0 -0.00000000000E+00 -0.00000000000E+00 -0.45593999997E+02  0.45594000000E+02  0.51100000000E-03 0.  1.
    9900012    2    1    2    0    0  0.13998530166E+02  0.17614112318E+02 -0.37113443704E+02  0.47787268404E+02  0.19999987959E+02 0.  0.
         12    1    1    2    0    0 -0.13998530166E+02 -0.17614112318E+02  0.37113443704E+02  0.43400731596E+02  0.00000000000E+00 0. -1.
         11    1    3    3    0    0  0.43393901239E+01 -0.11991048651E+01 -0.15094387680E+00  0.45045469739E+01  0.51100000000E-03 0. -1.
        -11    1    3    3    0    0  0.53542382620E+01  0.15949599073E+02 -0.23843842073E+02  0.29181953036E+02  0.51100000000E-03 0.  1.
         12    1    3    3    0    0  0.43049017802E+01  0.28636181099E+01 -0.13118657754E+02  0.14100768393E+02  0.00000000000E+00 0. -1.
</event>
<event>
 7    1  0.7470072E-010  0.4778727E+02  0.7816164E-02  0.1312668E+00
        -11   -1    0    0    0    0  0.00000000000E+00  0.00000000000E+00  0.45593999997E+02  0.45594000000E+02  0.51100000000E-03 0.  1.
         11   -1    0    0    0    0 -0.00000000000E+00 -0.00000000000E+00 -0.45593999997E+02  0.45594000000E+02  0.51100000000E-03 0. -1.
    9900012    2    1    2    0    0 -0.27310433934E+02  0.19275241957E+02  0.27680834897E+02  0.47787269882E+02  0.19999994700E+02 0.  0.
        -12    1    1    2    0    0  0.27310433934E+02 -0.19275241957E+02 -0.27680834897E+02  0.43400730118E+02  0.00000000000E+00 0.  1.
         11    1    3    3    0    0 -0.62310399403E+01  0.52516436830E+01  0.14867184654E+01  0.82834746434E+01  0.51100000000E-03 0. -1.
        -11    1    3    3    0    0  0.17392676330E+01 -0.10829143303E+01  0.29889281330E+01  0.36237338467E+01  0.51100000000E-03 0.  1.
        -12    1    3    3    0    0 -0.22818661627E+02  0.15106512604E+02  0.23205188299E+02  0.35880061392E+02  0.00000000000E+00 0.  1.
</event>
<event>
 7    1  0.7470072E-010  0.4778727E+02  0.7816164E-02  0.1312668E+00
        -11   -1    0    0    0    0  0.00000000000E+00  0.00000000000E+00  0.45593999997E+02  0.45594000000E+02  0.51100000000E-03 0. -1.
         11   -1    0    0    0    0 -0.00000000000E+00 -0.00000000000E+00 -0.45593999997E+02  0.45594000000E+02  0.51100000000E-03 0.  1.
    9900012    2    1    2    0    0 -0.23092446349E+02  0.35561678772E+02  0.92590139292E+01  0.47787269426E+02  0.19999992620E+02 0.  0.
        -12    1    1    2    0    0  0.23092446349E+02 -0.35561678772E+02 -0.92590139292E+01  0.43400730574E+02  0.00000000000E+00 0.  1.
         11    1    3    3    0    0 -0.15239935841E+02  0.12934151455E+02  0.75840549710E+01  0.21379097464E+02  0.51100000000E-03 0. -1.
        -11    1    3    3    0    0 -0.71582708122E+01  0.17954215967E+02 -0.32313914025E+01  0.19596851856E+02  0.51100000000E-03 0.  1.
         12    1    3    3    0    0 -0.69423969601E+00  0.46733113502E+01  0.49063503607E+01  0.68113201065E+01  0.00000000000E+00 0. -1.
</event>
<event>
 7    1  0.7470072E-010  0.4778727E+02  0.7816164E-02  0.1312668E+00
        -11   -1    0    0    0    0  0.00000000000E+00  0.00000000000E+00  0.45593999997E+02  0.45594000000E+02  0.51100000000E-03 0. -1.
         11   -1    0    0    0    0 -0.00000000000E+00 -0.00000000000E+00 -0.45593999997E+02  0.45594000000E+02  0.51100000000E-03 0.  1.
    9900012    2    1    2    0    0 -0.31521884595E+00  0.34761011340E+02 -0.25984531404E+02  0.47787272534E+02  0.20000006793E+02 0.  0.
         12    1    1    2    0    0  0.31521884595E+00 -0.34761011340E+02  0.25984531404E+02  0.43400727466E+02  0.00000000000E+00 0. -1.
         11    1    3    3    0    0 -0.29103458577E+00  0.11096786910E+02  0.11881490194E+01  0.11164008206E+02  0.51100000000E-03 0. -1.
        -11    1    3    3    0    0 -0.19987227992E+01  0.12344645443E+02 -0.18014469029E+02  0.21929574975E+02  0.51100000000E-03 0.  1.
         12    1    3    3    0    0  0.19745385390E+01  0.11319578987E+02 -0.91582113942E+01  0.14693689354E+02  0.00000000000E+00 0. -1.
</event>
<event>
 7    1  0.7470072E-010  0.4778728E+02  0.7816164E-02  0.1312668E+00
        -11   -1    0    0    0    0  0.00000000000E+00  0.00000000000E+00  0.45593999997E+02  0.45594000000E+02  0.51100000000E-03 0. -1.
         11   -1    0    0    0    0 -0.00000000000E+00 -0.00000000000E+00 -0.45593999997E+02  0.45594000000E+02  0.51100000000E-03 0.  1.
    9900012    2    1    2    0    0 -0.33098945622E+02 -0.15838034784E+02  0.23178424816E+02  0.47787275075E+02  0.20000018377E+02 0.  0.
        -12    1    1    2    0    0  0.33098945622E+02  0.15838034784E+02 -0.23178424816E+02  0.43400724925E+02  0.00000000000E+00 0.  1.
         11    1    3    3    0    0 -0.12820463585E+02 -0.32554792170E+01  0.15897022144E+02  0.20680371002E+02  0.51100000000E-03 0. -1.
        -11    1    3    3    0    0 -0.12763914514E+02 -0.12906495931E+02  0.28425259573E+01  0.18373217057E+02  0.51100000000E-03 0.  1.
         12    1    3    3    0    0 -0.75145675223E+01  0.32394036460E+00  0.44388767142E+01  0.87336870158E+01  0.00000000000E+00 0. -1.
</event>
<event>
 7    1  0.7470072E-010  0.4778727E+02  0.7816164E-02  0.1312668E+00
        -11   -1    0    0    0    0  0.00000000000E+00  0.00000000000E+00  0.45593999997E+02  0.45594000000E+02  0.51100000000E-03 0. -1.
         11   -1    0    0    0    0 -0.00000000000E+00 -0.00000000000E+00 -0.45593999997E+02  0.45594000000E+02  0.51100000000E-03 0.  1.
    9900012    2    1    2    0    0 -0.23830185288E+01  0.34149860344E+02  0.26678296867E+02  0.47787271175E+02  0.20000000594E+02 0.  0.
        -12    1    1    2    0    0  0.23830185288E+01 -0.34149860344E+02 -0.26678296867E+02  0.43400728825E+02  0.00000000000E+00 0.  1.
         11    1    3    3    0    0  0.51696456675E+01  0.13304196733E+02  0.13982125045E+02  0.19980658349E+02  0.51100000000E-03 0. -1.
        -11    1    3    3    0    0  0.55899787233E-01  0.62670197722E+01 -0.10731765905E+01  0.63584880174E+01  0.51100000000E-03 0.  1.
         12    1    3    3    0    0 -0.76085639835E+01  0.14578643840E+02  0.13769348412E+02  0.21448124808E+02  0.00000000000E+00 0. -1.
</event>
<event>
 7    1  0.7470072E-010  0.4778727E+02  0.7816164E-02  0.1312668E+00
        -11   -1    0    0    0    0  0.00000000000E+00  0.00000000000E+00  0.45593999997E+02  0.45594000000E+02  0.51100000000E-03 0. -1.
         11   -1    0    0    0    0 -0.00000000000E+00 -0.00000000000E+00 -0.45593999997E+02  0.45594000000E+02  0.51100000000E-03 0.  1.
    9900012    2    1    2    0    0  0.23253310776E+02  0.14279111473E+02  0.33749275995E+02  0.47787272855E+02  0.20000008255E+02 0.  0.
        -12    1    1    2    0    0 -0.23253310776E+02 -0.14279111473E+02 -0.33749275995E+02  0.43400727145E+02  0.00000000000E+00 0.  1.
         11    1    3    3    0    0  0.67971961811E+01  0.18229374366E+01  0.12183050465E+02  0.14069530757E+02  0.51100000000E-03 0. -1.
        -11    1    3    3    0    0  0.12001806076E+02  0.15297556056E+02  0.20635805558E+02  0.28353042900E+02  0.51100000000E-03 0.  1.
        -12    1    3    3    0    0  0.44543085186E+01 -0.28413820200E+01  0.93041997231E+00  0.53646991982E+01  0.00000000000E+00 0.  1.
</event>
<event>
 7    1  0.7470072E-010  0.4778727E+02  0.7816164E-02  0.1312668E+00
        -11   -1    0    0    0    0  0.00000000000E+00  0.00000000000E+00  0.45593999997E+02  0.45594000000E+02  0.51100000000E-03 0. -1.
         11   -1    0    0    0    0 -0.00000000000E+00 -0.00000000000E+00 -0.45593999997E+02  0.45594000000E+02  0.51100000000E-03 0.  1.
    9900012    2    1    2    0    0  0.16578962230E+02  0.10203937996E+01  0.40096384516E+02  0.47787271396E+02  0.20000001601E+02 0.  0.
        -12    1    1    2    0    0 -0.16578962230E+02 -0.10203937996E+01 -0.40096384516E+02  0.43400728604E+02  0.00000000000E+00 0.  1.
         11    1    3    3    0    0  0.15395410148E+01  0.22426546332E+01  0.21582420475E+02  0.21753173565E+02  0.51100000000E-03 0. -1.
        -11    1    3    3    0    0  0.10092338788E+02  0.27598143709E+01  0.61551375692E+01  0.12139093719E+02  0.51100000000E-03 0.  1.
         12    1    3    3    0    0  0.49470824275E+01 -0.39820752045E+01  0.12358826472E+02  0.13895004111E+02  0.00000000000E+00 0. -1.
</event>
<event>
 7    1  0.7470072E-010  0.4778727E+02  0.7816164E-02  0.1312668E+00
        -11   -1    0    0    0    0  0.00000000000E+00  0.00000000000E+00  0.45593999997E+02  0.45594000000E+02  0.51100000000E-03 0. -1.
         11   -1    0    0    0    0 -0.00000000000E+00 -0.00000000000E+00 -0.45593999997E+02  0.45594000000E+02  0.51100000000E-03 0.  1.
    9900012    2    1    2    0    0  0.24653051107E+02 -0.14500687797E+02  0.32643230755E+02  0.47787269711E+02  0.19999993920E+02 0.  0.
        -12    1    1    2    0    0 -0.24653051107E+02  0.14500687797E+02 -0.32643230755E+02  0.43400730289E+02  0.00000000000E+00 0.  1.
         11    1    3    3    0    0 -0.21442228649E+01 -0.19288274078E+01 -0.39695700056E+00  0.29112955852E+01  0.51100000000E-03 0. -1.
        -11    1    3    3    0    0  0.13212011849E+02 -0.43713423028E+01  0.11112470953E+02  0.17808787201E+02  0.51100000000E-03 0.  1.
         12    1    3    3    0    0  0.13585262123E+02 -0.82005180861E+01  0.21927716803E+02  0.27067186925E+02  0.00000000000E+00 0. -1.
</event>
<event>
 7    1  0.7470072E-010  0.4778728E+02  0.7816164E-02  0.1312668E+00
        -11   -1    0    0    0    0  0.00000000000E+00  0.00000000000E+00  0.45593999997E+02  0.45594000000E+02  0.51100000000E-03 0. -1.
         11   -1    0    0    0    0 -0.00000000000E+00 -0.00000000000E+00 -0.45593999997E+02  0.45594000000E+02  0.51100000000E-03 0.  1.
    9900012    2    1    2    0    0  0.10223099316E+02 -0.14532621094E+02  0.39596892473E+02  0.47787277322E+02  0.20000028622E+02 0.  0.
        -12    1    1    2    0    0 -0.10223099316E+02  0.14532621094E+02 -0.39596892473E+02  0.43400722678E+02  0.00000000000E+00 0.  1.
         11    1    3    3    0    0  0.12893964692E+02 -0.15650260189E+02  0.35210932376E+02  0.40632434440E+02  0.51100000000E-03 0. -1.
        -11    1    3    3    0    0 -0.35133326260E+01  0.95972864131E+00  0.49376170503E+01  0.61355234171E+01  0.51100000000E-03 0.  1.
         12    1    3    3    0    0  0.84246724948E+00  0.15791045378E+00 -0.55165695341E+00  0.10193194652E+01  0.00000000000E+00 0. -1.
</event>
<event>
 7    1  0.7470072E-010  0.4778727E+02  0.7816164E-02  0.1312668E+00
        -11   -1    0    0    0    0  0.00000000000E+00  0.00000000000E+00  0.45593999997E+02  0.45594000000E+02  0.51100000000E-03 0. -1.
         11   -1    0    0    0    0 -0.00000000000E+00 -0.00000000000E+00 -0.45593999997E+02  0.45594000000E+02  0.51100000000E-03 0.  1.
    9900012    2    1    2    0    0  0.35049376375E+02  0.24896431738E+02  0.59440905197E+01  0.47787270632E+02  0.19999998118E+02 0.  0.
         12    1    1    2    0    0 -0.35049376375E+02 -0.24896431738E+02 -0.59440905197E+01  0.43400729368E+02  0.00000000000E+00 0. -1.
         11    1    3    3    0    0  0.20205925514E+02  0.10601253824E+02  0.24670304318E+01  0.22951083807E+02  0.51100000000E-03 0. -1.
        -11    1    3    3    0    0  0.14123459859E+02  0.87113254792E+01  0.71977492802E+01  0.18087755664E+02  0.51100000000E-03 0.  1.
         12    1    3    3    0    0  0.71999100216E+00  0.55838524350E+01 -0.37206891923E+01  0.67484311603E+01  0.00000000000E+00 0. -1.
</event>
<event>
 7    1  0.7470072E-010  0.4778727E+02  0.7816164E-02  0.1312668E+00
        -11   -1    0    0    0    0  0.00000000000E+00  0.00000000000E+00  0.45593999997E+02  0.45594000000E+02  0.51100000000E-03 0. -1.
         11   -1    0    0    0    0 -0.00000000000E+00 -0.00000000000E+00 -0.45593999997E+02  0.45594000000E+02  0.51100000000E-03 0.  1.
    9900012    2    1    2    0    0 -0.14213929760E+02 -0.19022017985E+02 -0.36328371340E+02  0.47787268075E+02  0.19999986459E+02 0.  0.
         12    1    1    2    0    0  0.14213929760E+02  0.19022017985E+02  0.36328371340E+02  0.43400731925E+02  0.00000000000E+00 0. -1.
         11    1    3    3    0    0 -0.10917237270E+02 -0.19940171917E+02 -0.21036872201E+02  0.30973319453E+02  0.51100000000E-03 0. -1.
        -11    1    3    3    0    0 -0.26791572852E+01  0.34820634655E+00 -0.15663608428E+02  0.15894897315E+02  0.51100000000E-03 0.  1.
        -12    1    3    3    0    0 -0.61753520451E+00  0.56994758580E+00  0.37210928901E+00  0.91905130560E+00  0.00000000000E+00 0.  1.
</event>
<event>
 7    1  0.7470072E-010  0.4778728E+02  0.7816164E-02  0.1312668E+00
        -11   -1    0    0    0    0  0.00000000000E+00  0.00000000000E+00  0.45593999997E+02  0.45594000000E+02  0.51100000000E-03 0. -1.
         11   -1    0    0    0    0 -0.00000000000E+00 -0.00000000000E+00 -0.45593999997E+02  0.45594000000E+02  0.51100000000E-03 0.  1.
    9900012    2    1    2    0    0  0.23537654147E+02  0.76559560071E+01 -0.35650918335E+02  0.47787276466E+02  0.20000024719E+02 0.  0.
         12    1    1    2    0    0 -0.23537654147E+02 -0.76559560071E+01  0.35650918335E+02  0.43400723534E+02  0.00000000000E+00 0. -1.
         11    1    3    3    0    0 -0.97311489406E+00  0.34564592347E+01 -0.87867838518E+01  0.94921880384E+01  0.51100000000E-03 0. -1.
        -11    1    3    3    0    0  0.23722674275E+02  0.37628993603E+01 -0.19672539327E+02  0.31047278306E+02  0.51100000000E-03 0.  1.
        -12    1    3    3    0    0  0.78809476583E+00  0.43659741215E+00 -0.71915951570E+01  0.72478101219E+01  0.00000000000E+00 0.  1.
</event>
<event>
 7    1  0.7470072E-010  0.4778727E+02  0.7816164E-02  0.1312668E+00
        -11   -1    0    0    0    0  0.00000000000E+00  0.00000000000E+00  0.45593999997E+02  0.45594000000E+02  0.51100000000E-03 0. -1.
         11   -1    0    0    0    0 -0.00000000000E+00 -0.00000000000E+00 -0.45593999997E+02  0.45594000000E+02  0.51100000000E-03 0.  1.
    9900012    2    1    2    0    0  0.35015430328E+02  0.14151002651E+02 -0.21384390372E+02  0.47787269722E+02  0.19999993972E+02 0.  0.
         12    1    1    2    0    0 -0.35015430328E+02 -0.14151002651E+02  0.21384390372E+02  0.43400730278E+02  0.00000000000E+00 0. -1.
         11    1    3    3    0    0  0.91320132809E+01 -0.36196588084E+01 -0.31734828426E+01  0.10323109515E+02  0.51100000000E-03 0. -1.
        -11    1    3    3    0    0  0.22744286689E+02  0.12633268991E+02 -0.11491653591E+02  0.28442225034E+02  0.51100000000E-03 0.  1.
         12    1    3    3    0    0  0.31391303584E+01  0.51373924681E+01 -0.67192539383E+01  0.90219351730E+01  0.00000000000E+00 0. -1.
</event>
<event>
 7    1  0.7470072E-010  0.4778727E+02  0.7816164E-02  0.1312668E+00
        -11   -1    0    0    0    0  0.00000000000E+00  0.00000000000E+00  0.45593999997E+02  0.45594000000E+02  0.51100000000E-03 0. -1.
         11   -1    0    0    0    0 -0.00000000000E+00 -0.00000000000E+00 -0.45593999997E+02  0.45594000000E+02  0.51100000000E-03 0.  1.
    9900012    2    1    2    0    0  0.35431388259E+02 -0.21211748649E+02 -0.13352974446E+02  0.47787268655E+02  0.19999989106E+02 0.  0.
         12    1    1    2    0    0 -0.35431388259E+02  0.21211748649E+02  0.13352974446E+02  0.43400731345E+02  0.00000000000E+00 0. -1.
         11    1    3    3    0    0  0.55054382180E+01 -0.32984236033E+01  0.27676894862E+01  0.69892455668E+01  0.51100000000E-03 0. -1.
        -11    1    3    3    0    0  0.25331686200E+02 -0.81188009446E+01 -0.12483619452E+02  0.29384519894E+02  0.51100000000E-03 0.  1.
        -12    1    3    3    0    0  0.45942638405E+01 -0.97945241016E+01 -0.36370444799E+01  0.11413503194E+02  0.00000000000E+00 0.  1.
</event>
<event>
 7    1  0.7470072E-010  0.4778727E+02  0.7816164E-02  0.1312668E+00
        -11   -1    0    0    0    0  0.00000000000E+00  0.00000000000E+00  0.45593999997E+02  0.45594000000E+02  0.51100000000E-03 0.  1.
         11   -1    0    0    0    0 -0.00000000000E+00 -0.00000000000E+00 -0.45593999997E+02  0.45594000000E+02  0.51100000000E-03 0. -1.
    9900012    2    1    2    0    0 -0.37455524230E+02 -0.20309839131E+02  0.82593927855E+01  0.47787269245E+02  0.19999991798E+02 0.  0.
        -12    1    1    2    0    0  0.37455524230E+02  0.20309839131E+02 -0.82593927855E+01  0.43400730755E+02  0.00000000000E+00 0.  1.
         11    1    3    3    0    0 -0.16142722136E+02 -0.24648526879E+01  0.57307622530E+01  0.17306201576E+02  0.51100000000E-03 0. -1.
        -11    1    3    3    0    0 -0.70166489329E+01 -0.12567337595E+02 -0.21197012043E+01  0.14548693066E+02  0.51100000000E-03 0.  1.
        -12    1    3    3    0    0 -0.14296153161E+02 -0.52776488479E+01  0.46483317368E+01  0.15932374604E+02  0.00000000000E+00 0.  1.
</event>
<event>
 7    1  0.7470072E-010  0.4778727E+02  0.7816164E-02  0.1312668E+00
        -11   -1    0    0    0    0  0.00000000000E+00  0.00000000000E+00  0.45593999997E+02  0.45594000000E+02  0.51100000000E-03 0. -1.
         11   -1    0    0    0    0 -0.00000000000E+00 -0.00000000000E+00 -0.45593999997E+02  0.45594000000E+02  0.51100000000E-03 0.  1.
    9900012    2    1    2    0    0  0.10967026496E+02 -0.12582091785E+02  0.40062933851E+02  0.47787269907E+02  0.19999994814E+02 0.  0.
        -12    1    1    2    0    0 -0.10967026496E+02  0.12582091785E+02 -0.40062933851E+02  0.43400730093E+02  0.00000000000E+00 0.  1.
         11    1    3    3    0    0  0.96115240311E+00 -0.16999605027E+01  0.19238625282E+02  0.19337486462E+02  0.51100000000E-03 0. -1.
        -11    1    3    3    0    0  0.12986597885E+02 -0.81264785723E+01  0.16721527243E+02  0.22678202138E+02  0.51100000000E-03 0.  1.
        -12    1    3    3    0    0 -0.29807237918E+01 -0.27556527097E+01  0.41027813260E+01  0.57715813074E+01  0.00000000000E+00 0.  1.
</event>
<event>
 7    1  0.7470072E-010  0.4778727E+02  0.7816164E-02  0.1312668E+00
        -11   -1    0    0    0    0  0.00000000000E+00  0.00000000000E+00  0.45593999997E+02  0.45594000000E+02  0.51100000000E-03 0. -1.
         11   -1    0    0    0    0 -0.00000000000E+00 -0.00000000000E+00 -0.45593999997E+02  0.45594000000E+02  0.51100000000E-03 0.  1.
    9900012    2    1    2    0    0  0.83964977908E+01  0.20837065534E+02 -0.37134067361E+02  0.47787269199E+02  0.19999991588E+02 0.  0.
         12    1    1    2    0    0 -0.83964977908E+01 -0.20837065534E+02  0.37134067361E+02  0.43400730801E+02  0.00000000000E+00 0. -1.
         11    1    3    3    0    0 -0.23758032271E+01  0.15971425532E+01 -0.15304432168E+01  0.32461611189E+01  0.51100000000E-03 0. -1.
        -11    1    3    3    0    0  0.14285397949E+02  0.17055763488E+02 -0.26928411307E+02  0.34930087296E+02  0.51100000000E-03 0.  1.
        -12    1    3    3    0    0 -0.35130969316E+01  0.21841594929E+01 -0.86752128372E+01  0.96110207841E+01  0.00000000000E+00 0.  1.
</event>
<event>
 7    1  0.7470072E-010  0.4778727E+02  0.7816164E-02  0.1312668E+00
        -11   -1    0    0    0    0  0.00000000000E+00  0.00000000000E+00  0.45593999997E+02  0.45594000000E+02  0.51100000000E-03 0. -1.
         11   -1    0    0    0    0 -0.00000000000E+00 -0.00000000000E+00 -0.45593999997E+02  0.45594000000E+02  0.51100000000E-03 0.  1.
    9900012    2    1    2    0    0 -0.11063456141E+02  0.35629988706E+02 -0.22174925797E+02  0.47787268542E+02  0.19999988593E+02 0.  0.
         12    1    1    2    0    0  0.11063456141E+02 -0.35629988706E+02  0.22174925797E+02  0.43400731458E+02  0.00000000000E+00 0. -1.
         11    1    3    3    0    0 -0.71642464974E+01  0.24676147403E+02 -0.52600950005E+01  0.26227986545E+02  0.51100000000E-03 0. -1.
        -11    1    3    3    0    0 -0.14222438059E+01  0.10193830165E+02 -0.15503137002E+02  0.18608713229E+02  0.51100000000E-03 0.  1.
        -12    1    3    3    0    0 -0.24769658377E+01  0.76001113809E+00 -0.14116937951E+01  0.29505687693E+01  0.00000000000E+00 0.  1.
</event>
<event>
 7    1  0.7470072E-010  0.4778727E+02  0.7816164E-02  0.1312668E+00
        -11   -1    0    0    0    0  0.00000000000E+00  0.00000000000E+00  0.45593999997E+02  0.45594000000E+02  0.51100000000E-03 0.  1.
         11   -1    0    0    0    0 -0.00000000000E+00 -0.00000000000E+00 -0.45593999997E+02  0.45594000000E+02  0.51100000000E-03 0. -1.
    9900012    2    1    2    0    0  0.37993949437E+02  0.16493803906E+02  0.12962922504E+02  0.47787272806E+02  0.20000008031E+02 0.  0.
        -12    1    1    2    0    0 -0.37993949437E+02 -0.16493803906E+02 -0.12962922504E+02  0.43400727194E+02  0.00000000000E+00 0.  1.
         11    1    3    3    0    0  0.35153270421E+02  0.19985362871E+02  0.14538814016E+02  0.42971435438E+02  0.51100000000E-03 0. -1.
        -11    1    3    3    0    0  0.22699904308E+01 -0.23113575936E+01 -0.11057140725E+01  0.34231322429E+01  0.51100000000E-03 0.  1.
         12    1    3    3    0    0  0.57068858587E+00 -0.11802013716E+01 -0.47017743965E+00  0.13927051247E+01  0.00000000000E+00 0. -1.
</event>
<event>
 7    1  0.7470072E-010  0.4778726E+02  0.7816164E-02  0.1312668E+00
        -11   -1    0    0    0    0  0.00000000000E+00  0.00000000000E+00  0.45593999997E+02  0.45594000000E+02  0.51100000000E-03 0. -1.
         11   -1    0    0    0    0 -0.00000000000E+00 -0.00000000000E+00 -0.45593999997E+02  0.45594000000E+02  0.51100000000E-03 0.  1.
    9900012    2    1    2    0    0 -0.10677537726E+02 -0.15807271661E+02 -0.38983896507E+02  0.47787264567E+02  0.19999970466E+02 0.  0.
         12    1    1    2    0    0  0.10677537726E+02  0.15807271661E+02  0.38983896507E+02  0.43400735433E+02  0.00000000000E+00 0. -1.
         11    1    3    3    0    0 -0.90233511409E+01 -0.47505165412E+01 -0.19421391248E+02  0.21935786093E+02  0.51100000000E-03 0. -1.
        -11    1    3    3    0    0  0.51172432510E+01 -0.26547298026E+01 -0.94088086048E+01  0.11034466387E+02  0.51100000000E-03 0.  1.
        -12    1    3    3    0    0 -0.67714298360E+01 -0.84020253173E+01 -0.10153696654E+02  0.14817012088E+02  0.00000000000E+00 0.  1.
</event>
<event>
 7    1  0.7470072E-010  0.4778727E+02  0.7816164E-02  0.1312668E+00
        -11   -1    0    0    0    0  0.00000000000E+00  0.00000000000E+00  0.45593999997E+02  0.45594000000E+02  0.51100000000E-03 0. -1.
         11   -1    0    0    0    0 -0.00000000000E+00 -0.00000000000E+00 -0.45593999997E+02  0.45594000000E+02  0.51100000000E-03 0.  1.
    9900012    2    1    2    0    0  0.27970180767E+02  0.27605396921E+02  0.18418320124E+02  0.47787268814E+02  0.19999989831E+02 0.  0.
        -12    1    1    2    0    0 -0.27970180767E+02 -0.27605396921E+02 -0.18418320124E+02  0.43400731186E+02  0.00000000000E+00 0.  1.
         11    1    3    3    0    0  0.11959588433E+02  0.21175732484E+02  0.12879491953E+02  0.27519533335E+02  0.51100000000E-03 0. -1.
        -11    1    3    3    0    0  0.90330764638E+01  0.67770954533E+01 -0.94763501632E-01  0.11293116203E+02  0.51100000000E-03 0.  1.
         12    1    3    3    0    0  0.69775158699E+01 -0.34743101701E+00  0.56335916724E+01  0.89746192765E+01  0.00000000000E+00 0. -1.
</event>
<event>
 7    1  0.7470072E-010  0.4778724E+02  0.7816164E-02  0.1312668E+00
        -11   -1    0    0    0    0  0.00000000000E+00  0.00000000000E+00  0.45593999997E+02  0.45594000000E+02  0.51100000000E-03 0. -1.
         11   -1    0    0    0    0 -0.00000000000E+00 -0.00000000000E+00 -0.45593999997E+02  0.45594000000E+02  0.51100000000E-03 0.  1.
    9900012    2    1    2    0    0  0.25814871210E+02  0.90408007039E+01  0.33696918174E+02  0.47787240244E+02  0.19999859569E+02 0.  0.
        -12    1    1    2    0    0 -0.25814871210E+02 -0.90408007039E+01 -0.33696918174E+02  0.43400759756E+02  0.00000000000E+00 0.  1.
         11    1    3    3    0    0  0.64681963166E+01  0.36902284436E+01  0.35076790715E+01  0.82315953670E+01  0.51100000000E-03 0. -1.
        -11    1    3    3    0    0 -0.23550522606E+01  0.11094524091E+01  0.72084440182E+01  0.76641256006E+01  0.51100000000E-03 0.  1.
        -12    1    3    3    0    0  0.21701727154E+02  0.42411198511E+01  0.22980795084E+02  0.31891519277E+02  0.00000000000E+00 0.  1.
</event>
<event>
 7    1  0.7470072E-010  0.4778727E+02  0.7816164E-02  0.1312668E+00
        -11   -1    0    0    0    0  0.00000000000E+00  0.00000000000E+00  0.45593999997E+02  0.45594000000E+02  0.51100000000E-03 0.  1.
         11   -1    0    0    0    0 -0.00000000000E+00 -0.00000000000E+00 -0.45593999997E+02  0.45594000000E+02  0.51100000000E-03 0. -1.
    9900012    2    1    2    0    0  0.41116897998E+02  0.13655742723E+02 -0.25582055333E+01  0.47787273902E+02  0.20000013029E+02 0.  0.
         12    1    1    2    0    0 -0.41116897998E+02 -0.13655742723E+02  0.25582055333E+01  0.43400726098E+02  0.00000000000E+00 0. -1.
         11    1    3    3    0    0  0.14412614158E+02  0.77145022838E+01 -0.14171173454E+00  0.16347999108E+02  0.51100000000E-03 0. -1.
        -11    1    3    3    0    0  0.22900143341E+02  0.71691931723E+01  0.35501725792E+01  0.24257320985E+02  0.51100000000E-03 0.  1.
        -12    1    3    3    0    0  0.38041404986E+01 -0.12279527328E+01 -0.59666663780E+01  0.71819538089E+01  0.00000000000E+00 0.  1.
</event>
<event>
 7    1  0.7470072E-010  0.4778727E+02  0.7816164E-02  0.1312668E+00
        -11   -1    0    0    0    0  0.00000000000E+00  0.00000000000E+00  0.45593999997E+02  0.45594000000E+02  0.51100000000E-03 0. -1.
         11   -1    0    0    0    0 -0.00000000000E+00 -0.00000000000E+00 -0.45593999997E+02  0.45594000000E+02  0.51100000000E-03 0.  1.
    9900012    2    1    2    0    0  0.10692463278E+02 -0.57882952639E+01  0.41662810958E+02  0.47787274777E+02  0.20000017018E+02 0.  0.
        -12    1    1    2    0    0 -0.10692463278E+02  0.57882952639E+01 -0.41662810958E+02  0.43400725223E+02  0.00000000000E+00 0.  1.
         11    1    3    3    0    0  0.32838396300E+01 -0.12095826809E+01  0.18593112732E+02  0.18919580712E+02  0.51100000000E-03 0. -1.
        -11    1    3    3    0    0  0.39002092633E+01  0.54619270236E+01  0.85659533532E+01  0.10882087861E+02  0.51100000000E-03 0.  1.
        -12    1    3    3    0    0  0.35084143845E+01 -0.10040639607E+02  0.14503744872E+02  0.17985606204E+02  0.00000000000E+00 0.  1.
</event>
<event>
 7    1  0.7470072E-010  0.4778727E+02  0.7816164E-02  0.1312668E+00
        -11   -1    0    0    0    0  0.00000000000E+00  0.00000000000E+00  0.45593999997E+02  0.45594000000E+02  0.51100000000E-03 0. -1.
         11   -1    0    0    0    0 -0.00000000000E+00 -0.00000000000E+00 -0.45593999997E+02  0.45594000000E+02  0.51100000000E-03 0.  1.
    9900012    2    1    2    0    0 -0.39650117769E+01  0.32247200258E+02 -0.28775340070E+02  0.47787269142E+02  0.19999991327E+02 0.  0.
         12    1    1    2    0    0  0.39650117769E+01 -0.32247200258E+02  0.28775340070E+02  0.43400730858E+02  0.00000000000E+00 0. -1.
         11    1    3    3    0    0 -0.14866547113E+01  0.22728588340E+02 -0.10020199141E+02  0.24883795154E+02  0.51100000000E-03 0. -1.
        -11    1    3    3    0    0 -0.47424025655E+01  0.18083547470E+01 -0.64625175674E+01  0.82173391407E+01  0.51100000000E-03 0.  1.
         12    1    3    3    0    0  0.22640455000E+01  0.77102571712E+01 -0.12292623361E+02  0.14686134848E+02  0.00000000000E+00 0. -1.
</event>
<event>
 7    1  0.7470072E-010  0.4778726E+02  0.7816164E-02  0.1312668E+00
        -11   -1    0    0    0    0  0.00000000000E+00  0.00000000000E+00  0.45593999997E+02  0.45594000000E+02  0.51100000000E-03 0. -1.
         11   -1    0    0    0    0 -0.00000000000E+00 -0.00000000000E+00 -0.45593999997E+02  0.45594000000E+02  0.51100000000E-03 0.  1.
    9900012    2    1    2    0    0 -0.19144638436E+02 -0.21472350400E+02 -0.32496854598E+02  0.47787256097E+02  0.19999931850E+02 0.  0.
         12    1    1    2    0    0  0.19144638436E+02  0.21472350400E+02  0.32496854598E+02  0.43400743903E+02  0.00000000000E+00 0. -1.
         11    1    3    3    0    0  0.23283276878E+01 -0.39284669592E+00 -0.58241816262E+01  0.62846264984E+01  0.51100000000E-03 0. -1.
        -11    1    3    3    0    0 -0.12573704266E+02 -0.15713817642E+02 -0.11705845030E+02  0.23281943904E+02  0.51100000000E-03 0.  1.
        -12    1    3    3    0    0 -0.88992618574E+01 -0.53656860623E+01 -0.14966827942E+02  0.18220685694E+02  0.00000000000E+00 0.  1.
</event>
<event>
 7    1  0.7470072E-010  0.4778727E+02  0.7816164E-02  0.1312668E+00
        -11   -1    0    0    0    0  0.00000000000E+00  0.00000000000E+00  0.45593999997E+02  0.45594000000E+02  0.51100000000E-03 0. -1.
         11   -1    0    0    0    0 -0.00000000000E+00 -0.00000000000E+00 -0.45593999997E+02  0.45594000000E+02  0.51100000000E-03 0.  1.
    9900012    2    1    2    0    0 -0.38743154267E+02 -0.13790465172E+01  0.19511259259E+02  0.47787274088E+02  0.20000013876E+02 0.  0.
        -12    1    1    2    0    0  0.38743154267E+02  0.13790465172E+01 -0.19511259259E+02  0.43400725912E+02  0.00000000000E+00 0.  1.
         11    1    3    3    0    0 -0.24975503984E+02 -0.22563860233E+01  0.49620555100E+01  0.25563432326E+02  0.51100000000E-03 0. -1.
        -11    1    3    3    0    0 -0.54591311983E+01  0.38418715941E+01  0.10671989797E+02  0.12587829728E+02  0.51100000000E-03 0.  1.
        -12    1    3    3    0    0 -0.83085190844E+01 -0.29645320880E+01  0.38772139525E+01  0.96360120335E+01  0.00000000000E+00 0.  1.
</event>
<event>
 7    1  0.7470072E-010  0.4778727E+02  0.7816164E-02  0.1312668E+00
        -11   -1    0    0    0    0  0.00000000000E+00  0.00000000000E+00  0.45593999997E+02  0.45594000000E+02  0.51100000000E-03 0. -1.
         11   -1    0    0    0    0 -0.00000000000E+00 -0.00000000000E+00 -0.45593999997E+02  0.45594000000E+02  0.51100000000E-03 0.  1.
    9900012    2    1    2    0    0  0.43743131919E+01 -0.26605281609E+02  0.34009523262E+02  0.47787270768E+02  0.19999998738E+02 0.  0.
        -12    1    1    2    0    0 -0.43743131919E+01  0.26605281609E+02 -0.34009523262E+02  0.43400729232E+02  0.00000000000E+00 0.  1.
         11    1    3    3    0    0  0.19827077574E+01 -0.24698049819E+02  0.25516791550E+02  0.35567280557E+02  0.51100000000E-03 0. -1.
        -11    1    3    3    0    0  0.28190155324E+01 -0.38333015576E+01  0.15530320482E+01  0.50052930191E+01  0.51100000000E-03 0.  1.
         12    1    3    3    0    0 -0.42741009793E+00  0.19260697682E+01  0.69396996638E+01  0.72146971916E+01  0.00000000000E+00 0. -1.
</event>
<event>
 7    1  0.7470072E-010  0.4778727E+02  0.7816164E-02  0.1312668E+00
        -11   -1    0    0    0    0  0.00000000000E+00  0.00000000000E+00  0.45593999997E+02  0.45594000000E+02  0.51100000000E-03 0.  1.
         11   -1    0    0    0    0 -0.00000000000E+00 -0.00000000000E+00 -0.45593999997E+02  0.45594000000E+02  0.51100000000E-03 0. -1.
    9900012    2    1    2    0    0 -0.38595152194E+02 -0.27809605884E+01  0.19654606215E+02  0.47787273506E+02  0.20000011224E+02 0.  0.
        -12    1    1    2    0    0  0.38595152194E+02  0.27809605884E+01 -0.19654606215E+02  0.43400726494E+02  0.00000000000E+00 0.  1.
         11    1    3    3    0    0 -0.98777898247E+01  0.57827313124E+00  0.14681283023E+02  0.17704383725E+02  0.51100000000E-03 0. -1.
        -11    1    3    3    0    0 -0.10741939226E+02 -0.14457002943E+01 -0.13704871808E+01  0.10925087782E+02  0.51100000000E-03 0.  1.
         12    1    3    3    0    0 -0.17975423144E+02 -0.19135334254E+01  0.63438103736E+01  0.19157801999E+02  0.00000000000E+00 0. -1.
</event>
<event>
 7    1  0.7470072E-010  0.4778726E+02  0.7816164E-02  0.1312668E+00
        -11   -1    0    0    0    0  0.00000000000E+00  0.00000000000E+00  0.45593999997E+02  0.45594000000E+02  0.51100000000E-03 0. -1.
         11   -1    0    0    0    0 -0.00000000000E+00 -0.00000000000E+00 -0.45593999997E+02  0.45594000000E+02  0.51100000000E-03 0.  1.
    9900012    2    1    2    0    0 -0.28104373574E+02 -0.20032097046E+02 -0.26315078031E+02  0.47787262013E+02  0.19999958820E+02 0.  0.
         12    1    1    2    0    0  0.28104373574E+02  0.20032097046E+02  0.26315078031E+02  0.43400737987E+02  0.00000000000E+00 0. -1.
         11    1    3    3    0    0 -0.80380755956E+01 -0.14124719227E+02 -0.45410996603E+01  0.16874238914E+02  0.51100000000E-03 0. -1.
        -11    1    3    3    0    0 -0.68464698112E+01 -0.27415671321E+01 -0.35699576279E+01  0.81935912116E+01  0.51100000000E-03 0.  1.
         12    1    3    3    0    0 -0.13219828168E+02 -0.31658106869E+01 -0.18204020743E+02  0.22719431887E+02  0.00000000000E+00 0. -1.
</event>
<event>
 7    1  0.7470072E-010  0.4778728E+02  0.7816164E-02  0.1312668E+00
        -11   -1    0    0    0    0  0.00000000000E+00  0.00000000000E+00  0.45593999997E+02  0.45594000000E+02  0.51100000000E-03 0. -1.
         11   -1    0    0    0    0 -0.00000000000E+00 -0.00000000000E+00 -0.45593999997E+02  0.45594000000E+02  0.51100000000E-03 0.  1.
    9900012    2    1    2    0    0  0.29880995657E+02  0.19358214745E+02 -0.24819518015E+02  0.47787275881E+02  0.20000022050E+02 0.  0.
         12    1    1    2    0    0 -0.29880995657E+02 -0.19358214745E+02  0.24819518015E+02  0.43400724119E+02  0.00000000000E+00 0. -1.
         11    1    3    3    0    0  0.27412409165E+01  0.94773697493E+01 -0.38486176502E+00  0.98733508986E+01  0.51100000000E-03 0. -1.
        -11    1    3    3    0    0  0.11705155021E+02  0.30460168910E+01 -0.96069354972E+01  0.15446102514E+02  0.51100000000E-03 0.  1.
         12    1    3    3    0    0  0.15434599720E+02  0.68348281048E+01 -0.14827720753E+02  0.22467822468E+02  0.00000000000E+00 0. -1.
</event>
<event>
 7    1  0.7918492E-010  0.4778727E+02  0.7816164E-02  0.1312668E+00
        -11   -1    0    0    0    0  0.00000000000E+00  0.00000000000E+00  0.45593999997E+02  0.45594000000E+02  0.51100000000E-03 0. -1.
         11   -1    0    0    0    0 -0.00000000000E+00 -0.00000000000E+00 -0.45593999997E+02  0.45594000000E+02  0.51100000000E-03 0.  1.
    9900012    2    1    2    0    0 -0.50922473556E+01 -0.11995961842E+02 -0.41397941433E+02  0.47787266843E+02  0.19999980845E+02 0.  0.
         12    1    1    2    0    0  0.50922473556E+01  0.11995961842E+02  0.41397941433E+02  0.43400733157E+02  0.00000000000E+00 0. -1.
         11    1    3    3    0    0  0.73890635761E+00 -0.12757949455E+01 -0.17224376470E+00  0.14843528974E+01  0.51100000000E-03 0. -1.
        -11    1    3    3    0    0  0.18998686925E+01 -0.99453370427E+01 -0.10406719552E+02  0.14519608880E+02  0.51100000000E-03 0.  1.
        -12    1    3    3    0    0 -0.77310224056E+01 -0.77482985366E+00 -0.30818978117E+02  0.31783305066E+02  0.00000000000E+00 0.  1.
</event>
<event>
 7    1  0.7470072E-010  0.4778728E+02  0.7816164E-02  0.1312668E+00
        -11   -1    0    0    0    0  0.00000000000E+00  0.00000000000E+00  0.45593999997E+02  0.45594000000E+02  0.51100000000E-03 0. -1.
         11   -1    0    0    0    0 -0.00000000000E+00 -0.00000000000E+00 -0.45593999997E+02  0.45594000000E+02  0.51100000000E-03 0.  1.
    9900012    2    1    2    0    0 -0.77679640631E+01 -0.19284809557E+02  0.38096941365E+02  0.47787284722E+02  0.20000062359E+02 0.  0.
        -12    1    1    2    0    0  0.77679640631E+01  0.19284809557E+02 -0.38096941365E+02  0.43400715278E+02  0.00000000000E+00 0.  1.
         11    1    3    3    0    0  0.18363830739E+00 -0.11733470268E+02  0.15187602314E+02  0.19193001638E+02  0.51100000000E-03 0. -1.
        -11    1    3    3    0    0  0.27478102315E+01 -0.43875103098E+01  0.36423972151E+01  0.63299103880E+01  0.51100000000E-03 0.  1.
         12    1    3    3    0    0 -0.10699412602E+02 -0.31638289792E+01  0.19266941835E+02  0.22264372695E+02  0.00000000000E+00 0. -1.
</event>
<event>
 7    1  0.7470072E-010  0.4778727E+02  0.7816164E-02  0.1312668E+00
        -11   -1    0    0    0    0  0.00000000000E+00  0.00000000000E+00  0.45593999997E+02  0.45594000000E+02  0.51100000000E-03 0. -1.
         11   -1    0    0    0    0 -0.00000000000E+00 -0.00000000000E+00 -0.45593999997E+02  0.45594000000E+02  0.51100000000E-03 0.  1.
    9900012    2    1    2    0    0  0.34023342627E+01  0.12442451044E+02  0.41439507021E+02  0.47787271797E+02  0.20000003429E+02 0.  0.
        -12    1    1    2    0    0 -0.34023342627E+01 -0.12442451044E+02 -0.41439507021E+02  0.43400728203E+02  0.00000000000E+00 0.  1.
         11    1    3    3    0    0  0.39584301616E+01  0.15645653608E+02  0.22752054937E+02  0.27894652719E+02  0.51100000000E-03 0. -1.
        -11    1    3    3    0    0  0.27105451178E+01 -0.16757450717E+01  0.96360126437E+01  0.10149281566E+02  0.51100000000E-03 0.  1.
         12    1    3    3    0    0 -0.32666410168E+01 -0.15274574920E+01  0.90514394403E+01  0.97433375115E+01  0.00000000000E+00 0. -1.
</event>
<event>
 7    1  0.7470072E-010  0.4778727E+02  0.7816164E-02  0.1312668E+00
        -11   -1    0    0    0    0  0.00000000000E+00  0.00000000000E+00  0.45593999997E+02  0.45594000000E+02  0.51100000000E-03 0. -1.
         11   -1    0    0    0    0 -0.00000000000E+00 -0.00000000000E+00 -0.45593999997E+02  0.45594000000E+02  0.51100000000E-03 0.  1.
    9900012    2    1    2    0    0 -0.31049662808E+02  0.49202837204E+01 -0.29922112876E+02  0.47787267387E+02  0.19999983325E+02 0.  0.
         12    1    1    2    0    0  0.31049662808E+02 -0.49202837204E+01  0.29922112876E+02  0.43400732613E+02  0.00000000000E+00 0. -1.
         11    1    3    3    0    0 -0.18591511786E+02  0.15551541692E+00 -0.11021140224E+02  0.21613283592E+02  0.51100000000E-03 0. -1.
        -11    1    3    3    0    0 -0.90925081336E+01  0.60021852671E+01 -0.19689126021E+02  0.22502480216E+02  0.51100000000E-03 0.  1.
        -12    1    3    3    0    0 -0.33656428880E+01 -0.12374169637E+01  0.78815336979E+00  0.36715035783E+01  0.00000000000E+00 0.  1.
</event>
<event>
 7    1  0.7470072E-010  0.4778725E+02  0.7816164E-02  0.1312668E+00
        -11   -1    0    0    0    0  0.00000000000E+00  0.00000000000E+00  0.45593999997E+02  0.45594000000E+02  0.51100000000E-03 0. -1.
         11   -1    0    0    0    0 -0.00000000000E+00 -0.00000000000E+00 -0.45593999997E+02  0.45594000000E+02  0.51100000000E-03 0.  1.
    9900012    2    1    2    0    0  0.39447361316E+02 -0.49590176245E+01 -0.17405129753E+02  0.47787254473E+02  0.19999924443E+02 0.  0.
         12    1    1    2    0    0 -0.39447361316E+02  0.49590176245E+01  0.17405129753E+02  0.43400745527E+02  0.00000000000E+00 0. -1.
         11    1    3    3    0    0  0.17087153477E+02  0.36941883441E+00 -0.63619427032E+00  0.17102983004E+02  0.51100000000E-03 0. -1.
        -11    1    3    3    0    0  0.23221012681E+01 -0.51450631233E+01 -0.40957942419E+01  0.69741923959E+01  0.51100000000E-03 0.  1.
        -12    1    3    3    0    0  0.20038106571E+02 -0.18337333557E+00 -0.12673141241E+02  0.23710079073E+02  0.00000000000E+00 0.  1.
</event>
<event>
 7    1  0.7470072E-010  0.4778727E+02  0.7816164E-02  0.1312668E+00
        -11   -1    0    0    0    0  0.00000000000E+00  0.00000000000E+00  0.45593999997E+02  0.45594000000E+02  0.51100000000E-03 0. -1.
         11   -1    0    0    0    0 -0.00000000000E+00 -0.00000000000E+00 -0.45593999997E+02  0.45594000000E+02  0.51100000000E-03 0.  1.
    9900012    2    1    2    0    0  0.30085946618E+02 -0.14212935717E+02 -0.27864880594E+02  0.47787270788E+02  0.19999998831E+02 0.  0.
         12    1    1    2    0    0 -0.30085946618E+02  0.14212935717E+02  0.27864880594E+02  0.43400729212E+02  0.00000000000E+00 0. -1.
         11    1    3    3    0    0  0.12322254242E+02 -0.35709182254E+01 -0.15345986442E+02  0.20002217545E+02  0.51100000000E-03 0. -1.
        -11    1    3    3    0    0  0.50872771089E+01 -0.93646383255E+01 -0.11672643110E+01  0.10720976895E+02  0.51100000000E-03 0.  1.
        -12    1    3    3    0    0  0.12676415267E+02 -0.12773791658E+01 -0.11351629841E+02  0.17064076348E+02  0.00000000000E+00 0.  1.
</event>
<event>
 7    1  0.7470072E-010  0.4778727E+02  0.7816164E-02  0.1312668E+00
        -11   -1    0    0    0    0  0.00000000000E+00  0.00000000000E+00  0.45593999997E+02  0.45594000000E+02  0.51100000000E-03 0.  1.
         11   -1    0    0    0    0 -0.00000000000E+00 -0.00000000000E+00 -0.45593999997E+02  0.45594000000E+02  0.51100000000E-03 0. -1.
    9900012    2    1    2    0    0  0.17431029562E+02 -0.39063042015E+02  0.73390439403E+01  0.47787267184E+02  0.19999982398E+02 0.  0.
        -12    1    1    2    0    0 -0.17431029562E+02  0.39063042015E+02 -0.73390439403E+01  0.43400732816E+02  0.00000000000E+00 0.  1.
         11    1    3    3    0    0  0.32735193707E+01 -0.10500929765E+02  0.48135621657E+01  0.12006491410E+02  0.51100000000E-03 0. -1.
        -11    1    3    3    0    0  0.15529271836E+02 -0.29916409278E+02  0.19249435522E+01  0.33761742191E+02  0.51100000000E-03 0.  1.
        -12    1    3    3    0    0 -0.13717616451E+01  0.13542970281E+01  0.60053822249E+00  0.20190335827E+01  0.00000000000E+00 0.  1.
</event>
<event>
 7    1  0.7470072E-010  0.4778727E+02  0.7816164E-02  0.1312668E+00
        -11   -1    0    0    0    0  0.00000000000E+00  0.00000000000E+00  0.45593999997E+02  0.45594000000E+02  0.51100000000E-03 0.  1.
         11   -1    0    0    0    0 -0.00000000000E+00 -0.00000000000E+00 -0.45593999997E+02  0.45594000000E+02  0.51100000000E-03 0. -1.
    9900012    2    1    2    0    0  0.13783778512E+02  0.36396137883E+02 -0.19208120646E+02  0.47787270725E+02  0.19999998544E+02 0.  0.
         12    1    1    2    0    0 -0.13783778512E+02 -0.36396137883E+02  0.19208120646E+02  0.43400729275E+02  0.00000000000E+00 0. -1.
         11    1    3    3    0    0 -0.26894447810E+01  0.60630894545E+01 -0.28176812267E+01  0.72064897641E+01  0.51100000000E-03 0. -1.
        -11    1    3    3    0    0  0.10301210168E+02  0.10788790523E+02 -0.13040192699E+02  0.19813115801E+02  0.51100000000E-03 0.  1.
        -12    1    3    3    0    0  0.61720131250E+01  0.19544257906E+02 -0.33502467201E+01  0.20767665160E+02  0.00000000000E+00 0.  1.
</event>
<event>
 7    1  0.7470072E-010  0.4778727E+02  0.7816164E-02  0.1312668E+00
        -11   -1    0    0    0    0  0.00000000000E+00  0.00000000000E+00  0.45593999997E+02  0.45594000000E+02  0.51100000000E-03 0.  1.
         11   -1    0    0    0    0 -0.00000000000E+00 -0.00000000000E+00 -0.45593999997E+02  0.45594000000E+02  0.51100000000E-03 0. -1.
    9900012    2    1    2    0    0 -0.49498996466E+01 -0.43033967438E+02  0.26831298037E+01  0.47787273675E+02  0.20000011993E+02 0.  0.
        -12    1    1    2    0    0  0.49498996466E+01  0.43033967438E+02 -0.26831298037E+01  0.43400726325E+02  0.00000000000E+00 0.  1.
         11    1    3    3    0    0 -0.38099799148E-01 -0.34733262050E+02  0.10483061283E+01  0.34749099128E+02  0.51100000000E-03 0. -1.
        -11    1    3    3    0    0  0.94149390526E-01 -0.22892633112E+01 -0.31296020066E+01  0.38786595103E+01  0.51100000000E-03 0.  1.
         12    1    3    3    0    0 -0.50059492380E+01 -0.60114420774E+01  0.47644256820E+01  0.91595150364E+01  0.00000000000E+00 0. -1.
</event>
<event>
 7    1  0.7470072E-010  0.4778727E+02  0.7816164E-02  0.1312668E+00
        -11   -1    0    0    0    0  0.00000000000E+00  0.00000000000E+00  0.45593999997E+02  0.45594000000E+02  0.51100000000E-03 0. -1.
         11   -1    0    0    0    0 -0.00000000000E+00 -0.00000000000E+00 -0.45593999997E+02  0.45594000000E+02  0.51100000000E-03 0.  1.
    9900012    2    1    2    0    0 -0.33750581020E+02 -0.55141473143E+01  0.26722945905E+02  0.47787269849E+02  0.19999994550E+02 0.  0.
        -12    1    1    2    0    0  0.33750581020E+02  0.55141473143E+01 -0.26722945905E+02  0.43400730151E+02  0.00000000000E+00 0.  1.
         11    1    3    3    0    0 -0.12078136762E+02 -0.20491012642E+01  0.13187374954E+02  0.17999640609E+02  0.51100000000E-03 0. -1.
        -11    1    3    3    0    0 -0.15447684950E+02 -0.84937057045E+01  0.55480787371E+01  0.18481211671E+02  0.51100000000E-03 0.  1.
        -12    1    3    3    0    0 -0.62247593081E+01  0.50286596544E+01  0.79874922144E+01  0.11306417569E+02  0.00000000000E+00 0.  1.
</event>
<event>
 7    1  0.7470072E-010  0.4778726E+02  0.7816164E-02  0.1312668E+00
        -11   -1    0    0    0    0  0.00000000000E+00  0.00000000000E+00  0.45593999997E+02  0.45594000000E+02  0.51100000000E-03 0. -1.
         11   -1    0    0    0    0 -0.00000000000E+00 -0.00000000000E+00 -0.45593999997E+02  0.45594000000E+02  0.51100000000E-03 0.  1.
    9900012    2    1    2    0    0 -0.27121082492E+02  0.27724614463E+02 -0.19478615747E+02  0.47787264591E+02  0.19999970575E+02 0.  0.
         12    1    1    2    0    0  0.27121082492E+02 -0.27724614463E+02  0.19478615747E+02  0.43400735409E+02  0.00000000000E+00 0. -1.
         11    1    3    3    0    0 -0.15931622459E+02  0.33468071075E+01 -0.53761399970E+01  0.17144112504E+02  0.51100000000E-03 0. -1.
        -11    1    3    3    0    0 -0.86942058828E+01  0.17177356381E+02 -0.12187584219E+02  0.22785697214E+02  0.51100000000E-03 0.  1.
         12    1    3    3    0    0 -0.24952541497E+01  0.72004509748E+01 -0.19148915312E+01  0.78574548735E+01  0.00000000000E+00 0. -1.
</event>
<event>
 7    1  0.7470072E-010  0.4778727E+02  0.7816164E-02  0.1312668E+00
        -11   -1    0    0    0    0  0.00000000000E+00  0.00000000000E+00  0.45593999997E+02  0.45594000000E+02  0.51100000000E-03 0. -1.
         11   -1    0    0    0    0 -0.00000000000E+00 -0.00000000000E+00 -0.45593999997E+02  0.45594000000E+02  0.51100000000E-03 0.  1.
    9900012    2    1    2    0    0 -0.15558127600E+02 -0.14060161770E+02  0.37998416767E+02  0.47787272354E+02  0.20000005972E+02 0.  0.
        -12    1    1    2    0    0  0.15558127600E+02  0.14060161770E+02 -0.37998416767E+02  0.43400727646E+02  0.00000000000E+00 0.  1.
         11    1    3    3    0    0 -0.21451830073E+01 -0.27458792953E+01  0.30772054988E+01  0.46487479155E+01  0.51100000000E-03 0. -1.
        -11    1    3    3    0    0 -0.13970195238E+02 -0.15461373488E+02  0.26292060025E+02  0.33548365768E+02  0.51100000000E-03 0.  1.
        -12    1    3    3    0    0  0.55725064518E+00  0.41470910129E+01  0.86291512430E+01  0.95901586705E+01  0.00000000000E+00 0.  1.
</event>
<event>
 7    1  0.7470072E-010  0.4778726E+02  0.7816164E-02  0.1312668E+00
        -11   -1    0    0    0    0  0.00000000000E+00  0.00000000000E+00  0.45593999997E+02  0.45594000000E+02  0.51100000000E-03 0.  1.
         11   -1    0    0    0    0 -0.00000000000E+00 -0.00000000000E+00 -0.45593999997E+02  0.45594000000E+02  0.51100000000E-03 0. -1.
    9900012    2    1    2    0    0 -0.14318674710E+02  0.29616247955E+02 -0.28310380618E+02  0.47787259925E+02  0.19999949301E+02 0.  0.
         12    1    1    2    0    0  0.14318674710E+02 -0.29616247955E+02  0.28310380618E+02  0.43400740075E+02  0.00000000000E+00 0. -1.
         11    1    3    3    0    0 -0.88786288737E+01  0.14930910621E+02 -0.16706191588E+02  0.24101016167E+02  0.51100000000E-03 0. -1.
        -11    1    3    3    0    0  0.25119641173E+01  0.11993135902E+02 -0.68305806274E+01  0.14028617340E+02  0.51100000000E-03 0.  1.
        -12    1    3    3    0    0 -0.79520099537E+01  0.26922014319E+01 -0.47736084019E+01  0.96576264179E+01  0.00000000000E+00 0.  1.
</event>
<event>
 7    1  0.7470072E-010  0.4778728E+02  0.7816164E-02  0.1312668E+00
        -11   -1    0    0    0    0  0.00000000000E+00  0.00000000000E+00  0.45593999997E+02  0.45594000000E+02  0.51100000000E-03 0. -1.
         11   -1    0    0    0    0 -0.00000000000E+00 -0.00000000000E+00 -0.45593999997E+02  0.45594000000E+02  0.51100000000E-03 0.  1.
    9900012    2    1    2    0    0 -0.17349669004E+02  0.18512234409E+02 -0.35212333066E+02  0.47787282986E+02  0.20000054448E+02 0.  0.
         12    1    1    2    0    0  0.17349669004E+02 -0.18512234409E+02  0.35212333066E+02  0.43400717014E+02  0.00000000000E+00 0. -1.
         11    1    3    3    0    0 -0.30960397616E+01  0.12855955195E+01 -0.18493639614E+02  0.18795023928E+02  0.51100000000E-03 0. -1.
        -11    1    3    3    0    0 -0.58950850668E+01  0.39824187628E+01 -0.17459798185E+01  0.73253077024E+01  0.51100000000E-03 0.  1.
         12    1    3    3    0    0 -0.83585441751E+01  0.13244220127E+02 -0.14972713634E+02  0.21666951356E+02  0.00000000000E+00 0. -1.
</event>
<event>
 7    1  0.7470072E-010  0.4778727E+02  0.7816164E-02  0.1312668E+00
        -11   -1    0    0    0    0  0.00000000000E+00  0.00000000000E+00  0.45593999997E+02  0.45594000000E+02  0.51100000000E-03 0. -1.
         11   -1    0    0    0    0 -0.00000000000E+00 -0.00000000000E+00 -0.45593999997E+02  0.45594000000E+02  0.51100000000E-03 0.  1.
    9900012    2    1    2    0    0 -0.16146306940E+02 -0.11295345549E+02 -0.38669562862E+02  0.47787272462E+02  0.20000006465E+02 0.  0.
         12    1    1    2    0    0  0.16146306940E+02  0.11295345549E+02  0.38669562862E+02  0.43400727538E+02  0.00000000000E+00 0. -1.
         11    1    3    3    0    0 -0.28898614971E+01  0.35662465989E+01 -0.76275492077E+00  0.46530860305E+01  0.51100000000E-03 0. -1.
        -11    1    3    3    0    0 -0.75612208321E+01 -0.92105941134E+01 -0.27677411538E+02  0.30133805171E+02  0.51100000000E-03 0.  1.
         12    1    3    3    0    0 -0.56952246103E+01 -0.56509980350E+01 -0.10229396403E+02  0.13000381261E+02  0.00000000000E+00 0. -1.
</event>
<event>
 7    1  0.7470072E-010  0.4778727E+02  0.7816164E-02  0.1312668E+00
        -11   -1    0    0    0    0  0.00000000000E+00  0.00000000000E+00  0.45593999997E+02  0.45594000000E+02  0.51100000000E-03 0. -1.
         11   -1    0    0    0    0 -0.00000000000E+00 -0.00000000000E+00 -0.45593999997E+02  0.45594000000E+02  0.51100000000E-03 0.  1.
    9900012    2    1    2    0    0  0.38875593448E+02 -0.18952659752E+02 -0.36204954621E+01  0.47787273451E+02  0.20000010974E+02 0.  0.
         12    1    1    2    0    0 -0.38875593448E+02  0.18952659752E+02  0.36204954621E+01  0.43400726549E+02  0.00000000000E+00 0. -1.
         11    1    3    3    0    0  0.96061577891E+01 -0.15237962390E+01  0.67992020847E+01  0.11867155164E+02  0.51100000000E-03 0. -1.
        -11    1    3    3    0    0  0.22050210837E+02 -0.14309863013E+02 -0.97152220270E+01  0.28024444984E+02  0.51100000000E-03 0.  1.
        -12    1    3    3    0    0  0.72192248217E+01 -0.31190004998E+01 -0.70447551979E+00  0.78956733026E+01  0.00000000000E+00 0.  1.
</event>
<event>
 7    1  0.7470072E-010  0.4778727E+02  0.7816164E-02  0.1312668E+00
        -11   -1    0    0    0    0  0.00000000000E+00  0.00000000000E+00  0.45593999997E+02  0.45594000000E+02  0.51100000000E-03 0. -1.
         11   -1    0    0    0    0 -0.00000000000E+00 -0.00000000000E+00 -0.45593999997E+02  0.45594000000E+02  0.51100000000E-03 0.  1.
    9900012    2    1    2    0    0 -0.23348914837E+02  0.32813625296E+02 -0.16177696567E+02  0.47787266189E+02  0.19999977863E+02 0.  0.
         12    1    1    2    0    0  0.23348914837E+02 -0.32813625296E+02  0.16177696567E+02  0.43400733811E+02  0.00000000000E+00 0. -1.
         11    1    3    3    0    0 -0.68980945274E+01  0.78520401423E+01 -0.32165395652E+01  0.10935463847E+02  0.51100000000E-03 0. -1.
        -11    1    3    3    0    0 -0.13252691090E+02  0.16297987719E+02 -0.85079493603E-01  0.21006319611E+02  0.51100000000E-03 0.  1.
        -12    1    3    3    0    0 -0.31981292201E+01  0.86635974344E+01 -0.12876077508E+02  0.15845482732E+02  0.00000000000E+00 0.  1.
</event>
<event>
 7    1  0.7470072E-010  0.4778727E+02  0.7816164E-02  0.1312668E+00
        -11   -1    0    0    0    0  0.00000000000E+00  0.00000000000E+00  0.45593999997E+02  0.45594000000E+02  0.51100000000E-03 0. -1.
         11   -1    0    0    0    0 -0.00000000000E+00 -0.00000000000E+00 -0.45593999997E+02  0.45594000000E+02  0.51100000000E-03 0.  1.
    9900012    2    1    2    0    0 -0.19763002689E+02  0.98860243288E+01  0.37353894562E+02  0.47787271996E+02  0.20000004339E+02 0.  0.
        -12    1    1    2    0    0  0.19763002689E+02 -0.98860243288E+01 -0.37353894562E+02  0.43400728004E+02  0.00000000000E+00 0.  1.
         11    1    3    3    0    0 -0.64998335621E+01  0.70931215972E+01  0.23138096375E+02  0.25058565691E+02  0.51100000000E-03 0. -1.
        -11    1    3    3    0    0 -0.14453300670E+02 -0.15826785331E+00  0.10679624172E+02  0.17971569817E+02  0.51100000000E-03 0.  1.
        -12    1    3    3    0    0  0.11901315430E+01  0.29511705849E+01  0.35361740144E+01  0.47571364886E+01  0.00000000000E+00 0.  1.
</event>
<event>
 7    1  0.7470072E-010  0.4778723E+02  0.7816164E-02  0.1312668E+00
        -11   -1    0    0    0    0  0.00000000000E+00  0.00000000000E+00  0.45593999997E+02  0.45594000000E+02  0.51100000000E-03 0.  1.
         11   -1    0    0    0    0 -0.00000000000E+00 -0.00000000000E+00 -0.45593999997E+02  0.45594000000E+02  0.51100000000E-03 0. -1.
    9900012    2    1    2    0    0 -0.18857965161E+02 -0.34561951762E+02 -0.18261302619E+02  0.47787233498E+02  0.19999828810E+02 0.  0.
        -12    1    1    2    0    0  0.18857965161E+02  0.34561951762E+02  0.18261302619E+02  0.43400766502E+02  0.00000000000E+00 0.  1.
         11    1    3    3    0    0 -0.64237174786E+00 -0.11269189971E+02 -0.10526106735E+02  0.15433930392E+02  0.51100000000E-03 0.  1.
        -11    1    3    3    0    0 -0.13003718179E+02 -0.81770389576E+01 -0.48301727436E+01  0.16102522212E+02  0.51100000000E-03 0. -1.
        -12    1    3    3    0    0 -0.52118752338E+01 -0.15115722833E+02 -0.29050231404E+01  0.16250780894E+02  0.00000000000E+00 0.  1.
</event>
<event>
 7    1  0.7470072E-010  0.4778727E+02  0.7816164E-02  0.1312668E+00
        -11   -1    0    0    0    0  0.00000000000E+00  0.00000000000E+00  0.45593999997E+02  0.45594000000E+02  0.51100000000E-03 0. -1.
         11   -1    0    0    0    0 -0.00000000000E+00 -0.00000000000E+00 -0.45593999997E+02  0.45594000000E+02  0.51100000000E-03 0.  1.
    9900012    2    1    2    0    0 -0.32365965288E+02 -0.18680557466E+01 -0.28854425154E+02  0.47787271985E+02  0.20000004289E+02 0.  0.
         12    1    1    2    0    0  0.32365965288E+02  0.18680557466E+01  0.28854425154E+02  0.43400728015E+02  0.00000000000E+00 0. -1.
         11    1    3    3    0    0 -0.12116745588E+01 -0.13253494838E+01 -0.21935745288E+00  0.18090949240E+01  0.51100000000E-03 0. -1.
        -11    1    3    3    0    0 -0.30152509318E+02 -0.72759094973E+00 -0.17650130345E+02  0.34946105766E+02  0.51100000000E-03 0.  1.
        -12    1    3    3    0    0 -0.10017814109E+01  0.18488468700E+00 -0.10984937356E+02  0.11032071295E+02  0.00000000000E+00 0.  1.
</event>
<event>
 7    1  0.7470072E-010  0.4778727E+02  0.7816164E-02  0.1312668E+00
        -11   -1    0    0    0    0  0.00000000000E+00  0.00000000000E+00  0.45593999997E+02  0.45594000000E+02  0.51100000000E-03 0. -1.
         11   -1    0    0    0    0 -0.00000000000E+00 -0.00000000000E+00 -0.45593999997E+02  0.45594000000E+02  0.51100000000E-03 0.  1.
    9900012    2    1    2    0    0  0.83847512598E+01 -0.25315143615E+02  0.34241245578E+02  0.47787269031E+02  0.19999990821E+02 0.  0.
        -12    1    1    2    0    0 -0.83847512598E+01  0.25315143615E+02 -0.34241245578E+02  0.43400730969E+02  0.00000000000E+00 0.  1.
         11    1    3    3    0    0 -0.22504563641E+01 -0.89979294725E+00  0.12132868091E+02  0.12372577321E+02  0.51100000000E-03 0. -1.
        -11    1    3    3    0    0  0.34102757623E+01 -0.11165093071E+02  0.52878253594E+01  0.12816020496E+02  0.51100000000E-03 0.  1.
         12    1    3    3    0    0  0.72249318616E+01 -0.13250257596E+02  0.16820552127E+02  0.22598671214E+02  0.00000000000E+00 0. -1.
</event>
<event>
 7    1  0.7470072E-010  0.4778727E+02  0.7816164E-02  0.1312668E+00
        -11   -1    0    0    0    0  0.00000000000E+00  0.00000000000E+00  0.45593999997E+02  0.45594000000E+02  0.51100000000E-03 0. -1.
         11   -1    0    0    0    0 -0.00000000000E+00 -0.00000000000E+00 -0.45593999997E+02  0.45594000000E+02  0.51100000000E-03 0.  1.
    9900012    2    1    2    0    0 -0.35621328361E+02 -0.21774607925E+02  0.11857944340E+02  0.47787269264E+02  0.19999991881E+02 0.  0.
        -12    1    1    2    0    0  0.35621328361E+02  0.21774607925E+02 -0.11857944340E+02  0.43400730736E+02  0.00000000000E+00 0.  1.
         11    1    3    3    0    0 -0.65091744086E+01 -0.10513177804E+02  0.89498384280E+01  0.15264202147E+02  0.51100000000E-03 0. -1.
        -11    1    3    3    0    0 -0.53463185501E+00  0.76472661508E+00  0.11324980342E+01  0.14673752332E+01  0.51100000000E-03 0.  1.
         12    1    3    3    0    0 -0.28577522097E+02 -0.12026156736E+02  0.17756078777E+01  0.31055691884E+02  0.00000000000E+00 0. -1.
</event>
<event>
 7    1  0.7470072E-010  0.4778728E+02  0.7816164E-02  0.1312668E+00
        -11   -1    0    0    0    0  0.00000000000E+00  0.00000000000E+00  0.45593999997E+02  0.45594000000E+02  0.51100000000E-03 0. -1.
         11   -1    0    0    0    0 -0.00000000000E+00 -0.00000000000E+00 -0.45593999997E+02  0.45594000000E+02  0.51100000000E-03 0.  1.
    9900012    2    1    2    0    0 -0.31961443468E+02 -0.26028565270E+02 -0.13586859213E+02  0.47787276252E+02  0.20000023746E+02 0.  0.
         12    1    1    2    0    0  0.31961443468E+02  0.26028565270E+02  0.13586859213E+02  0.43400723748E+02  0.00000000000E+00 0. -1.
         11    1    3    3    0    0 -0.14863483930E+02 -0.21536757373E+01 -0.47024534235E+01  0.15737679060E+02  0.51100000000E-03 0.  1.
        -11    1    3    3    0    0 -0.14920205375E+02 -0.19960625860E+02 -0.10822237247E+02  0.27169098852E+02  0.51100000000E-03 0. -1.
         12    1    3    3    0    0 -0.21777541619E+01 -0.39142636728E+01  0.19378314578E+01  0.48804983402E+01  0.00000000000E+00 0. -1.
</event>
<event>
 7    1  0.7470072E-010  0.4778726E+02  0.7816164E-02  0.1312668E+00
        -11   -1    0    0    0    0  0.00000000000E+00  0.00000000000E+00  0.45593999997E+02  0.45594000000E+02  0.51100000000E-03 0. -1.
         11   -1    0    0    0    0 -0.00000000000E+00 -0.00000000000E+00 -0.45593999997E+02  0.45594000000E+02  0.51100000000E-03 0.  1.
    9900012    2    1    2    0    0  0.25288605351E+02 -0.31347390506E+02 -0.16169458656E+02  0.47787264461E+02  0.19999969981E+02 0.  0.
         12    1    1    2    0    0 -0.25288605351E+02  0.31347390506E+02  0.16169458656E+02  0.43400735539E+02  0.00000000000E+00 0. -1.
         11    1    3    3    0    0  0.14488062900E+02 -0.23515556288E+02 -0.13977726170E+02  0.30955810170E+02  0.51100000000E-03 0.  1.
        -11    1    3    3    0    0  0.54395181764E+00  0.22224146026E+01  0.84405205975E-01  0.22895708650E+01  0.51100000000E-03 0. -1.
         12    1    3    3    0    0  0.10256590634E+02 -0.10054248821E+02 -0.22761376915E+01  0.14541883426E+02  0.00000000000E+00 0. -1.
</event>
<event>
 7    1  0.7630999E-010  0.4778727E+02  0.7816164E-02  0.1312668E+00
        -11   -1    0    0    0    0  0.00000000000E+00  0.00000000000E+00  0.45593999997E+02  0.45594000000E+02  0.51100000000E-03 0. -1.
         11   -1    0    0    0    0 -0.00000000000E+00 -0.00000000000E+00 -0.45593999997E+02  0.45594000000E+02  0.51100000000E-03 0.  1.
    9900012    2    1    2    0    0 -0.29044902970E+02  0.21172426730E+02 -0.24325807752E+02  0.47787274603E+02  0.20000016225E+02 0.  0.
         12    1    1    2    0    0  0.29044902970E+02 -0.21172426730E+02  0.24325807752E+02  0.43400725397E+02  0.00000000000E+00 0. -1.
         11    1    3    3    0    0  0.92007498460E+00 -0.47628201907E+00 -0.34703044382E+01  0.36216564848E+01  0.51100000000E-03 0. -1.
        -11    1    3    3    0    0 -0.14231342158E+02  0.14953407838E+02 -0.59538849817E+01  0.21484511915E+02  0.51100000000E-03 0.  1.
        -12    1    3    3    0    0 -0.15733635797E+02  0.66953009108E+01 -0.14901618332E+02  0.22681106203E+02  0.00000000000E+00 0.  1.
</event>
<event>
 7    1  0.7470072E-010  0.4778727E+02  0.7816164E-02  0.1312668E+00
        -11   -1    0    0    0    0  0.00000000000E+00  0.00000000000E+00  0.45593999997E+02  0.45594000000E+02  0.51100000000E-03 0. -1.
         11   -1    0    0    0    0 -0.00000000000E+00 -0.00000000000E+00 -0.45593999997E+02  0.45594000000E+02  0.51100000000E-03 0.  1.
    9900012    2    1    2    0    0  0.87268987333E+01 -0.44366804208E+01 -0.42282151448E+02  0.47787271599E+02  0.20000002527E+02 0.  0.
         12    1    1    2    0    0 -0.87268987333E+01  0.44366804208E+01  0.42282151448E+02  0.43400728401E+02  0.00000000000E+00 0. -1.
         11    1    3    3    0    0  0.79346358746E+01 -0.87965636952E+01 -0.17918960791E+02  0.21480855090E+02  0.51100000000E-03 0. -1.
        -11    1    3    3    0    0  0.45694613464E+01  0.62695508959E+00 -0.11317616889E+02  0.12221354343E+02  0.51100000000E-03 0.  1.
         12    1    3    3    0    0 -0.37771984878E+01  0.37329281849E+01 -0.13045573769E+02  0.14085062165E+02  0.00000000000E+00 0. -1.
</event>
<event>
 7    1  0.7470072E-010  0.4778728E+02  0.7816164E-02  0.1312668E+00
        -11   -1    0    0    0    0  0.00000000000E+00  0.00000000000E+00  0.45593999997E+02  0.45594000000E+02  0.51100000000E-03 0. -1.
         11   -1    0    0    0    0 -0.00000000000E+00 -0.00000000000E+00 -0.45593999997E+02  0.45594000000E+02  0.51100000000E-03 0.  1.
    9900012    2    1    2    0    0 -0.35163581817E+02  0.17584375557E+02 -0.18383003605E+02  0.47787279136E+02  0.20000036895E+02 0.  0.
         12    1    1    2    0    0  0.35163581817E+02 -0.17584375557E+02  0.18383003605E+02  0.43400720864E+02  0.00000000000E+00 0. -1.
         11    1    3    3    0    0  0.21860516905E+00  0.15660769274E+01  0.16289330817E+00  0.15896287785E+01  0.51100000000E-03 0. -1.
        -11    1    3    3    0    0 -0.88379513879E+01  0.11941194327E+02 -0.10397694220E+02  0.18133216815E+02  0.51100000000E-03 0.  1.
        -12    1    3    3    0    0 -0.26544235598E+02  0.40771043025E+01 -0.81482026933E+01  0.28064433543E+02  0.00000000000E+00 0.  1.
</event>
<event>
 7    1  0.7470072E-010  0.4778727E+02  0.7816164E-02  0.1312668E+00
        -11   -1    0    0    0    0  0.00000000000E+00  0.00000000000E+00  0.45593999997E+02  0.45594000000E+02  0.51100000000E-03 0. -1.
         11   -1    0    0    0    0 -0.00000000000E+00 -0.00000000000E+00 -0.45593999997E+02  0.45594000000E+02  0.51100000000E-03 0.  1.
    9900012    2    1    2    0    0  0.35767888792E+02 -0.23340398545E+02  0.77140867784E+01  0.47787271807E+02  0.20000003476E+02 0.  0.
         12    1    1    2    0    0 -0.35767888792E+02  0.23340398545E+02 -0.77140867784E+01  0.43400728193E+02  0.00000000000E+00 0. -1.
         11    1    3    3    0    0  0.65595982315E+00  0.51954270508E+00  0.45823872387E+00  0.95403925556E+00  0.51100000000E-03 0. -1.
        -11    1    3    3    0    0  0.40230968900E+01 -0.11437086449E+02  0.54860980504E+01  0.13307498905E+02  0.51100000000E-03 0.  1.
        -12    1    3    3    0    0  0.31088832079E+02 -0.12422854801E+02  0.17697500041E+01  0.33525733646E+02  0.00000000000E+00 0.  1.
</event>
<event>
 7    1  0.7470072E-010  0.4778727E+02  0.7816164E-02  0.1312668E+00
        -11   -1    0    0    0    0  0.00000000000E+00  0.00000000000E+00  0.45593999997E+02  0.45594000000E+02  0.51100000000E-03 0. -1.
         11   -1    0    0    0    0 -0.00000000000E+00 -0.00000000000E+00 -0.45593999997E+02  0.45594000000E+02  0.51100000000E-03 0.  1.
    9900012    2    1    2    0    0  0.25612229784E+02 -0.17588802908E+02 -0.30302984659E+02  0.47787272109E+02  0.20000004855E+02 0.  0.
         12    1    1    2    0    0 -0.25612229784E+02  0.17588802908E+02  0.30302984659E+02  0.43400727891E+02  0.00000000000E+00 0. -1.
         11    1    3    3    0    0  0.12401886925E+01  0.18476840428E+01  0.15699512943E+01  0.27233713743E+01  0.51100000000E-03 0. -1.
        -11    1    3    3    0    0  0.12807737464E+02 -0.72353824168E+01 -0.18154320443E+02  0.23365963466E+02  0.51100000000E-03 0.  1.
         12    1    3    3    0    0  0.11564303627E+02 -0.12201104534E+02 -0.13718615510E+02  0.21697937269E+02  0.00000000000E+00 0. -1.
</event>
<event>
 7    1  0.7470072E-010  0.4778727E+02  0.7816164E-02  0.1312668E+00
        -11   -1    0    0    0    0  0.00000000000E+00  0.00000000000E+00  0.45593999997E+02  0.45594000000E+02  0.51100000000E-03 0. -1.
         11   -1    0    0    0    0 -0.00000000000E+00 -0.00000000000E+00 -0.45593999997E+02  0.45594000000E+02  0.51100000000E-03 0.  1.
    9900012    2    1    2    0    0 -0.54202790140E+01  0.27979411983E+02 -0.32732190721E+02  0.47787271562E+02  0.20000002361E+02 0.  0.
         12    1    1    2    0    0  0.54202790140E+01 -0.27979411983E+02  0.32732190721E+02  0.43400728438E+02  0.00000000000E+00 0. -1.
         11    1    3    3    0    0  0.29432726061E+01  0.75450508337E+01 -0.18799869989E+02  0.20470118651E+02  0.51100000000E-03 0. -1.
        -11    1    3    3    0    0 -0.63752439724E+01  0.13338221708E+02 -0.13359373170E+02  0.19925479813E+02  0.51100000000E-03 0.  1.
         12    1    3    3    0    0 -0.19883076477E+01  0.70961394413E+01 -0.57294756199E+00  0.73916730976E+01  0.00000000000E+00 0. -1.
</event>
<event>
 7    1  0.7470072E-010  0.4778727E+02  0.7816164E-02  0.1312668E+00
        -11   -1    0    0    0    0  0.00000000000E+00  0.00000000000E+00  0.45593999997E+02  0.45594000000E+02  0.51100000000E-03 0. -1.
         11   -1    0    0    0    0 -0.00000000000E+00 -0.00000000000E+00 -0.45593999997E+02  0.45594000000E+02  0.51100000000E-03 0.  1.
    9900012    2    1    2    0    0  0.50495358771E+01 -0.12742960229E+01  0.43087138179E+02  0.47787272825E+02  0.20000008117E+02 0.  0.
        -12    1    1    2    0    0 -0.50495358771E+01  0.12742960229E+01 -0.43087138179E+02  0.43400727175E+02  0.00000000000E+00 0.  1.
         11    1    3    3    0    0  0.91966856298E+01  0.47760435631E+01  0.26746126716E+02  0.28683530348E+02  0.51100000000E-03 0. -1.
        -11    1    3    3    0    0 -0.55886744422E+01 -0.50737660634E+01  0.10006027999E+02  0.12533833438E+02  0.51100000000E-03 0.  1.
        -12    1    3    3    0    0  0.14415246895E+01 -0.97657352261E+00  0.63349834641E+01  0.65699090379E+01  0.00000000000E+00 0.  1.
</event>
<event>
 7    1  0.7470072E-010  0.4778727E+02  0.7816164E-02  0.1312668E+00
        -11   -1    0    0    0    0  0.00000000000E+00  0.00000000000E+00  0.45593999997E+02  0.45594000000E+02  0.51100000000E-03 0. -1.
         11   -1    0    0    0    0 -0.00000000000E+00 -0.00000000000E+00 -0.45593999997E+02  0.45594000000E+02  0.51100000000E-03 0.  1.
    9900012    2    1    2    0    0 -0.25355156350E+02 -0.23615920310E+02  0.26134794818E+02  0.47787272520E+02  0.20000006727E+02 0.  0.
        -12    1    1    2    0    0  0.25355156350E+02  0.23615920310E+02 -0.26134794818E+02  0.43400727480E+02  0.00000000000E+00 0.  1.
         11    1    3    3    0    0 -0.94609816401E+01  0.19139383762E-01  0.10912813341E+02  0.14442992598E+02  0.51100000000E-03 0.  1.
        -11    1    3    3    0    0 -0.10012281375E+02 -0.17941704861E+02  0.14456555197E+02  0.25122550429E+02  0.51100000000E-03 0. -1.
        -12    1    3    3    0    0 -0.58818933350E+01 -0.56933548330E+01  0.76542627983E+00  0.82217294925E+01  0.00000000000E+00 0.  1.
</event>
<event>
 7    1  0.7470072E-010  0.4778727E+02  0.7816164E-02  0.1312668E+00
        -11   -1    0    0    0    0  0.00000000000E+00  0.00000000000E+00  0.45593999997E+02  0.45594000000E+02  0.51100000000E-03 0. -1.
         11   -1    0    0    0    0 -0.00000000000E+00 -0.00000000000E+00 -0.45593999997E+02  0.45594000000E+02  0.51100000000E-03 0.  1.
    9900012    2    1    2    0    0  0.20956050634E+02  0.28485303150E+01 -0.37899251892E+02  0.47787268703E+02  0.19999989324E+02 0.  0.
         12    1    1    2    0    0 -0.20956050634E+02 -0.28485303150E+01  0.37899251892E+02  0.43400731297E+02  0.00000000000E+00 0. -1.
         11    1    3    3    0    0 -0.77198503106E+00 -0.41007957466E+01 -0.12366549649E+02  0.13051591364E+02  0.51100000000E-03 0. -1.
        -11    1    3    3    0    0  0.99332129967E+01  0.49527005496E+01 -0.87900841227E+01  0.14158514834E+02  0.51100000000E-03 0.  1.
        -12    1    3    3    0    0  0.11794822668E+02  0.19966255120E+01 -0.16742618120E+02  0.20577162505E+02  0.00000000000E+00 0.  1.
</event>
<event>
 7    1  0.7470072E-010  0.4778727E+02  0.7816164E-02  0.1312668E+00
        -11   -1    0    0    0    0  0.00000000000E+00  0.00000000000E+00  0.45593999997E+02  0.45594000000E+02  0.51100000000E-03 0. -1.
         11   -1    0    0    0    0 -0.00000000000E+00 -0.00000000000E+00 -0.45593999997E+02  0.45594000000E+02  0.51100000000E-03 0.  1.
    9900012    2    1    2    0    0 -0.26796672764E+01  0.12569636966E+02  0.41454157457E+02  0.47787267741E+02  0.19999984938E+02 0.  0.
        -12    1    1    2    0    0  0.26796672764E+01 -0.12569636966E+02 -0.41454157457E+02  0.43400732259E+02  0.00000000000E+00 0.  1.
         11    1    3    3    0    0 -0.60601557751E+00  0.61434508442E+00  0.23655925745E+02  0.23671660227E+02  0.51100000000E-03 0. -1.
        -11    1    3    3    0    0  0.19491394202E+01  0.55116900365E+01  0.13529541845E+01  0.60006963616E+01  0.51100000000E-03 0.  1.
         12    1    3    3    0    0 -0.40227911191E+01  0.64436018453E+01  0.16445277527E+02  0.18114911153E+02  0.00000000000E+00 0. -1.
</event>
<event>
 7    1  0.7470072E-010  0.4778727E+02  0.7816164E-02  0.1312668E+00
        -11   -1    0    0    0    0  0.00000000000E+00  0.00000000000E+00  0.45593999997E+02  0.45594000000E+02  0.51100000000E-03 0. -1.
         11   -1    0    0    0    0 -0.00000000000E+00 -0.00000000000E+00 -0.45593999997E+02  0.45594000000E+02  0.51100000000E-03 0.  1.
    9900012    2    1    2    0    0  0.26784813153E+02 -0.11500609398E+02 -0.32154828853E+02  0.47787271311E+02  0.20000001218E+02 0.  0.
         12    1    1    2    0    0 -0.26784813153E+02  0.11500609398E+02  0.32154828853E+02  0.43400728689E+02  0.00000000000E+00 0. -1.
         11    1    3    3    0    0  0.71118182646E+00 -0.17413262771E+01  0.39705628897E+00  0.19224075404E+01  0.51100000000E-03 0. -1.
        -11    1    3    3    0    0  0.86585207935E+01  0.40829904856E+01 -0.63245771202E+01  0.11473494221E+02  0.51100000000E-03 0.  1.
        -12    1    3    3    0    0  0.17415110533E+02 -0.13842273606E+02 -0.26227308021E+02  0.34391369550E+02  0.00000000000E+00 0.  1.
</event>
<event>
 7    1  0.7470072E-010  0.4778722E+02  0.7816164E-02  0.1312668E+00
        -11   -1    0    0    0    0  0.00000000000E+00  0.00000000000E+00  0.45593999997E+02  0.45594000000E+02  0.51100000000E-03 0. -1.
         11   -1    0    0    0    0 -0.00000000000E+00 -0.00000000000E+00 -0.45593999997E+02  0.45594000000E+02  0.51100000000E-03 0.  1.
    9900012    2    1    2    0    0  0.10449314891E+02 -0.17480225417E+02  0.38325986646E+02  0.47787219883E+02  0.19999766735E+02 0.  0.
        -12    1    1    2    0    0 -0.10449314891E+02  0.17480225417E+02 -0.38325986646E+02  0.43400780117E+02  0.00000000000E+00 0.  1.
         11    1    3    3    0    0  0.74339580724E+01 -0.15724983577E+02  0.36212049166E+02  0.40172768714E+02  0.51100000000E-03 0. -1.
        -11    1    3    3    0    0  0.40784261309E+01 -0.31062801861E+01  0.27050429856E+01  0.57965329392E+01  0.51100000000E-03 0.  1.
         12    1    3    3    0    0 -0.10630693118E+01  0.13510383460E+01 -0.59110550507E+00  0.18179182303E+01  0.00000000000E+00 0. -1.
</event>
<event>
 7    1  0.7470072E-010  0.4778727E+02  0.7816164E-02  0.1312668E+00
        -11   -1    0    0    0    0  0.00000000000E+00  0.00000000000E+00  0.45593999997E+02  0.45594000000E+02  0.51100000000E-03 0. -1.
         11   -1    0    0    0    0 -0.00000000000E+00 -0.00000000000E+00 -0.45593999997E+02  0.45594000000E+02  0.51100000000E-03 0.  1.
    9900012    2    1    2    0    0  0.17950476150E+02 -0.47379846320E+01 -0.39229518239E+02  0.47787271968E+02  0.20000004213E+02 0.  0.
         12    1    1    2    0    0 -0.17950476150E+02  0.47379846320E+01  0.39229518239E+02  0.43400728032E+02  0.00000000000E+00 0. -1.
         11    1    3    3    0    0  0.51601231642E+01 -0.82707657917E+01 -0.26053930936E+02  0.27817975400E+02  0.51100000000E-03 0. -1.
        -11    1    3    3    0    0  0.11401354535E+02  0.37488488744E+01 -0.13919193326E+02  0.18379028707E+02  0.51100000000E-03 0.  1.
         12    1    3    3    0    0  0.13889984506E+01 -0.21606771465E+00  0.74360602291E+00  0.15902678612E+01  0.00000000000E+00 0. -1.
</event>
<event>
 7    1  0.7470072E-010  0.4778727E+02  0.7816164E-02  0.1312668E+00
        -11   -1    0    0    0    0  0.00000000000E+00  0.00000000000E+00  0.45593999997E+02  0.45594000000E+02  0.51100000000E-03 0. -1.
         11   -1    0    0    0    0 -0.00000000000E+00 -0.00000000000E+00 -0.45593999997E+02  0.45594000000E+02  0.51100000000E-03 0.  1.
    9900012    2    1    2    0    0  0.22863083061E+02 -0.23201943229E+02  0.28680522618E+02  0.47787272883E+02  0.20000008382E+02 0.  0.
        -12    1    1    2    0    0 -0.22863083061E+02  0.23201943229E+02 -0.28680522618E+02  0.43400727117E+02  0.00000000000E+00 0.  1.
         11    1    3    3    0    0  0.75494741416E+01 -0.47575174134E+01  0.18193135223E+02  0.20263728711E+02  0.51100000000E-03 0. -1.
        -11    1    3    3    0    0  0.82489072114E+01 -0.59471586941E+01  0.80332163402E+01  0.12959387784E+02  0.51100000000E-03 0.  1.
         12    1    3    3    0    0  0.70647017083E+01 -0.12497267121E+02  0.24541710546E+01  0.14564156388E+02  0.00000000000E+00 0. -1.
</event>
<event>
 7    1  0.7470072E-010  0.4778727E+02  0.7816164E-02  0.1312668E+00
        -11   -1    0    0    0    0  0.00000000000E+00  0.00000000000E+00  0.45593999997E+02  0.45594000000E+02  0.51100000000E-03 0. -1.
         11   -1    0    0    0    0 -0.00000000000E+00 -0.00000000000E+00 -0.45593999997E+02  0.45594000000E+02  0.51100000000E-03 0.  1.
    9900012    2    1    2    0    0 -0.27379823782E+02 -0.12172361868E+02 -0.31397485777E+02  0.47787271240E+02  0.20000000893E+02 0.  0.
         12    1    1    2    0    0  0.27379823782E+02  0.12172361868E+02  0.31397485777E+02  0.43400728760E+02  0.00000000000E+00 0. -1.
         11    1    3    3    0    0 -0.50308133997E+01 -0.49399803938E+01 -0.52575551540E+01  0.87951336665E+01  0.51100000000E-03 0. -1.
        -11    1    3    3    0    0 -0.13880702041E+02 -0.12731210221E+02 -0.16906412600E+02  0.25309768670E+02  0.51100000000E-03 0.  1.
        -12    1    3    3    0    0 -0.84683083411E+01  0.54988287469E+01 -0.92335180229E+01  0.13682368904E+02  0.00000000000E+00 0.  1.
</event>
<event>
 7    1  0.7470072E-010  0.4778730E+02  0.7816164E-02  0.1312668E+00
        -11   -1    0    0    0    0  0.00000000000E+00  0.00000000000E+00  0.45593999997E+02  0.45594000000E+02  0.51100000000E-03 0. -1.
         11   -1    0    0    0    0 -0.00000000000E+00 -0.00000000000E+00 -0.45593999997E+02  0.45594000000E+02  0.51100000000E-03 0.  1.
    9900012    2    1    2    0    0  0.15414557927E+02 -0.16916564055E+02  0.36876035061E+02  0.47787300728E+02  0.20000135338E+02 0.  0.
        -12    1    1    2    0    0 -0.15414557927E+02  0.16916564055E+02 -0.36876035061E+02  0.43400699272E+02  0.00000000000E+00 0.  1.
         11    1    3    3    0    0  0.27285610064E+01 -0.64411575378E+01  0.59124382643E+00  0.70201940939E+01  0.51100000000E-03 0. -1.
        -11    1    3    3    0    0  0.70767164856E+01 -0.44058001032E+01  0.90421740022E+01  0.12298451192E+02  0.51100000000E-03 0.  1.
         12    1    3    3    0    0  0.56092804346E+01 -0.60696064140E+01  0.27242617232E+02  0.28468655442E+02  0.00000000000E+00 0. -1.
</event>
<event>
 7    1  0.7470072E-010  0.4778725E+02  0.7816164E-02  0.1312668E+00
        -11   -1    0    0    0    0  0.00000000000E+00  0.00000000000E+00  0.45593999997E+02  0.45594000000E+02  0.51100000000E-03 0.  1.
         11   -1    0    0    0    0 -0.00000000000E+00 -0.00000000000E+00 -0.45593999997E+02  0.45594000000E+02  0.51100000000E-03 0. -1.
    9900012    2    1    2    0    0  0.50585961821E+01  0.42073797190E+02  0.93718497739E+01  0.47787246855E+02  0.19999889711E+02 0.  0.
         12    1    1    2    0    0 -0.50585961821E+01 -0.42073797190E+02 -0.93718497739E+01  0.43400753145E+02  0.00000000000E+00 0. -1.
         11    1    3    3    0    0  0.10335599662E+01  0.98745680917E+01 -0.11949914623E+01  0.10000167301E+02  0.51100000000E-03 0. -1.
        -11    1    3    3    0    0 -0.21006030025E+01 -0.54150669166E-02 -0.17836392513E+01  0.27557088992E+01  0.51100000000E-03 0.  1.
        -12    1    3    3    0    0  0.61256392184E+01  0.32204644166E+02  0.12350480488E+02  0.35031370655E+02  0.00000000000E+00 0.  1.
</event>
<event>
 7    1  0.7470072E-010  0.4778727E+02  0.7816164E-02  0.1312668E+00
        -11   -1    0    0    0    0  0.00000000000E+00  0.00000000000E+00  0.45593999997E+02  0.45594000000E+02  0.51100000000E-03 0. -1.
         11   -1    0    0    0    0 -0.00000000000E+00 -0.00000000000E+00 -0.45593999997E+02  0.45594000000E+02  0.51100000000E-03 0.  1.
    9900012    2    1    2    0    0  0.16065464126E+02 -0.40227603263E+02  0.26952058309E+01  0.47787270325E+02  0.19999996719E+02 0.  0.
         12    1    1    2    0    0 -0.16065464126E+02  0.40227603263E+02 -0.26952058309E+01  0.43400729675E+02  0.00000000000E+00 0. -1.
         11    1    3    3    0    0  0.19646045075E+01 -0.31190914383E+01 -0.46615815491E+01  0.59429576030E+01  0.51100000000E-03 0. -1.
        -11    1    3    3    0    0  0.52284246865E+01 -0.18508609208E+02 -0.17535193862E+01  0.19312686763E+02  0.51100000000E-03 0.  1.
         12    1    3    3    0    0  0.88724349321E+01 -0.18599902617E+02  0.91103067662E+01  0.22531625959E+02  0.00000000000E+00 0. -1.
</event>
<event>
 7    1  0.7470072E-010  0.4778727E+02  0.7816164E-02  0.1312668E+00
        -11   -1    0    0    0    0  0.00000000000E+00  0.00000000000E+00  0.45593999997E+02  0.45594000000E+02  0.51100000000E-03 0. -1.
         11   -1    0    0    0    0 -0.00000000000E+00 -0.00000000000E+00 -0.45593999997E+02  0.45594000000E+02  0.51100000000E-03 0.  1.
    9900012    2    1    2    0    0 -0.33285630763E+02 -0.21386188667E+02 -0.17841547686E+02  0.47787272992E+02  0.20000008881E+02 0.  0.
         12    1    1    2    0    0  0.33285630763E+02  0.21386188667E+02  0.17841547686E+02  0.43400727008E+02  0.00000000000E+00 0. -1.
         11    1    3    3    0    0 -0.57920537395E+01 -0.14095137376E+02 -0.76464258356E+01  0.17049592736E+02  0.51100000000E-03 0. -1.
        -11    1    3    3    0    0 -0.17245052821E+02 -0.42331054418E+01 -0.34375615799E+01  0.18086676266E+02  0.51100000000E-03 0.  1.
         12    1    3    3    0    0 -0.10248524202E+02 -0.30579458493E+01 -0.67575602703E+01  0.12651003990E+02  0.00000000000E+00 0. -1.
</event>
<event>
 7    1  0.7470072E-010  0.4778727E+02  0.7816164E-02  0.1312668E+00
        -11   -1    0    0    0    0  0.00000000000E+00  0.00000000000E+00  0.45593999997E+02  0.45594000000E+02  0.51100000000E-03 0. -1.
         11   -1    0    0    0    0 -0.00000000000E+00 -0.00000000000E+00 -0.45593999997E+02  0.45594000000E+02  0.51100000000E-03 0.  1.
    9900012    2    1    2    0    0 -0.14240331178E+02 -0.33436480785E+02  0.23724206288E+02  0.47787271396E+02  0.20000001603E+02 0.  0.
        -12    1    1    2    0    0  0.14240331178E+02  0.33436480785E+02 -0.23724206288E+02  0.43400728604E+02  0.00000000000E+00 0.  1.
         11    1    3    3    0    0 -0.81742085256E+01 -0.15288767841E+02  0.13786130990E+02  0.22149977766E+02  0.51100000000E-03 0. -1.
        -11    1    3    3    0    0 -0.10123767070E+01  0.22220439012E+01  0.21439452323E+01  0.32494441241E+01  0.51100000000E-03 0.  1.
        -12    1    3    3    0    0 -0.50537459460E+01 -0.20369756845E+02  0.77941300665E+01  0.22387849506E+02  0.00000000000E+00 0.  1.
</event>
<event>
 7    1  0.7470072E-010  0.4778730E+02  0.7816164E-02  0.1312668E+00
        -11   -1    0    0    0    0  0.00000000000E+00  0.00000000000E+00  0.45593999997E+02  0.45594000000E+02  0.51100000000E-03 0. -1.
         11   -1    0    0    0    0 -0.00000000000E+00 -0.00000000000E+00 -0.45593999997E+02  0.45594000000E+02  0.51100000000E-03 0.  1.
    9900012    2    1    2    0    0  0.15777873696E+02  0.64181151168E+01  0.39918508029E+02  0.47787299737E+02  0.20000130822E+02 0.  0.
        -12    1    1    2    0    0 -0.15777873696E+02 -0.64181151168E+01 -0.39918508029E+02  0.43400700263E+02  0.00000000000E+00 0.  1.
         11    1    3    3    0    0  0.87330430770E+01  0.45207050614E+01  0.37688292785E+02  0.38950099216E+02  0.51100000000E-03 0. -1.
        -11    1    3    3    0    0  0.18993550148E+01 -0.11163828808E+01 -0.53034995449E+00  0.22660828635E+01  0.51100000000E-03 0.  1.
         12    1    3    3    0    0  0.51454756045E+01  0.30137929362E+01  0.27605651989E+01  0.65711176580E+01  0.00000000000E+00 0. -1.
</event>
<event>
 7    1  0.7470072E-010  0.4778727E+02  0.7816164E-02  0.1312668E+00
        -11   -1    0    0    0    0  0.00000000000E+00  0.00000000000E+00  0.45593999997E+02  0.45594000000E+02  0.51100000000E-03 0. -1.
         11   -1    0    0    0    0 -0.00000000000E+00 -0.00000000000E+00 -0.45593999997E+02  0.45594000000E+02  0.51100000000E-03 0.  1.
    9900012    2    1    2    0    0 -0.14930954458E+02 -0.32121663108E+02  0.25077655015E+02  0.47787269327E+02  0.19999992171E+02 0.  0.
        -12    1    1    2    0    0  0.14930954458E+02  0.32121663108E+02 -0.25077655015E+02  0.43400730673E+02  0.00000000000E+00 0.  1.
         11    1    3    3    0    0 -0.67862816177E+01 -0.23050864481E+02  0.26160562538E+02  0.35521416132E+02  0.51100000000E-03 0. -1.
        -11    1    3    3    0    0 -0.58753411465E+01 -0.60230634687E+01 -0.59956644991E+00  0.84354257346E+01  0.51100000000E-03 0.  1.
         12    1    3    3    0    0 -0.22693316942E+01 -0.30477351589E+01 -0.48334107301E+00  0.38304274605E+01  0.00000000000E+00 0. -1.
</event>
<event>
 7    1  0.7470072E-010  0.4778727E+02  0.7816164E-02  0.1312668E+00
        -11   -1    0    0    0    0  0.00000000000E+00  0.00000000000E+00  0.45593999997E+02  0.45594000000E+02  0.51100000000E-03 0. -1.
         11   -1    0    0    0    0 -0.00000000000E+00 -0.00000000000E+00 -0.45593999997E+02  0.45594000000E+02  0.51100000000E-03 0.  1.
    9900012    2    1    2    0    0  0.92921527017E+00 -0.26263669500E+02  0.34539534097E+02  0.47787271985E+02  0.20000004289E+02 0.  0.
        -12    1    1    2    0    0 -0.92921527017E+00  0.26263669500E+02 -0.34539534097E+02  0.43400728015E+02  0.00000000000E+00 0.  1.
         11    1    3    3    0    0  0.38765203230E+01 -0.17020948250E+02  0.16209679200E+02  0.23822128141E+02  0.51100000000E-03 0. -1.
        -11    1    3    3    0    0 -0.10922576819E+00  0.27552461591E+01  0.56082850637E+01  0.62494938422E+01  0.51100000000E-03 0.  1.
        -12    1    3    3    0    0 -0.28380792847E+01 -0.11997967409E+02  0.12721569833E+02  0.17715650002E+02  0.00000000000E+00 0.  1.
</event>
<event>
 7    1  0.7470072E-010  0.4778727E+02  0.7816164E-02  0.1312668E+00
        -11   -1    0    0    0    0  0.00000000000E+00  0.00000000000E+00  0.45593999997E+02  0.45594000000E+02  0.51100000000E-03 0. -1.
         11   -1    0    0    0    0 -0.00000000000E+00 -0.00000000000E+00 -0.45593999997E+02  0.45594000000E+02  0.51100000000E-03 0.  1.
    9900012    2    1    2    0    0 -0.23183811205E+02  0.26450754752E+02 -0.25426201856E+02  0.47787271092E+02  0.20000000215E+02 0.  0.
         12    1    1    2    0    0  0.23183811205E+02 -0.26450754752E+02  0.25426201856E+02  0.43400728908E+02  0.00000000000E+00 0. -1.
         11    1    3    3    0    0 -0.10145313857E+02  0.60047819664E+01 -0.76203166243E+01  0.14037593292E+02  0.51100000000E-03 0. -1.
        -11    1    3    3    0    0 -0.11068234408E+02  0.22860426789E+02 -0.14681690190E+02  0.29336955414E+02  0.51100000000E-03 0.  1.
        -12    1    3    3    0    0 -0.19702629397E+01 -0.24144540034E+01 -0.31241950421E+01  0.44127223850E+01  0.00000000000E+00 0.  1.
</event>
<event>
 7    1  0.7470072E-010  0.4778727E+02  0.7816164E-02  0.1312668E+00
        -11   -1    0    0    0    0  0.00000000000E+00  0.00000000000E+00  0.45593999997E+02  0.45594000000E+02  0.51100000000E-03 0.  1.
         11   -1    0    0    0    0 -0.00000000000E+00 -0.00000000000E+00 -0.45593999997E+02  0.45594000000E+02  0.51100000000E-03 0. -1.
    9900012    2    1    2    0    0 -0.57637564110E+01 -0.18683767104E+02 -0.38746865316E+02  0.47787267138E+02  0.19999982187E+02 0.  0.
         12    1    1    2    0    0  0.57637564110E+01  0.18683767104E+02  0.38746865316E+02  0.43400732862E+02  0.00000000000E+00 0. -1.
         11    1    3    3    0    0  0.44308600927E+01 -0.82080622400E+01 -0.18606537097E+02  0.20813650086E+02  0.51100000000E-03 0. -1.
        -11    1    3    3    0    0 -0.73420978796E+01 -0.37928900268E+00 -0.69230423328E+01  0.10098454180E+02  0.51100000000E-03 0.  1.
        -12    1    3    3    0    0 -0.28525186241E+01 -0.10096415861E+02 -0.13217285887E+02  0.16875162872E+02  0.00000000000E+00 0.  1.
</event>
<event>
 7    1  0.7470072E-010  0.4778728E+02  0.7816164E-02  0.1312668E+00
        -11   -1    0    0    0    0  0.00000000000E+00  0.00000000000E+00  0.45593999997E+02  0.45594000000E+02  0.51100000000E-03 0. -1.
         11   -1    0    0    0    0 -0.00000000000E+00 -0.00000000000E+00 -0.45593999997E+02  0.45594000000E+02  0.51100000000E-03 0.  1.
    9900012    2    1    2    0    0 -0.33646266449E+02  0.13785540376E+02  0.23696210060E+02  0.47787277187E+02  0.20000028009E+02 0.  0.
        -12    1    1    2    0    0  0.33646266449E+02 -0.13785540376E+02 -0.23696210060E+02  0.43400722813E+02  0.00000000000E+00 0.  1.
         11    1    3    3    0    0 -0.57852723574E+01  0.89082980105E+01  0.12687293837E+02  0.16546739101E+02  0.51100000000E-03 0. -1.
        -11    1    3    3    0    0 -0.20617929891E+02  0.51173529168E+01  0.49941952263E+01  0.21822656119E+02  0.51100000000E-03 0.  1.
        -12    1    3    3    0    0 -0.72430642005E+01 -0.24011055114E+00  0.60147209964E+01  0.94178819675E+01  0.00000000000E+00 0.  1.
</event>
<event>
 7    1  0.7470072E-010  0.4778726E+02  0.7816164E-02  0.1312668E+00
        -11   -1    0    0    0    0  0.00000000000E+00  0.00000000000E+00  0.45593999997E+02  0.45594000000E+02  0.51100000000E-03 0. -1.
         11   -1    0    0    0    0 -0.00000000000E+00 -0.00000000000E+00 -0.45593999997E+02  0.45594000000E+02  0.51100000000E-03 0.  1.
    9900012    2    1    2    0    0 -0.88352881042E+01 -0.20744566857E+02 -0.37084029580E+02  0.47787255538E+02  0.19999929299E+02 0.  0.
         12    1    1    2    0    0  0.88352881042E+01  0.20744566857E+02  0.37084029580E+02  0.43400744462E+02  0.00000000000E+00 0. -1.
         11    1    3    3    0    0 -0.47991469690E+01  0.16533516157E+01 -0.40943062097E+01  0.65214052776E+01  0.51100000000E-03 0. -1.
        -11    1    3    3    0    0 -0.59905892921E+00 -0.18763255210E+02 -0.30141064313E+02  0.35509187204E+02  0.51100000000E-03 0.  1.
        -12    1    3    3    0    0 -0.34370822060E+01 -0.36346632620E+01 -0.28486590575E+01  0.57566630564E+01  0.00000000000E+00 0.  1.
</event>
<event>
 7    1  0.7470072E-010  0.4778727E+02  0.7816164E-02  0.1312668E+00
        -11   -1    0    0    0    0  0.00000000000E+00  0.00000000000E+00  0.45593999997E+02  0.45594000000E+02  0.51100000000E-03 0. -1.
         11   -1    0    0    0    0 -0.00000000000E+00 -0.00000000000E+00 -0.45593999997E+02  0.45594000000E+02  0.51100000000E-03 0.  1.
    9900012    2    1    2    0    0 -0.23211062039E+02  0.36048296256E+02 -0.67372251243E+01  0.47787271132E+02  0.20000000399E+02 0.  0.
         12    1    1    2    0    0  0.23211062039E+02 -0.36048296256E+02  0.67372251243E+01  0.43400728868E+02  0.00000000000E+00 0. -1.
         11    1    3    3    0    0  0.32710816897E+01  0.41955203518E+01 -0.45635120698E+00  0.53395339805E+01  0.51100000000E-03 0. -1.
        -11    1    3    3    0    0 -0.25250852076E+02  0.27444052754E+02 -0.65429640980E+01  0.37862804196E+02  0.51100000000E-03 0.  1.
        -12    1    3    3    0    0 -0.12312916524E+01  0.44087231494E+01  0.26209018073E+00  0.45849329553E+01  0.00000000000E+00 0.  1.
</event>
<event>
 7    1  0.7470072E-010  0.4778727E+02  0.7816164E-02  0.1312668E+00
        -11   -1    0    0    0    0  0.00000000000E+00  0.00000000000E+00  0.45593999997E+02  0.45594000000E+02  0.51100000000E-03 0. -1.
         11   -1    0    0    0    0 -0.00000000000E+00 -0.00000000000E+00 -0.45593999997E+02  0.45594000000E+02  0.51100000000E-03 0.  1.
    9900012    2    1    2    0    0 -0.26124609412E+02 -0.16862781855E+02 -0.30278285318E+02  0.47787272004E+02  0.20000004374E+02 0.  0.
         12    1    1    2    0    0  0.26124609412E+02  0.16862781855E+02  0.30278285318E+02  0.43400727996E+02  0.00000000000E+00 0. -1.
         11    1    3    3    0    0 -0.16514334139E+02 -0.46634401886E+01 -0.85799243494E+01  0.19185567715E+02  0.51100000000E-03 0. -1.
        -11    1    3    3    0    0 -0.72053827666E+01 -0.76460087031E+01 -0.60405414240E+01  0.12118874983E+02  0.51100000000E-03 0.  1.
         12    1    3    3    0    0 -0.24048925066E+01 -0.45533329638E+01 -0.15657819544E+02  0.16482829306E+02  0.00000000000E+00 0. -1.
</event>
<event>
 7    1  0.7470072E-010  0.4778722E+02  0.7816164E-02  0.1312668E+00
        -11   -1    0    0    0    0  0.00000000000E+00  0.00000000000E+00  0.45593999997E+02  0.45594000000E+02  0.51100000000E-03 0. -1.
         11   -1    0    0    0    0 -0.00000000000E+00 -0.00000000000E+00 -0.45593999997E+02  0.45594000000E+02  0.51100000000E-03 0.  1.
    9900012    2    1    2    0    0  0.14839345975E+02 -0.28017865813E+02 -0.29638167373E+02  0.47787217070E+02  0.19999753908E+02 0.  0.
         12    1    1    2    0    0 -0.14839345975E+02  0.28017865813E+02  0.29638167373E+02  0.43400782930E+02  0.00000000000E+00 0. -1.
         11    1    3    3    0    0  0.11724691423E+02 -0.39962739882E+01 -0.55407589546E+01  0.13569768046E+02  0.51100000000E-03 0. -1.
        -11    1    3    3    0    0  0.32401799124E+01 -0.19332434519E+02 -0.19472603954E+02  0.27630130208E+02  0.51100000000E-03 0.  1.
         12    1    3    3    0    0 -0.12552536017E+00 -0.46891573057E+01 -0.46248044646E+01  0.65873188165E+01  0.00000000000E+00 0. -1.
</event>
<event>
 7    1  0.7470072E-010  0.4778727E+02  0.7816164E-02  0.1312668E+00
        -11   -1    0    0    0    0  0.00000000000E+00  0.00000000000E+00  0.45593999997E+02  0.45594000000E+02  0.51100000000E-03 0. -1.
         11   -1    0    0    0    0 -0.00000000000E+00 -0.00000000000E+00 -0.45593999997E+02  0.45594000000E+02  0.51100000000E-03 0.  1.
    9900012    2    1    2    0    0  0.23659931993E+02 -0.33456669516E+02 -0.14299736190E+02  0.47787267609E+02  0.19999984334E+02 0.  0.
         12    1    1    2    0    0 -0.23659931993E+02  0.33456669516E+02  0.14299736190E+02  0.43400732391E+02  0.00000000000E+00 0. -1.
         11    1    3    3    0    0  0.84668622650E+01 -0.28142593137E+02 -0.96472524389E+01  0.30931582322E+02  0.51100000000E-03 0.  1.
        -11    1    3    3    0    0  0.13092332447E+02 -0.43240193466E+01 -0.45922569188E+01  0.14532554355E+02  0.51100000000E-03 0. -1.
        -12    1    3    3    0    0  0.21007372813E+01 -0.99005703251E+00 -0.60226832106E-01  0.23231309313E+01  0.00000000000E+00 0.  1.
</event>
<event>
 7    1  0.7470072E-010  0.4778727E+02  0.7816164E-02  0.1312668E+00
        -11   -1    0    0    0    0  0.00000000000E+00  0.00000000000E+00  0.45593999997E+02  0.45594000000E+02  0.51100000000E-03 0. -1.
         11   -1    0    0    0    0 -0.00000000000E+00 -0.00000000000E+00 -0.45593999997E+02  0.45594000000E+02  0.51100000000E-03 0.  1.
    9900012    2    1    2    0    0  0.31988796761E+02 -0.84979282092E+01 -0.28073575731E+02  0.47787267789E+02  0.19999985158E+02 0.  0.
         12    1    1    2    0    0 -0.31988796761E+02  0.84979282092E+01  0.28073575731E+02  0.43400732211E+02  0.00000000000E+00 0. -1.
         11    1    3    3    0    0  0.44338324038E+01 -0.94691696280E+00 -0.12309105821E+02  0.13117530556E+02  0.51100000000E-03 0. -1.
        -11    1    3    3    0    0  0.17918959135E+02  0.79572699513E+00 -0.72889153191E+01  0.19361057945E+02  0.51100000000E-03 0.  1.
        -12    1    3    3    0    0  0.96360052222E+01 -0.83467382415E+01 -0.84755545910E+01  0.15308679288E+02  0.00000000000E+00 0.  1.
</event>
<event>
 7    1  0.7470072E-010  0.4778727E+02  0.7816164E-02  0.1312668E+00
        -11   -1    0    0    0    0  0.00000000000E+00  0.00000000000E+00  0.45593999997E+02  0.45594000000E+02  0.51100000000E-03 0. -1.
         11   -1    0    0    0    0 -0.00000000000E+00 -0.00000000000E+00 -0.45593999997E+02  0.45594000000E+02  0.51100000000E-03 0.  1.
    9900012    2    1    2    0    0  0.26645567464E+02  0.12525414831E+02  0.31886535803E+02  0.47787269042E+02  0.19999990870E+02 0.  0.
        -12    1    1    2    0    0 -0.26645567464E+02 -0.12525414831E+02 -0.31886535803E+02  0.43400730958E+02  0.00000000000E+00 0.  1.
         11    1    3    3    0    0  0.10155120485E+02  0.20091050259E+01  0.22121661240E+02  0.24423981481E+02  0.51100000000E-03 0. -1.
        -11    1    3    3    0    0  0.40995866881E+01  0.52405586792E+01 -0.12493409149E+00  0.66547483101E+01  0.51100000000E-03 0.  1.
        -12    1    3    3    0    0  0.12390860291E+02  0.52757511255E+01  0.98898086545E+01  0.16708539251E+02  0.00000000000E+00 0.  1.
</event>
<event>
 7    1  0.7470072E-010  0.4778726E+02  0.7816164E-02  0.1312668E+00
        -11   -1    0    0    0    0  0.00000000000E+00  0.00000000000E+00  0.45593999997E+02  0.45594000000E+02  0.51100000000E-03 0. -1.
         11   -1    0    0    0    0 -0.00000000000E+00 -0.00000000000E+00 -0.45593999997E+02  0.45594000000E+02  0.51100000000E-03 0.  1.
    9900012    2    1    2    0    0  0.26452803746E+02 -0.45088528530E+01 -0.34110750869E+02  0.47787263775E+02  0.19999966856E+02 0.  0.
         12    1    1    2    0    0 -0.26452803746E+02  0.45088528530E+01  0.34110750869E+02  0.43400736225E+02  0.00000000000E+00 0. -1.
         11    1    3    3    0    0  0.13935501521E+02 -0.13148413236E+01 -0.38097450759E+01  0.14506590507E+02  0.51100000000E-03 0. -1.
        -11    1    3    3    0    0  0.40985316398E+01 -0.26203945845E+01 -0.15473985855E+02  0.16220624768E+02  0.51100000000E-03 0.  1.
         12    1    3    3    0    0  0.84187705852E+01 -0.57361694484E+00 -0.14827019938E+02  0.17060048500E+02  0.00000000000E+00 0. -1.
</event>
<event>
 7    1  0.7470072E-010  0.4778727E+02  0.7816164E-02  0.1312668E+00
        -11   -1    0    0    0    0  0.00000000000E+00  0.00000000000E+00  0.45593999997E+02  0.45594000000E+02  0.51100000000E-03 0. -1.
         11   -1    0    0    0    0 -0.00000000000E+00 -0.00000000000E+00 -0.45593999997E+02  0.45594000000E+02  0.51100000000E-03 0.  1.
    9900012    2    1    2    0    0 -0.11974293946E+02  0.29069588413E+02  0.29919875008E+02  0.47787267212E+02  0.19999982527E+02 0.  0.
        -12    1    1    2    0    0  0.11974293946E+02 -0.29069588413E+02 -0.29919875008E+02  0.43400732788E+02  0.00000000000E+00 0.  1.
         11    1    3    3    0    0 -0.38868683264E+01  0.14604966845E+02  0.25701746370E+02  0.29815978412E+02  0.51100000000E-03 0. -1.
        -11    1    3    3    0    0 -0.27969443632E+01  0.98817672192E+01  0.11680039956E+01  0.10336172151E+02  0.51100000000E-03 0.  1.
         12    1    3    3    0    0 -0.52904812565E+01  0.45828543489E+01  0.30501246427E+01  0.76351166490E+01  0.00000000000E+00 0. -1.
</event>
<event>
 7    1  0.7470072E-010  0.4778727E+02  0.7816164E-02  0.1312668E+00
        -11   -1    0    0    0    0  0.00000000000E+00  0.00000000000E+00  0.45593999997E+02  0.45594000000E+02  0.51100000000E-03 0. -1.
         11   -1    0    0    0    0 -0.00000000000E+00 -0.00000000000E+00 -0.45593999997E+02  0.45594000000E+02  0.51100000000E-03 0.  1.
    9900012    2    1    2    0    0 -0.21863602213E+02  0.15146028680E+02 -0.34295829055E+02  0.47787272160E+02  0.20000005084E+02 0.  0.
         12    1    1    2    0    0  0.21863602213E+02 -0.15146028680E+02  0.34295829055E+02  0.43400727840E+02  0.00000000000E+00 0. -1.
         11    1    3    3    0    0 -0.27873802024E+01 -0.28016874382E+01  0.10893412918E+00  0.39535816420E+01  0.51100000000E-03 0. -1.
        -11    1    3    3    0    0 -0.79862065065E+01  0.11287934110E+02 -0.21491543409E+02  0.25555496263E+02  0.51100000000E-03 0.  1.
         12    1    3    3    0    0 -0.11090015504E+02  0.66597820080E+01 -0.12913219775E+02  0.18278194255E+02  0.00000000000E+00 0. -1.
</event>
<event>
 7    1  0.7470072E-010  0.4778727E+02  0.7816164E-02  0.1312668E+00
        -11   -1    0    0    0    0  0.00000000000E+00  0.00000000000E+00  0.45593999997E+02  0.45594000000E+02  0.51100000000E-03 0. -1.
         11   -1    0    0    0    0 -0.00000000000E+00 -0.00000000000E+00 -0.45593999997E+02  0.45594000000E+02  0.51100000000E-03 0.  1.
    9900012    2    1    2    0    0  0.36667995498E+02 -0.22151756606E+02 -0.69556432363E+01  0.47787272041E+02  0.20000004542E+02 0.  0.
         12    1    1    2    0    0 -0.36667995498E+02  0.22151756606E+02  0.69556432363E+01  0.43400727959E+02  0.00000000000E+00 0. -1.
         11    1    3    3    0    0  0.67050978026E+01  0.83975096119E+00 -0.65696104058E+01  0.94246113641E+01  0.51100000000E-03 0. -1.
        -11    1    3    3    0    0  0.20428136560E+02 -0.19352940174E+02  0.19944292915E+00  0.28140448370E+02  0.51100000000E-03 0.  1.
         12    1    3    3    0    0  0.95347611353E+01 -0.36385673931E+01 -0.58547575959E+00  0.10222212307E+02  0.00000000000E+00 0. -1.
</event>
<event>
 7    1  0.7470072E-010  0.4778733E+02  0.7816164E-02  0.1312668E+00
        -11   -1    0    0    0    0  0.00000000000E+00  0.00000000000E+00  0.45593999997E+02  0.45594000000E+02  0.51100000000E-03 0.  1.
         11   -1    0    0    0    0 -0.00000000000E+00 -0.00000000000E+00 -0.45593999997E+02  0.45594000000E+02  0.51100000000E-03 0. -1.
    9900012    2    1    2    0    0  0.18902210943E+02 -0.36976707052E+02  0.12611416128E+02  0.47787328811E+02  0.20000263378E+02 0.  0.
        -12    1    1    2    0    0 -0.18902210943E+02  0.36976707052E+02 -0.12611416128E+02  0.43400671189E+02  0.00000000000E+00 0.  1.
         11    1    3    3    0    0  0.50818898959E+01 -0.21739204513E+02  0.11949973607E+02  0.25322331789E+02  0.51100000000E-03 0. -1.
        -11    1    3    3    0    0  0.75796968412E+01 -0.39638046082E+01 -0.30078888219E+01  0.90670252344E+01  0.51100000000E-03 0.  1.
         12    1    3    3    0    0  0.62406242061E+01 -0.11273697931E+02  0.36693313431E+01  0.13397971787E+02  0.00000000000E+00 0. -1.
</event>
<event>
 7    1  0.7470072E-010  0.4778727E+02  0.7816164E-02  0.1312668E+00
        -11   -1    0    0    0    0  0.00000000000E+00  0.00000000000E+00  0.45593999997E+02  0.45594000000E+02  0.51100000000E-03 0. -1.
         11   -1    0    0    0    0 -0.00000000000E+00 -0.00000000000E+00 -0.45593999997E+02  0.45594000000E+02  0.51100000000E-03 0.  1.
    9900012    2    1    2    0    0 -0.29874370576E+02  0.25924796994E+02  0.17861978785E+02  0.47787269561E+02  0.19999993236E+02 0.  0.
        -12    1    1    2    0    0  0.29874370576E+02 -0.25924796994E+02 -0.17861978785E+02  0.43400730439E+02  0.00000000000E+00 0.  1.
         11    1    3    3    0    0 -0.45189305081E+01  0.32535679310E+01  0.30231217472E+01  0.63360636501E+01  0.51100000000E-03 0. -1.
        -11    1    3    3    0    0  0.16361795574E+01  0.72628847282E+01  0.13318346774E+01  0.75630920918E+01  0.51100000000E-03 0.  1.
        -12    1    3    3    0    0 -0.26991619626E+02  0.15408344335E+02  0.13507022361E+02  0.33888113819E+02  0.00000000000E+00 0.  1.
</event>
<event>
 7    1  0.7470072E-010  0.4778727E+02  0.7816164E-02  0.1312668E+00
        -11   -1    0    0    0    0  0.00000000000E+00  0.00000000000E+00  0.45593999997E+02  0.45594000000E+02  0.51100000000E-03 0. -1.
         11   -1    0    0    0    0 -0.00000000000E+00 -0.00000000000E+00 -0.45593999997E+02  0.45594000000E+02  0.51100000000E-03 0.  1.
    9900012    2    1    2    0    0 -0.31873225143E+02 -0.12033467480E+02 -0.26887103354E+02  0.47787272501E+02  0.20000006642E+02 0.  0.
         12    1    1    2    0    0  0.31873225143E+02  0.12033467480E+02  0.26887103354E+02  0.43400727499E+02  0.00000000000E+00 0. -1.
         11    1    3    3    0    0  0.20067661408E+01  0.24382054900E-01 -0.44920606056E+00  0.20565726767E+01  0.51100000000E-03 0. -1.
        -11    1    3    3    0    0 -0.30816028334E+02 -0.73228785428E+01 -0.22444815645E+02  0.38820379983E+02  0.51100000000E-03 0.  1.
        -12    1    3    3    0    0 -0.30639629505E+01 -0.47349709926E+01 -0.39930816483E+01  0.69103198416E+01  0.00000000000E+00 0.  1.
</event>
<event>
 7    1  0.7470072E-010  0.4778727E+02  0.7816164E-02  0.1312668E+00
        -11   -1    0    0    0    0  0.00000000000E+00  0.00000000000E+00  0.45593999997E+02  0.45594000000E+02  0.51100000000E-03 0. -1.
         11   -1    0    0    0    0 -0.00000000000E+00 -0.00000000000E+00 -0.45593999997E+02  0.45594000000E+02  0.51100000000E-03 0.  1.
    9900012    2    1    2    0    0  0.18075682614E+02  0.10576884508E+02  0.38013449790E+02  0.47787272439E+02  0.20000006360E+02 0.  0.
        -12    1    1    2    0    0 -0.18075682614E+02 -0.10576884508E+02 -0.38013449790E+02  0.43400727561E+02  0.00000000000E+00 0.  1.
         11    1    3    3    0    0  0.10778054109E+02  0.15019004574E+02  0.20577930175E+02  0.27662034620E+02  0.51100000000E-03 0. -1.
        -11    1    3    3    0    0 -0.23041472836E+00 -0.21773185474E+01  0.37209684160E+01  0.43173386731E+01  0.51100000000E-03 0.  1.
         12    1    3    3    0    0  0.75280432338E+01 -0.22648015184E+01  0.13714551198E+02  0.15807899146E+02  0.00000000000E+00 0. -1.
</event>
<event>
 7    1  0.7470072E-010  0.4778726E+02  0.7816164E-02  0.1312668E+00
        -11   -1    0    0    0    0  0.00000000000E+00  0.00000000000E+00  0.45593999997E+02  0.45594000000E+02  0.51100000000E-03 0. -1.
         11   -1    0    0    0    0 -0.00000000000E+00 -0.00000000000E+00 -0.45593999997E+02  0.45594000000E+02  0.51100000000E-03 0.  1.
    9900012    2    1    2    0    0  0.20060114389E+02  0.25276053391E+02 -0.29023039430E+02  0.47787264037E+02  0.19999968052E+02 0.  0.
         12    1    1    2    0    0 -0.20060114389E+02 -0.25276053391E+02  0.29023039430E+02  0.43400735963E+02  0.00000000000E+00 0. -1.
         11    1    3    3    0    0  0.10489719783E+02  0.20016351725E+02 -0.21630869856E+02  0.31282312710E+02  0.51100000000E-03 0. -1.
        -11    1    3    3    0    0  0.15681819383E+01  0.59281807858E+01 -0.55400067583E+01  0.82640303221E+01  0.51100000000E-03 0.  1.
         12    1    3    3    0    0  0.80022126682E+01 -0.66847911939E+00 -0.18521628151E+01  0.82409210052E+01  0.00000000000E+00 0. -1.
</event>
<event>
 7    1  0.7470072E-010  0.4778727E+02  0.7816164E-02  0.1312668E+00
        -11   -1    0    0    0    0  0.00000000000E+00  0.00000000000E+00  0.45593999997E+02  0.45594000000E+02  0.51100000000E-03 0. -1.
         11   -1    0    0    0    0 -0.00000000000E+00 -0.00000000000E+00 -0.45593999997E+02  0.45594000000E+02  0.51100000000E-03 0.  1.
    9900012    2    1    2    0    0 -0.10279968221E+02  0.27111613100E+02  0.32294056426E+02  0.47787269684E+02  0.19999993798E+02 0.  0.
        -12    1    1    2    0    0  0.10279968221E+02 -0.27111613100E+02 -0.32294056426E+02  0.43400730316E+02  0.00000000000E+00 0.  1.
         11    1    3    3    0    0 -0.18751693583E+00  0.43513362325E+01  0.72188176066E+01  0.84309321850E+01  0.51100000000E-03 0. -1.
        -11    1    3    3    0    0 -0.10186684177E+02  0.24558861555E+02  0.26122286856E+02  0.37273047719E+02  0.51100000000E-03 0.  1.
        -12    1    3    3    0    0  0.94232891940E-01 -0.17985846875E+01 -0.10470480369E+01  0.20832897800E+01  0.00000000000E+00 0.  1.
</event>
<event>
 7    1  0.7470072E-010  0.4778727E+02  0.7816164E-02  0.1312668E+00
        -11   -1    0    0    0    0  0.00000000000E+00  0.00000000000E+00  0.45593999997E+02  0.45594000000E+02  0.51100000000E-03 0. -1.
         11   -1    0    0    0    0 -0.00000000000E+00 -0.00000000000E+00 -0.45593999997E+02  0.45594000000E+02  0.51100000000E-03 0.  1.
    9900012    2    1    2    0    0  0.27686395858E+02 -0.30668174867E+02  0.13287200032E+02  0.47787272472E+02  0.20000006509E+02 0.  0.
        -12    1    1    2    0    0 -0.27686395858E+02  0.30668174867E+02 -0.13287200032E+02  0.43400727528E+02  0.00000000000E+00 0.  1.
         11    1    3    3    0    0  0.59534837682E+01 -0.82310661990E+01  0.92616003866E+01  0.13746696393E+02  0.51100000000E-03 0. -1.
        -11    1    3    3    0    0  0.80355314091E+00 -0.82229514972E+01  0.27532653534E+01  0.87087943679E+01  0.51100000000E-03 0.  1.
         12    1    3    3    0    0  0.20929358949E+02 -0.14214157171E+02  0.12723342917E+01  0.25331781711E+02  0.00000000000E+00 0. -1.
</event>
<event>
 7    1  0.7470072E-010  0.4778728E+02  0.7816164E-02  0.1312668E+00
        -11   -1    0    0    0    0  0.00000000000E+00  0.00000000000E+00  0.45593999997E+02  0.45594000000E+02  0.51100000000E-03 0. -1.
         11   -1    0    0    0    0 -0.00000000000E+00 -0.00000000000E+00 -0.45593999997E+02  0.45594000000E+02  0.51100000000E-03 0.  1.
    9900012    2    1    2    0    0 -0.30493017550E+02  0.11509471961E+02  0.28658868443E+02  0.47787276451E+02  0.20000024650E+02 0.  0.
        -12    1    1    2    0    0  0.30493017550E+02 -0.11509471961E+02 -0.28658868443E+02  0.43400723549E+02  0.00000000000E+00 0.  1.
         11    1    3    3    0    0 -0.24574382107E+02  0.15331496057E+02  0.24873078888E+02  0.38178856464E+02  0.51100000000E-03 0. -1.
        -11    1    3    3    0    0 -0.68698245450E+01 -0.28878994910E+01  0.35501776799E+01  0.82545874863E+01  0.51100000000E-03 0.  1.
        -12    1    3    3    0    0  0.95118910107E+00 -0.93412460491E+00  0.23561187461E+00  0.13538325003E+01  0.00000000000E+00 0.  1.
</event>
<event>
 7    1  0.7470072E-010  0.4778727E+02  0.7816164E-02  0.1312668E+00
        -11   -1    0    0    0    0  0.00000000000E+00  0.00000000000E+00  0.45593999997E+02  0.45594000000E+02  0.51100000000E-03 0. -1.
         11   -1    0    0    0    0 -0.00000000000E+00 -0.00000000000E+00 -0.45593999997E+02  0.45594000000E+02  0.51100000000E-03 0.  1.
    9900012    2    1    2    0    0 -0.31041607028E+02  0.24605267684E+02 -0.17737608556E+02  0.47787270490E+02  0.19999997471E+02 0.  0.
         12    1    1    2    0    0  0.31041607028E+02 -0.24605267684E+02  0.17737608556E+02  0.43400729510E+02  0.00000000000E+00 0. -1.
         11    1    3    3    0    0 -0.66910033073E+01  0.30269008223E+01 -0.23139315709E+01  0.76997359320E+01  0.51100000000E-03 0. -1.
        -11    1    3    3    0    0 -0.23057985323E+02  0.14932170901E+02 -0.54079503323E+01  0.27997970320E+02  0.51100000000E-03 0.  1.
        -12    1    3    3    0    0 -0.12926183981E+01  0.66461959608E+01 -0.10015726653E+02  0.12089564238E+02  0.00000000000E+00 0.  1.
</event>
<event>
 7    1  0.7470072E-010  0.4778727E+02  0.7816164E-02  0.1312668E+00
        -11   -1    0    0    0    0  0.00000000000E+00  0.00000000000E+00  0.45593999997E+02  0.45594000000E+02  0.51100000000E-03 0. -1.
         11   -1    0    0    0    0 -0.00000000000E+00 -0.00000000000E+00 -0.45593999997E+02  0.45594000000E+02  0.51100000000E-03 0.  1.
    9900012    2    1    2    0    0 -0.54545595264E+00 -0.20899669104E+02  0.38033268899E+02  0.47787271504E+02  0.20000002097E+02 0.  0.
        -12    1    1    2    0    0  0.54545595264E+00  0.20899669104E+02 -0.38033268899E+02  0.43400728496E+02  0.00000000000E+00 0.  1.
         11    1    3    3    0    0 -0.29580971238E+01 -0.41154495594E+01  0.23334765135E+02  0.23878830119E+02  0.51100000000E-03 0. -1.
        -11    1    3    3    0    0 -0.23845709033E+00 -0.16122206344E+02  0.12582046905E+02  0.20452146678E+02  0.51100000000E-03 0.  1.
         12    1    3    3    0    0  0.26510982615E+01 -0.66201320064E+00  0.21164568581E+01  0.34562947070E+01  0.00000000000E+00 0. -1.
</event>
<event>
 7    1  0.7470072E-010  0.4778728E+02  0.7816164E-02  0.1312668E+00
        -11   -1    0    0    0    0  0.00000000000E+00  0.00000000000E+00  0.45593999997E+02  0.45594000000E+02  0.51100000000E-03 0. -1.
         11   -1    0    0    0    0 -0.00000000000E+00 -0.00000000000E+00 -0.45593999997E+02  0.45594000000E+02  0.51100000000E-03 0.  1.
    9900012    2    1    2    0    0 -0.20559794552E+02 -0.19996857796E+02 -0.32573661874E+02  0.47787275103E+02  0.20000018504E+02 0.  0.
         12    1    1    2    0    0  0.20559794552E+02  0.19996857796E+02  0.32573661874E+02  0.43400724897E+02  0.00000000000E+00 0. -1.
         11    1    3    3    0    0  0.51071291077E+00 -0.93119418706E+00 -0.10228544793E+00  0.10669643224E+01  0.51100000000E-03 0. -1.
        -11    1    3    3    0    0 -0.98327513077E+01 -0.13538966996E+02 -0.29396422691E+02  0.33825083783E+02  0.51100000000E-03 0.  1.
        -12    1    3    3    0    0 -0.11237756155E+02 -0.55266966127E+01 -0.30749537345E+01  0.12895226998E+02  0.00000000000E+00 0.  1.
</event>
<event>
 7    1  0.7470072E-010  0.4778728E+02  0.7816164E-02  0.1312668E+00
        -11   -1    0    0    0    0  0.00000000000E+00  0.00000000000E+00  0.45593999997E+02  0.45594000000E+02  0.51100000000E-03 0.  1.
         11   -1    0    0    0    0 -0.00000000000E+00 -0.00000000000E+00 -0.45593999997E+02  0.45594000000E+02  0.51100000000E-03 0. -1.
    9900012    2    1    2    0    0 -0.21610309206E+02 -0.37442819420E+02 -0.38278467385E+01  0.47787278799E+02  0.20000035356E+02 0.  0.
        -12    1    1    2    0    0  0.21610309206E+02  0.37442819420E+02  0.38278467385E+01  0.43400721201E+02  0.00000000000E+00 0.  1.
         11    1    3    3    0    0 -0.13891311519E+02 -0.22382531496E+02 -0.62768911034E+01  0.27080354763E+02  0.51100000000E-03 0. -1.
        -11    1    3    3    0    0  0.12020555219E+01 -0.60449261134E+01  0.47947535268E+01  0.78086958475E+01  0.51100000000E-03 0.  1.
         12    1    3    3    0    0 -0.89210532092E+01 -0.90153618108E+01 -0.23457091619E+01  0.12898228189E+02  0.00000000000E+00 0. -1.
</event>
<event>
 7    1  0.7470072E-010  0.4778727E+02  0.7816164E-02  0.1312668E+00
        -11   -1    0    0    0    0  0.00000000000E+00  0.00000000000E+00  0.45593999997E+02  0.45594000000E+02  0.51100000000E-03 0. -1.
         11   -1    0    0    0    0 -0.00000000000E+00 -0.00000000000E+00 -0.45593999997E+02  0.45594000000E+02  0.51100000000E-03 0.  1.
    9900012    2    1    2    0    0  0.19581298444E+02 -0.98766067296E+01  0.37451957330E+02  0.47787265938E+02  0.19999976719E+02 0.  0.
        -12    1    1    2    0    0 -0.19581298444E+02  0.98766067296E+01 -0.37451957330E+02  0.43400734062E+02  0.00000000000E+00 0.  1.
         11    1    3    3    0    0  0.12695704356E+01 -0.46409168468E+01  0.12159212536E+02  0.13076557958E+02  0.51100000000E-03 0. -1.
        -11    1    3    3    0    0  0.17156834089E+02 -0.43232635846E+01  0.27109601104E+02  0.32372488880E+02  0.51100000000E-03 0.  1.
        -12    1    3    3    0    0  0.11548939190E+01 -0.91242629817E+00 -0.18168563097E+01  0.23382191009E+01  0.00000000000E+00 0.  1.
</event>
<event>
 7    1  0.7470072E-010  0.4778727E+02  0.7816164E-02  0.1312668E+00
        -11   -1    0    0    0    0  0.00000000000E+00  0.00000000000E+00  0.45593999997E+02  0.45594000000E+02  0.51100000000E-03 0. -1.
         11   -1    0    0    0    0 -0.00000000000E+00 -0.00000000000E+00 -0.45593999997E+02  0.45594000000E+02  0.51100000000E-03 0.  1.
    9900012    2    1    2    0    0  0.12468670443E+02 -0.12141372434E+02  0.39758552292E+02  0.47787272500E+02  0.20000006636E+02 0.  0.
        -12    1    1    2    0    0 -0.12468670443E+02  0.12141372434E+02 -0.39758552292E+02  0.43400727500E+02  0.00000000000E+00 0.  1.
         11    1    3    3    0    0  0.99327808223E+01 -0.40872839644E+01  0.15641964012E+02  0.18974642645E+02  0.51100000000E-03 0. -1.
        -11    1    3    3    0    0 -0.20613262762E+01 -0.81711183181E+01  0.66045324393E+01  0.10706824440E+02  0.51100000000E-03 0.  1.
        -12    1    3    3    0    0  0.45972158973E+01  0.11702984821E+00  0.17512055840E+02  0.18105805415E+02  0.00000000000E+00 0.  1.
</event>
<event>
 7    1  0.7470072E-010  0.4778727E+02  0.7816164E-02  0.1312668E+00
        -11   -1    0    0    0    0  0.00000000000E+00  0.00000000000E+00  0.45593999997E+02  0.45594000000E+02  0.51100000000E-03 0. -1.
         11   -1    0    0    0    0 -0.00000000000E+00 -0.00000000000E+00 -0.45593999997E+02  0.45594000000E+02  0.51100000000E-03 0.  1.
    9900012    2    1    2    0    0  0.15396379186E+02 -0.50829068632E+01 -0.40258402127E+02  0.47787269868E+02  0.19999994635E+02 0.  0.
         12    1    1    2    0    0 -0.15396379186E+02  0.50829068632E+01  0.40258402127E+02  0.43400730132E+02  0.00000000000E+00 0. -1.
         11    1    3    3    0    0  0.10638065342E+02  0.31364681163E+01 -0.91366488706E+01  0.14369558772E+02  0.51100000000E-03 0. -1.
        -11    1    3    3    0    0  0.37729504558E+01 -0.29845170872E+01 -0.57698460993E+01  0.75122314699E+01  0.51100000000E-03 0.  1.
         12    1    3    3    0    0  0.98536338818E+00 -0.52348578922E+01 -0.25351907157E+02  0.25905479626E+02  0.00000000000E+00 0. -1.
</event>
<event>
 7    1  0.7470072E-010  0.4778727E+02  0.7816164E-02  0.1312668E+00
        -11   -1    0    0    0    0  0.00000000000E+00  0.00000000000E+00  0.45593999997E+02  0.45594000000E+02  0.51100000000E-03 0. -1.
         11   -1    0    0    0    0 -0.00000000000E+00 -0.00000000000E+00 -0.45593999997E+02  0.45594000000E+02  0.51100000000E-03 0.  1.
    9900012    2    1    2    0    0  0.23565934261E+02  0.37142947555E+01 -0.36255679836E+02  0.47787267708E+02  0.19999984788E+02 0.  0.
         12    1    1    2    0    0 -0.23565934261E+02 -0.37142947555E+01  0.36255679836E+02  0.43400732292E+02  0.00000000000E+00 0. -1.
         11    1    3    3    0    0  0.20492403960E+02  0.50660788124E+01 -0.34791927360E+02  0.40694987213E+02  0.51100000000E-03 0.  1.
        -11    1    3    3    0    0  0.45997070440E+01 -0.20772429253E+01 -0.33085482753E+00  0.50578363199E+01  0.51100000000E-03 0. -1.
        -12    1    3    3    0    0 -0.15261767430E+01  0.72545886840E+00 -0.11328976487E+01  0.20344441755E+01  0.00000000000E+00 0.  1.
</event>
<event>
 7    1  0.7470072E-010  0.4778727E+02  0.7816164E-02  0.1312668E+00
        -11   -1    0    0    0    0  0.00000000000E+00  0.00000000000E+00  0.45593999997E+02  0.45594000000E+02  0.51100000000E-03 0.  1.
         11   -1    0    0    0    0 -0.00000000000E+00 -0.00000000000E+00 -0.45593999997E+02  0.45594000000E+02  0.51100000000E-03 0. -1.
    9900012    2    1    2    0    0 -0.35700464690E+02  0.18146242565E+02 -0.16727646631E+02  0.47787268899E+02  0.19999990216E+02 0.  0.
         12    1    1    2    0    0  0.35700464690E+02 -0.18146242565E+02  0.16727646631E+02  0.43400731101E+02  0.00000000000E+00 0. -1.
         11    1    3    3    0    0 -0.20273590902E+02  0.13373063072E+02 -0.12226824559E+02  0.27191037917E+02  0.51100000000E-03 0. -1.
        -11    1    3    3    0    0 -0.76283980223E+01 -0.12746850786E+01  0.29007678127E+01  0.82602501537E+01  0.51100000000E-03 0.  1.
        -12    1    3    3    0    0 -0.77984757663E+01  0.60478645721E+01 -0.74015898843E+01  0.12335980827E+02  0.00000000000E+00 0.  1.
</event>
<event>
 7    1  0.7470072E-010  0.4778727E+02  0.7816164E-02  0.1312668E+00
        -11   -1    0    0    0    0  0.00000000000E+00  0.00000000000E+00  0.45593999997E+02  0.45594000000E+02  0.51100000000E-03 0.  1.
         11   -1    0    0    0    0 -0.00000000000E+00 -0.00000000000E+00 -0.45593999997E+02  0.45594000000E+02  0.51100000000E-03 0. -1.
    9900012    2    1    2    0    0  0.34729984696E+02 -0.21524085835E+02 -0.14634385089E+02  0.47787270341E+02  0.19999996791E+02 0.  0.
         12    1    1    2    0    0 -0.34729984696E+02  0.21524085835E+02  0.14634385089E+02  0.43400729659E+02  0.00000000000E+00 0. -1.
         11    1    3    3    0    0  0.17502492971E+01 -0.25777226703E+01 -0.73974353541E+01  0.80268347963E+01  0.51100000000E-03 0. -1.
        -11    1    3    3    0    0  0.24683968046E+02 -0.12254649727E+02 -0.13665511291E+01  0.27592429771E+02  0.51100000000E-03 0.  1.
        -12    1    3    3    0    0  0.82957673535E+01 -0.66917134370E+01 -0.58703986062E+01  0.12168005773E+02  0.00000000000E+00 0.  1.
</event>
<event>
 7    1  0.7470072E-010  0.4778727E+02  0.7816164E-02  0.1312668E+00
        -11   -1    0    0    0    0  0.00000000000E+00  0.00000000000E+00  0.45593999997E+02  0.45594000000E+02  0.51100000000E-03 0. -1.
         11   -1    0    0    0    0 -0.00000000000E+00 -0.00000000000E+00 -0.45593999997E+02  0.45594000000E+02  0.51100000000E-03 0.  1.
    9900012    2    1    2    0    0 -0.21542119922E+02 -0.28295812407E+02 -0.24877849011E+02  0.47787270721E+02  0.19999998527E+02 0.  0.
         12    1    1    2    0    0  0.21542119922E+02  0.28295812407E+02  0.24877849011E+02  0.43400729279E+02  0.00000000000E+00 0. -1.
         11    1    3    3    0    0 -0.37317692889E+01 -0.20210588055E+02 -0.85304237151E+01  0.22252238103E+02  0.51100000000E-03 0. -1.
        -11    1    3    3    0    0 -0.12083121247E+02 -0.57185828349E+01 -0.10294706075E+02  0.16872610412E+02  0.51100000000E-03 0.  1.
         12    1    3    3    0    0 -0.57272293861E+01 -0.23666415174E+01 -0.60527192213E+01  0.86624222066E+01  0.00000000000E+00 0. -1.
</event>
<event>
 7    1  0.7470072E-010  0.4778727E+02  0.7816164E-02  0.1312668E+00
        -11   -1    0    0    0    0  0.00000000000E+00  0.00000000000E+00  0.45593999997E+02  0.45594000000E+02  0.51100000000E-03 0. -1.
         11   -1    0    0    0    0 -0.00000000000E+00 -0.00000000000E+00 -0.45593999997E+02  0.45594000000E+02  0.51100000000E-03 0.  1.
    9900012    2    1    2    0    0 -0.39571466472E+02  0.14101587511E+02 -0.10902646361E+02  0.47787269284E+02  0.19999991971E+02 0.  0.
         12    1    1    2    0    0  0.39571466472E+02 -0.14101587511E+02  0.10902646361E+02  0.43400730716E+02  0.00000000000E+00 0. -1.
         11    1    3    3    0    0 -0.38118166488E+01  0.61499784556E+01 -0.58746066730E+00  0.72592900111E+01  0.51100000000E-03 0. -1.
        -11    1    3    3    0    0 -0.31908824940E+02  0.83950867068E+01 -0.13361940094E+02  0.35597640837E+02  0.51100000000E-03 0.  1.
        -12    1    3    3    0    0 -0.38508248834E+01 -0.44347765183E+00  0.30467544003E+01  0.49303384352E+01  0.00000000000E+00 0.  1.
</event>
<event>
 7    1  0.7470072E-010  0.4778727E+02  0.7816164E-02  0.1312668E+00
        -11   -1    0    0    0    0  0.00000000000E+00  0.00000000000E+00  0.45593999997E+02  0.45594000000E+02  0.51100000000E-03 0.  1.
         11   -1    0    0    0    0 -0.00000000000E+00 -0.00000000000E+00 -0.45593999997E+02  0.45594000000E+02  0.51100000000E-03 0. -1.
    9900012    2    1    2    0    0  0.33554036971E+02  0.26959819097E+02 -0.55604116429E+01  0.47787269356E+02  0.19999992303E+02 0.  0.
         12    1    1    2    0    0 -0.33554036971E+02 -0.26959819097E+02  0.55604116429E+01  0.43400730644E+02  0.00000000000E+00 0. -1.
         11    1    3    3    0    0  0.13988836669E+02  0.96954579193E+01  0.39786347479E+01  0.17479101531E+02  0.51100000000E-03 0.  1.
        -11    1    3    3    0    0  0.52886297587E+01  0.13411369291E+01 -0.68442915834E+01  0.87528612766E+01  0.51100000000E-03 0. -1.
         12    1    3    3    0    0  0.14276570544E+02  0.15923224248E+02 -0.26947548073E+01  0.21555306549E+02  0.00000000000E+00 0. -1.
</event>
<event>
 7    1  0.7470072E-010  0.4778728E+02  0.7816164E-02  0.1312668E+00
        -11   -1    0    0    0    0  0.00000000000E+00  0.00000000000E+00  0.45593999997E+02  0.45594000000E+02  0.51100000000E-03 0. -1.
         11   -1    0    0    0    0 -0.00000000000E+00 -0.00000000000E+00 -0.45593999997E+02  0.45594000000E+02  0.51100000000E-03 0.  1.
    9900012    2    1    2    0    0  0.38130252442E+02 -0.19868429979E+02  0.59120166931E+01  0.47787278779E+02  0.20000035265E+02 0.  0.
        -12    1    1    2    0    0 -0.38130252442E+02  0.19868429979E+02 -0.59120166931E+01  0.43400721221E+02  0.00000000000E+00 0.  1.
         11    1    3    3    0    0  0.20235451626E+02 -0.19083321601E+02  0.75999921570E+01  0.28834121226E+02  0.51100000000E-03 0. -1.
        -11    1    3    3    0    0  0.12947812373E+00  0.15030565598E+00  0.94840962049E+00  0.96893624357E+00  0.51100000000E-03 0.  1.
         12    1    3    3    0    0  0.17765322693E+02 -0.93541403404E+00 -0.26363850844E+01  0.17984221309E+02  0.00000000000E+00 0. -1.
</event>
<event>
 7    1  0.7470072E-010  0.4778727E+02  0.7816164E-02  0.1312668E+00
        -11   -1    0    0    0    0  0.00000000000E+00  0.00000000000E+00  0.45593999997E+02  0.45594000000E+02  0.51100000000E-03 0. -1.
         11   -1    0    0    0    0 -0.00000000000E+00 -0.00000000000E+00 -0.45593999997E+02  0.45594000000E+02  0.51100000000E-03 0.  1.
    9900012    2    1    2    0    0 -0.22084800533E+02 -0.15237746520E+02  0.34112989369E+02  0.47787269854E+02  0.19999994571E+02 0.  0.
        -12    1    1    2    0    0  0.22084800533E+02  0.15237746520E+02 -0.34112989369E+02  0.43400730146E+02  0.00000000000E+00 0.  1.
         11    1    3    3    0    0 -0.15301989369E+02 -0.12676398715E+02  0.10677711637E+02  0.22557825452E+02  0.51100000000E-03 0. -1.
        -11    1    3    3    0    0  0.35326036423E+00 -0.16435682784E+01  0.83330629987E+01  0.85009439930E+01  0.51100000000E-03 0.  1.
         12    1    3    3    0    0 -0.71360715275E+01 -0.91777952689E+00  0.15102214733E+02  0.16728500409E+02  0.00000000000E+00 0. -1.
</event>
<event>
 7    1  0.8787113E-010  0.4778728E+02  0.7816164E-02  0.1312668E+00
        -11   -1    0    0    0    0  0.00000000000E+00  0.00000000000E+00  0.45593999997E+02  0.45594000000E+02  0.51100000000E-03 0. -1.
         11   -1    0    0    0    0 -0.00000000000E+00 -0.00000000000E+00 -0.45593999997E+02  0.45594000000E+02  0.51100000000E-03 0.  1.
    9900012    2    1    2    0    0 -0.22404900646E+02  0.54868405508E+01 -0.36763268308E+02  0.47787275480E+02  0.20000020224E+02 0.  0.
         12    1    1    2    0    0  0.22404900646E+02 -0.54868405508E+01  0.36763268308E+02  0.43400724520E+02  0.00000000000E+00 0. -1.
         11    1    3    3    0    0 -0.60150536554E+01 -0.27778064473E+01 -0.28318512741E+01  0.72053078376E+01  0.51100000000E-03 0. -1.
        -11    1    3    3    0    0 -0.11113557578E+02  0.11547169187E+02 -0.25219493608E+02  0.29880949389E+02  0.51100000000E-03 0.  1.
        -12    1    3    3    0    0 -0.52762894128E+01 -0.32825221893E+01 -0.87119234259E+01  0.10701018254E+02  0.00000000000E+00 0.  1.
</event>
<event>
 7    1  0.7470072E-010  0.4778727E+02  0.7816164E-02  0.1312668E+00
        -11   -1    0    0    0    0  0.00000000000E+00  0.00000000000E+00  0.45593999997E+02  0.45594000000E+02  0.51100000000E-03 0. -1.
         11   -1    0    0    0    0 -0.00000000000E+00 -0.00000000000E+00 -0.45593999997E+02  0.45594000000E+02  0.51100000000E-03 0.  1.
    9900012    2    1    2    0    0  0.92755907030E+01 -0.27640862352E+02 -0.32149175324E+02  0.47787270415E+02  0.19999997132E+02 0.  0.
         12    1    1    2    0    0 -0.92755907030E+01  0.27640862352E+02  0.32149175324E+02  0.43400729585E+02  0.00000000000E+00 0. -1.
         11    1    3    3    0    0  0.48542749346E+01 -0.57118194366E+01 -0.23860919212E+00  0.74997200631E+01  0.51100000000E-03 0. -1.
        -11    1    3    3    0    0  0.32611907656E+01 -0.77636972050E+00 -0.53475651076E+01  0.63114632213E+01  0.51100000000E-03 0.  1.
         12    1    3    3    0    0  0.11601250029E+01 -0.21152673194E+02 -0.26563001025E+02  0.33976087131E+02  0.00000000000E+00 0. -1.
</event>
<event>
 7    1  0.7470072E-010  0.4778727E+02  0.7816164E-02  0.1312668E+00
        -11   -1    0    0    0    0  0.00000000000E+00  0.00000000000E+00  0.45593999997E+02  0.45594000000E+02  0.51100000000E-03 0. -1.
         11   -1    0    0    0    0 -0.00000000000E+00 -0.00000000000E+00 -0.45593999997E+02  0.45594000000E+02  0.51100000000E-03 0.  1.
    9900012    2    1    2    0    0  0.18861255758E+02  0.33432879109E+01 -0.38944814715E+02  0.47787272632E+02  0.20000007240E+02 0.  0.
         12    1    1    2    0    0 -0.18861255758E+02 -0.33432879109E+01  0.38944814715E+02  0.43400727368E+02  0.00000000000E+00 0. -1.
         11    1    3    3    0    0 -0.19909761626E+01 -0.32718263669E+01 -0.49831127176E+01  0.62849221532E+01  0.51100000000E-03 0. -1.
        -11    1    3    3    0    0  0.19244142180E+02  0.60227293588E+01 -0.34268821334E+02  0.39761317798E+02  0.51100000000E-03 0.  1.
        -12    1    3    3    0    0  0.16080897413E+01  0.59238491900E+00  0.30711933671E+00  0.17410326807E+01  0.00000000000E+00 0.  1.
</event>
<event>
 7    1  0.7470072E-010  0.4778727E+02  0.7816164E-02  0.1312668E+00
        -11   -1    0    0    0    0  0.00000000000E+00  0.00000000000E+00  0.45593999997E+02  0.45594000000E+02  0.51100000000E-03 0. -1.
         11   -1    0    0    0    0 -0.00000000000E+00 -0.00000000000E+00 -0.45593999997E+02  0.45594000000E+02  0.51100000000E-03 0.  1.
    9900012    2    1    2    0    0  0.15570781834E+02 -0.40047002914E+02  0.61164839650E+01  0.47787273446E+02  0.20000010949E+02 0.  0.
        -12    1    1    2    0    0 -0.15570781834E+02  0.40047002914E+02 -0.61164839650E+01  0.43400726554E+02  0.00000000000E+00 0.  1.
         11    1    3    3    0    0  0.18024167398E+01 -0.17423658801E+02  0.79865981231E+01  0.19251450385E+02  0.51100000000E-03 0. -1.
        -11    1    3    3    0    0  0.55619465404E+01 -0.25411098746E+01 -0.30019169177E+01  0.68120477211E+01  0.51100000000E-03 0.  1.
        -12    1    3    3    0    0  0.82064185541E+01 -0.20082234239E+02  0.11318027595E+01  0.21723775339E+02  0.00000000000E+00 0.  1.
</event>
<event>
 7    1  0.7470072E-010  0.4778727E+02  0.7816164E-02  0.1312668E+00
        -11   -1    0    0    0    0  0.00000000000E+00  0.00000000000E+00  0.45593999997E+02  0.45594000000E+02  0.51100000000E-03 0. -1.
         11   -1    0    0    0    0 -0.00000000000E+00 -0.00000000000E+00 -0.45593999997E+02  0.45594000000E+02  0.51100000000E-03 0.  1.
    9900012    2    1    2    0    0 -0.43258813515E+02 -0.26104449258E+01 -0.23417632075E+01  0.47787271615E+02  0.20000002601E+02 0.  0.
         12    1    1    2    0    0  0.43258813515E+02  0.26104449258E+01  0.23417632075E+01  0.43400728385E+02  0.00000000000E+00 0. -1.
         11    1    3    3    0    0 -0.31055315768E+02  0.68052882293E+01 -0.27610373375E+01  0.31911877299E+02  0.51100000000E-03 0. -1.
        -11    1    3    3    0    0 -0.26418576504E+01 -0.67979128940E+00 -0.86147707833E+00  0.28607116351E+01  0.51100000000E-03 0.  1.
         12    1    3    3    0    0 -0.95616400969E+01 -0.87359418657E+01  0.12807512083E+01  0.13014682681E+02  0.00000000000E+00 0. -1.
</event>
<event>
 7    1  0.7470072E-010  0.4778727E+02  0.7816164E-02  0.1312668E+00
        -11   -1    0    0    0    0  0.00000000000E+00  0.00000000000E+00  0.45593999997E+02  0.45594000000E+02  0.51100000000E-03 0. -1.
         11   -1    0    0    0    0 -0.00000000000E+00 -0.00000000000E+00 -0.45593999997E+02  0.45594000000E+02  0.51100000000E-03 0.  1.
    9900012    2    1    2    0    0  0.37787110856E+02  0.16521940676E+02 -0.13519732816E+02  0.47787269062E+02  0.19999990961E+02 0.  0.
         12    1    1    2    0    0 -0.37787110856E+02 -0.16521940676E+02  0.13519732816E+02  0.43400730938E+02  0.00000000000E+00 0. -1.
         11    1    3    3    0    0  0.91042866194E+01  0.99419219056E+01 -0.94745300962E+01  0.16477152874E+02  0.51100000000E-03 0. -1.
        -11    1    3    3    0    0  0.22044380816E+02  0.91746901964E+01 -0.38042582471E+01  0.24178545176E+02  0.51100000000E-03 0.  1.
         12    1    3    3    0    0  0.66384434212E+01 -0.25946714264E+01 -0.24094447286E+00  0.71315710125E+01  0.00000000000E+00 0. -1.
</event>
<event>
 7    1  0.7470072E-010  0.4778727E+02  0.7816164E-02  0.1312668E+00
        -11   -1    0    0    0    0  0.00000000000E+00  0.00000000000E+00  0.45593999997E+02  0.45594000000E+02  0.51100000000E-03 0. -1.
         11   -1    0    0    0    0 -0.00000000000E+00 -0.00000000000E+00 -0.45593999997E+02  0.45594000000E+02  0.51100000000E-03 0.  1.
    9900012    2    1    2    0    0 -0.28315242785E+02 -0.10084222403E+01 -0.32876341148E+02  0.47787266174E+02  0.19999977794E+02 0.  0.
         12    1    1    2    0    0  0.28315242785E+02  0.10084222403E+01  0.32876341148E+02  0.43400733826E+02  0.00000000000E+00 0. -1.
         11    1    3    3    0    0 -0.18475986785E+02 -0.15715786938E+00 -0.18668243646E+02  0.26265759219E+02  0.51100000000E-03 0.  1.
        -11    1    3    3    0    0 -0.55840848659E-01  0.33161727301E+01 -0.91759020116E+01  0.97569102570E+01  0.51100000000E-03 0. -1.
        -12    1    3    3    0    0 -0.97834151514E+01 -0.41674371010E+01 -0.50321954902E+01  0.11764596698E+02  0.00000000000E+00 0.  1.
</event>
<event>
 7    1  0.7470072E-010  0.4778727E+02  0.7816164E-02  0.1312668E+00
        -11   -1    0    0    0    0  0.00000000000E+00  0.00000000000E+00  0.45593999997E+02  0.45594000000E+02  0.51100000000E-03 0. -1.
         11   -1    0    0    0    0 -0.00000000000E+00 -0.00000000000E+00 -0.45593999997E+02  0.45594000000E+02  0.51100000000E-03 0.  1.
    9900012    2    1    2    0    0  0.14110987114E+02  0.20605112693E+02 -0.35495534061E+02  0.47787267694E+02  0.19999984726E+02 0.  0.
         12    1    1    2    0    0 -0.14110987114E+02 -0.20605112693E+02  0.35495534061E+02  0.43400732306E+02  0.00000000000E+00 0. -1.
         11    1    3    3    0    0  0.11086065035E+01  0.42130714880E+01 -0.30548041676E+01  0.53207902145E+01  0.51100000000E-03 0. -1.
        -11    1    3    3    0    0  0.46465385763E+01  0.15843027602E+02 -0.29086684533E+02  0.33445882582E+02  0.51100000000E-03 0.  1.
        -12    1    3    3    0    0  0.83558420338E+01  0.54901360269E+00 -0.33540453605E+01  0.90205948977E+01  0.00000000000E+00 0.  1.
</event>
<event>
 7    1  0.7470072E-010  0.4778727E+02  0.7816164E-02  0.1312668E+00
        -11   -1    0    0    0    0  0.00000000000E+00  0.00000000000E+00  0.45593999997E+02  0.45594000000E+02  0.51100000000E-03 0. -1.
         11   -1    0    0    0    0 -0.00000000000E+00 -0.00000000000E+00 -0.45593999997E+02  0.45594000000E+02  0.51100000000E-03 0.  1.
    9900012    2    1    2    0    0  0.57508289757E+01 -0.11623067966E+02  0.41418063223E+02  0.47787266089E+02  0.19999977408E+02 0.  0.
        -12    1    1    2    0    0 -0.57508289757E+01  0.11623067966E+02 -0.41418063223E+02  0.43400733911E+02  0.00000000000E+00 0.  1.
         11    1    3    3    0    0  0.53032378851E+01  0.31791225480E+01  0.57087097972E+01  0.84154928585E+01  0.51100000000E-03 0. -1.
        -11    1    3    3    0    0 -0.19766751725E+01 -0.13483488331E+02  0.31693040698E+02  0.34498703327E+02  0.51100000000E-03 0.  1.
        -12    1    3    3    0    0  0.24242662630E+01 -0.13187021825E+01  0.40163127280E+01  0.48730699040E+01  0.00000000000E+00 0.  1.
</event>
<event>
 7    1  0.7470072E-010  0.4778727E+02  0.7816164E-02  0.1312668E+00
        -11   -1    0    0    0    0  0.00000000000E+00  0.00000000000E+00  0.45593999997E+02  0.45594000000E+02  0.51100000000E-03 0. -1.
         11   -1    0    0    0    0 -0.00000000000E+00 -0.00000000000E+00 -0.45593999997E+02  0.45594000000E+02  0.51100000000E-03 0.  1.
    9900012    2    1    2    0    0  0.17278267769E+02  0.74062421552E+00 -0.39806231157E+02  0.47787273044E+02  0.20000009119E+02 0.  0.
         12    1    1    2    0    0 -0.17278267769E+02 -0.74062421552E+00  0.39806231157E+02  0.43400726956E+02  0.00000000000E+00 0. -1.
         11    1    3    3    0    0  0.51833419968E+01 -0.50453535507E+01 -0.23326516883E+02  0.24422305724E+02  0.51100000000E-03 0. -1.
        -11    1    3    3    0    0  0.53784790733E+01  0.26359747883E+01 -0.14497751224E+02  0.15686337719E+02  0.51100000000E-03 0.  1.
         12    1    3    3    0    0  0.67164466994E+01  0.31500029779E+01 -0.19819630503E+01  0.76786296016E+01  0.00000000000E+00 0. -1.
</event>
<event>
 7    1  0.8552686E-010  0.4778727E+02  0.7816164E-02  0.1312668E+00
        -11   -1    0    0    0    0  0.00000000000E+00  0.00000000000E+00  0.45593999997E+02  0.45594000000E+02  0.51100000000E-03 0. -1.
         11   -1    0    0    0    0 -0.00000000000E+00 -0.00000000000E+00 -0.45593999997E+02  0.45594000000E+02  0.51100000000E-03 0.  1.
    9900012    2    1    2    0    0 -0.25055351802E+02 -0.10350923622E+02 -0.33892640641E+02  0.47787270014E+02  0.19999995300E+02 0.  0.
         12    1    1    2    0    0  0.25055351802E+02  0.10350923622E+02  0.33892640641E+02  0.43400729986E+02  0.00000000000E+00 0. -1.
         11    1    3    3    0    0  0.14927298352E+01 -0.26796414868E+01 -0.38797332944E+01  0.49458115164E+01  0.51100000000E-03 0. -1.
        -11    1    3    3    0    0 -0.17289735008E+02 -0.99673172478E+00 -0.24911238280E+02  0.30339713309E+02  0.51100000000E-03 0.  1.
        -12    1    3    3    0    0 -0.92583466288E+01 -0.66745504102E+01 -0.51016690669E+01  0.12501745188E+02  0.00000000000E+00 0.  1.
</event>
<event>
 7    1  0.7470072E-010  0.4778726E+02  0.7816164E-02  0.1312668E+00
        -11   -1    0    0    0    0  0.00000000000E+00  0.00000000000E+00  0.45593999997E+02  0.45594000000E+02  0.51100000000E-03 0.  1.
         11   -1    0    0    0    0 -0.00000000000E+00 -0.00000000000E+00 -0.45593999997E+02  0.45594000000E+02  0.51100000000E-03 0. -1.
    9900012    2    1    2    0    0  0.15539879772E+02 -0.40280907376E+02  0.44254456808E+01  0.47787263465E+02  0.19999965440E+02 0.  0.
        -12    1    1    2    0    0 -0.15539879772E+02  0.40280907376E+02 -0.44254456808E+01  0.43400736535E+02  0.00000000000E+00 0.  1.
         11    1    3    3    0    0  0.16414743486E+02 -0.26185717034E+02  0.81079771893E+01  0.31951132604E+02  0.51100000000E-03 0. -1.
        -11    1    3    3    0    0  0.47791293554E+00 -0.49455350837E+01 -0.42937878981E+01  0.65668358296E+01  0.51100000000E-03 0.  1.
        -12    1    3    3    0    0 -0.13527766496E+01 -0.91496552575E+01  0.61125638962E+00  0.92692950308E+01  0.00000000000E+00 0.  1.
</event>
<event>
 7    1  0.7938743E-010  0.4778727E+02  0.7816164E-02  0.1312668E+00
        -11   -1    0    0    0    0  0.00000000000E+00  0.00000000000E+00  0.45593999997E+02  0.45594000000E+02  0.51100000000E-03 0. -1.
         11   -1    0    0    0    0 -0.00000000000E+00 -0.00000000000E+00 -0.45593999997E+02  0.45594000000E+02  0.51100000000E-03 0.  1.
    9900012    2    1    2    0    0 -0.16468783573E+02  0.18066136064E+02 -0.35861082085E+02  0.47787270594E+02  0.19999997945E+02 0.  0.
         12    1    1    2    0    0  0.16468783573E+02 -0.18066136064E+02  0.35861082085E+02  0.43400729406E+02  0.00000000000E+00 0. -1.
         11    1    3    3    0    0  0.26777520824E+00  0.46425174917E+01  0.50401219452E+00  0.46774673464E+01  0.51100000000E-03 0. -1.
        -11    1    3    3    0    0 -0.70830510896E+01  0.16882720464E+01 -0.17005084333E+02  0.18498453142E+02  0.51100000000E-03 0.  1.
         12    1    3    3    0    0 -0.96535076916E+01  0.11735346526E+02 -0.19360009947E+02  0.24611350105E+02  0.00000000000E+00 0. -1.
</event>
<event>
 7    1  0.7470072E-010  0.4778724E+02  0.7816164E-02  0.1312668E+00
        -11   -1    0    0    0    0  0.00000000000E+00  0.00000000000E+00  0.45593999997E+02  0.45594000000E+02  0.51100000000E-03 0.  1.
         11   -1    0    0    0    0 -0.00000000000E+00 -0.00000000000E+00 -0.45593999997E+02  0.45594000000E+02  0.51100000000E-03 0. -1.
    9900012    2    1    2    0    0  0.24209840648E+02  0.27893363402E+02 -0.22791877253E+02  0.47787242233E+02  0.19999868637E+02 0.  0.
         12    1    1    2    0    0 -0.24209840648E+02 -0.27893363402E+02  0.22791877253E+02  0.43400757767E+02  0.00000000000E+00 0. -1.
         11    1    3    3    0    0  0.18149771879E+02  0.21249299913E+02 -0.23716958045E+02  0.36652981669E+02  0.51100000000E-03 0. -1.
        -11    1    3    3    0    0  0.72878826614E+01  0.66033088801E+01  0.10902195336E+01  0.98947208523E+01  0.51100000000E-03 0.  1.
         12    1    3    3    0    0 -0.12278138925E+01  0.40754608327E-01 -0.16513874122E+00  0.12395397116E+01  0.00000000000E+00 0. -1.
</event>
<event>
 7    1  0.7470072E-010  0.4778727E+02  0.7816164E-02  0.1312668E+00
        -11   -1    0    0    0    0  0.00000000000E+00  0.00000000000E+00  0.45593999997E+02  0.45594000000E+02  0.51100000000E-03 0. -1.
         11   -1    0    0    0    0 -0.00000000000E+00 -0.00000000000E+00 -0.45593999997E+02  0.45594000000E+02  0.51100000000E-03 0.  1.
    9900012    2    1    2    0    0  0.10809895119E+01 -0.12648399053E+02  0.41502685408E+02  0.47787269211E+02  0.19999991643E+02 0.  0.
        -12    1    1    2    0    0 -0.10809895119E+01  0.12648399053E+02 -0.41502685408E+02  0.43400730789E+02  0.00000000000E+00 0.  1.
         11    1    3    3    0    0 -0.49822470133E+01 -0.41584817286E+00  0.16484864719E+02  0.17226331010E+02  0.51100000000E-03 0. -1.
        -11    1    3    3    0    0  0.57236498652E+01 -0.56902959766E+01  0.49900204223E+01  0.94889377781E+01  0.51100000000E-03 0.  1.
         12    1    3    3    0    0  0.33958666001E+00 -0.65422549033E+01  0.20027800267E+02  0.21072000424E+02  0.00000000000E+00 0. -1.
</event>
<event>
 7    1  0.7470072E-010  0.4778727E+02  0.7816164E-02  0.1312668E+00
        -11   -1    0    0    0    0  0.00000000000E+00  0.00000000000E+00  0.45593999997E+02  0.45594000000E+02  0.51100000000E-03 0. -1.
         11   -1    0    0    0    0 -0.00000000000E+00 -0.00000000000E+00 -0.45593999997E+02  0.45594000000E+02  0.51100000000E-03 0.  1.
    9900012    2    1    2    0    0 -0.31052165043E+02  0.26749375315E+02  0.14277857639E+02  0.47787271292E+02  0.20000001128E+02 0.  0.
        -12    1    1    2    0    0  0.31052165043E+02 -0.26749375315E+02 -0.14277857639E+02  0.43400728708E+02  0.00000000000E+00 0.  1.
         11    1    3    3    0    0 -0.25886902658E+01 -0.25125845859E+01  0.28332592689E+01  0.45871294880E+01  0.51100000000E-03 0. -1.
        -11    1    3    3    0    0 -0.25200895252E+01  0.53195854816E+01 -0.55778280051E+00  0.59126950560E+01  0.51100000000E-03 0.  1.
         12    1    3    3    0    0 -0.25943385252E+02  0.23942374420E+02  0.12002381171E+02  0.37287446748E+02  0.00000000000E+00 0. -1.
</event>
<event>
 7    1  0.7470072E-010  0.4778727E+02  0.7816164E-02  0.1312668E+00
        -11   -1    0    0    0    0  0.00000000000E+00  0.00000000000E+00  0.45593999997E+02  0.45594000000E+02  0.51100000000E-03 0.  1.
         11   -1    0    0    0    0 -0.00000000000E+00 -0.00000000000E+00 -0.45593999997E+02  0.45594000000E+02  0.51100000000E-03 0. -1.
    9900012    2    1    2    0    0 -0.28961837347E+02 -0.23942085585E+02  0.21716623080E+02  0.47787271865E+02  0.20000003741E+02 0.  0.
        -12    1    1    2    0    0  0.28961837347E+02  0.23942085585E+02 -0.21716623080E+02  0.43400728135E+02  0.00000000000E+00 0.  1.
         11    1    3    3    0    0 -0.31484807694E+02 -0.23784492732E+02  0.19856577281E+02  0.44173282328E+02  0.51100000000E-03 0. -1.
        -11    1    3    3    0    0  0.16975099140E+01 -0.85022194923E+00  0.16517593566E+01  0.25164909108E+01  0.51100000000E-03 0.  1.
         12    1    3    3    0    0  0.82546043333E+00  0.69262909629E+00  0.20828644156E+00  0.10974986259E+01  0.00000000000E+00 0. -1.
</event>
<event>
 7    1  0.7470072E-010  0.4778727E+02  0.7816164E-02  0.1312668E+00
        -11   -1    0    0    0    0  0.00000000000E+00  0.00000000000E+00  0.45593999997E+02  0.45594000000E+02  0.51100000000E-03 0. -1.
         11   -1    0    0    0    0 -0.00000000000E+00 -0.00000000000E+00 -0.45593999997E+02  0.45594000000E+02  0.51100000000E-03 0.  1.
    9900012    2    1    2    0    0 -0.25598653411E+02 -0.28837953188E+01  0.34928728633E+02  0.47787269409E+02  0.19999992545E+02 0.  0.
        -12    1    1    2    0    0  0.25598653411E+02  0.28837953188E+01 -0.34928728633E+02  0.43400730591E+02  0.00000000000E+00 0.  1.
         11    1    3    3    0    0 -0.20103095215E+02 -0.30559151965E+01  0.27432570373E+02  0.34147019964E+02  0.51100000000E-03 0. -1.
        -11    1    3    3    0    0 -0.10999785283E+01 -0.33449292222E+01 -0.80337863953E+00  0.36116369922E+01  0.51100000000E-03 0.  1.
        -12    1    3    3    0    0 -0.43955796679E+01  0.35170490999E+01  0.82995368991E+01  0.10028612453E+02  0.00000000000E+00 0.  1.
</event>
<event>
 7    1  0.7470072E-010  0.4778727E+02  0.7816164E-02  0.1312668E+00
        -11   -1    0    0    0    0  0.00000000000E+00  0.00000000000E+00  0.45593999997E+02  0.45594000000E+02  0.51100000000E-03 0. -1.
         11   -1    0    0    0    0 -0.00000000000E+00 -0.00000000000E+00 -0.45593999997E+02  0.45594000000E+02  0.51100000000E-03 0.  1.
    9900012    2    1    2    0    0  0.22047363598E+02 -0.34025147729E+01  0.37228487549E+02  0.47787266900E+02  0.19999981106E+02 0.  0.
        -12    1    1    2    0    0 -0.22047363598E+02  0.34025147729E+01 -0.37228487549E+02  0.43400733100E+02  0.00000000000E+00 0.  1.
         11    1    3    3    0    0  0.98452849883E+01 -0.33469489135E+01  0.22969566422E+02  0.25213740012E+02  0.51100000000E-03 0. -1.
        -11    1    3    3    0    0  0.15023027387E+01  0.13164792917E+01 -0.21510173647E+01  0.29354568994E+01  0.51100000000E-03 0.  1.
        -12    1    3    3    0    0  0.10699775871E+02 -0.13720451511E+01  0.16409938492E+02  0.19638069989E+02  0.00000000000E+00 0.  1.
</event>
<event>
 7    1  0.7470072E-010  0.4778727E+02  0.7816164E-02  0.1312668E+00
        -11   -1    0    0    0    0  0.00000000000E+00  0.00000000000E+00  0.45593999997E+02  0.45594000000E+02  0.51100000000E-03 0. -1.
         11   -1    0    0    0    0 -0.00000000000E+00 -0.00000000000E+00 -0.45593999997E+02  0.45594000000E+02  0.51100000000E-03 0.  1.
    9900012    2    1    2    0    0 -0.65116575293E+01 -0.27051160690E+02 -0.33308501418E+02  0.47787271375E+02  0.20000001508E+02 0.  0.
         12    1    1    2    0    0  0.65116575293E+01  0.27051160690E+02  0.33308501418E+02  0.43400728625E+02  0.00000000000E+00 0. -1.
         11    1    3    3    0    0  0.34271530363E+01 -0.21474287486E+01  0.76072109638E+00  0.41152794574E+01  0.51100000000E-03 0. -1.
        -11    1    3    3    0    0 -0.11175969693E+01 -0.95297696661E+01 -0.11671937618E+02  0.15109588376E+02  0.51100000000E-03 0.  1.
         12    1    3    3    0    0 -0.88212135963E+01 -0.15373962275E+02 -0.22397284897E+02  0.28562403542E+02  0.00000000000E+00 0. -1.
</event>
<event>
 7    1  0.7470072E-010  0.4778728E+02  0.7816164E-02  0.1312668E+00
        -11   -1    0    0    0    0  0.00000000000E+00  0.00000000000E+00  0.45593999997E+02  0.45594000000E+02  0.51100000000E-03 0.  1.
         11   -1    0    0    0    0 -0.00000000000E+00 -0.00000000000E+00 -0.45593999997E+02  0.45594000000E+02  0.51100000000E-03 0. -1.
    9900012    2    1    2    0    0  0.29779130566E+02 -0.24190417712E+02  0.20289153032E+02  0.47787278149E+02  0.20000032394E+02 0.  0.
        -12    1    1    2    0    0 -0.29779130566E+02  0.24190417712E+02 -0.20289153032E+02  0.43400721851E+02  0.00000000000E+00 0.  1.
         11    1    3    3    0    0  0.17862427764E+02 -0.17617351211E+02  0.13765539553E+02  0.28616908791E+02  0.51100000000E-03 0. -1.
        -11    1    3    3    0    0 -0.15575668251E+01 -0.68246919880E+00  0.38701577786E+01  0.42272804632E+01  0.51100000000E-03 0.  1.
         12    1    3    3    0    0  0.13474269628E+02 -0.58905973029E+01  0.26534557009E+01  0.14943088895E+02  0.00000000000E+00 0. -1.
</event>
<event>
 7    1  0.7470072E-010  0.4778727E+02  0.7816164E-02  0.1312668E+00
        -11   -1    0    0    0    0  0.00000000000E+00  0.00000000000E+00  0.45593999997E+02  0.45594000000E+02  0.51100000000E-03 0. -1.
         11   -1    0    0    0    0 -0.00000000000E+00 -0.00000000000E+00 -0.45593999997E+02  0.45594000000E+02  0.51100000000E-03 0.  1.
    9900012    2    1    2    0    0 -0.13617930610E+02 -0.34850429969E+01  0.41061294680E+02  0.47787268675E+02  0.19999989195E+02 0.  0.
        -12    1    1    2    0    0  0.13617930610E+02  0.34850429969E+01 -0.41061294680E+02  0.43400731325E+02  0.00000000000E+00 0.  1.
         11    1    3    3    0    0 -0.14567807425E+02 -0.13379791150E+01  0.27640900426E+02  0.31273480425E+02  0.51100000000E-03 0. -1.
        -11    1    3    3    0    0  0.62368812657E+00  0.26815018593E+01  0.61018436747E+00  0.28198872893E+01  0.51100000000E-03 0.  1.
         12    1    3    3    0    0  0.32618868822E+00 -0.48285657411E+01  0.12810209887E+02  0.13693900960E+02  0.00000000000E+00 0. -1.
</event>
<event>
 7    1  0.7470072E-010  0.4778726E+02  0.7816164E-02  0.1312668E+00
        -11   -1    0    0    0    0  0.00000000000E+00  0.00000000000E+00  0.45593999997E+02  0.45594000000E+02  0.51100000000E-03 0. -1.
         11   -1    0    0    0    0 -0.00000000000E+00 -0.00000000000E+00 -0.45593999997E+02  0.45594000000E+02  0.51100000000E-03 0.  1.
    9900012    2    1    2    0    0  0.28754417634E+02  0.64555726452E+01  0.31861160221E+02  0.47787257123E+02  0.19999936527E+02 0.  0.
        -12    1    1    2    0    0 -0.28754417634E+02 -0.64555726452E+01 -0.31861160221E+02  0.43400742877E+02  0.00000000000E+00 0.  1.
         11    1    3    3    0    0  0.27975984577E+02  0.84697312461E+01  0.31359598420E+02  0.42869761765E+02  0.51100000000E-03 0. -1.
        -11    1    3    3    0    0 -0.16425027725E+01 -0.12403160116E+01  0.10602058396E+01  0.23152183158E+01  0.51100000000E-03 0.  1.
         12    1    3    3    0    0  0.24209358296E+01 -0.77384258936E+00 -0.55864403880E+00  0.26022770425E+01  0.00000000000E+00 0. -1.
</event>
<event>
 7    1  0.7470072E-010  0.4778727E+02  0.7816164E-02  0.1312668E+00
        -11   -1    0    0    0    0  0.00000000000E+00  0.00000000000E+00  0.45593999997E+02  0.45594000000E+02  0.51100000000E-03 0.  1.
         11   -1    0    0    0    0 -0.00000000000E+00 -0.00000000000E+00 -0.45593999997E+02  0.45594000000E+02  0.51100000000E-03 0. -1.
    9900012    2    1    2    0    0 -0.26498546920E+02  0.31495749285E+02  0.13764740125E+02  0.47787270944E+02  0.19999999541E+02 0.  0.
        -12    1    1    2    0    0  0.26498546920E+02 -0.31495749285E+02 -0.13764740125E+02  0.43400729056E+02  0.00000000000E+00 0.  1.
         11    1    3    3    0    0 -0.31375425459E+01  0.14041852731E+02  0.62548107670E+01  0.15688864183E+02  0.51100000000E-03 0. -1.
        -11    1    3    3    0    0 -0.21267132149E+02  0.13266272661E+02  0.24192587497E+01  0.25182091123E+02  0.51100000000E-03 0.  1.
        -12    1    3    3    0    0 -0.20938722252E+01  0.41876238930E+01  0.50906706085E+01  0.69163156384E+01  0.00000000000E+00 0.  1.
</event>
<event>
 7    1  0.7470072E-010  0.4778727E+02  0.7816164E-02  0.1312668E+00
        -11   -1    0    0    0    0  0.00000000000E+00  0.00000000000E+00  0.45593999997E+02  0.45594000000E+02  0.51100000000E-03 0. -1.
         11   -1    0    0    0    0 -0.00000000000E+00 -0.00000000000E+00 -0.45593999997E+02  0.45594000000E+02  0.51100000000E-03 0.  1.
    9900012    2    1    2    0    0 -0.41516214757E+02  0.12415979222E+02  0.24229907689E+01  0.47787268301E+02  0.19999987490E+02 0.  0.
         12    1    1    2    0    0  0.41516214757E+02 -0.12415979222E+02 -0.24229907689E+01  0.43400731699E+02  0.00000000000E+00 0. -1.
         11    1    3    3    0    0 -0.15056206855E+02  0.19634731337E+01 -0.59222904741E+01  0.16297794830E+02  0.51100000000E-03 0. -1.
        -11    1    3    3    0    0 -0.24367410425E+02  0.90610965566E+01  0.10636003795E+02  0.28089121357E+02  0.51100000000E-03 0.  1.
        -12    1    3    3    0    0 -0.20925974767E+01  0.13914095317E+01 -0.22907225518E+01  0.34003521132E+01  0.00000000000E+00 0.  1.
</event>
<event>
 7    1  0.7470072E-010  0.4778727E+02  0.7816164E-02  0.1312668E+00
        -11   -1    0    0    0    0  0.00000000000E+00  0.00000000000E+00  0.45593999997E+02  0.45594000000E+02  0.51100000000E-03 0. -1.
         11   -1    0    0    0    0 -0.00000000000E+00 -0.00000000000E+00 -0.45593999997E+02  0.45594000000E+02  0.51100000000E-03 0.  1.
    9900012    2    1    2    0    0  0.13724820277E+02  0.94656044752E+01  0.40070621576E+02  0.47787273357E+02  0.20000010542E+02 0.  0.
        -12    1    1    2    0    0 -0.13724820277E+02 -0.94656044752E+01 -0.40070621576E+02  0.43400726643E+02  0.00000000000E+00 0.  1.
         11    1    3    3    0    0  0.21284069882E+01 -0.19590902808E+00  0.12104682811E+02  0.12291942193E+02  0.51100000000E-03 0. -1.
        -11    1    3    3    0    0  0.40281378797E+01 -0.22725655607E+01  0.55773121370E+00  0.46584883142E+01  0.51100000000E-03 0.  1.
        -12    1    3    3    0    0  0.75682754087E+01  0.11934079064E+02  0.27408207551E+02  0.30836842849E+02  0.00000000000E+00 0.  1.
</event>
<event>
 7    1  0.7470072E-010  0.4778727E+02  0.7816164E-02  0.1312668E+00
        -11   -1    0    0    0    0  0.00000000000E+00  0.00000000000E+00  0.45593999997E+02  0.45594000000E+02  0.51100000000E-03 0. -1.
         11   -1    0    0    0    0 -0.00000000000E+00 -0.00000000000E+00 -0.45593999997E+02  0.45594000000E+02  0.51100000000E-03 0.  1.
    9900012    2    1    2    0    0 -0.76796791291E+01  0.14811206465E+02  0.40065873059E+02  0.47787268526E+02  0.19999988517E+02 0.  0.
        -12    1    1    2    0    0  0.76796791291E+01 -0.14811206465E+02 -0.40065873059E+02  0.43400731474E+02  0.00000000000E+00 0.  1.
         11    1    3    3    0    0 -0.18026243286E+01  0.13323794986E+02  0.31073694809E+02  0.33857753568E+02  0.51100000000E-03 0. -1.
        -11    1    3    3    0    0 -0.11768935773E+01  0.17897784344E+01 -0.13730916159E+01  0.25443596804E+01  0.51100000000E-03 0.  1.
        -12    1    3    3    0    0 -0.47001612232E+01 -0.30236695624E+00  0.10365269866E+02  0.11385155278E+02  0.00000000000E+00 0.  1.
</event>
<event>
 7    1  0.7470072E-010  0.4778727E+02  0.7816164E-02  0.1312668E+00
        -11   -1    0    0    0    0  0.00000000000E+00  0.00000000000E+00  0.45593999997E+02  0.45594000000E+02  0.51100000000E-03 0. -1.
         11   -1    0    0    0    0 -0.00000000000E+00 -0.00000000000E+00 -0.45593999997E+02  0.45594000000E+02  0.51100000000E-03 0.  1.
    9900012    2    1    2    0    0  0.22846975584E+02  0.17193400966E+02  0.32650051276E+02  0.47787272143E+02  0.20000005011E+02 0.  0.
        -12    1    1    2    0    0 -0.22846975584E+02 -0.17193400966E+02 -0.32650051276E+02  0.43400727857E+02  0.00000000000E+00 0.  1.
         11    1    3    3    0    0  0.17550734339E+02  0.13475064152E+02  0.26716672489E+02  0.34689857579E+02  0.51100000000E-03 0. -1.
        -11    1    3    3    0    0  0.71489738470E+01  0.95932704060E+00  0.11974664253E+01  0.73117755392E+01  0.51100000000E-03 0.  1.
        -12    1    3    3    0    0 -0.18527326018E+01  0.27590097736E+01  0.47359123621E+01  0.57856390248E+01  0.00000000000E+00 0.  1.
</event>
<event>
 7    1  0.7470072E-010  0.4778727E+02  0.7816164E-02  0.1312668E+00
        -11   -1    0    0    0    0  0.00000000000E+00  0.00000000000E+00  0.45593999997E+02  0.45594000000E+02  0.51100000000E-03 0. -1.
         11   -1    0    0    0    0 -0.00000000000E+00 -0.00000000000E+00 -0.45593999997E+02  0.45594000000E+02  0.51100000000E-03 0.  1.
    9900012    2    1    2    0    0  0.32504557919E+02  0.15811749190E+02  0.24022198136E+02  0.47787266121E+02  0.19999977553E+02 0.  0.
        -12    1    1    2    0    0 -0.32504557919E+02 -0.15811749190E+02 -0.24022198136E+02  0.43400733879E+02  0.00000000000E+00 0.  1.
         11    1    3    3    0    0  0.71601734162E+01 -0.33655259643E+01  0.10396340450E+02  0.13064407502E+02  0.51100000000E-03 0. -1.
        -11    1    3    3    0    0  0.10273160113E+02  0.91954199025E+01  0.47361354178E+01  0.14578221594E+02  0.51100000000E-03 0.  1.
         12    1    3    3    0    0  0.15071224390E+02  0.99818552516E+01  0.88897222689E+01  0.20144637025E+02  0.00000000000E+00 0. -1.
</event>
<event>
 7    1  0.7470072E-010  0.4778728E+02  0.7816164E-02  0.1312668E+00
        -11   -1    0    0    0    0  0.00000000000E+00  0.00000000000E+00  0.45593999997E+02  0.45594000000E+02  0.51100000000E-03 0. -1.
         11   -1    0    0    0    0 -0.00000000000E+00 -0.00000000000E+00 -0.45593999997E+02  0.45594000000E+02  0.51100000000E-03 0.  1.
    9900012    2    1    2    0    0  0.16084270837E+01  0.10094107890E+02  0.42179903613E+02  0.47787282027E+02  0.20000050074E+02 0.  0.
        -12    1    1    2    0    0 -0.16084270837E+01 -0.10094107890E+02 -0.42179903613E+02  0.43400717973E+02  0.00000000000E+00 0.  1.
         11    1    3    3    0    0  0.89649740566E+01  0.35848918254E+01  0.17762663721E+02  0.20217181603E+02  0.51100000000E-03 0. -1.
        -11    1    3    3    0    0 -0.22411673788E+01 -0.82924679395E+00  0.11690491947E+01  0.26602927933E+01  0.51100000000E-03 0.  1.
         12    1    3    3    0    0 -0.51153795942E+01  0.73384628584E+01  0.23248190697E+02  0.24909807631E+02  0.00000000000E+00 0. -1.
</event>
<event>
 7    1  0.7470072E-010  0.4778727E+02  0.7816164E-02  0.1312668E+00
        -11   -1    0    0    0    0  0.00000000000E+00  0.00000000000E+00  0.45593999997E+02  0.45594000000E+02  0.51100000000E-03 0. -1.
         11   -1    0    0    0    0 -0.00000000000E+00 -0.00000000000E+00 -0.45593999997E+02  0.45594000000E+02  0.51100000000E-03 0.  1.
    9900012    2    1    2    0    0 -0.61896916618E+01 -0.20387331572E+02 -0.37810951749E+02  0.47787266784E+02  0.19999980576E+02 0.  0.
         12    1    1    2    0    0  0.61896916618E+01  0.20387331572E+02  0.37810951749E+02  0.43400733216E+02  0.00000000000E+00 0. -1.
         11    1    3    3    0    0 -0.68351237466E+01 -0.24656240422E+01 -0.25213206534E+01  0.76912467551E+01  0.51100000000E-03 0. -1.
        -11    1    3    3    0    0  0.18819018202E+01 -0.43771525276E+01 -0.14410350209E+02  0.15177589140E+02  0.51100000000E-03 0.  1.
         12    1    3    3    0    0 -0.12364697354E+01 -0.13544555002E+02 -0.20879280887E+02  0.24918430889E+02  0.00000000000E+00 0. -1.
</event>
<event>
 7    1  0.7470072E-010  0.4778727E+02  0.7816164E-02  0.1312668E+00
        -11   -1    0    0    0    0  0.00000000000E+00  0.00000000000E+00  0.45593999997E+02  0.45594000000E+02  0.51100000000E-03 0.  1.
         11   -1    0    0    0    0 -0.00000000000E+00 -0.00000000000E+00 -0.45593999997E+02  0.45594000000E+02  0.51100000000E-03 0. -1.
    9900012    2    1    2    0    0 -0.23370889712E+02  0.36208293864E+02  0.51365689446E+01  0.47787269925E+02  0.19999994897E+02 0.  0.
        -12    1    1    2    0    0  0.23370889712E+02 -0.36208293864E+02 -0.51365689446E+01  0.43400730075E+02  0.00000000000E+00 0.  1.
         11    1    3    3    0    0 -0.71466948879E+01  0.20982246800E+02  0.95308155721E+00  0.22186443908E+02  0.51100000000E-03 0. -1.
        -11    1    3    3    0    0 -0.85176594804E+01  0.29376200764E+01  0.62271694954E+01  0.10952523678E+02  0.51100000000E-03 0.  1.
        -12    1    3    3    0    0 -0.77065353441E+01  0.12288426988E+02 -0.20436821080E+01  0.14648302339E+02  0.00000000000E+00 0.  1.
</event>
<event>
 7    1  0.7470072E-010  0.4778727E+02  0.7816164E-02  0.1312668E+00
        -11   -1    0    0    0    0  0.00000000000E+00  0.00000000000E+00  0.45593999997E+02  0.45594000000E+02  0.51100000000E-03 0. -1.
         11   -1    0    0    0    0 -0.00000000000E+00 -0.00000000000E+00 -0.45593999997E+02  0.45594000000E+02  0.51100000000E-03 0.  1.
    9900012    2    1    2    0    0  0.27004567759E+02 -0.24222252591E+02  0.23825596527E+02  0.47787271316E+02  0.20000001238E+02 0.  0.
        -12    1    1    2    0    0 -0.27004567759E+02  0.24222252591E+02 -0.23825596527E+02  0.43400728684E+02  0.00000000000E+00 0.  1.
         11    1    3    3    0    0  0.10651332423E+02 -0.18524634718E+02  0.64747812274E+01  0.22327914502E+02  0.51100000000E-03 0. -1.
        -11    1    3    3    0    0  0.16620850435E+02 -0.45798290773E+01  0.17100973315E+02  0.24283138021E+02  0.51100000000E-03 0.  1.
        -12    1    3    3    0    0 -0.26761509807E+00 -0.11177887957E+01  0.24984198477E+00  0.11762187934E+01  0.00000000000E+00 0.  1.
</event>
<event>
 7    1  0.7470072E-010  0.4778727E+02  0.7816164E-02  0.1312668E+00
        -11   -1    0    0    0    0  0.00000000000E+00  0.00000000000E+00  0.45593999997E+02  0.45594000000E+02  0.51100000000E-03 0. -1.
         11   -1    0    0    0    0 -0.00000000000E+00 -0.00000000000E+00 -0.45593999997E+02  0.45594000000E+02  0.51100000000E-03 0.  1.
    9900012    2    1    2    0    0 -0.36195822480E+02 -0.86213374572E+01  0.22341846248E+02  0.47787272837E+02  0.20000008173E+02 0.  0.
        -12    1    1    2    0    0  0.36195822480E+02  0.86213374572E+01 -0.22341846248E+02  0.43400727163E+02  0.00000000000E+00 0.  1.
         11    1    3    3    0    0 -0.16864892238E+02  0.87845740360E+00  0.57132600931E+01  0.17828000975E+02  0.51100000000E-03 0. -1.
        -11    1    3    3    0    0 -0.34377049921E+01 -0.40378584751E+01  0.11042103207E+02  0.12249496323E+02  0.51100000000E-03 0.  1.
        -12    1    3    3    0    0 -0.15893225249E+02 -0.54619363858E+01  0.55864829475E+01  0.17709775538E+02  0.00000000000E+00 0.  1.
</event>
<event>
 7    1  0.7666886E-010  0.4778727E+02  0.7816164E-02  0.1312668E+00
        -11   -1    0    0    0    0  0.00000000000E+00  0.00000000000E+00  0.45593999997E+02  0.45594000000E+02  0.51100000000E-03 0. -1.
         11   -1    0    0    0    0 -0.00000000000E+00 -0.00000000000E+00 -0.45593999997E+02  0.45594000000E+02  0.51100000000E-03 0.  1.
    9900012    2    1    2    0    0  0.17580710352E+02  0.41767065379E+01 -0.39460068676E+02  0.47787271044E+02  0.20000000000E+02 0.  0.
         12    1    1    2    0    0 -0.17580710352E+02 -0.41767065379E+01  0.39460068676E+02  0.43400728956E+02  0.00000000000E+00 0. -1.
         11    1    3    3    0    0 -0.12431939573E+01 -0.35998709775E+00  0.16736078837E+01  0.21156761414E+01  0.51100000000E-03 0. -1.
        -11    1    3    3    0    0  0.90481530788E+01  0.62187160781E+00 -0.22655742080E+02  0.24403656445E+02  0.51100000000E-03 0.  1.
         12    1    3    3    0    0  0.97757512304E+01  0.39148220278E+01 -0.18477934480E+02  0.21267938458E+02  0.00000000000E+00 0. -1.
</event>
<event>
 7    1  0.7470072E-010  0.4778728E+02  0.7816164E-02  0.1312668E+00
        -11   -1    0    0    0    0  0.00000000000E+00  0.00000000000E+00  0.45593999997E+02  0.45594000000E+02  0.51100000000E-03 0. -1.
         11   -1    0    0    0    0 -0.00000000000E+00 -0.00000000000E+00 -0.45593999997E+02  0.45594000000E+02  0.51100000000E-03 0.  1.
    9900012    2    1    2    0    0  0.19102481799E+02 -0.81600320247E+01  0.38106843932E+02  0.47787280099E+02  0.20000041282E+02 0.  0.
        -12    1    1    2    0    0 -0.19102481799E+02  0.81600320247E+01 -0.38106843932E+02  0.43400719901E+02  0.00000000000E+00 0.  1.
         11    1    3    3    0    0  0.16417832029E+02 -0.93868828205E+01  0.36020787945E+02  0.40683607780E+02  0.51100000000E-03 0. -1.
        -11    1    3    3    0    0  0.19198882077E+01 -0.14321033732E+01 -0.13046049953E+01  0.27274319894E+01  0.51100000000E-03 0.  1.
         12    1    3    3    0    0  0.76476156183E+00  0.26589541690E+01  0.33906609825E+01  0.43762403291E+01  0.00000000000E+00 0. -1.
</event>
<event>
 7    1  0.7470072E-010  0.4778727E+02  0.7816164E-02  0.1312668E+00
        -11   -1    0    0    0    0  0.00000000000E+00  0.00000000000E+00  0.45593999997E+02  0.45594000000E+02  0.51100000000E-03 0. -1.
         11   -1    0    0    0    0 -0.00000000000E+00 -0.00000000000E+00 -0.45593999997E+02  0.45594000000E+02  0.51100000000E-03 0.  1.
    9900012    2    1    2    0    0  0.82976243083E+00 -0.23368654018E+02  0.36562831106E+02  0.47787272878E+02  0.20000008359E+02 0.  0.
        -12    1    1    2    0    0 -0.82976243083E+00  0.23368654018E+02 -0.36562831106E+02  0.43400727122E+02  0.00000000000E+00 0.  1.
         11    1    3    3    0    0 -0.28720852600E+01 -0.16943183759E+02  0.15030748557E+02  0.22830763283E+02  0.51100000000E-03 0. -1.
        -11    1    3    3    0    0  0.72679676220E+01 -0.43680267590E+01  0.13812177847E+02  0.16207383141E+02  0.51100000000E-03 0.  1.
         12    1    3    3    0    0 -0.35661199312E+01 -0.20574434997E+01  0.77199047010E+01  0.87491264541E+01  0.00000000000E+00 0. -1.
</event>
<event>
 7    1  0.7470072E-010  0.4778725E+02  0.7816164E-02  0.1312668E+00
        -11   -1    0    0    0    0  0.00000000000E+00  0.00000000000E+00  0.45593999997E+02  0.45594000000E+02  0.51100000000E-03 0. -1.
         11   -1    0    0    0    0 -0.00000000000E+00 -0.00000000000E+00 -0.45593999997E+02  0.45594000000E+02  0.51100000000E-03 0.  1.
    9900012    2    1    2    0    0  0.71217154201E+01  0.28634824999E+02 -0.31826919900E+02  0.47787252730E+02  0.19999916497E+02 0.  0.
         12    1    1    2    0    0 -0.71217154201E+01 -0.28634824999E+02  0.31826919900E+02  0.43400747270E+02  0.00000000000E+00 0. -1.
         11    1    3    3    0    0  0.23966164135E+01  0.36626749535E+01  0.16064271848E+01  0.46625708155E+01  0.51100000000E-03 0. -1.
        -11    1    3    3    0    0  0.26101631955E+01  0.11334738280E+02 -0.23171883112E+02  0.25927310138E+02  0.51100000000E-03 0.  1.
        -12    1    3    3    0    0  0.21149358110E+01  0.13637411766E+02 -0.10261463974E+02  0.17197371777E+02  0.00000000000E+00 0.  1.
</event>
<event>
 7    1  0.7470072E-010  0.4778726E+02  0.7816164E-02  0.1312668E+00
        -11   -1    0    0    0    0  0.00000000000E+00  0.00000000000E+00  0.45593999997E+02  0.45594000000E+02  0.51100000000E-03 0. -1.
         11   -1    0    0    0    0 -0.00000000000E+00 -0.00000000000E+00 -0.45593999997E+02  0.45594000000E+02  0.51100000000E-03 0.  1.
    9900012    2    1    2    0    0  0.25376733592E+01  0.92771366256E+00  0.43316551270E+02  0.47787262073E+02  0.19999959094E+02 0.  0.
        -12    1    1    2    0    0 -0.25376733592E+01 -0.92771366256E+00 -0.43316551270E+02  0.43400737927E+02  0.00000000000E+00 0.  1.
         11    1    3    3    0    0  0.75456965187E+01 -0.27985011256E+01  0.17848715714E+02  0.19579218509E+02  0.51100000000E-03 0. -1.
        -11    1    3    3    0    0 -0.66760283680E+00 -0.12024422304E+01 -0.46865638913E+00  0.14529968814E+01  0.51100000000E-03 0.  1.
         12    1    3    3    0    0 -0.43404203228E+01  0.49286570186E+01  0.25936491945E+02  0.26755046682E+02  0.00000000000E+00 0. -1.
</event>
<event>
 7    1  0.8406109E-010  0.4778727E+02  0.7816164E-02  0.1312668E+00
        -11   -1    0    0    0    0  0.00000000000E+00  0.00000000000E+00  0.45593999997E+02  0.45594000000E+02  0.51100000000E-03 0. -1.
         11   -1    0    0    0    0 -0.00000000000E+00 -0.00000000000E+00 -0.45593999997E+02  0.45594000000E+02  0.51100000000E-03 0.  1.
    9900012    2    1    2    0    0 -0.21659369770E+02 -0.13100367734E+02 -0.35254434789E+02  0.47787272980E+02  0.20000008823E+02 0.  0.
         12    1    1    2    0    0  0.21659369770E+02  0.13100367734E+02  0.35254434789E+02  0.43400727020E+02  0.00000000000E+00 0. -1.
         11    1    3    3    0    0 -0.81285474032E+00  0.14221269461E+01  0.10745797481E+01  0.19590558378E+01  0.51100000000E-03 0. -1.
        -11    1    3    3    0    0 -0.22123321066E+02 -0.12202860650E+02 -0.32316720683E+02  0.41020989493E+02  0.51100000000E-03 0.  1.
        -12    1    3    3    0    0  0.12768060370E+01 -0.23196340304E+01 -0.40122938542E+01  0.48072276484E+01  0.00000000000E+00 0.  1.
</event>
<event>
 7    1  0.7470072E-010  0.4778727E+02  0.7816164E-02  0.1312668E+00
        -11   -1    0    0    0    0  0.00000000000E+00  0.00000000000E+00  0.45593999997E+02  0.45594000000E+02  0.51100000000E-03 0. -1.
         11   -1    0    0    0    0 -0.00000000000E+00 -0.00000000000E+00 -0.45593999997E+02  0.45594000000E+02  0.51100000000E-03 0.  1.
    9900012    2    1    2    0    0  0.34574715043E+02 -0.24788219672E+02  0.85881850424E+01  0.47787266398E+02  0.19999978816E+02 0.  0.
        -12    1    1    2    0    0 -0.34574715043E+02  0.24788219672E+02 -0.85881850424E+01  0.43400733602E+02  0.00000000000E+00 0.  1.
         11    1    3    3    0    0  0.19522715658E+02 -0.97407137914E+01  0.10333117466E+02  0.24141069750E+02  0.51100000000E-03 0. -1.
        -11    1    3    3    0    0 -0.19207681615E+00 -0.42495367280E+00  0.21211865493E+01  0.21718452443E+01  0.51100000000E-03 0.  1.
         12    1    3    3    0    0  0.15244076201E+02 -0.14622552208E+02 -0.38661189728E+01  0.21474351404E+02  0.00000000000E+00 0. -1.
</event>
<event>
 7    1  0.7470072E-010  0.4778727E+02  0.7816164E-02  0.1312668E+00
        -11   -1    0    0    0    0  0.00000000000E+00  0.00000000000E+00  0.45593999997E+02  0.45594000000E+02  0.51100000000E-03 0. -1.
         11   -1    0    0    0    0 -0.00000000000E+00 -0.00000000000E+00 -0.45593999997E+02  0.45594000000E+02  0.51100000000E-03 0.  1.
    9900012    2    1    2    0    0 -0.91691329694E+01  0.30677428373E+02 -0.29299238996E+02  0.47787274007E+02  0.20000013506E+02 0.  0.
         12    1    1    2    0    0  0.91691329694E+01 -0.30677428373E+02  0.29299238996E+02  0.43400725993E+02  0.00000000000E+00 0. -1.
         11    1    3    3    0    0 -0.12220876354E+02  0.14136467380E+02 -0.15276822774E+02  0.24136504369E+02  0.51100000000E-03 0. -1.
        -11    1    3    3    0    0  0.25616878033E+01  0.13665245640E+02 -0.60521669144E+01  0.15163439828E+02  0.51100000000E-03 0.  1.
         12    1    3    3    0    0  0.49005558099E+00  0.28757153534E+01 -0.79702493081E+01  0.84873298098E+01  0.00000000000E+00 0. -1.
</event>
<event>
 7    1  0.7470072E-010  0.4778727E+02  0.7816164E-02  0.1312668E+00
        -11   -1    0    0    0    0  0.00000000000E+00  0.00000000000E+00  0.45593999997E+02  0.45594000000E+02  0.51100000000E-03 0. -1.
         11   -1    0    0    0    0 -0.00000000000E+00 -0.00000000000E+00 -0.45593999997E+02  0.45594000000E+02  0.51100000000E-03 0.  1.
    9900012    2    1    2    0    0  0.64905533947E+01 -0.16413026130E+02 -0.39649823204E+02  0.47787272008E+02  0.20000004394E+02 0.  0.
         12    1    1    2    0    0 -0.64905533947E+01  0.16413026130E+02  0.39649823204E+02  0.43400727992E+02  0.00000000000E+00 0. -1.
         11    1    3    3    0    0 -0.63783962023E+00 -0.17519113782E+02 -0.27516947242E+02  0.32626807580E+02  0.51100000000E-03 0. -1.
        -11    1    3    3    0    0  0.18235187492E+01  0.26186137199E+01 -0.66847180971E+01  0.74072811977E+01  0.51100000000E-03 0.  1.
        -12    1    3    3    0    0  0.53048742658E+01 -0.15125260682E+01 -0.54481578647E+01  0.77531832302E+01  0.00000000000E+00 0.  1.
</event>
<event>
 7    1  0.7470072E-010  0.4778727E+02  0.7816164E-02  0.1312668E+00
        -11   -1    0    0    0    0  0.00000000000E+00  0.00000000000E+00  0.45593999997E+02  0.45594000000E+02  0.51100000000E-03 0. -1.
         11   -1    0    0    0    0 -0.00000000000E+00 -0.00000000000E+00 -0.45593999997E+02  0.45594000000E+02  0.51100000000E-03 0.  1.
    9900012    2    1    2    0    0  0.44527459059E+01  0.30981089733E+00  0.43170601079E+02  0.47787265831E+02  0.19999976229E+02 0.  0.
        -12    1    1    2    0    0 -0.44527459059E+01 -0.30981089733E+00 -0.43170601079E+02  0.43400734169E+02  0.00000000000E+00 0.  1.
         11    1    3    3    0    0 -0.20505940964E+01 -0.70912810457E+01  0.72022724950E+01  0.10313289115E+02  0.51100000000E-03 0. -1.
        -11    1    3    3    0    0  0.18233618458E+01  0.45375308723E+01  0.13947262647E+02  0.14779714829E+02  0.51100000000E-03 0.  1.
         12    1    3    3    0    0  0.46799781565E+01  0.28635610707E+01  0.22021065937E+02  0.22694261886E+02  0.00000000000E+00 0. -1.
</event>
<event>
 7    1  0.7470072E-010  0.4778730E+02  0.7816164E-02  0.1312668E+00
        -11   -1    0    0    0    0  0.00000000000E+00  0.00000000000E+00  0.45593999997E+02  0.45594000000E+02  0.51100000000E-03 0. -1.
         11   -1    0    0    0    0 -0.00000000000E+00 -0.00000000000E+00 -0.45593999997E+02  0.45594000000E+02  0.51100000000E-03 0.  1.
    9900012    2    1    2    0    0 -0.12212229227E+02 -0.83290202960E+01  0.40805754112E+02  0.47787300807E+02  0.20000135698E+02 0.  0.
        -12    1    1    2    0    0  0.12212229227E+02  0.83290202960E+01 -0.40805754112E+02  0.43400699193E+02  0.00000000000E+00 0.  1.
         11    1    3    3    0    0  0.41120732544E+00 -0.79599056310E+01  0.85872106237E+01  0.11716201418E+02  0.51100000000E-03 0.  1.
        -11    1    3    3    0    0  0.12065406988E+01 -0.67422638785E+00  0.85134847085E+01  0.86249489171E+01  0.51100000000E-03 0. -1.
         12    1    3    3    0    0 -0.13829977251E+02  0.30511172284E+00  0.23705058780E+02  0.27446150471E+02  0.00000000000E+00 0. -1.
</event>
<event>
 7    1  0.7470072E-010  0.4778727E+02  0.7816164E-02  0.1312668E+00
        -11   -1    0    0    0    0  0.00000000000E+00  0.00000000000E+00  0.45593999997E+02  0.45594000000E+02  0.51100000000E-03 0. -1.
         11   -1    0    0    0    0 -0.00000000000E+00 -0.00000000000E+00 -0.45593999997E+02  0.45594000000E+02  0.51100000000E-03 0.  1.
    9900012    2    1    2    0    0 -0.14541203586E+02  0.39306965623E+02 -0.11275619428E+02  0.47787265655E+02  0.19999975426E+02 0.  0.
         12    1    1    2    0    0  0.14541203586E+02 -0.39306965623E+02  0.11275619428E+02  0.43400734345E+02  0.00000000000E+00 0. -1.
         11    1    3    3    0    0 -0.12745121907E+02  0.38969577143E+02 -0.10826951301E+02  0.42406237157E+02  0.51100000000E-03 0.  1.
        -11    1    3    3    0    0 -0.61122166990E-01 -0.19044309733E+01 -0.14288032270E+01  0.23816112559E+01  0.51100000000E-03 0. -1.
        -12    1    3    3    0    0 -0.17349595126E+01  0.22418194538E+01  0.98013510060E+00  0.29994172417E+01  0.00000000000E+00 0.  1.
</event>
<event>
 7    1  0.7470072E-010  0.4778727E+02  0.7816164E-02  0.1312668E+00
        -11   -1    0    0    0    0  0.00000000000E+00  0.00000000000E+00  0.45593999997E+02  0.45594000000E+02  0.51100000000E-03 0. -1.
         11   -1    0    0    0    0 -0.00000000000E+00 -0.00000000000E+00 -0.45593999997E+02  0.45594000000E+02  0.51100000000E-03 0.  1.
    9900012    2    1    2    0    0  0.24322735969E+02  0.45204744799E+01  0.35659404569E+02  0.47787270643E+02  0.19999998168E+02 0.  0.
        -12    1    1    2    0    0 -0.24322735969E+02 -0.45204744799E+01 -0.35659404569E+02  0.43400729357E+02  0.00000000000E+00 0.  1.
         11    1    3    3    0    0  0.26060163618E+02  0.73909828467E+01  0.30264833488E+02  0.40616731793E+02  0.51100000000E-03 0. -1.
        -11    1    3    3    0    0 -0.40313463311E-01 -0.27557884260E+01  0.44235998745E+01  0.52119316127E+01  0.51100000000E-03 0.  1.
         12    1    3    3    0    0 -0.16971141857E+01 -0.11471994082E+00  0.97097120637E+00  0.19586072367E+01  0.00000000000E+00 0. -1.
</event>
<event>
 7    1  0.7651975E-010  0.4778727E+02  0.7816164E-02  0.1312668E+00
        -11   -1    0    0    0    0  0.00000000000E+00  0.00000000000E+00  0.45593999997E+02  0.45594000000E+02  0.51100000000E-03 0. -1.
         11   -1    0    0    0    0 -0.00000000000E+00 -0.00000000000E+00 -0.45593999997E+02  0.45594000000E+02  0.51100000000E-03 0.  1.
    9900012    2    1    2    0    0 -0.10947322901E+02  0.21713603184E+02  0.35948562576E+02  0.47787267366E+02  0.19999983227E+02 0.  0.
        -12    1    1    2    0    0  0.10947322901E+02 -0.21713603184E+02 -0.35948562576E+02  0.43400732634E+02  0.00000000000E+00 0.  1.
         11    1    3    3    0    0  0.43233851140E+01  0.42594818513E+01  0.12892678316E+02  0.14249771890E+02  0.51100000000E-03 0. -1.
        -11    1    3    3    0    0 -0.63901806126E+01  0.39014250625E+01  0.38801066409E+01  0.84327192285E+01  0.51100000000E-03 0.  1.
         12    1    3    3    0    0 -0.88805274022E+01  0.13552696271E+02  0.19175777619E+02  0.25104776247E+02  0.00000000000E+00 0. -1.
</event>
<event>
 7    1  0.7470072E-010  0.4778730E+02  0.7816164E-02  0.1312668E+00
        -11   -1    0    0    0    0  0.00000000000E+00  0.00000000000E+00  0.45593999997E+02  0.45594000000E+02  0.51100000000E-03 0. -1.
         11   -1    0    0    0    0 -0.00000000000E+00 -0.00000000000E+00 -0.45593999997E+02  0.45594000000E+02  0.51100000000E-03 0.  1.
    9900012    2    1    2    0    0  0.18105679271E+02  0.28520579064E+01  0.39340446048E+02  0.47787302409E+02  0.20000143001E+02 0.  0.
        -12    1    1    2    0    0 -0.18105679271E+02 -0.28520579064E+01 -0.39340446048E+02  0.43400697591E+02  0.00000000000E+00 0.  1.
         11    1    3    3    0    0  0.89475203162E+01  0.70343274746E+01  0.15768570210E+02  0.19447048350E+02  0.51100000000E-03 0. -1.
        -11    1    3    3    0    0  0.11218856282E+02 -0.48021196293E+01  0.14194595633E+02  0.18719231679E+02  0.51100000000E-03 0.  1.
        -12    1    3    3    0    0 -0.20606973268E+01  0.61985006108E+00  0.93772802049E+01  0.96210223787E+01  0.00000000000E+00 0.  1.
</event>
<event>
 7    1  0.7470072E-010  0.4778727E+02  0.7816164E-02  0.1312668E+00
        -11   -1    0    0    0    0  0.00000000000E+00  0.00000000000E+00  0.45593999997E+02  0.45594000000E+02  0.51100000000E-03 0. -1.
         11   -1    0    0    0    0 -0.00000000000E+00 -0.00000000000E+00 -0.45593999997E+02  0.45594000000E+02  0.51100000000E-03 0.  1.
    9900012    2    1    2    0    0  0.66308591118E+01  0.17499208751E+02  0.39159067852E+02  0.47787271959E+02  0.20000004171E+02 0.  0.
        -12    1    1    2    0    0 -0.66308591118E+01 -0.17499208751E+02 -0.39159067852E+02  0.43400728041E+02  0.00000000000E+00 0.  1.
         11    1    3    3    0    0 -0.16306748744E+01  0.17044927644E+02  0.27344839202E+02  0.32263429610E+02  0.51100000000E-03 0. -1.
        -11    1    3    3    0    0  0.70878488325E+01  0.26572609159E+01  0.90869971403E+01  0.11826755850E+02  0.51100000000E-03 0.  1.
         12    1    3    3    0    0  0.11736851537E+01 -0.22029798091E+01  0.27272315091E+01  0.36970864993E+01  0.00000000000E+00 0. -1.
</event>
<event>
 7    1  0.7470072E-010  0.4778727E+02  0.7816164E-02  0.1312668E+00
        -11   -1    0    0    0    0  0.00000000000E+00  0.00000000000E+00  0.45593999997E+02  0.45594000000E+02  0.51100000000E-03 0. -1.
         11   -1    0    0    0    0 -0.00000000000E+00 -0.00000000000E+00 -0.45593999997E+02  0.45594000000E+02  0.51100000000E-03 0.  1.
    9900012    2    1    2    0    0 -0.13333713088E+02 -0.62353867011E+01  0.40828361761E+02  0.47787273323E+02  0.20000010388E+02 0.  0.
        -12    1    1    2    0    0  0.13333713088E+02  0.62353867011E+01 -0.40828361761E+02  0.43400726677E+02  0.00000000000E+00 0.  1.
         11    1    3    3    0    0 -0.70113841731E+01  0.10881027025E+01  0.28838487085E+02  0.29698515335E+02  0.51100000000E-03 0. -1.
        -11    1    3    3    0    0  0.16673381438E+01  0.30292671818E+00 -0.11932705524E+00  0.16988290937E+01  0.51100000000E-03 0.  1.
         12    1    3    3    0    0 -0.79896670591E+01 -0.76264161217E+01  0.12109201732E+02  0.16389928894E+02  0.00000000000E+00 0. -1.
</event>
<event>
 7    1  0.7470072E-010  0.4778727E+02  0.7816164E-02  0.1312668E+00
        -11   -1    0    0    0    0  0.00000000000E+00  0.00000000000E+00  0.45593999997E+02  0.45594000000E+02  0.51100000000E-03 0. -1.
         11   -1    0    0    0    0 -0.00000000000E+00 -0.00000000000E+00 -0.45593999997E+02  0.45594000000E+02  0.51100000000E-03 0.  1.
    9900012    2    1    2    0    0  0.80575764258E+01  0.19336307671E+02 -0.38010602302E+02  0.47787271670E+02  0.20000002854E+02 0.  0.
         12    1    1    2    0    0 -0.80575764258E+01 -0.19336307671E+02  0.38010602302E+02  0.43400728330E+02  0.00000000000E+00 0. -1.
         11    1    3    3    0    0  0.75394790315E+01  0.64043209688E+01 -0.46465260479E+01  0.10929285233E+02  0.51100000000E-03 0. -1.
        -11    1    3    3    0    0 -0.17897425737E+00  0.41534125151E+01 -0.22462349874E+02  0.22843818188E+02  0.51100000000E-03 0.  1.
        -12    1    3    3    0    0  0.69707165170E+00  0.87785741869E+01 -0.10901726380E+02  0.14014168249E+02  0.00000000000E+00 0.  1.
</event>
<event>
 7    1  0.7470072E-010  0.4778727E+02  0.7816164E-02  0.1312668E+00
        -11   -1    0    0    0    0  0.00000000000E+00  0.00000000000E+00  0.45593999997E+02  0.45594000000E+02  0.51100000000E-03 0.  1.
         11   -1    0    0    0    0 -0.00000000000E+00 -0.00000000000E+00 -0.45593999997E+02  0.45594000000E+02  0.51100000000E-03 0. -1.
    9900012    2    1    2    0    0  0.37691003710E+02  0.21355593441E+02  0.26362814912E+01  0.47787272909E+02  0.20000008504E+02 0.  0.
         12    1    1    2    0    0 -0.37691003710E+02 -0.21355593441E+02 -0.26362814912E+01  0.43400727091E+02  0.00000000000E+00 0. -1.
         11    1    3    3    0    0  0.28423248676E+02  0.95375112238E+01  0.72382351244E+01  0.30842134064E+02  0.51100000000E-03 0.  1.
        -11    1    3    3    0    0  0.12447549117E+01  0.66351612646E+01 -0.21297201720E+01  0.70788761869E+01  0.51100000000E-03 0. -1.
        -12    1    3    3    0    0  0.80230001226E+01  0.51829209529E+01 -0.24722334611E+01  0.98662626590E+01  0.00000000000E+00 0.  1.
</event>
<event>
 7    1  0.7470072E-010  0.4778727E+02  0.7816164E-02  0.1312668E+00
        -11   -1    0    0    0    0  0.00000000000E+00  0.00000000000E+00  0.45593999997E+02  0.45594000000E+02  0.51100000000E-03 0.  1.
         11   -1    0    0    0    0 -0.00000000000E+00 -0.00000000000E+00 -0.45593999997E+02  0.45594000000E+02  0.51100000000E-03 0. -1.
    9900012    2    1    2    0    0  0.21803087259E+02 -0.33319146157E+02  0.17265086411E+02  0.47787270473E+02  0.19999997397E+02 0.  0.
        -12    1    1    2    0    0 -0.21803087259E+02  0.33319146157E+02 -0.17265086411E+02  0.43400729527E+02  0.00000000000E+00 0.  1.
         11    1    3    3    0    0 -0.28165452250E+01 -0.34520820978E+01  0.94391660274E+00  0.45542042805E+01  0.51100000000E-03 0. -1.
        -11    1    3    3    0    0  0.17148850159E+02 -0.23382118989E+02  0.16453246773E+02  0.33339404311E+02  0.51100000000E-03 0.  1.
         12    1    3    3    0    0  0.74707823249E+01 -0.64849450708E+01 -0.13207696464E+00  0.98936618823E+01  0.00000000000E+00 0. -1.
</event>
<event>
 7    1  0.7470072E-010  0.4778727E+02  0.7816164E-02  0.1312668E+00
        -11   -1    0    0    0    0  0.00000000000E+00  0.00000000000E+00  0.45593999997E+02  0.45594000000E+02  0.51100000000E-03 0. -1.
         11   -1    0    0    0    0 -0.00000000000E+00 -0.00000000000E+00 -0.45593999997E+02  0.45594000000E+02  0.51100000000E-03 0.  1.
    9900012    2    1    2    0    0  0.16769438308E+02  0.68410954538E+00 -0.40024260044E+02  0.47787268911E+02  0.19999990271E+02 0.  0.
         12    1    1    2    0    0 -0.16769438308E+02 -0.68410954538E+00  0.40024260044E+02  0.43400731089E+02  0.00000000000E+00 0. -1.
         11    1    3    3    0    0 -0.11418223950E+01 -0.53534520172E+01 -0.50649600802E+01  0.74576824656E+01  0.51100000000E-03 0. -1.
        -11    1    3    3    0    0  0.16784883517E+02  0.52400839383E+01 -0.26794471321E+02  0.32048938953E+02  0.51100000000E-03 0.  1.
        -12    1    3    3    0    0  0.11263771853E+01  0.79747762431E+00 -0.81648286430E+01  0.82806474924E+01  0.00000000000E+00 0.  1.
</event>
<event>
 7    1  0.7470072E-010  0.4778727E+02  0.7816164E-02  0.1312668E+00
        -11   -1    0    0    0    0  0.00000000000E+00  0.00000000000E+00  0.45593999997E+02  0.45594000000E+02  0.51100000000E-03 0. -1.
         11   -1    0    0    0    0 -0.00000000000E+00 -0.00000000000E+00 -0.45593999997E+02  0.45594000000E+02  0.51100000000E-03 0.  1.
    9900012    2    1    2    0    0 -0.23221055605E+02  0.35600354757E+02 -0.87761353689E+01  0.47787271501E+02  0.20000002082E+02 0.  0.
         12    1    1    2    0    0  0.23221055605E+02 -0.35600354757E+02  0.87761353689E+01  0.43400728499E+02  0.00000000000E+00 0. -1.
         11    1    3    3    0    0 -0.60676794449E+01  0.18240823146E+02  0.15511308575E+01  0.19286014884E+02  0.51100000000E-03 0. -1.
        -11    1    3    3    0    0 -0.16083578150E+02  0.12599782718E+02 -0.45354128228E+01  0.20928592413E+02  0.51100000000E-03 0.  1.
         12    1    3    3    0    0 -0.10697980103E+01  0.47597488924E+01 -0.57918534036E+01  0.75726642042E+01  0.00000000000E+00 0. -1.
</event>
<event>
 7    1  0.7470072E-010  0.4778728E+02  0.7816164E-02  0.1312668E+00
        -11   -1    0    0    0    0  0.00000000000E+00  0.00000000000E+00  0.45593999997E+02  0.45594000000E+02  0.51100000000E-03 0. -1.
         11   -1    0    0    0    0 -0.00000000000E+00 -0.00000000000E+00 -0.45593999997E+02  0.45594000000E+02  0.51100000000E-03 0.  1.
    9900012    2    1    2    0    0  0.23987465696E+02 -0.35598422371E+01  0.35993776082E+02  0.47787275307E+02  0.20000019433E+02 0.  0.
        -12    1    1    2    0    0 -0.23987465696E+02  0.35598422371E+01 -0.35993776082E+02  0.43400724693E+02  0.00000000000E+00 0.  1.
         11    1    3    3    0    0  0.29250128439E+00 -0.20624957258E-02  0.24575483714E+01  0.24748950511E+01  0.51100000000E-03 0. -1.
        -11    1    3    3    0    0  0.21789601932E+02  0.37205016545E+01  0.19921985022E+02  0.29757593525E+02  0.51100000000E-03 0.  1.
        -12    1    3    3    0    0  0.19053624796E+01 -0.72782813959E+01  0.13614242688E+02  0.15554786731E+02  0.00000000000E+00 0.  1.
</event>
<event>
 7    1  0.7470072E-010  0.4778727E+02  0.7816164E-02  0.1312668E+00
        -11   -1    0    0    0    0  0.00000000000E+00  0.00000000000E+00  0.45593999997E+02  0.45594000000E+02  0.51100000000E-03 0. -1.
         11   -1    0    0    0    0 -0.00000000000E+00 -0.00000000000E+00 -0.45593999997E+02  0.45594000000E+02  0.51100000000E-03 0.  1.
    9900012    2    1    2    0    0  0.37717156347E+02  0.78772414617E+01  0.19974705115E+02  0.47787266592E+02  0.19999979698E+02 0.  0.
        -12    1    1    2    0    0 -0.37717156347E+02 -0.78772414617E+01 -0.19974705115E+02  0.43400733408E+02  0.00000000000E+00 0.  1.
         11    1    3    3    0    0  0.96566215820E+01  0.56965237185E+01  0.13761867931E+02  0.17750767084E+02  0.51100000000E-03 0. -1.
        -11    1    3    3    0    0  0.56982966282E+01 -0.27204968841E+01 -0.37695749089E-02  0.63144043449E+01  0.51100000000E-03 0.  1.
         12    1    3    3    0    0  0.22362238137E+02  0.49012146273E+01  0.62166067581E+01  0.23722095163E+02  0.00000000000E+00 0. -1.
</event>
<event>
 7    1  0.7470072E-010  0.4778727E+02  0.7816164E-02  0.1312668E+00
        -11   -1    0    0    0    0  0.00000000000E+00  0.00000000000E+00  0.45593999997E+02  0.45594000000E+02  0.51100000000E-03 0. -1.
         11   -1    0    0    0    0 -0.00000000000E+00 -0.00000000000E+00 -0.45593999997E+02  0.45594000000E+02  0.51100000000E-03 0.  1.
    9900012    2    1    2    0    0 -0.73878103979E+01 -0.12301371245E+02  0.40959977882E+02  0.47787271146E+02  0.20000000463E+02 0.  0.
        -12    1    1    2    0    0  0.73878103979E+01  0.12301371245E+02 -0.40959977882E+02  0.43400728854E+02  0.00000000000E+00 0.  1.
         11    1    3    3    0    0 -0.68863720589E+01 -0.11211307565E+02  0.31945801782E+02  0.34549237172E+02  0.51100000000E-03 0. -1.
        -11    1    3    3    0    0 -0.22306772731E+01  0.24048420477E+01  0.87328918473E+01  0.93285897460E+01  0.51100000000E-03 0.  1.
         12    1    3    3    0    0  0.17292389341E+01 -0.34949057284E+01  0.28128425272E+00  0.39094442280E+01  0.00000000000E+00 0. -1.
</event>
<event>
 7    1  0.7470072E-010  0.4778728E+02  0.7816164E-02  0.1312668E+00
        -11   -1    0    0    0    0  0.00000000000E+00  0.00000000000E+00  0.45593999997E+02  0.45594000000E+02  0.51100000000E-03 0. -1.
         11   -1    0    0    0    0 -0.00000000000E+00 -0.00000000000E+00 -0.45593999997E+02  0.45594000000E+02  0.51100000000E-03 0.  1.
    9900012    2    1    2    0    0  0.85438106356E+00  0.11935619494E+02 -0.41718506439E+02  0.47787276973E+02  0.20000027033E+02 0.  0.
         12    1    1    2    0    0 -0.85438106356E+00 -0.11935619494E+02  0.41718506439E+02  0.43400723027E+02  0.00000000000E+00 0. -1.
         11    1    3    3    0    0 -0.25133202867E+01 -0.32629085886E+01 -0.20626445450E+01  0.46062841968E+01  0.51100000000E-03 0. -1.
        -11    1    3    3    0    0 -0.59078897345E+00  0.11505645659E+02 -0.29550795629E+02  0.31717163117E+02  0.51100000000E-03 0.  1.
        -12    1    3    3    0    0  0.39584903237E+01  0.36928824239E+01 -0.10105066266E+02  0.11463829660E+02  0.00000000000E+00 0.  1.
</event>
<event>
 7    1  0.7470072E-010  0.4778727E+02  0.7816164E-02  0.1312668E+00
        -11   -1    0    0    0    0  0.00000000000E+00  0.00000000000E+00  0.45593999997E+02  0.45594000000E+02  0.51100000000E-03 0. -1.
         11   -1    0    0    0    0 -0.00000000000E+00 -0.00000000000E+00 -0.45593999997E+02  0.45594000000E+02  0.51100000000E-03 0.  1.
    9900012    2    1    2    0    0  0.86815017867E+01 -0.17374843340E+02  0.38811979300E+02  0.47787269689E+02  0.19999993818E+02 0.  0.
        -12    1    1    2    0    0 -0.86815017867E+01  0.17374843340E+02 -0.38811979300E+02  0.43400730311E+02  0.00000000000E+00 0.  1.
         11    1    3    3    0    0  0.71445689601E+01 -0.60293531651E+01  0.23280059141E+02  0.25087030894E+02  0.51100000000E-03 0. -1.
        -11    1    3    3    0    0 -0.19115909599E+01 -0.12657304745E+02  0.12858056924E+02  0.18143626195E+02  0.51100000000E-03 0.  1.
        -12    1    3    3    0    0  0.34485237865E+01  0.13118145704E+01  0.26738632355E+01  0.45566125988E+01  0.00000000000E+00 0.  1.
</event>
<event>
 7    1  0.7470072E-010  0.4778727E+02  0.7816164E-02  0.1312668E+00
        -11   -1    0    0    0    0  0.00000000000E+00  0.00000000000E+00  0.45593999997E+02  0.45594000000E+02  0.51100000000E-03 0.  1.
         11   -1    0    0    0    0 -0.00000000000E+00 -0.00000000000E+00 -0.45593999997E+02  0.45594000000E+02  0.51100000000E-03 0. -1.
    9900012    2    1    2    0    0 -0.38140451330E+02 -0.15359159969E+02 -0.13893364373E+02  0.47787269635E+02  0.19999993574E+02 0.  0.
        -12    1    1    2    0    0  0.38140451330E+02  0.15359159969E+02  0.13893364373E+02  0.43400730365E+02  0.00000000000E+00 0.  1.
         11    1    3    3    0    0 -0.16696317081E+02 -0.42141964212E+01 -0.54658734874E+01  0.18066605348E+02  0.51100000000E-03 0. -1.
        -11    1    3    3    0    0 -0.11918385149E+02 -0.10742402691E+02 -0.11458065907E+02  0.19716348413E+02  0.51100000000E-03 0.  1.
        -12    1    3    3    0    0 -0.95257491000E+01 -0.40256085600E+00  0.30305750215E+01  0.10004315875E+02  0.00000000000E+00 0.  1.
</event>
<event>
 7    1  0.7470072E-010  0.4778727E+02  0.7816164E-02  0.1312668E+00
        -11   -1    0    0    0    0  0.00000000000E+00  0.00000000000E+00  0.45593999997E+02  0.45594000000E+02  0.51100000000E-03 0. -1.
         11   -1    0    0    0    0 -0.00000000000E+00 -0.00000000000E+00 -0.45593999997E+02  0.45594000000E+02  0.51100000000E-03 0.  1.
    9900012    2    1    2    0    0  0.13467200373E+02  0.29892215531E+02  0.28437884880E+02  0.47787270378E+02  0.19999996963E+02 0.  0.
        -12    1    1    2    0    0 -0.13467200373E+02 -0.29892215531E+02 -0.28437884880E+02  0.43400729622E+02  0.00000000000E+00 0.  1.
         11    1    3    3    0    0  0.12814797177E+01  0.99302408172E+01  0.11528288050E+02  0.15269358159E+02  0.51100000000E-03 0. -1.
        -11    1    3    3    0    0  0.63294068662E+01  0.54348759004E+01 -0.13604782783E+01  0.84528201648E+01  0.51100000000E-03 0.  1.
        -12    1    3    3    0    0  0.58563137889E+01  0.14527098813E+02  0.18270075108E+02  0.24065092055E+02  0.00000000000E+00 0.  1.
</event>
<event>
 7    1  0.7470072E-010  0.4778728E+02  0.7816164E-02  0.1312668E+00
        -11   -1    0    0    0    0  0.00000000000E+00  0.00000000000E+00  0.45593999997E+02  0.45594000000E+02  0.51100000000E-03 0. -1.
         11   -1    0    0    0    0 -0.00000000000E+00 -0.00000000000E+00 -0.45593999997E+02  0.45594000000E+02  0.51100000000E-03 0.  1.
    9900012    2    1    2    0    0  0.30493196845E+01 -0.78157921577E+00  0.43286413537E+02  0.47787276348E+02  0.20000024181E+02 0.  0.
        -12    1    1    2    0    0 -0.30493196845E+01  0.78157921577E+00 -0.43286413537E+02  0.43400723652E+02  0.00000000000E+00 0.  1.
         11    1    3    3    0    0  0.97715314824E+01 -0.21224791478E+01  0.23814852017E+02  0.25828955110E+02  0.51100000000E-03 0. -1.
        -11    1    3    3    0    0  0.10119907315E+01  0.74567046022E+00  0.32248423251E+00  0.12977465150E+01  0.51100000000E-03 0.  1.
         12    1    3    3    0    0 -0.77342025294E+01  0.59522947179E+00  0.19149077288E+02  0.20660574723E+02  0.00000000000E+00 0. -1.
</event>
<event>
 7    1  0.7470072E-010  0.4778727E+02  0.7816164E-02  0.1312668E+00
        -11   -1    0    0    0    0  0.00000000000E+00  0.00000000000E+00  0.45593999997E+02  0.45594000000E+02  0.51100000000E-03 0. -1.
         11   -1    0    0    0    0 -0.00000000000E+00 -0.00000000000E+00 -0.45593999997E+02  0.45594000000E+02  0.51100000000E-03 0.  1.
    9900012    2    1    2    0    0 -0.22768013774E+02  0.25677066211E+02  0.26569326537E+02  0.47787270824E+02  0.19999998994E+02 0.  0.
        -12    1    1    2    0    0  0.22768013774E+02 -0.25677066211E+02 -0.26569326537E+02  0.43400729176E+02  0.00000000000E+00 0.  1.
         11    1    3    3    0    0 -0.17517516756E+02  0.19767646452E+02  0.22357986050E+02  0.34604953114E+02  0.51100000000E-03 0. -1.
        -11    1    3    3    0    0 -0.49744067354E+01  0.92148206637E+00  0.60253618635E+01  0.78675814209E+01  0.51100000000E-03 0.  1.
         12    1    3    3    0    0 -0.27609028237E+00  0.49879376927E+01 -0.18140213764E+01  0.53147362893E+01  0.00000000000E+00 0. -1.
</event>
<event>
 7    1  0.7470072E-010  0.4778728E+02  0.7816164E-02  0.1312668E+00
        -11   -1    0    0    0    0  0.00000000000E+00  0.00000000000E+00  0.45593999997E+02  0.45594000000E+02  0.51100000000E-03 0. -1.
         11   -1    0    0    0    0 -0.00000000000E+00 -0.00000000000E+00 -0.45593999997E+02  0.45594000000E+02  0.51100000000E-03 0.  1.
    9900012    2    1    2    0    0  0.19326965170E+02 -0.14888899302E+01 -0.38831360405E+02  0.47787275043E+02  0.20000018230E+02 0.  0.
         12    1    1    2    0    0 -0.19326965170E+02  0.14888899302E+01  0.38831360405E+02  0.43400724957E+02  0.00000000000E+00 0. -1.
         11    1    3    3    0    0  0.84372274633E+00 -0.15219762885E+01 -0.35856737232E+01  0.39856412540E+01  0.51100000000E-03 0. -1.
        -11    1    3    3    0    0 -0.26239273284E+01 -0.24007308631E+00  0.95118293453E-01  0.26366033950E+01  0.51100000000E-03 0.  1.
        -12    1    3    3    0    0  0.21107169752E+02  0.27315944466E+00 -0.35340804975E+02  0.41165030394E+02  0.00000000000E+00 0.  1.
</event>
<event>
 7    1  0.7470072E-010  0.4778727E+02  0.7816164E-02  0.1312668E+00
        -11   -1    0    0    0    0  0.00000000000E+00  0.00000000000E+00  0.45593999997E+02  0.45594000000E+02  0.51100000000E-03 0. -1.
         11   -1    0    0    0    0 -0.00000000000E+00 -0.00000000000E+00 -0.45593999997E+02  0.45594000000E+02  0.51100000000E-03 0.  1.
    9900012    2    1    2    0    0  0.11959999569E+02  0.24676221460E+02  0.33640237414E+02  0.47787273410E+02  0.20000010785E+02 0.  0.
        -12    1    1    2    0    0 -0.11959999569E+02 -0.24676221460E+02 -0.33640237414E+02  0.43400726590E+02  0.00000000000E+00 0.  1.
         11    1    3    3    0    0 -0.25563143209E+01  0.80101993283E+01  0.70683302289E+01  0.10984504025E+02  0.51100000000E-03 0. -1.
        -11    1    3    3    0    0  0.14328489456E+02  0.94225305532E+01  0.13377420357E+02  0.21749599255E+02  0.51100000000E-03 0.  1.
        -12    1    3    3    0    0  0.18782443424E+00  0.72434915790E+01  0.13194486829E+02  0.15053170130E+02  0.00000000000E+00 0.  1.
</event>
<event>
 7    1  0.7470072E-010  0.4778727E+02  0.7816164E-02  0.1312668E+00
        -11   -1    0    0    0    0  0.00000000000E+00  0.00000000000E+00  0.45593999997E+02  0.45594000000E+02  0.51100000000E-03 0. -1.
         11   -1    0    0    0    0 -0.00000000000E+00 -0.00000000000E+00 -0.45593999997E+02  0.45594000000E+02  0.51100000000E-03 0.  1.
    9900012    2    1    2    0    0  0.92197596535E+01  0.57745556991E+01  0.42015162072E+02  0.47787270680E+02  0.19999998339E+02 0.  0.
        -12    1    1    2    0    0 -0.92197596535E+01 -0.57745556991E+01 -0.42015162072E+02  0.43400729320E+02  0.00000000000E+00 0.  1.
         11    1    3    3    0    0  0.41923827700E+01 -0.42238686706E+01  0.13253207918E+02  0.14528064572E+02  0.51100000000E-03 0. -1.
        -11    1    3    3    0    0 -0.39782027835E+01  0.36610010048E+01  0.67658308374E+01  0.86605711662E+01  0.51100000000E-03 0.  1.
        -12    1    3    3    0    0  0.90055796671E+01  0.63374233649E+01  0.21996123316E+02  0.24598634942E+02  0.00000000000E+00 0.  1.
</event>
<event>
 7    1  0.7470072E-010  0.4778727E+02  0.7816164E-02  0.1312668E+00
        -11   -1    0    0    0    0  0.00000000000E+00  0.00000000000E+00  0.45593999997E+02  0.45594000000E+02  0.51100000000E-03 0. -1.
         11   -1    0    0    0    0 -0.00000000000E+00 -0.00000000000E+00 -0.45593999997E+02  0.45594000000E+02  0.51100000000E-03 0.  1.
    9900012    2    1    2    0    0  0.30846439651E+02  0.30514712522E+02 -0.98630692552E+00  0.47787270504E+02  0.19999997535E+02 0.  0.
         12    1    1    2    0    0 -0.30846439651E+02 -0.30514712522E+02  0.98630692552E+00  0.43400729496E+02  0.00000000000E+00 0. -1.
         11    1    3    3    0    0  0.15922804657E+01  0.61619176543E+00 -0.34511112939E+01  0.38503530743E+01  0.51100000000E-03 0. -1.
        -11    1    3    3    0    0  0.24164064712E+02  0.28772382258E+02 -0.11536852056E+01  0.37590996183E+02  0.51100000000E-03 0.  1.
        -12    1    3    3    0    0  0.50900944732E+01  0.11261384983E+01  0.36184895740E+01  0.63459212460E+01  0.00000000000E+00 0.  1.
</event>
<event>
 7    1  0.7470072E-010  0.4778727E+02  0.7816164E-02  0.1312668E+00
        -11   -1    0    0    0    0  0.00000000000E+00  0.00000000000E+00  0.45593999997E+02  0.45594000000E+02  0.51100000000E-03 0. -1.
         11   -1    0    0    0    0 -0.00000000000E+00 -0.00000000000E+00 -0.45593999997E+02  0.45594000000E+02  0.51100000000E-03 0.  1.
    9900012    2    1    2    0    0  0.38966969893E+02  0.91341015587E+01  0.16785918851E+02  0.47787266992E+02  0.19999981525E+02 0.  0.
        -12    1    1    2    0    0 -0.38966969893E+02 -0.91341015587E+01 -0.16785918851E+02  0.43400733008E+02  0.00000000000E+00 0.  1.
         11    1    3    3    0    0  0.24567377078E+02 -0.37483898913E+01  0.12881723164E+02  0.27991878022E+02  0.51100000000E-03 0. -1.
        -11    1    3    3    0    0  0.71452503890E+01  0.72140962882E+01  0.27314256614E+01  0.10514679015E+02  0.51100000000E-03 0.  1.
         12    1    3    3    0    0  0.72543424261E+01  0.56683951618E+01  0.11727700256E+01  0.92807099556E+01  0.00000000000E+00 0. -1.
</event>
<event>
 7    1  0.7470072E-010  0.4778730E+02  0.7816164E-02  0.1312668E+00
        -11   -1    0    0    0    0  0.00000000000E+00  0.00000000000E+00  0.45593999997E+02  0.45594000000E+02  0.51100000000E-03 0. -1.
         11   -1    0    0    0    0 -0.00000000000E+00 -0.00000000000E+00 -0.45593999997E+02  0.45594000000E+02  0.51100000000E-03 0.  1.
    9900012    2    1    2    0    0 -0.25595148586E+02 -0.25135453490E+02  0.24427808255E+02  0.47787303353E+02  0.20000147309E+02 0.  0.
        -12    1    1    2    0    0  0.25595148586E+02  0.25135453490E+02 -0.24427808255E+02  0.43400696647E+02  0.00000000000E+00 0.  1.
         11    1    3    3    0    0 -0.14614613247E+02 -0.90921942887E+01  0.99124554399E+01  0.19862318356E+02  0.51100000000E-03 0. -1.
        -11    1    3    3    0    0 -0.82990527046E+01 -0.17750131015E+02  0.90072953083E+01  0.21565546501E+02  0.51100000000E-03 0.  1.
        -12    1    3    3    0    0 -0.26814826339E+01  0.17068718135E+01  0.55080575063E+01  0.63594384970E+01  0.00000000000E+00 0.  1.
</event>
<event>
 7    1  0.7470072E-010  0.4778728E+02  0.7816164E-02  0.1312668E+00
        -11   -1    0    0    0    0  0.00000000000E+00  0.00000000000E+00  0.45593999997E+02  0.45594000000E+02  0.51100000000E-03 0.  1.
         11   -1    0    0    0    0 -0.00000000000E+00 -0.00000000000E+00 -0.45593999997E+02  0.45594000000E+02  0.51100000000E-03 0. -1.
    9900012    2    1    2    0    0  0.95778586856E+01  0.36525825388E+02 -0.21395129636E+02  0.47787275704E+02  0.20000021244E+02 0.  0.
         12    1    1    2    0    0 -0.95778586856E+01 -0.36525825388E+02  0.21395129636E+02  0.43400724296E+02  0.00000000000E+00 0. -1.
         11    1    3    3    0    0  0.72281517594E+01  0.18164775361E+02 -0.15019684311E+01  0.19607680923E+02  0.51100000000E-03 0.  1.
        -11    1    3    3    0    0  0.29387328081E+01  0.18587153791E+02 -0.17475477591E+02  0.25680941452E+02  0.51100000000E-03 0. -1.
        -12    1    3    3    0    0 -0.58902588190E+00 -0.22610376298E+00 -0.24176836140E+01  0.24986533290E+01  0.00000000000E+00 0.  1.
</event>
<event>
 7    1  0.7470072E-010  0.4778724E+02  0.7816164E-02  0.1312668E+00
        -11   -1    0    0    0    0  0.00000000000E+00  0.00000000000E+00  0.45593999997E+02  0.45594000000E+02  0.51100000000E-03 0.  1.
         11   -1    0    0    0    0 -0.00000000000E+00 -0.00000000000E+00 -0.45593999997E+02  0.45594000000E+02  0.51100000000E-03 0. -1.
    9900012    2    1    2    0    0  0.19620486174E+02 -0.34827962299E+02  0.16901935257E+02  0.47787241354E+02  0.19999864629E+02 0.  0.
        -12    1    1    2    0    0 -0.19620486174E+02  0.34827962299E+02 -0.16901935257E+02  0.43400758646E+02  0.00000000000E+00 0.  1.
         11    1    3    3    0    0  0.40141859673E+01 -0.11723161786E+02  0.30142018164E+01  0.12752710460E+02  0.51100000000E-03 0. -1.
        -11    1    3    3    0    0  0.11753061981E+02 -0.19121017766E+02  0.17464137999E+02  0.28438422998E+02  0.51100000000E-03 0.  1.
        -12    1    3    3    0    0  0.38532382256E+01 -0.39837827478E+01 -0.35764045583E+01  0.65961078955E+01  0.00000000000E+00 0.  1.
</event>
<event>
 7    1  0.7470072E-010  0.4778726E+02  0.7816164E-02  0.1312668E+00
        -11   -1    0    0    0    0  0.00000000000E+00  0.00000000000E+00  0.45593999997E+02  0.45594000000E+02  0.51100000000E-03 0.  1.
         11   -1    0    0    0    0 -0.00000000000E+00 -0.00000000000E+00 -0.45593999997E+02  0.45594000000E+02  0.51100000000E-03 0. -1.
    9900012    2    1    2    0    0  0.41655333085E+02 -0.69866484801E+01 -0.99821962743E+01  0.47787259524E+02  0.19999947474E+02 0.  0.
         12    1    1    2    0    0 -0.41655333085E+02  0.69866484801E+01  0.99821962743E+01  0.43400740476E+02  0.00000000000E+00 0. -1.
         11    1    3    3    0    0  0.21823388987E+02 -0.13290162074E+02 -0.61085156743E+01  0.26271708716E+02  0.51100000000E-03 0.  1.
        -11    1    3    3    0    0  0.14515329292E+02  0.56938154997E+01 -0.42193674995E+01  0.16152937249E+02  0.51100000000E-03 0. -1.
        -12    1    3    3    0    0  0.53166148055E+01  0.60969809407E+00  0.34568689952E+00  0.53626135595E+01  0.00000000000E+00 0.  1.
</event>
<event>
 7    1  0.7470072E-010  0.4778726E+02  0.7816164E-02  0.1312668E+00
        -11   -1    0    0    0    0  0.00000000000E+00  0.00000000000E+00  0.45593999997E+02  0.45594000000E+02  0.51100000000E-03 0.  1.
         11   -1    0    0    0    0 -0.00000000000E+00 -0.00000000000E+00 -0.45593999997E+02  0.45594000000E+02  0.51100000000E-03 0. -1.
    9900012    2    1    2    0    0 -0.21933313951E+02 -0.32071841974E+02 -0.19337809049E+02  0.47787260752E+02  0.19999953071E+02 0.  0.
        -12    1    1    2    0    0  0.21933313951E+02  0.32071841974E+02  0.19337809049E+02  0.43400739248E+02  0.00000000000E+00 0.  1.
         11    1    3    3    0    0 -0.16992013376E+02 -0.14312119739E+02 -0.89507090164E+01  0.23951627965E+02  0.51100000000E-03 0. -1.
        -11    1    3    3    0    0  0.27540461359E+01 -0.46446253606E+01 -0.58633101925E+01  0.79709297785E+01  0.51100000000E-03 0.  1.
        -12    1    3    3    0    0 -0.76953467109E+01 -0.13115096874E+02 -0.45237898396E+01  0.15864703008E+02  0.00000000000E+00 0.  1.
</event>
<event>
 7    1  0.8699765E-010  0.4778732E+02  0.7816164E-02  0.1312668E+00
        -11   -1    0    0    0    0  0.00000000000E+00  0.00000000000E+00  0.45593999997E+02  0.45594000000E+02  0.51100000000E-03 0. -1.
         11   -1    0    0    0    0 -0.00000000000E+00 -0.00000000000E+00 -0.45593999997E+02  0.45594000000E+02  0.51100000000E-03 0.  1.
    9900012    2    1    2    0    0 -0.43221634250E+01  0.35712475071E+02 -0.24280797402E+02  0.47787319189E+02  0.20000219510E+02 0.  0.
         12    1    1    2    0    0  0.43221634250E+01 -0.35712475071E+02  0.24280797402E+02  0.43400680811E+02  0.00000000000E+00 0. -1.
         11    1    3    3    0    0  0.78645802561E+00 -0.94120643951E+00 -0.40684744148E+00  0.12922503200E+01  0.51100000000E-03 0. -1.
        -11    1    3    3    0    0 -0.16165403063E+01  0.22473467998E+02 -0.58144387924E+01  0.23269672648E+02  0.51100000000E-03 0.  1.
        -12    1    3    3    0    0 -0.34920811443E+01  0.14180213512E+02 -0.18059511168E+02  0.23225396221E+02  0.00000000000E+00 0.  1.
</event>
<event>
 7    1  0.7470072E-010  0.4778728E+02  0.7816164E-02  0.1312668E+00
        -11   -1    0    0    0    0  0.00000000000E+00  0.00000000000E+00  0.45593999997E+02  0.45594000000E+02  0.51100000000E-03 0. -1.
         11   -1    0    0    0    0 -0.00000000000E+00 -0.00000000000E+00 -0.45593999997E+02  0.45594000000E+02  0.51100000000E-03 0.  1.
    9900012    2    1    2    0    0 -0.19976190900E+02 -0.17526938512E+02 -0.34312983311E+02  0.47787278806E+02  0.20000035389E+02 0.  0.
         12    1    1    2    0    0  0.19976190900E+02  0.17526938512E+02  0.34312983311E+02  0.43400721194E+02  0.00000000000E+00 0. -1.
         11    1    3    3    0    0 -0.19483016599E+02 -0.13751696470E+02 -0.19572913649E+02  0.30851191883E+02  0.51100000000E-03 0. -1.
        -11    1    3    3    0    0 -0.23857832190E+01 -0.42443650398E+01 -0.14046655922E+02  0.14866577919E+02  0.51100000000E-03 0.  1.
         12    1    3    3    0    0  0.18926089186E+01  0.46912299780E+00 -0.69341373888E+00  0.20695090043E+01  0.00000000000E+00 0. -1.
</event>
<event>
 7    1  0.7470072E-010  0.4778728E+02  0.7816164E-02  0.1312668E+00
        -11   -1    0    0    0    0  0.00000000000E+00  0.00000000000E+00  0.45593999997E+02  0.45594000000E+02  0.51100000000E-03 0. -1.
         11   -1    0    0    0    0 -0.00000000000E+00 -0.00000000000E+00 -0.45593999997E+02  0.45594000000E+02  0.51100000000E-03 0.  1.
    9900012    2    1    2    0    0 -0.14237467432E+02 -0.14509761118E+02  0.38345589442E+02  0.47787275625E+02  0.20000020885E+02 0.  0.
        -12    1    1    2    0    0  0.14237467432E+02  0.14509761118E+02 -0.38345589442E+02  0.43400724375E+02  0.00000000000E+00 0.  1.
         11    1    3    3    0    0 -0.98631617963E+01 -0.14286079277E+02  0.31418802100E+02  0.35895893183E+02  0.51100000000E-03 0. -1.
        -11    1    3    3    0    0 -0.30805274857E+00  0.21400560250E+01  0.68545490563E+01  0.71874598651E+01  0.51100000000E-03 0.  1.
         12    1    3    3    0    0 -0.40662528869E+01 -0.23637378658E+01  0.72238285676E-01  0.47039225768E+01  0.00000000000E+00 0. -1.
</event>
<event>
 7    1  0.7470072E-010  0.4778727E+02  0.7816164E-02  0.1312668E+00
        -11   -1    0    0    0    0  0.00000000000E+00  0.00000000000E+00  0.45593999997E+02  0.45594000000E+02  0.51100000000E-03 0. -1.
         11   -1    0    0    0    0 -0.00000000000E+00 -0.00000000000E+00 -0.45593999997E+02  0.45594000000E+02  0.51100000000E-03 0.  1.
    9900012    2    1    2    0    0  0.27216250444E+02  0.15528156293E+02 -0.30029572480E+02  0.47787272478E+02  0.20000006538E+02 0.  0.
         12    1    1    2    0    0 -0.27216250444E+02 -0.15528156293E+02  0.30029572480E+02  0.43400727522E+02  0.00000000000E+00 0. -1.
         11    1    3    3    0    0 -0.22189447700E+01  0.16491203482E+01 -0.37412745458E+00  0.27898540156E+01  0.51100000000E-03 0. -1.
        -11    1    3    3    0    0  0.28300377036E+02  0.15176676213E+02 -0.27957024304E+02  0.42577435920E+02  0.51100000000E-03 0.  1.
         12    1    3    3    0    0  0.11348181775E+01 -0.12976402688E+01 -0.16984207211E+01  0.24199825431E+01  0.00000000000E+00 0. -1.
</event>
<event>
 7    1  0.7470072E-010  0.4778727E+02  0.7816164E-02  0.1312668E+00
        -11   -1    0    0    0    0  0.00000000000E+00  0.00000000000E+00  0.45593999997E+02  0.45594000000E+02  0.51100000000E-03 0. -1.
         11   -1    0    0    0    0 -0.00000000000E+00 -0.00000000000E+00 -0.45593999997E+02  0.45594000000E+02  0.51100000000E-03 0.  1.
    9900012    2    1    2    0    0  0.10873164749E+02  0.37974178839E+02 -0.17982196708E+02  0.47787269953E+02  0.19999995023E+02 0.  0.
         12    1    1    2    0    0 -0.10873164749E+02 -0.37974178839E+02  0.17982196708E+02  0.43400730047E+02  0.00000000000E+00 0. -1.
         11    1    3    3    0    0 -0.22561166594E+01  0.82434994326E+00  0.25960482266E-01  0.24021426722E+01  0.51100000000E-03 0. -1.
        -11    1    3    3    0    0  0.14991125381E+02  0.28561016766E+02 -0.17211160874E+02  0.36560765553E+02  0.51100000000E-03 0.  1.
        -12    1    3    3    0    0 -0.18618439730E+01  0.85888121297E+01 -0.79699631684E+00  0.88243617281E+01  0.00000000000E+00 0.  1.
</event>
<event>
 7    1  0.7470072E-010  0.4778727E+02  0.7816164E-02  0.1312668E+00
        -11   -1    0    0    0    0  0.00000000000E+00  0.00000000000E+00  0.45593999997E+02  0.45594000000E+02  0.51100000000E-03 0. -1.
         11   -1    0    0    0    0 -0.00000000000E+00 -0.00000000000E+00 -0.45593999997E+02  0.45594000000E+02  0.51100000000E-03 0.  1.
    9900012    2    1    2    0    0 -0.14067984489E+02  0.22664889025E+02  0.34234744122E+02  0.47787273195E+02  0.20000009804E+02 0.  0.
        -12    1    1    2    0    0  0.14067984489E+02 -0.22664889025E+02 -0.34234744122E+02  0.43400726805E+02  0.00000000000E+00 0.  1.
         11    1    3    3    0    0 -0.13076113751E+02  0.19269670529E+02  0.25132166137E+02  0.34262672519E+02  0.51100000000E-03 0. -1.
        -11    1    3    3    0    0 -0.51850678198E+01  0.17339266064E+01  0.45072656009E+01  0.70856808586E+01  0.51100000000E-03 0.  1.
         12    1    3    3    0    0  0.41931970814E+01  0.16612918890E+01  0.45953123848E+01  0.64389198176E+01  0.00000000000E+00 0. -1.
</event>
<event>
 7    1  0.7470072E-010  0.4778727E+02  0.7816164E-02  0.1312668E+00
        -11   -1    0    0    0    0  0.00000000000E+00  0.00000000000E+00  0.45593999997E+02  0.45594000000E+02  0.51100000000E-03 0. -1.
         11   -1    0    0    0    0 -0.00000000000E+00 -0.00000000000E+00 -0.45593999997E+02  0.45594000000E+02  0.51100000000E-03 0.  1.
    9900012    2    1    2    0    0  0.47344360013E+01 -0.39437219632E+02  0.17490401332E+02  0.47787270568E+02  0.19999997826E+02 0.  0.
        -12    1    1    2    0    0 -0.47344360013E+01  0.39437219632E+02 -0.17490401332E+02  0.43400729432E+02  0.00000000000E+00 0.  1.
         11    1    3    3    0    0  0.27545917295E+01 -0.20131856510E+02  0.13445929870E+01  0.20363873716E+02  0.51100000000E-03 0. -1.
        -11    1    3    3    0    0  0.56531458014E+01 -0.89174366712E+01  0.11051488189E+02  0.15284440640E+02  0.51100000000E-03 0.  1.
        -12    1    3    3    0    0 -0.36733015297E+01 -0.10387926450E+02  0.50943201560E+01  0.12138956212E+02  0.00000000000E+00 0.  1.
</event>
<event>
 7    1  0.7470072E-010  0.4778727E+02  0.7816164E-02  0.1312668E+00
        -11   -1    0    0    0    0  0.00000000000E+00  0.00000000000E+00  0.45593999997E+02  0.45594000000E+02  0.51100000000E-03 0. -1.
         11   -1    0    0    0    0 -0.00000000000E+00 -0.00000000000E+00 -0.45593999997E+02  0.45594000000E+02  0.51100000000E-03 0.  1.
    9900012    2    1    2    0    0  0.25342112916E+02 -0.23575134559E+02 -0.26184228491E+02  0.47787268691E+02  0.19999989268E+02 0.  0.
         12    1    1    2    0    0 -0.25342112916E+02  0.23575134559E+02  0.26184228491E+02  0.43400731309E+02  0.00000000000E+00 0. -1.
         11    1    3    3    0    0  0.17214992590E+02 -0.17885234230E+02 -0.12161032558E+02  0.27642870446E+02  0.51100000000E-03 0. -1.
        -11    1    3    3    0    0  0.37564844178E+01 -0.77413705976E+01 -0.51101884454E+01  0.10007698043E+02  0.51100000000E-03 0.  1.
         12    1    3    3    0    0  0.43706359084E+01  0.20514702689E+01 -0.89130074875E+01  0.10136700202E+02  0.00000000000E+00 0. -1.
</event>
<event>
 7    1  0.7470072E-010  0.4778727E+02  0.7816164E-02  0.1312668E+00
        -11   -1    0    0    0    0  0.00000000000E+00  0.00000000000E+00  0.45593999997E+02  0.45594000000E+02  0.51100000000E-03 0. -1.
         11   -1    0    0    0    0 -0.00000000000E+00 -0.00000000000E+00 -0.45593999997E+02  0.45594000000E+02  0.51100000000E-03 0.  1.
    9900012    2    1    2    0    0 -0.94313965763E+01  0.11333757383E+02  0.40819334619E+02  0.47787269862E+02  0.19999994608E+02 0.  0.
        -12    1    1    2    0    0  0.94313965763E+01 -0.11333757383E+02 -0.40819334619E+02  0.43400730138E+02  0.00000000000E+00 0.  1.
         11    1    3    3    0    0 -0.42856498471E+01  0.44521143207E+01  0.26373239874E+02  0.27087559843E+02  0.51100000000E-03 0. -1.
        -11    1    3    3    0    0  0.18101155235E+01  0.52100677708E+01  0.11990235977E+01  0.56443761598E+01  0.51100000000E-03 0.  1.
        -12    1    3    3    0    0 -0.69558622526E+01  0.16715752920E+01  0.13247071147E+02  0.15055333859E+02  0.00000000000E+00 0.  1.
</event>
<event>
 7    1  0.7470072E-010  0.4778727E+02  0.7816164E-02  0.1312668E+00
        -11   -1    0    0    0    0  0.00000000000E+00  0.00000000000E+00  0.45593999997E+02  0.45594000000E+02  0.51100000000E-03 0. -1.
         11   -1    0    0    0    0 -0.00000000000E+00 -0.00000000000E+00 -0.45593999997E+02  0.45594000000E+02  0.51100000000E-03 0.  1.
    9900012    2    1    2    0    0 -0.34616129616E+02  0.32776608905E+01 -0.25973132480E+02  0.47787273032E+02  0.20000009062E+02 0.  0.
         12    1    1    2    0    0  0.34616129616E+02 -0.32776608905E+01  0.25973132480E+02  0.43400726968E+02  0.00000000000E+00 0. -1.
         11    1    3    3    0    0 -0.10980241070E+01  0.17814750867E+01 -0.97313402621E+00  0.23078779253E+01  0.51100000000E-03 0. -1.
        -11    1    3    3    0    0 -0.12893945177E+02  0.87270909272E+01 -0.66026642185E+01  0.16911863095E+02  0.51100000000E-03 0.  1.
        -12    1    3    3    0    0 -0.20624160332E+02 -0.72309051233E+01 -0.18397334235E+02  0.28567532012E+02  0.00000000000E+00 0.  1.
</event>
<event>
 7    1  0.7470072E-010  0.4778726E+02  0.7816164E-02  0.1312668E+00
        -11   -1    0    0    0    0  0.00000000000E+00  0.00000000000E+00  0.45593999997E+02  0.45594000000E+02  0.51100000000E-03 0. -1.
         11   -1    0    0    0    0 -0.00000000000E+00 -0.00000000000E+00 -0.45593999997E+02  0.45594000000E+02  0.51100000000E-03 0.  1.
    9900012    2    1    2    0    0  0.66205671834E+01  0.67451456842E+01  0.42359119136E+02  0.47787264129E+02  0.19999968471E+02 0.  0.
        -12    1    1    2    0    0 -0.66205671834E+01 -0.67451456842E+01 -0.42359119136E+02  0.43400735871E+02  0.00000000000E+00 0.  1.
         11    1    3    3    0    0  0.64457705861E+01 -0.43210548022E+01  0.29567378516E+02  0.30568764215E+02  0.51100000000E-03 0. -1.
        -11    1    3    3    0    0  0.12981170985E+01  0.64963256397E+01  0.89987670731E+01  0.11174308207E+02  0.51100000000E-03 0.  1.
         12    1    3    3    0    0 -0.11233205012E+01  0.45698748466E+01  0.37929735474E+01  0.60441917072E+01  0.00000000000E+00 0. -1.
</event>
<event>
 7    1  0.7470072E-010  0.4778727E+02  0.7816164E-02  0.1312668E+00
        -11   -1    0    0    0    0  0.00000000000E+00  0.00000000000E+00  0.45593999997E+02  0.45594000000E+02  0.51100000000E-03 0. -1.
         11   -1    0    0    0    0 -0.00000000000E+00 -0.00000000000E+00 -0.45593999997E+02  0.45594000000E+02  0.51100000000E-03 0.  1.
    9900012    2    1    2    0    0  0.17963463088E+02 -0.37404443109E+02 -0.12721843809E+02  0.47787266362E+02  0.19999978652E+02 0.  0.
         12    1    1    2    0    0 -0.17963463088E+02  0.37404443109E+02  0.12721843809E+02  0.43400733638E+02  0.00000000000E+00 0. -1.
         11    1    3    3    0    0  0.61033898652E+00 -0.12098602818E+01 -0.55733650704E+01  0.57357365742E+01  0.51100000000E-03 0. -1.
        -11    1    3    3    0    0  0.92018493941E+01 -0.28973112553E+02 -0.68286715123E+01  0.31156797623E+02  0.51100000000E-03 0.  1.
         12    1    3    3    0    0  0.81512747071E+01 -0.72214702745E+01 -0.31980722663E+00  0.10894732165E+02  0.00000000000E+00 0. -1.
</event>
<event>
 7    1  0.7470072E-010  0.4778727E+02  0.7816164E-02  0.1312668E+00
        -11   -1    0    0    0    0  0.00000000000E+00  0.00000000000E+00  0.45593999997E+02  0.45594000000E+02  0.51100000000E-03 0.  1.
         11   -1    0    0    0    0 -0.00000000000E+00 -0.00000000000E+00 -0.45593999997E+02  0.45594000000E+02  0.51100000000E-03 0. -1.
    9900012    2    1    2    0    0 -0.37798484717E+02  0.21281172719E+02 -0.14176416864E+01  0.47787268818E+02  0.19999989850E+02 0.  0.
        -12    1    1    2    0    0  0.37798484717E+02 -0.21281172719E+02  0.14176416864E+01  0.43400731182E+02  0.00000000000E+00 0.  1.
         11    1    3    3    0    0 -0.24859967862E+02  0.85302280398E+01  0.50180011047E+01  0.26757487324E+02  0.51100000000E-03 0. -1.
        -11    1    3    3    0    0 -0.37944675382E+01  0.66829352170E+00 -0.42228252668E+01  0.57163671702E+01  0.51100000000E-03 0.  1.
         12    1    3    3    0    0 -0.91440493162E+01  0.12082651157E+02 -0.22128175243E+01  0.15313414324E+02  0.00000000000E+00 0. -1.
</event>
<event>
 7    1  0.7470072E-010  0.4778727E+02  0.7816164E-02  0.1312668E+00
        -11   -1    0    0    0    0  0.00000000000E+00  0.00000000000E+00  0.45593999997E+02  0.45594000000E+02  0.51100000000E-03 0.  1.
         11   -1    0    0    0    0 -0.00000000000E+00 -0.00000000000E+00 -0.45593999997E+02  0.45594000000E+02  0.51100000000E-03 0. -1.
    9900012    2    1    2    0    0  0.30331183040E+02  0.21883363657E+02 -0.22017295951E+02  0.47787267396E+02  0.19999983365E+02 0.  0.
         12    1    1    2    0    0 -0.30331183040E+02 -0.21883363657E+02  0.22017295951E+02  0.43400732604E+02  0.00000000000E+00 0. -1.
         11    1    3    3    0    0  0.14134396385E+02  0.45927745025E+01 -0.18236944952E+01  0.14973329645E+02  0.51100000000E-03 0. -1.
        -11    1    3    3    0    0  0.13387029963E+02  0.86415748532E+01 -0.16672429291E+02  0.23062074623E+02  0.51100000000E-03 0.  1.
         12    1    3    3    0    0  0.28097566930E+01  0.86490143014E+01 -0.35211721642E+01  0.97518631281E+01  0.00000000000E+00 0. -1.
</event>
<event>
 7    1  0.7470072E-010  0.4778727E+02  0.7816164E-02  0.1312668E+00
        -11   -1    0    0    0    0  0.00000000000E+00  0.00000000000E+00  0.45593999997E+02  0.45594000000E+02  0.51100000000E-03 0. -1.
         11   -1    0    0    0    0 -0.00000000000E+00 -0.00000000000E+00 -0.45593999997E+02  0.45594000000E+02  0.51100000000E-03 0.  1.
    9900012    2    1    2    0    0 -0.17100940922E+02  0.13262706711E+01  0.39867561451E+02  0.47787266937E+02  0.19999981273E+02 0.  0.
        -12    1    1    2    0    0  0.17100940922E+02 -0.13262706711E+01 -0.39867561451E+02  0.43400733063E+02  0.00000000000E+00 0.  1.
         11    1    3    3    0    0 -0.58540869615E+00 -0.37002884897E+01  0.98901488433E+00  0.38746598497E+01  0.51100000000E-03 0. -1.
        -11    1    3    3    0    0 -0.17084035801E+01 -0.25990331229E+01  0.11062618526E+02  0.11491524915E+02  0.51100000000E-03 0.  1.
         12    1    3    3    0    0 -0.14807128646E+02  0.76255922837E+01  0.27815928041E+02  0.32421082172E+02  0.00000000000E+00 0. -1.
</event>
<event>
 7    1  0.7470072E-010  0.4778727E+02  0.7816164E-02  0.1312668E+00
        -11   -1    0    0    0    0  0.00000000000E+00  0.00000000000E+00  0.45593999997E+02  0.45594000000E+02  0.51100000000E-03 0. -1.
         11   -1    0    0    0    0 -0.00000000000E+00 -0.00000000000E+00 -0.45593999997E+02  0.45594000000E+02  0.51100000000E-03 0.  1.
    9900012    2    1    2    0    0  0.32719617564E+02 -0.96201377967E+00  0.28497801940E+02  0.47787267755E+02  0.19999985000E+02 0.  0.
        -12    1    1    2    0    0 -0.32719617564E+02  0.96201377967E+00 -0.28497801940E+02  0.43400732245E+02  0.00000000000E+00 0.  1.
         11    1    3    3    0    0  0.99076746701E+01  0.45204937465E+01  0.19854414590E+02  0.22644969862E+02  0.51100000000E-03 0. -1.
        -11    1    3    3    0    0  0.17979074103E+02 -0.34754481353E+01  0.59334823576E+01  0.19249209295E+02  0.51100000000E-03 0.  1.
         12    1    3    3    0    0  0.48328687908E+01 -0.20070593909E+01  0.27099049917E+01  0.58930885970E+01  0.00000000000E+00 0. -1.
</event>
<event>
 7    1  0.7470072E-010  0.4778727E+02  0.7816164E-02  0.1312668E+00
        -11   -1    0    0    0    0  0.00000000000E+00  0.00000000000E+00  0.45593999997E+02  0.45594000000E+02  0.51100000000E-03 0. -1.
         11   -1    0    0    0    0 -0.00000000000E+00 -0.00000000000E+00 -0.45593999997E+02  0.45594000000E+02  0.51100000000E-03 0.  1.
    9900012    2    1    2    0    0 -0.22748046245E+01 -0.12836029111E+02 -0.41396676590E+02  0.47787271756E+02  0.20000003243E+02 0.  0.
         12    1    1    2    0    0  0.22748046245E+01  0.12836029111E+02  0.41396676590E+02  0.43400728244E+02  0.00000000000E+00 0. -1.
         11    1    3    3    0    0  0.24958808778E+01  0.21095313541E+01 -0.20183504393E+02  0.20446354045E+02  0.51100000000E-03 0. -1.
        -11    1    3    3    0    0 -0.10163159092E+00 -0.83127766832E+01 -0.65498555496E+01  0.10583628544E+02  0.51100000000E-03 0.  1.
         12    1    3    3    0    0 -0.46690539114E+01 -0.66327837820E+01 -0.14663316648E+02  0.16757289167E+02  0.00000000000E+00 0. -1.
</event>
<event>
 7    1  0.7470072E-010  0.4778728E+02  0.7816164E-02  0.1312668E+00
        -11   -1    0    0    0    0  0.00000000000E+00  0.00000000000E+00  0.45593999997E+02  0.45594000000E+02  0.51100000000E-03 0. -1.
         11   -1    0    0    0    0 -0.00000000000E+00 -0.00000000000E+00 -0.45593999997E+02  0.45594000000E+02  0.51100000000E-03 0.  1.
    9900012    2    1    2    0    0 -0.18960253587E+02  0.10115063581E+02  0.37706986444E+02  0.47787279338E+02  0.20000037813E+02 0.  0.
        -12    1    1    2    0    0  0.18960253587E+02 -0.10115063581E+02 -0.37706986444E+02  0.43400720662E+02  0.00000000000E+00 0.  1.
         11    1    3    3    0    0 -0.70943349059E+01  0.58488629560E+01  0.24442397775E+02  0.26114547572E+02  0.51100000000E-03 0. -1.
        -11    1    3    3    0    0 -0.97552067681E+01  0.24114795618E+00  0.26280567961E+01  0.10105884138E+02  0.51100000000E-03 0.  1.
        -12    1    3    3    0    0 -0.21107119128E+01  0.40250526692E+01  0.10636531873E+02  0.11566847628E+02  0.00000000000E+00 0.  1.
</event>
<event>
 7    1  0.7470072E-010  0.4778727E+02  0.7816164E-02  0.1312668E+00
        -11   -1    0    0    0    0  0.00000000000E+00  0.00000000000E+00  0.45593999997E+02  0.45594000000E+02  0.51100000000E-03 0. -1.
         11   -1    0    0    0    0 -0.00000000000E+00 -0.00000000000E+00 -0.45593999997E+02  0.45594000000E+02  0.51100000000E-03 0.  1.
    9900012    2    1    2    0    0 -0.66597152574E+00 -0.35653583299E+01  0.43248907335E+02  0.47787270930E+02  0.19999999478E+02 0.  0.
        -12    1    1    2    0    0  0.66597152574E+00  0.35653583299E+01 -0.43248907335E+02  0.43400729070E+02  0.00000000000E+00 0.  1.
         11    1    3    3    0    0 -0.57127436251E+00 -0.43657444368E+01  0.36658998807E+02  0.36922462982E+02  0.51100000000E-03 0. -1.
        -11    1    3    3    0    0  0.24369519911E+01 -0.22623344349E+01  0.59832595386E+01  0.68451652332E+01  0.51100000000E-03 0.  1.
         12    1    3    3    0    0 -0.25316491543E+01  0.30627205418E+01  0.60664899003E+00  0.40196427148E+01  0.00000000000E+00 0. -1.
</event>
<event>
 7    1  0.7470072E-010  0.4778728E+02  0.7816164E-02  0.1312668E+00
        -11   -1    0    0    0    0  0.00000000000E+00  0.00000000000E+00  0.45593999997E+02  0.45594000000E+02  0.51100000000E-03 0. -1.
         11   -1    0    0    0    0 -0.00000000000E+00 -0.00000000000E+00 -0.45593999997E+02  0.45594000000E+02  0.51100000000E-03 0.  1.
    9900012    2    1    2    0    0  0.48907829774E+01  0.15458640423E+02 -0.40258335683E+02  0.47787275193E+02  0.20000018914E+02 0.  0.
         12    1    1    2    0    0 -0.48907829774E+01 -0.15458640423E+02  0.40258335683E+02  0.43400724807E+02  0.00000000000E+00 0. -1.
         11    1    3    3    0    0  0.83120138279E+01 -0.13649668333E+01 -0.12132113102E+02  0.14769592984E+02  0.51100000000E-03 0. -1.
        -11    1    3    3    0    0 -0.18628815976E+01  0.12810886528E+02 -0.22087934935E+02  0.25602070452E+02  0.51100000000E-03 0.  1.
         12    1    3    3    0    0 -0.15583492529E+01  0.40127207278E+01 -0.60382876450E+01  0.74156117561E+01  0.00000000000E+00 0. -1.
</event>
<event>
 7    1  0.7470072E-010  0.4778727E+02  0.7816164E-02  0.1312668E+00
        -11   -1    0    0    0    0  0.00000000000E+00  0.00000000000E+00  0.45593999997E+02  0.45594000000E+02  0.51100000000E-03 0. -1.
         11   -1    0    0    0    0 -0.00000000000E+00 -0.00000000000E+00 -0.45593999997E+02  0.45594000000E+02  0.51100000000E-03 0.  1.
    9900012    2    1    2    0    0  0.77027349970E+01 -0.42298743623E+02  0.59251643481E+01  0.47787269464E+02  0.19999992794E+02 0.  0.
        -12    1    1    2    0    0 -0.77027349970E+01  0.42298743623E+02 -0.59251643481E+01  0.43400730536E+02  0.00000000000E+00 0.  1.
         11    1    3    3    0    0  0.80219021704E+01 -0.27275439944E+02  0.85799443392E+01  0.29697070288E+02  0.51100000000E-03 0. -1.
        -11    1    3    3    0    0 -0.48499038792E+01 -0.81430632904E+01 -0.26893471085E+01  0.98520878761E+01  0.51100000000E-03 0.  1.
         12    1    3    3    0    0  0.45307367058E+01 -0.68802403890E+01  0.34567117428E-01  0.82381113002E+01  0.00000000000E+00 0. -1.
</event>
<event>
 7    1  0.9113874E-010  0.4778727E+02  0.7816164E-02  0.1312668E+00
        -11   -1    0    0    0    0  0.00000000000E+00  0.00000000000E+00  0.45593999997E+02  0.45594000000E+02  0.51100000000E-03 0. -1.
         11   -1    0    0    0    0 -0.00000000000E+00 -0.00000000000E+00 -0.45593999997E+02  0.45594000000E+02  0.51100000000E-03 0.  1.
    9900012    2    1    2    0    0 -0.92262120841E+01  0.57016440579E+01 -0.42023702022E+02  0.47787271135E+02  0.20000000411E+02 0.  0.
         12    1    1    2    0    0  0.92262120841E+01 -0.57016440579E+01  0.42023702022E+02  0.43400728865E+02  0.00000000000E+00 0. -1.
         11    1    3    3    0    0  0.30002245715E+01  0.46752977134E+01 -0.78309969286E+01  0.96012639452E+01  0.51100000000E-03 0. -1.
        -11    1    3    3    0    0 -0.13114812192E+02  0.46455730608E+00 -0.19794272745E+02  0.23749259906E+02  0.51100000000E-03 0.  1.
        -12    1    3    3    0    0  0.88837553674E+00  0.56178903842E+00 -0.14398432349E+02  0.14436747283E+02  0.00000000000E+00 0.  1.
</event>
<event>
 7    1  0.7470072E-010  0.4778727E+02  0.7816164E-02  0.1312668E+00
        -11   -1    0    0    0    0  0.00000000000E+00  0.00000000000E+00  0.45593999997E+02  0.45594000000E+02  0.51100000000E-03 0. -1.
         11   -1    0    0    0    0 -0.00000000000E+00 -0.00000000000E+00 -0.45593999997E+02  0.45594000000E+02  0.51100000000E-03 0.  1.
    9900012    2    1    2    0    0 -0.44433390268E+01 -0.15794746091E+02  0.40179673365E+02  0.47787269389E+02  0.19999992454E+02 0.  0.
        -12    1    1    2    0    0  0.44433390268E+01  0.15794746091E+02 -0.40179673365E+02  0.43400730611E+02  0.00000000000E+00 0.  1.
         11    1    3    3    0    0  0.43290444524E-01 -0.12263559457E+02  0.27743688027E+02  0.30333298374E+02  0.51100000000E-03 0. -1.
        -11    1    3    3    0    0 -0.36535150151E+01  0.18613015860E+01  0.11104591539E+02  0.11837422400E+02  0.51100000000E-03 0.  1.
        -12    1    3    3    0    0 -0.83311445622E+00 -0.53924882209E+01  0.13313937990E+01  0.56165486161E+01  0.00000000000E+00 0.  1.
</event>
<event>
 7    1  0.7470072E-010  0.4778726E+02  0.7816164E-02  0.1312668E+00
        -11   -1    0    0    0    0  0.00000000000E+00  0.00000000000E+00  0.45593999997E+02  0.45594000000E+02  0.51100000000E-03 0. -1.
         11   -1    0    0    0    0 -0.00000000000E+00 -0.00000000000E+00 -0.45593999997E+02  0.45594000000E+02  0.51100000000E-03 0.  1.
    9900012    2    1    2    0    0 -0.30025375655E+00  0.23762235558E+02 -0.36316525375E+02  0.47787262606E+02  0.19999961525E+02 0.  0.
         12    1    1    2    0    0  0.30025375655E+00 -0.23762235558E+02  0.36316525375E+02  0.43400737394E+02  0.00000000000E+00 0. -1.
         11    1    3    3    0    0 -0.14761597451E+01  0.16907202253E+01  0.85394467455E+00  0.24014171319E+01  0.51100000000E-03 0. -1.
        -11    1    3    3    0    0  0.95161243683E+00  0.23735296706E+02 -0.36560230930E+02  0.43599545432E+02  0.51100000000E-03 0.  1.
        -12    1    3    3    0    0  0.22429355175E+00 -0.16637813735E+01 -0.61023911943E+00  0.17863000417E+01  0.00000000000E+00 0.  1.
</event>
<event>
 7    1  0.7470072E-010  0.4778727E+02  0.7816164E-02  0.1312668E+00
        -11   -1    0    0    0    0  0.00000000000E+00  0.00000000000E+00  0.45593999997E+02  0.45594000000E+02  0.51100000000E-03 0. -1.
         11   -1    0    0    0    0 -0.00000000000E+00 -0.00000000000E+00 -0.45593999997E+02  0.45594000000E+02  0.51100000000E-03 0.  1.
    9900012    2    1    2    0    0  0.19820407126E+02  0.19646616723E+01 -0.38560532712E+02  0.47787272850E+02  0.20000008231E+02 0.  0.
         12    1    1    2    0    0 -0.19820407126E+02 -0.19646616723E+01  0.38560532712E+02  0.43400727150E+02  0.00000000000E+00 0. -1.
         11    1    3    3    0    0  0.78460356389E+01  0.80243488348E+01 -0.98801479846E+01  0.14952182915E+02  0.51100000000E-03 0. -1.
        -11    1    3    3    0    0  0.37759026022E+01 -0.35632693915E+01 -0.19897743161E+02  0.20563912867E+02  0.51100000000E-03 0.  1.
        -12    1    3    3    0    0  0.81984688848E+01 -0.24964177710E+01 -0.87826415665E+01  0.12271177068E+02  0.00000000000E+00 0.  1.
</event>
<event>
 7    1  0.7470072E-010  0.4778727E+02  0.7816164E-02  0.1312668E+00
        -11   -1    0    0    0    0  0.00000000000E+00  0.00000000000E+00  0.45593999997E+02  0.45594000000E+02  0.51100000000E-03 0. -1.
         11   -1    0    0    0    0 -0.00000000000E+00 -0.00000000000E+00 -0.45593999997E+02  0.45594000000E+02  0.51100000000E-03 0.  1.
    9900012    2    1    2    0    0 -0.21488270005E+02 -0.22444191950E+02  0.30300753807E+02  0.47787272110E+02  0.20000004856E+02 0.  0.
        -12    1    1    2    0    0  0.21488270005E+02  0.22444191950E+02 -0.30300753807E+02  0.43400727890E+02  0.00000000000E+00 0.  1.
         11    1    3    3    0    0 -0.71090706730E+01 -0.74139664077E+01  0.15641387766E+02  0.18712530434E+02  0.51100000000E-03 0. -1.
        -11    1    3    3    0    0 -0.23161207566E+01 -0.29229969808E+01 -0.27840406120E+01  0.46539455411E+01  0.51100000000E-03 0.  1.
        -12    1    3    3    0    0 -0.12063078576E+02 -0.12107228562E+02  0.17443406653E+02  0.24420796134E+02  0.00000000000E+00 0.  1.
</event>
<event>
 7    1  0.7470072E-010  0.4778727E+02  0.7816164E-02  0.1312668E+00
        -11   -1    0    0    0    0  0.00000000000E+00  0.00000000000E+00  0.45593999997E+02  0.45594000000E+02  0.51100000000E-03 0. -1.
         11   -1    0    0    0    0 -0.00000000000E+00 -0.00000000000E+00 -0.45593999997E+02  0.45594000000E+02  0.51100000000E-03 0.  1.
    9900012    2    1    2    0    0  0.14823277059E+02  0.13439817703E+02 -0.38513178294E+02  0.47787272529E+02  0.20000006770E+02 0.  0.
         12    1    1    2    0    0 -0.14823277059E+02 -0.13439817703E+02  0.38513178294E+02  0.43400727471E+02  0.00000000000E+00 0. -1.
         11    1    3    3    0    0  0.54091887770E+00 -0.31241065560E+00 -0.33926862787E+01  0.34497121759E+01  0.51100000000E-03 0. -1.
        -11    1    3    3    0    0  0.17995332846E+02  0.75761515308E+01 -0.28533598263E+02  0.34574503703E+02  0.51100000000E-03 0.  1.
        -12    1    3    3    0    0 -0.37129746646E+01  0.61760768275E+01 -0.65868937529E+01  0.97630566500E+01  0.00000000000E+00 0.  1.
</event>
<event>
 7    1  0.7470072E-010  0.4778727E+02  0.7816164E-02  0.1312668E+00
        -11   -1    0    0    0    0  0.00000000000E+00  0.00000000000E+00  0.45593999997E+02  0.45594000000E+02  0.51100000000E-03 0. -1.
         11   -1    0    0    0    0 -0.00000000000E+00 -0.00000000000E+00 -0.45593999997E+02  0.45594000000E+02  0.51100000000E-03 0.  1.
    9900012    2    1    2    0    0 -0.69368372154E+00  0.18021743470E+02 -0.39476059185E+02  0.47787266325E+02  0.19999978481E+02 0.  0.
         12    1    1    2    0    0  0.69368372154E+00 -0.18021743470E+02  0.39476059185E+02  0.43400733675E+02  0.00000000000E+00 0. -1.
         11    1    3    3    0    0  0.10197096519E+00  0.19905584931E+02 -0.25234798418E+02  0.32140904795E+02  0.51100000000E-03 0. -1.
        -11    1    3    3    0    0 -0.89452549966E+00  0.14587193628E+00 -0.13426394694E+02  0.13456950963E+02  0.51100000000E-03 0.  1.
         12    1    3    3    0    0  0.98870812933E-01 -0.20297133977E+01 -0.81486607230E+00  0.21894105669E+01  0.00000000000E+00 0. -1.
</event>
<event>
 7    1  0.7470072E-010  0.4778727E+02  0.7816164E-02  0.1312668E+00
        -11   -1    0    0    0    0  0.00000000000E+00  0.00000000000E+00  0.45593999997E+02  0.45594000000E+02  0.51100000000E-03 0. -1.
         11   -1    0    0    0    0 -0.00000000000E+00 -0.00000000000E+00 -0.45593999997E+02  0.45594000000E+02  0.51100000000E-03 0.  1.
    9900012    2    1    2    0    0 -0.29671423377E+02 -0.31243608720E+02  0.52026065843E+01  0.47787267675E+02  0.19999984639E+02 0.  0.
        -12    1    1    2    0    0  0.29671423377E+02  0.31243608720E+02 -0.52026065843E+01  0.43400732325E+02  0.00000000000E+00 0.  1.
         11    1    3    3    0    0 -0.30627350622E+02 -0.30048803783E+02  0.37103172753E+01  0.43066595750E+02  0.51100000000E-03 0. -1.
        -11    1    3    3    0    0 -0.11395884594E+01 -0.17419257350E+01  0.14813689864E+01  0.25548818873E+01  0.51100000000E-03 0.  1.
         12    1    3    3    0    0  0.20955157048E+01  0.54712079826E+00  0.10920322567E-01  0.21657900384E+01  0.00000000000E+00 0. -1.
</event>
<event>
 7    1  0.7470072E-010  0.4778727E+02  0.7816164E-02  0.1312668E+00
        -11   -1    0    0    0    0  0.00000000000E+00  0.00000000000E+00  0.45593999997E+02  0.45594000000E+02  0.51100000000E-03 0. -1.
         11   -1    0    0    0    0 -0.00000000000E+00 -0.00000000000E+00 -0.45593999997E+02  0.45594000000E+02  0.51100000000E-03 0.  1.
    9900012    2    1    2    0    0  0.35545326530E+02 -0.17168780214E+01  0.24843616197E+02  0.47787272195E+02  0.20000005245E+02 0.  0.
        -12    1    1    2    0    0 -0.35545326530E+02  0.17168780214E+01 -0.24843616197E+02  0.43400727805E+02  0.00000000000E+00 0.  1.
         11    1    3    3    0    0  0.23658575576E+02  0.31188102044E+01  0.24322113033E+02  0.34073748811E+02  0.51100000000E-03 0. -1.
        -11    1    3    3    0    0  0.44853588364E+01 -0.41553032737E+01  0.12650532479E+01  0.62438248830E+01  0.51100000000E-03 0.  1.
         12    1    3    3    0    0  0.74013921176E+01 -0.68038495213E+00 -0.74355008426E+00  0.74696985006E+01  0.00000000000E+00 0. -1.
</event>
<event>
 7    1  0.7470072E-010  0.4778727E+02  0.7816164E-02  0.1312668E+00
        -11   -1    0    0    0    0  0.00000000000E+00  0.00000000000E+00  0.45593999997E+02  0.45594000000E+02  0.51100000000E-03 0. -1.
         11   -1    0    0    0    0 -0.00000000000E+00 -0.00000000000E+00 -0.45593999997E+02  0.45594000000E+02  0.51100000000E-03 0.  1.
    9900012    2    1    2    0    0 -0.86281781640E+01 -0.19827112956E+02 -0.37630616370E+02  0.47787272414E+02  0.20000006246E+02 0.  0.
         12    1    1    2    0    0  0.86281781640E+01  0.19827112956E+02  0.37630616370E+02  0.43400727586E+02  0.00000000000E+00 0. -1.
         11    1    3    3    0    0  0.26202025279E+01 -0.50119347811E+01 -0.22192055260E+02  0.22901359533E+02  0.51100000000E-03 0. -1.
        -11    1    3    3    0    0 -0.94910843662E+01 -0.11515161581E+02 -0.89595411714E+01  0.17405545293E+02  0.51100000000E-03 0.  1.
        -12    1    3    3    0    0 -0.17572963258E+01 -0.33000165947E+01 -0.64790199380E+01  0.74803675885E+01  0.00000000000E+00 0.  1.
</event>
<event>
 7    1  0.7470072E-010  0.4778727E+02  0.7816164E-02  0.1312668E+00
        -11   -1    0    0    0    0  0.00000000000E+00  0.00000000000E+00  0.45593999997E+02  0.45594000000E+02  0.51100000000E-03 0.  1.
         11   -1    0    0    0    0 -0.00000000000E+00 -0.00000000000E+00 -0.45593999997E+02  0.45594000000E+02  0.51100000000E-03 0. -1.
    9900012    2    1    2    0    0  0.16419337168E+02 -0.30245364315E+02  0.26443271975E+02  0.47787270418E+02  0.19999997142E+02 0.  0.
        -12    1    1    2    0    0 -0.16419337168E+02  0.30245364315E+02 -0.26443271975E+02  0.43400729582E+02  0.00000000000E+00 0.  1.
         11    1    3    3    0    0 -0.19983170611E+01 -0.55547623726E+01  0.58504678296E+01  0.83112351777E+01  0.51100000000E-03 0. -1.
        -11    1    3    3    0    0  0.16321775851E+02 -0.18825725623E+02  0.93293908646E+01  0.26605372509E+02  0.51100000000E-03 0.  1.
        -12    1    3    3    0    0  0.20958783776E+01 -0.58648763193E+01  0.11263413281E+02  0.12870662731E+02  0.00000000000E+00 0.  1.
</event>
<event>
 7    1  0.7470072E-010  0.4778727E+02  0.7816164E-02  0.1312668E+00
        -11   -1    0    0    0    0  0.00000000000E+00  0.00000000000E+00  0.45593999997E+02  0.45594000000E+02  0.51100000000E-03 0. -1.
         11   -1    0    0    0    0 -0.00000000000E+00 -0.00000000000E+00 -0.45593999997E+02  0.45594000000E+02  0.51100000000E-03 0.  1.
    9900012    2    1    2    0    0  0.36737498794E+02 -0.15232406356E+02 -0.17376806280E+02  0.47787269389E+02  0.19999992452E+02 0.  0.
         12    1    1    2    0    0 -0.36737498794E+02  0.15232406356E+02  0.17376806280E+02  0.43400730611E+02  0.00000000000E+00 0. -1.
         11    1    3    3    0    0  0.89862877286E+01 -0.70818481181E+01 -0.89769701585E+01  0.14542762234E+02  0.51100000000E-03 0. -1.
        -11    1    3    3    0    0  0.11558398473E+02 -0.55316181722E+01  0.31347721959E+01  0.13191746353E+02  0.51100000000E-03 0.  1.
        -12    1    3    3    0    0  0.16192812593E+02 -0.26189400657E+01 -0.11534608318E+02  0.20052760802E+02  0.00000000000E+00 0.  1.
</event>
<event>
 7    1  0.7470072E-010  0.4778727E+02  0.7816164E-02  0.1312668E+00
        -11   -1    0    0    0    0  0.00000000000E+00  0.00000000000E+00  0.45593999997E+02  0.45594000000E+02  0.51100000000E-03 0. -1.
         11   -1    0    0    0    0 -0.00000000000E+00 -0.00000000000E+00 -0.45593999997E+02  0.45594000000E+02  0.51100000000E-03 0.  1.
    9900012    2    1    2    0    0  0.15167658024E+02  0.15040063065E+02 -0.37780441286E+02  0.47787273155E+02  0.20000009623E+02 0.  0.
         12    1    1    2    0    0 -0.15167658024E+02 -0.15040063065E+02  0.37780441286E+02  0.43400726845E+02  0.00000000000E+00 0. -1.
         11    1    3    3    0    0  0.12819571902E+01 -0.38300799127E+01 -0.74658041464E+01  0.84882953641E+01  0.51100000000E-03 0. -1.
        -11    1    3    3    0    0  0.90407734378E+01  0.15578829582E+02 -0.17064213436E+02  0.24811749152E+02  0.51100000000E-03 0.  1.
        -12    1    3    3    0    0  0.48449273961E+01  0.32913133961E+01 -0.13250423703E+02  0.14487228639E+02  0.00000000000E+00 0.  1.
</event>
<event>
 7    1  0.7470072E-010  0.4778726E+02  0.7816164E-02  0.1312668E+00
        -11   -1    0    0    0    0  0.00000000000E+00  0.00000000000E+00  0.45593999997E+02  0.45594000000E+02  0.51100000000E-03 0. -1.
         11   -1    0    0    0    0 -0.00000000000E+00 -0.00000000000E+00 -0.45593999997E+02  0.45594000000E+02  0.51100000000E-03 0.  1.
    9900012    2    1    2    0    0  0.21562800935E+02  0.33583114577E+02  0.17054148255E+02  0.47787263352E+02  0.19999964929E+02 0.  0.
        -12    1    1    2    0    0 -0.21562800935E+02 -0.33583114577E+02 -0.17054148255E+02  0.43400736648E+02  0.00000000000E+00 0.  1.
         11    1    3    3    0    0  0.11525549604E+02  0.10334024303E+02  0.29794985178E+01  0.15764129017E+02  0.51100000000E-03 0. -1.
        -11    1    3    3    0    0  0.10554166481E+02  0.17748404199E+02  0.16052453328E+02  0.26154876024E+02  0.51100000000E-03 0.  1.
        -12    1    3    3    0    0 -0.51691515035E+00  0.55006860744E+01 -0.19778035913E+01  0.58682583112E+01  0.00000000000E+00 0.  1.
</event>
<event>
 7    1  0.7470072E-010  0.4778727E+02  0.7816164E-02  0.1312668E+00
        -11   -1    0    0    0    0  0.00000000000E+00  0.00000000000E+00  0.45593999997E+02  0.45594000000E+02  0.51100000000E-03 0. -1.
         11   -1    0    0    0    0 -0.00000000000E+00 -0.00000000000E+00 -0.45593999997E+02  0.45594000000E+02  0.51100000000E-03 0.  1.
    9900012    2    1    2    0    0  0.20847713390E+02 -0.33509402427E+02 -0.18058680285E+02  0.47787272607E+02  0.20000007124E+02 0.  0.
         12    1    1    2    0    0 -0.20847713390E+02  0.33509402427E+02  0.18058680285E+02  0.43400727393E+02  0.00000000000E+00 0. -1.
         11    1    3    3    0    0 -0.31340866591E+01 -0.22895358948E+01 -0.33343808637E+01  0.51168906384E+01  0.51100000000E-03 0. -1.
        -11    1    3    3    0    0  0.17090195575E+02 -0.26898364631E+02 -0.12548140119E+02  0.34249855844E+02  0.51100000000E-03 0.  1.
        -12    1    3    3    0    0  0.68916044735E+01 -0.43215019009E+01 -0.21761593024E+01  0.84205261242E+01  0.00000000000E+00 0.  1.
</event>
<event>
 7    1  0.7470072E-010  0.4778727E+02  0.7816164E-02  0.1312668E+00
        -11   -1    0    0    0    0  0.00000000000E+00  0.00000000000E+00  0.45593999997E+02  0.45594000000E+02  0.51100000000E-03 0. -1.
         11   -1    0    0    0    0 -0.00000000000E+00 -0.00000000000E+00 -0.45593999997E+02  0.45594000000E+02  0.51100000000E-03 0.  1.
    9900012    2    1    2    0    0  0.26414646098E+02  0.34337604742E+02 -0.26112414334E+01  0.47787271783E+02  0.20000003368E+02 0.  0.
         12    1    1    2    0    0 -0.26414646098E+02 -0.34337604742E+02  0.26112414334E+01  0.43400728217E+02  0.00000000000E+00 0. -1.
         11    1    3    3    0    0  0.21389023097E+01  0.68933880885E+01  0.40476963015E+01  0.82751161949E+01  0.51100000000E-03 0. -1.
        -11    1    3    3    0    0  0.88846296795E+01  0.12576122547E+02 -0.92397484799E+01  0.17957406692E+02  0.51100000000E-03 0.  1.
        -12    1    3    3    0    0  0.15391114109E+02  0.14868094107E+02  0.25808107449E+01  0.21554748897E+02  0.00000000000E+00 0.  1.
</event>
<event>
 7    1  0.7470072E-010  0.4778727E+02  0.7816164E-02  0.1312668E+00
        -11   -1    0    0    0    0  0.00000000000E+00  0.00000000000E+00  0.45593999997E+02  0.45594000000E+02  0.51100000000E-03 0. -1.
         11   -1    0    0    0    0 -0.00000000000E+00 -0.00000000000E+00 -0.45593999997E+02  0.45594000000E+02  0.51100000000E-03 0.  1.
    9900012    2    1    2    0    0  0.70016623166E+01 -0.40798132464E+00  0.42830289667E+02  0.47787269166E+02  0.19999991438E+02 0.  0.
        -12    1    1    2    0    0 -0.70016623166E+01  0.40798132464E+00 -0.42830289667E+02  0.43400730834E+02  0.00000000000E+00 0.  1.
         11    1    3    3    0    0 -0.34816830783E+01 -0.42096971335E+01  0.11465207570E+02  0.12700183144E+02  0.51100000000E-03 0. -1.
        -11    1    3    3    0    0  0.95223291236E+01  0.12647872886E+01  0.11264093816E+02  0.14803859246E+02  0.51100000000E-03 0.  1.
        -12    1    3    3    0    0  0.96101627134E+00  0.25369285203E+01  0.20100988281E+02  0.20283226776E+02  0.00000000000E+00 0.  1.
</event>
<event>
 7    1  0.7470072E-010  0.4778727E+02  0.7816164E-02  0.1312668E+00
        -11   -1    0    0    0    0  0.00000000000E+00  0.00000000000E+00  0.45593999997E+02  0.45594000000E+02  0.51100000000E-03 0. -1.
         11   -1    0    0    0    0 -0.00000000000E+00 -0.00000000000E+00 -0.45593999997E+02  0.45594000000E+02  0.51100000000E-03 0.  1.
    9900012    2    1    2    0    0  0.40725572749E+02 -0.11371398631E+02 -0.97848025474E+01  0.47787270243E+02  0.19999996345E+02 0.  0.
         12    1    1    2    0    0 -0.40725572749E+02  0.11371398631E+02  0.97848025474E+01  0.43400729757E+02  0.00000000000E+00 0. -1.
         11    1    3    3    0    0 -0.17167793352E+01 -0.81771479919E+00 -0.39268708903E+00  0.19416982746E+01  0.51100000000E-03 0. -1.
        -11    1    3    3    0    0  0.23336189895E+02 -0.68227462921E+01 -0.10190072740E+02  0.26362192786E+02  0.51100000000E-03 0.  1.
         12    1    3    3    0    0  0.19106162189E+02 -0.37309375399E+01  0.79795728213E+00  0.19483379182E+02  0.00000000000E+00 0. -1.
</event>
<event>
 7    1  0.7470072E-010  0.4778727E+02  0.7816164E-02  0.1312668E+00
        -11   -1    0    0    0    0  0.00000000000E+00  0.00000000000E+00  0.45593999997E+02  0.45594000000E+02  0.51100000000E-03 0. -1.
         11   -1    0    0    0    0 -0.00000000000E+00 -0.00000000000E+00 -0.45593999997E+02  0.45594000000E+02  0.51100000000E-03 0.  1.
    9900012    2    1    2    0    0  0.31908076059E+02  0.11646995890E+02 -0.27015648051E+02  0.47787273386E+02  0.20000010676E+02 0.  0.
         12    1    1    2    0    0 -0.31908076059E+02 -0.11646995890E+02  0.27015648051E+02  0.43400726614E+02  0.00000000000E+00 0. -1.
         11    1    3    3    0    0  0.30821959054E+01  0.86161381949E+01 -0.86496019945E+01  0.12591798280E+02  0.51100000000E-03 0. -1.
        -11    1    3    3    0    0  0.93545284621E+01  0.27740974420E+01 -0.10092057283E+02  0.14037536815E+02  0.51100000000E-03 0.  1.
         12    1    3    3    0    0  0.19471351691E+02  0.25676025299E+00 -0.82739887729E+01  0.21157938291E+02  0.00000000000E+00 0. -1.
</event>
<event>
 7    1  0.7470072E-010  0.4778727E+02  0.7816164E-02  0.1312668E+00
        -11   -1    0    0    0    0  0.00000000000E+00  0.00000000000E+00  0.45593999997E+02  0.45594000000E+02  0.51100000000E-03 0. -1.
         11   -1    0    0    0    0 -0.00000000000E+00 -0.00000000000E+00 -0.45593999997E+02  0.45594000000E+02  0.51100000000E-03 0.  1.
    9900012    2    1    2    0    0  0.25382195598E+02  0.13286541661E+02  0.32601151765E+02  0.47787272597E+02  0.20000007080E+02 0.  0.
        -12    1    1    2    0    0 -0.25382195598E+02 -0.13286541661E+02 -0.32601151765E+02  0.43400727403E+02  0.00000000000E+00 0.  1.
         11    1    3    3    0    0  0.96966607033E+01 -0.20656463709E+01  0.15207227623E+02  0.18153564277E+02  0.51100000000E-03 0. -1.
        -11    1    3    3    0    0  0.36919209287E+01  0.96861488024E+01  0.51190586370E+01  0.11560991322E+02  0.51100000000E-03 0.  1.
        -12    1    3    3    0    0  0.11993613966E+02  0.56660392290E+01  0.12274865505E+02  0.18072716998E+02  0.00000000000E+00 0.  1.
</event>
<event>
 7    1  0.7470072E-010  0.4778727E+02  0.7816164E-02  0.1312668E+00
        -11   -1    0    0    0    0  0.00000000000E+00  0.00000000000E+00  0.45593999997E+02  0.45594000000E+02  0.51100000000E-03 0. -1.
         11   -1    0    0    0    0 -0.00000000000E+00 -0.00000000000E+00 -0.45593999997E+02  0.45594000000E+02  0.51100000000E-03 0.  1.
    9900012    2    1    2    0    0  0.26797876900E+02  0.30735712632E+02  0.14859780584E+02  0.47787270555E+02  0.19999997767E+02 0.  0.
        -12    1    1    2    0    0 -0.26797876900E+02 -0.30735712632E+02 -0.14859780584E+02  0.43400729445E+02  0.00000000000E+00 0.  1.
         11    1    3    3    0    0  0.16938550937E+02  0.26450072878E+02  0.63097523192E+01  0.32036445460E+02  0.51100000000E-03 0. -1.
        -11    1    3    3    0    0  0.96297195257E+01  0.35384830020E+01  0.98574951771E+01  0.14227528651E+02  0.51100000000E-03 0.  1.
        -12    1    3    3    0    0  0.22960643811E+00  0.74715675213E+00 -0.13074669125E+01  0.15232964439E+01  0.00000000000E+00 0.  1.
</event>
<event>
 7    1  0.7470072E-010  0.4778727E+02  0.7816164E-02  0.1312668E+00
        -11   -1    0    0    0    0  0.00000000000E+00  0.00000000000E+00  0.45593999997E+02  0.45594000000E+02  0.51100000000E-03 0. -1.
         11   -1    0    0    0    0 -0.00000000000E+00 -0.00000000000E+00 -0.45593999997E+02  0.45594000000E+02  0.51100000000E-03 0.  1.
    9900012    2    1    2    0    0 -0.33110578373E+02 -0.27307857091E+02  0.64493050260E+01  0.47787274264E+02  0.20000014681E+02 0.  0.
        -12    1    1    2    0    0  0.33110578373E+02  0.27307857091E+02 -0.64493050260E+01  0.43400725736E+02  0.00000000000E+00 0.  1.
         11    1    3    3    0    0 -0.14653149518E+02 -0.21914343837E+02  0.32472457699E+01  0.26561209722E+02  0.51100000000E-03 0. -1.
        -11    1    3    3    0    0 -0.45962448604E+01 -0.85202502724E+00 -0.28047483396E+01  0.54514243068E+01  0.51100000000E-03 0.  1.
         12    1    3    3    0    0 -0.13861183995E+02 -0.45414882272E+01  0.60068075957E+01  0.15774640235E+02  0.00000000000E+00 0. -1.
</event>
<event>
 7    1  0.7470072E-010  0.4778727E+02  0.7816164E-02  0.1312668E+00
        -11   -1    0    0    0    0  0.00000000000E+00  0.00000000000E+00  0.45593999997E+02  0.45594000000E+02  0.51100000000E-03 0. -1.
         11   -1    0    0    0    0 -0.00000000000E+00 -0.00000000000E+00 -0.45593999997E+02  0.45594000000E+02  0.51100000000E-03 0.  1.
    9900012    2    1    2    0    0 -0.32089881756E+02 -0.10848422248E+02  0.27132536574E+02  0.47787270543E+02  0.19999997715E+02 0.  0.
        -12    1    1    2    0    0  0.32089881756E+02  0.10848422248E+02 -0.27132536574E+02  0.43400729457E+02  0.00000000000E+00 0.  1.
         11    1    3    3    0    0 -0.15928553815E+02 -0.19267164144E+01  0.21486943754E+02  0.26816409434E+02  0.51100000000E-03 0. -1.
        -11    1    3    3    0    0  0.64875132196E+00 -0.44105131678E+00 -0.75077306720E+00  0.10858475958E+01  0.51100000000E-03 0.  1.
         12    1    3    3    0    0 -0.16810079264E+02 -0.84806545167E+01  0.63963658879E+01  0.19885013514E+02  0.00000000000E+00 0. -1.
</event>
<event>
 7    1  0.7470072E-010  0.4778727E+02  0.7816164E-02  0.1312668E+00
        -11   -1    0    0    0    0  0.00000000000E+00  0.00000000000E+00  0.45593999997E+02  0.45594000000E+02  0.51100000000E-03 0. -1.
         11   -1    0    0    0    0 -0.00000000000E+00 -0.00000000000E+00 -0.45593999997E+02  0.45594000000E+02  0.51100000000E-03 0.  1.
    9900012    2    1    2    0    0 -0.19644144021E+02 -0.25476775473E+02  0.29131854680E+02  0.47787269131E+02  0.19999991277E+02 0.  0.
        -12    1    1    2    0    0  0.19644144021E+02  0.25476775473E+02 -0.29131854680E+02  0.43400730869E+02  0.00000000000E+00 0.  1.
         11    1    3    3    0    0 -0.12475354730E+02 -0.21010742957E+02  0.14501800961E+02  0.28414574194E+02  0.51100000000E-03 0. -1.
        -11    1    3    3    0    0 -0.53311672989E+01  0.10690905183E+01  0.11575730587E+02  0.12789129688E+02  0.51100000000E-03 0.  1.
        -12    1    3    3    0    0 -0.18376219917E+01 -0.55351230344E+01  0.30543231328E+01  0.65835652492E+01  0.00000000000E+00 0.  1.
</event>
<event>
 7    1  0.7470072E-010  0.4778727E+02  0.7816164E-02  0.1312668E+00
        -11   -1    0    0    0    0  0.00000000000E+00  0.00000000000E+00  0.45593999997E+02  0.45594000000E+02  0.51100000000E-03 0. -1.
         11   -1    0    0    0    0 -0.00000000000E+00 -0.00000000000E+00 -0.45593999997E+02  0.45594000000E+02  0.51100000000E-03 0.  1.
    9900012    2    1    2    0    0 -0.11337214915E+02 -0.19487123310E+02 -0.37085612525E+02  0.47787273355E+02  0.20000010535E+02 0.  0.
         12    1    1    2    0    0  0.11337214915E+02  0.19487123310E+02  0.37085612525E+02  0.43400726645E+02  0.00000000000E+00 0. -1.
         11    1    3    3    0    0 -0.78421877360E+01 -0.95593331816E+01 -0.59542310663E+01  0.13723469941E+02  0.51100000000E-03 0. -1.
        -11    1    3    3    0    0  0.12902422357E+01 -0.12761363546E+01 -0.50876061796E+00  0.18846980261E+01  0.51100000000E-03 0.  1.
        -12    1    3    3    0    0 -0.47852694150E+01 -0.86516537738E+01 -0.30622620841E+02  0.32179105388E+02  0.00000000000E+00 0.  1.
</event>
<event>
 7    1  0.7470072E-010  0.4778727E+02  0.7816164E-02  0.1312668E+00
        -11   -1    0    0    0    0  0.00000000000E+00  0.00000000000E+00  0.45593999997E+02  0.45594000000E+02  0.51100000000E-03 0. -1.
         11   -1    0    0    0    0 -0.00000000000E+00 -0.00000000000E+00 -0.45593999997E+02  0.45594000000E+02  0.51100000000E-03 0.  1.
    9900012    2    1    2    0    0 -0.35825773860E+02 -0.15874507443E+02 -0.18658436044E+02  0.47787270803E+02  0.19999998898E+02 0.  0.
         12    1    1    2    0    0  0.35825773860E+02  0.15874507443E+02  0.18658436044E+02  0.43400729197E+02  0.00000000000E+00 0. -1.
         11    1    3    3    0    0 -0.29842925362E+01 -0.71402847737E+01 -0.68119074637E+01  0.10309789142E+02  0.51100000000E-03 0.  1.
        -11    1    3    3    0    0 -0.10973668273E+02 -0.23118086874E+01  0.10953862603E+01  0.11267906908E+02  0.51100000000E-03 0. -1.
        -12    1    3    3    0    0 -0.21867813051E+02 -0.64224139820E+01 -0.12941914840E+02  0.26209574753E+02  0.00000000000E+00 0.  1.
</event>
<event>
 7    1  0.7470072E-010  0.4778727E+02  0.7816164E-02  0.1312668E+00
        -11   -1    0    0    0    0  0.00000000000E+00  0.00000000000E+00  0.45593999997E+02  0.45594000000E+02  0.51100000000E-03 0. -1.
         11   -1    0    0    0    0 -0.00000000000E+00 -0.00000000000E+00 -0.45593999997E+02  0.45594000000E+02  0.51100000000E-03 0.  1.
    9900012    2    1    2    0    0  0.16763733927E+02 -0.21698120647E+02 -0.33642117791E+02  0.47787270694E+02  0.19999998404E+02 0.  0.
         12    1    1    2    0    0 -0.16763733927E+02  0.21698120647E+02  0.33642117791E+02  0.43400729306E+02  0.00000000000E+00 0. -1.
         11    1    3    3    0    0 -0.22015285486E+01 -0.78021376744E+01 -0.13156451229E+02  0.15453552648E+02  0.51100000000E-03 0. -1.
        -11    1    3    3    0    0  0.17768718021E+02 -0.13785152610E+02 -0.15769779504E+02  0.27467138884E+02  0.51100000000E-03 0.  1.
        -12    1    3    3    0    0  0.11965444547E+01 -0.11083036203E+00 -0.47158870576E+01  0.48665791621E+01  0.00000000000E+00 0.  1.
</event>
<event>
 7    1  0.7470072E-010  0.4778727E+02  0.7816164E-02  0.1312668E+00
        -11   -1    0    0    0    0  0.00000000000E+00  0.00000000000E+00  0.45593999997E+02  0.45594000000E+02  0.51100000000E-03 0. -1.
         11   -1    0    0    0    0 -0.00000000000E+00 -0.00000000000E+00 -0.45593999997E+02  0.45594000000E+02  0.51100000000E-03 0.  1.
    9900012    2    1    2    0    0 -0.33784200537E+02 -0.19969305113E+01 -0.27171001296E+02  0.47787271333E+02  0.20000001318E+02 0.  0.
         12    1    1    2    0    0  0.33784200537E+02  0.19969305113E+01  0.27171001296E+02  0.43400728667E+02  0.00000000000E+00 0. -1.
         11    1    3    3    0    0 -0.21916496462E+02 -0.40568566975E+01 -0.22439513531E+02  0.31627878070E+02  0.51100000000E-03 0.  1.
        -11    1    3    3    0    0 -0.83364675105E+01  0.58129984856E+01 -0.41340999736E+01  0.10971710204E+02  0.51100000000E-03 0. -1.
         12    1    3    3    0    0 -0.35312365640E+01 -0.37530722995E+01 -0.59738779159E+00  0.51876830598E+01  0.00000000000E+00 0. -1.
</event>
<event>
 7    1  0.7470072E-010  0.4778727E+02  0.7816164E-02  0.1312668E+00
        -11   -1    0    0    0    0  0.00000000000E+00  0.00000000000E+00  0.45593999997E+02  0.45594000000E+02  0.51100000000E-03 0. -1.
         11   -1    0    0    0    0 -0.00000000000E+00 -0.00000000000E+00 -0.45593999997E+02  0.45594000000E+02  0.51100000000E-03 0.  1.
    9900012    2    1    2    0    0  0.20656553461E+02  0.24476259964E+02 -0.29288956121E+02  0.47787268976E+02  0.19999990570E+02 0.  0.
         12    1    1    2    0    0 -0.20656553461E+02 -0.24476259964E+02  0.29288956121E+02  0.43400731024E+02  0.00000000000E+00 0. -1.
         11    1    3    3    0    0 -0.17856186061E+00  0.69587503636E+00  0.23311519433E+01  0.24393433642E+01  0.51100000000E-03 0. -1.
        -11    1    3    3    0    0  0.11410191232E+02  0.18009058898E+02 -0.18829146688E+02  0.28443899725E+02  0.51100000000E-03 0.  1.
         12    1    3    3    0    0  0.94249240890E+01  0.57713260302E+01 -0.12790961377E+02  0.16904025887E+02  0.00000000000E+00 0. -1.
</event>
<event>
 7    1  0.7470072E-010  0.4778727E+02  0.7816164E-02  0.1312668E+00
        -11   -1    0    0    0    0  0.00000000000E+00  0.00000000000E+00  0.45593999997E+02  0.45594000000E+02  0.51100000000E-03 0. -1.
         11   -1    0    0    0    0 -0.00000000000E+00 -0.00000000000E+00 -0.45593999997E+02  0.45594000000E+02  0.51100000000E-03 0.  1.
    9900012    2    1    2    0    0  0.28037247280E+01 -0.63924646144E+01  0.42835715338E+02  0.47787274376E+02  0.20000015191E+02 0.  0.
        -12    1    1    2    0    0 -0.28037247280E+01  0.63924646144E+01 -0.42835715338E+02  0.43400725624E+02  0.00000000000E+00 0.  1.
         11    1    3    3    0    0  0.78285831330E+01 -0.71401253623E+00  0.31495338576E+02  0.32461560038E+02  0.51100000000E-03 0. -1.
        -11    1    3    3    0    0  0.96183568858E+00  0.68946576244E+00  0.30807463767E+01  0.33002256632E+01  0.51100000000E-03 0.  1.
         12    1    3    3    0    0 -0.59866940936E+01 -0.63679178406E+01  0.82596303844E+01  0.12025488675E+02  0.00000000000E+00 0. -1.
</event>
<event>
 7    1  0.7470072E-010  0.4778727E+02  0.7816164E-02  0.1312668E+00
        -11   -1    0    0    0    0  0.00000000000E+00  0.00000000000E+00  0.45593999997E+02  0.45594000000E+02  0.51100000000E-03 0. -1.
         11   -1    0    0    0    0 -0.00000000000E+00 -0.00000000000E+00 -0.45593999997E+02  0.45594000000E+02  0.51100000000E-03 0.  1.
    9900012    2    1    2    0    0  0.16170220771E+02  0.17792349133E+02 -0.36132806988E+02  0.47787268805E+02  0.19999989787E+02 0.  0.
         12    1    1    2    0    0 -0.16170220771E+02 -0.17792349133E+02  0.36132806988E+02  0.43400731195E+02  0.00000000000E+00 0. -1.
         11    1    3    3    0    0  0.29970600420E+00 -0.32495704620E+01 -0.47591233209E+01  0.57705101093E+01  0.51100000000E-03 0. -1.
        -11    1    3    3    0    0  0.31903456658E+01  0.60380466433E+00 -0.72861323722E+01  0.79768797625E+01  0.51100000000E-03 0.  1.
         12    1    3    3    0    0  0.12680169101E+02  0.20438114931E+02 -0.24087551295E+02  0.34039878933E+02  0.00000000000E+00 0. -1.
</event>
<event>
 7    1  0.7470072E-010  0.4778728E+02  0.7816164E-02  0.1312668E+00
        -11   -1    0    0    0    0  0.00000000000E+00  0.00000000000E+00  0.45593999997E+02  0.45594000000E+02  0.51100000000E-03 0. -1.
         11   -1    0    0    0    0 -0.00000000000E+00 -0.00000000000E+00 -0.45593999997E+02  0.45594000000E+02  0.51100000000E-03 0.  1.
    9900012    2    1    2    0    0 -0.30526911858E+02 -0.18745197627E+02 -0.24502000657E+02  0.47787276298E+02  0.20000023955E+02 0.  0.
         12    1    1    2    0    0  0.30526911858E+02  0.18745197627E+02  0.24502000657E+02  0.43400723702E+02  0.00000000000E+00 0. -1.
         11    1    3    3    0    0  0.22786818148E+01  0.90374658881E+00 -0.83326395296E+00  0.25891075269E+01  0.51100000000E-03 0. -1.
        -11    1    3    3    0    0 -0.29543048702E+02 -0.19123007929E+02 -0.21901311270E+02  0.41450556022E+02  0.51100000000E-03 0.  1.
        -12    1    3    3    0    0 -0.32625449702E+01 -0.52593628698E+00 -0.17674254331E+01  0.37476127498E+01  0.00000000000E+00 0.  1.
</event>
<event>
 7    1  0.7470072E-010  0.4778727E+02  0.7816164E-02  0.1312668E+00
        -11   -1    0    0    0    0  0.00000000000E+00  0.00000000000E+00  0.45593999997E+02  0.45594000000E+02  0.51100000000E-03 0. -1.
         11   -1    0    0    0    0 -0.00000000000E+00 -0.00000000000E+00 -0.45593999997E+02  0.45594000000E+02  0.51100000000E-03 0.  1.
    9900012    2    1    2    0    0 -0.41997843002E+02 -0.42003516952E+00 -0.10937449315E+02  0.47787273694E+02  0.20000012080E+02 0.  0.
         12    1    1    2    0    0  0.41997843002E+02  0.42003516952E+00  0.10937449315E+02  0.43400726306E+02  0.00000000000E+00 0. -1.
         11    1    3    3    0    0 -0.11810964644E+01  0.26547905813E+01  0.21007166293E+01  0.35855142597E+01  0.51100000000E-03 0. -1.
        -11    1    3    3    0    0 -0.38804648928E+02 -0.34107230535E+01 -0.94655801350E+01  0.40087791380E+02  0.51100000000E-03 0.  1.
        -12    1    3    3    0    0 -0.20120976096E+01  0.33589730262E+00 -0.35725858088E+01  0.41139680541E+01  0.00000000000E+00 0.  1.
</event>
<event>
 7    1  0.7470072E-010  0.4778727E+02  0.7816164E-02  0.1312668E+00
        -11   -1    0    0    0    0  0.00000000000E+00  0.00000000000E+00  0.45593999997E+02  0.45594000000E+02  0.51100000000E-03 0. -1.
         11   -1    0    0    0    0 -0.00000000000E+00 -0.00000000000E+00 -0.45593999997E+02  0.45594000000E+02  0.51100000000E-03 0.  1.
    9900012    2    1    2    0    0  0.34402020019E+02 -0.11091287657E+02 -0.24023064412E+02  0.47787271123E+02  0.20000000360E+02 0.  0.
         12    1    1    2    0    0 -0.34402020019E+02  0.11091287657E+02  0.24023064412E+02  0.43400728877E+02  0.00000000000E+00 0. -1.
         11    1    3    3    0    0  0.12627350032E+02 -0.12413843592E+02 -0.58307002267E+01  0.18642707608E+02  0.51100000000E-03 0. -1.
        -11    1    3    3    0    0  0.10013645258E+02  0.33545406089E+01 -0.63058900756E+01  0.12300011543E+02  0.51100000000E-03 0.  1.
        -12    1    3    3    0    0  0.11761024729E+02 -0.20319846741E+01 -0.11886474109E+02  0.16844551972E+02  0.00000000000E+00 0.  1.
</event>
<event>
 7    1  0.7470072E-010  0.4778727E+02  0.7816164E-02  0.1312668E+00
        -11   -1    0    0    0    0  0.00000000000E+00  0.00000000000E+00  0.45593999997E+02  0.45594000000E+02  0.51100000000E-03 0. -1.
         11   -1    0    0    0    0 -0.00000000000E+00 -0.00000000000E+00 -0.45593999997E+02  0.45594000000E+02  0.51100000000E-03 0.  1.
    9900012    2    1    2    0    0 -0.15851164736E+01  0.42415392255E+02  0.90578886682E+01  0.47787269113E+02  0.19999991195E+02 0.  0.
        -12    1    1    2    0    0  0.15851164736E+01 -0.42415392255E+02 -0.90578886682E+01  0.43400730887E+02  0.00000000000E+00 0.  1.
         11    1    3    3    0    0 -0.34658647669E+01  0.12242182609E+02 -0.30665033274E+01  0.13087654356E+02  0.51100000000E-03 0.  1.
        -11    1    3    3    0    0  0.18887764490E+01  0.31238406077E+02  0.12288905584E+02  0.33621759196E+02  0.51100000000E-03 0. -1.
        -12    1    3    3    0    0 -0.80281557157E-02 -0.10651964318E+01 -0.16451358883E+00  0.10778555611E+01  0.00000000000E+00 0.  1.
</event>
<event>
 7    1 -0.7470072E-010  0.4778727E+02  0.7816164E-02  0.1312668E+00
        -11   -1    0    0    0    0  0.00000000000E+00  0.00000000000E+00  0.45593999997E+02  0.45594000000E+02  0.51100000000E-03 0. -1.
         11   -1    0    0    0    0 -0.00000000000E+00 -0.00000000000E+00 -0.45593999997E+02  0.45594000000E+02  0.51100000000E-03 0.  1.
    9900012    2    1    2    0    0  0.40016784288E+02  0.13144559240E+02  0.10464272557E+02  0.47787268871E+02  0.19999990090E+02 0.  0.
        -12    1    1    2    0    0 -0.40016784288E+02 -0.13144559240E+02 -0.10464272557E+02  0.43400731129E+02  0.00000000000E+00 0.  1.
         11    1    3    3    0    0  0.23410082271E+02  0.12960641509E+02  0.12916438652E+01  0.26789522661E+02  0.51100000000E-03 0. -1.
        -11    1    3    3    0    0  0.31965561186E+01 -0.11902057267E+01 -0.15753045912E+01  0.37571459258E+01  0.51100000000E-03 0.  1.
         12    1    3    3    0    0  0.13410145898E+02  0.13741234582E+01  0.10747933284E+02  0.17240600284E+02  0.00000000000E+00 0. -1.
</event>
<event>
 7    1  0.7470072E-010  0.4778727E+02  0.7816164E-02  0.1312668E+00
        -11   -1    0    0    0    0  0.00000000000E+00  0.00000000000E+00  0.45593999997E+02  0.45594000000E+02  0.51100000000E-03 0. -1.
         11   -1    0    0    0    0 -0.00000000000E+00 -0.00000000000E+00 -0.45593999997E+02  0.45594000000E+02  0.51100000000E-03 0.  1.
    9900012    2    1    2    0    0  0.12160725366E+02  0.15591178599E+02  0.38634895878E+02  0.47787271077E+02  0.20000000147E+02 0.  0.
        -12    1    1    2    0    0 -0.12160725366E+02 -0.15591178599E+02 -0.38634895878E+02  0.43400728923E+02  0.00000000000E+00 0.  1.
         11    1    3    3    0    0  0.38021676592E+01  0.99547743967E+01  0.17301496188E+02  0.20319837174E+02  0.51100000000E-03 0. -1.
        -11    1    3    3    0    0 -0.37427184699E+01  0.81602750750E+00  0.25220224220E+01  0.45863318453E+01  0.51100000000E-03 0.  1.
        -12    1    3    3    0    0  0.12101276177E+02  0.48203766951E+01  0.18811377269E+02  0.22881102057E+02  0.00000000000E+00 0.  1.
</event>
<event>
 7    1  0.7470072E-010  0.4778727E+02  0.7816164E-02  0.1312668E+00
        -11   -1    0    0    0    0  0.00000000000E+00  0.00000000000E+00  0.45593999997E+02  0.45594000000E+02  0.51100000000E-03 0. -1.
         11   -1    0    0    0    0 -0.00000000000E+00 -0.00000000000E+00 -0.45593999997E+02  0.45594000000E+02  0.51100000000E-03 0.  1.
    9900012    2    1    2    0    0  0.33599398733E+02 -0.24097332670E+02  0.13191746558E+02  0.47787271731E+02  0.20000003131E+02 0.  0.
        -12    1    1    2    0    0 -0.33599398733E+02  0.24097332670E+02 -0.13191746558E+02  0.43400728269E+02  0.00000000000E+00 0.  1.
         11    1    3    3    0    0  0.29885449768E+02 -0.17352770797E+02  0.14437074690E+02  0.37452475059E+02  0.51100000000E-03 0. -1.
        -11    1    3    3    0    0  0.37624600958E+01 -0.15931991486E+01 -0.28005949337E+01  0.49535564743E+01  0.51100000000E-03 0.  1.
         12    1    3    3    0    0 -0.48511130759E-01 -0.51513627242E+01  0.15552668013E+01  0.53812401981E+01  0.00000000000E+00 0. -1.
</event>
<event>
 7    1  0.7470072E-010  0.4778727E+02  0.7816164E-02  0.1312668E+00
        -11   -1    0    0    0    0  0.00000000000E+00  0.00000000000E+00  0.45593999997E+02  0.45594000000E+02  0.51100000000E-03 0. -1.
         11   -1    0    0    0    0 -0.00000000000E+00 -0.00000000000E+00 -0.45593999997E+02  0.45594000000E+02  0.51100000000E-03 0.  1.
    9900012    2    1    2    0    0 -0.22997273707E+02 -0.19480229982E+02 -0.31229302140E+02  0.47787271086E+02  0.20000000190E+02 0.  0.
         12    1    1    2    0    0  0.22997273707E+02  0.19480229982E+02  0.31229302140E+02  0.43400728914E+02  0.00000000000E+00 0. -1.
         11    1    3    3    0    0 -0.37031976709E+01 -0.12493353340E+02 -0.55337942108E+01  0.14156992240E+02  0.51100000000E-03 0. -1.
        -11    1    3    3    0    0 -0.16971300556E+02 -0.83832489382E+01 -0.21614842299E+02  0.28731608260E+02  0.51100000000E-03 0.  1.
        -12    1    3    3    0    0 -0.23227754799E+01  0.13963722963E+01 -0.40806656304E+01  0.48986705857E+01  0.00000000000E+00 0.  1.
</event>
<event>
 7    1  0.7470072E-010  0.4778727E+02  0.7816164E-02  0.1312668E+00
        -11   -1    0    0    0    0  0.00000000000E+00  0.00000000000E+00  0.45593999997E+02  0.45594000000E+02  0.51100000000E-03 0. -1.
         11   -1    0    0    0    0 -0.00000000000E+00 -0.00000000000E+00 -0.45593999997E+02  0.45594000000E+02  0.51100000000E-03 0.  1.
    9900012    2    1    2    0    0  0.16982333277E+02 -0.11203825559E+02 -0.38336639015E+02  0.47787271416E+02  0.20000001693E+02 0.  0.
         12    1    1    2    0    0 -0.16982333277E+02  0.11203825559E+02  0.38336639015E+02  0.43400728584E+02  0.00000000000E+00 0. -1.
         11    1    3    3    0    0 -0.12583556307E+01 -0.33846427596E+00 -0.14115531838E+02  0.14175551357E+02  0.51100000000E-03 0. -1.
        -11    1    3    3    0    0  0.11397747235E+02 -0.10739293291E+02 -0.20575726566E+02  0.25857331386E+02  0.51100000000E-03 0.  1.
         12    1    3    3    0    0  0.68429416736E+01 -0.12606799200E+00 -0.36453806105E+01  0.77543886724E+01  0.00000000000E+00 0. -1.
</event>
<event>
 7    1  0.7470072E-010  0.4778727E+02  0.7816164E-02  0.1312668E+00
        -11   -1    0    0    0    0  0.00000000000E+00  0.00000000000E+00  0.45593999997E+02  0.45594000000E+02  0.51100000000E-03 0. -1.
         11   -1    0    0    0    0 -0.00000000000E+00 -0.00000000000E+00 -0.45593999997E+02  0.45594000000E+02  0.51100000000E-03 0.  1.
    9900012    2    1    2    0    0 -0.23991938443E+02  0.18657964284E+02  0.30982102748E+02  0.47787269220E+02  0.19999991683E+02 0.  0.
        -12    1    1    2    0    0  0.23991938443E+02 -0.18657964284E+02 -0.30982102748E+02  0.43400730780E+02  0.00000000000E+00 0.  1.
         11    1    3    3    0    0 -0.19133102636E+02  0.20626889664E+02  0.31413495614E+02  0.42170509845E+02  0.51100000000E-03 0. -1.
        -11    1    3    3    0    0 -0.18901202756E+01 -0.18164913041E+01 -0.33248589397E+00  0.26424879272E+01  0.51100000000E-03 0.  1.
         12    1    3    3    0    0 -0.29687155318E+01 -0.15243407574E+00 -0.98906971278E-01  0.29742714477E+01  0.00000000000E+00 0. -1.
</event>
<event>
 7    1  0.7470072E-010  0.4778727E+02  0.7816164E-02  0.1312668E+00
        -11   -1    0    0    0    0  0.00000000000E+00  0.00000000000E+00  0.45593999997E+02  0.45594000000E+02  0.51100000000E-03 0. -1.
         11   -1    0    0    0    0 -0.00000000000E+00 -0.00000000000E+00 -0.45593999997E+02  0.45594000000E+02  0.51100000000E-03 0.  1.
    9900012    2    1    2    0    0  0.55435667519E+01 -0.19247879411E+02 -0.38502091955E+02  0.47787273289E+02  0.20000010232E+02 0.  0.
         12    1    1    2    0    0 -0.55435667519E+01  0.19247879411E+02  0.38502091955E+02  0.43400726711E+02  0.00000000000E+00 0. -1.
         11    1    3    3    0    0  0.13992206128E+01 -0.92751782496E+01 -0.31001927709E+02  0.32389910031E+02  0.51100000000E-03 0.  1.
        -11    1    3    3    0    0  0.62245786173E+01 -0.56816124569E+01 -0.33275226262E+01  0.90608225986E+01  0.51100000000E-03 0. -1.
         12    1    3    3    0    0 -0.20802324782E+01 -0.42910887045E+01 -0.41726416202E+01  0.63365406590E+01  0.00000000000E+00 0. -1.
</event>
<event>
 7    1  0.7470072E-010  0.4778727E+02  0.7816164E-02  0.1312668E+00
        -11   -1    0    0    0    0  0.00000000000E+00  0.00000000000E+00  0.45593999997E+02  0.45594000000E+02  0.51100000000E-03 0. -1.
         11   -1    0    0    0    0 -0.00000000000E+00 -0.00000000000E+00 -0.45593999997E+02  0.45594000000E+02  0.51100000000E-03 0.  1.
    9900012    2    1    2    0    0  0.24412448823E+02 -0.31631140558E+02  0.16944803612E+02  0.47787273278E+02  0.20000010184E+02 0.  0.
        -12    1    1    2    0    0 -0.24412448823E+02  0.31631140558E+02 -0.16944803612E+02  0.43400726722E+02  0.00000000000E+00 0.  1.
         11    1    3    3    0    0  0.82485164403E+01 -0.77947133594E+01  0.65866586573E+00  0.11367911893E+02  0.51100000000E-03 0. -1.
        -11    1    3    3    0    0  0.14352600339E+01 -0.11413167362E+02  0.50654417683E+00  0.11514206349E+02  0.51100000000E-03 0.  1.
        -12    1    3    3    0    0  0.14728672348E+02 -0.12423259837E+02  0.15779593570E+02  0.24905155036E+02  0.00000000000E+00 0.  1.
</event>
<event>
 7    1  0.7470072E-010  0.4778727E+02  0.7816164E-02  0.1312668E+00
        -11   -1    0    0    0    0  0.00000000000E+00  0.00000000000E+00  0.45593999997E+02  0.45594000000E+02  0.51100000000E-03 0. -1.
         11   -1    0    0    0    0 -0.00000000000E+00 -0.00000000000E+00 -0.45593999997E+02  0.45594000000E+02  0.51100000000E-03 0.  1.
    9900012    2    1    2    0    0  0.94429719842E+01 -0.41706081868E+02 -0.74200044931E+01  0.47787269000E+02  0.19999990676E+02 0.  0.
         12    1    1    2    0    0 -0.94429719842E+01  0.41706081868E+02  0.74200044931E+01  0.43400731000E+02  0.00000000000E+00 0. -1.
         11    1    3    3    0    0 -0.25996972371E+01 -0.11110978538E+02  0.27421468250E+01  0.11735912375E+02  0.51100000000E-03 0. -1.
        -11    1    3    3    0    0  0.13348728524E+02 -0.28201642603E+02 -0.71920204343E+01  0.32019468404E+02  0.51100000000E-03 0.  1.
        -12    1    3    3    0    0 -0.13060593028E+01 -0.23934607276E+01 -0.29701308837E+01  0.40318882206E+01  0.00000000000E+00 0.  1.
</event>
<event>
 7    1  0.7470072E-010  0.4778726E+02  0.7816164E-02  0.1312668E+00
        -11   -1    0    0    0    0  0.00000000000E+00  0.00000000000E+00  0.45593999997E+02  0.45594000000E+02  0.51100000000E-03 0. -1.
         11   -1    0    0    0    0 -0.00000000000E+00 -0.00000000000E+00 -0.45593999997E+02  0.45594000000E+02  0.51100000000E-03 0.  1.
    9900012    2    1    2    0    0  0.26929990355E+02  0.12313738995E+02 -0.31729659549E+02  0.47787264480E+02  0.19999970072E+02 0.  0.
         12    1    1    2    0    0 -0.26929990355E+02 -0.12313738995E+02  0.31729659549E+02  0.43400735520E+02  0.00000000000E+00 0. -1.
         11    1    3    3    0    0  0.11636441268E+02  0.64498079138E+00 -0.14593952693E+01  0.11745322491E+02  0.51100000000E-03 0. -1.
        -11    1    3    3    0    0  0.13083678297E+02  0.10673713512E+02 -0.28129829873E+02  0.32808506928E+02  0.51100000000E-03 0.  1.
        -12    1    3    3    0    0  0.22098707911E+01  0.99504469122E+00 -0.21404344067E+01  0.32334350620E+01  0.00000000000E+00 0.  1.
</event>
<event>
 7    1  0.7470072E-010  0.4778724E+02  0.7816164E-02  0.1312668E+00
        -11   -1    0    0    0    0  0.00000000000E+00  0.00000000000E+00  0.45593999997E+02  0.45594000000E+02  0.51100000000E-03 0.  1.
         11   -1    0    0    0    0 -0.00000000000E+00 -0.00000000000E+00 -0.45593999997E+02  0.45594000000E+02  0.51100000000E-03 0. -1.
    9900012    2    1    2    0    0 -0.25871383675E+02  0.13832574417E+02 -0.31983705928E+02  0.47787239026E+02  0.19999854013E+02 0.  0.
         12    1    1    2    0    0  0.25871383675E+02 -0.13832574417E+02  0.31983705928E+02  0.43400760974E+02  0.00000000000E+00 0. -1.
         11    1    3    3    0    0 -0.13536268478E+02 -0.37011703451E+00 -0.15643581983E+02  0.20690316780E+02  0.51100000000E-03 0. -1.
        -11    1    3    3    0    0 -0.11337212061E+02  0.14663788240E+02 -0.10807250309E+02  0.21455901807E+02  0.51100000000E-03 0.  1.
        -12    1    3    3    0    0 -0.99790313604E+00 -0.46109678842E+00 -0.55328736355E+01  0.56410204382E+01  0.00000000000E+00 0.  1.
</event>
<event>
 7    1  0.7470072E-010  0.4778727E+02  0.7816164E-02  0.1312668E+00
        -11   -1    0    0    0    0  0.00000000000E+00  0.00000000000E+00  0.45593999997E+02  0.45594000000E+02  0.51100000000E-03 0. -1.
         11   -1    0    0    0    0 -0.00000000000E+00 -0.00000000000E+00 -0.45593999997E+02  0.45594000000E+02  0.51100000000E-03 0.  1.
    9900012    2    1    2    0    0  0.41641565664E+02 -0.11909063483E+02 -0.27888112001E+01  0.47787271298E+02  0.20000001154E+02 0.  0.
         12    1    1    2    0    0 -0.41641565664E+02  0.11909063483E+02  0.27888112001E+01  0.43400728702E+02  0.00000000000E+00 0. -1.
         11    1    3    3    0    0  0.11347058354E+02 -0.10334817590E+02 -0.57425540610E+01  0.16387224149E+02  0.51100000000E-03 0. -1.
        -11    1    3    3    0    0  0.60770888907E+01 -0.33030794755E+01  0.14999394021E+01  0.70775109945E+01  0.51100000000E-03 0.  1.
         12    1    3    3    0    0  0.24217418419E+02  0.17288335826E+01  0.14538034588E+01  0.24322536154E+02  0.00000000000E+00 0. -1.
</event>
<event>
 7    1  0.7470072E-010  0.4778727E+02  0.7816164E-02  0.1312668E+00
        -11   -1    0    0    0    0  0.00000000000E+00  0.00000000000E+00  0.45593999997E+02  0.45594000000E+02  0.51100000000E-03 0. -1.
         11   -1    0    0    0    0 -0.00000000000E+00 -0.00000000000E+00 -0.45593999997E+02  0.45594000000E+02  0.51100000000E-03 0.  1.
    9900012    2    1    2    0    0  0.22733444231E+02 -0.16851954267E+02  0.32906315924E+02  0.47787268705E+02  0.19999989334E+02 0.  0.
        -12    1    1    2    0    0 -0.22733444231E+02  0.16851954267E+02 -0.32906315924E+02  0.43400731295E+02  0.00000000000E+00 0.  1.
         11    1    3    3    0    0  0.67589862495E+01 -0.87944453479E+01  0.11573155108E+02  0.16030099299E+02  0.51100000000E-03 0. -1.
        -11    1    3    3    0    0  0.43396032134E+01 -0.43460830714E+01 -0.10769927071E+01  0.62354236156E+01  0.51100000000E-03 0.  1.
        -12    1    3    3    0    0  0.11634854769E+02 -0.37114258475E+01  0.22410153523E+02  0.25521745791E+02  0.00000000000E+00 0.  1.
</event>
<event>
 7    1  0.7470072E-010  0.4778727E+02  0.7816164E-02  0.1312668E+00
        -11   -1    0    0    0    0  0.00000000000E+00  0.00000000000E+00  0.45593999997E+02  0.45594000000E+02  0.51100000000E-03 0. -1.
         11   -1    0    0    0    0 -0.00000000000E+00 -0.00000000000E+00 -0.45593999997E+02  0.45594000000E+02  0.51100000000E-03 0.  1.
    9900012    2    1    2    0    0 -0.25769452449E+02  0.18646400357E+02  0.29527450658E+02  0.47787271110E+02  0.20000000299E+02 0.  0.
        -12    1    1    2    0    0  0.25769452449E+02 -0.18646400357E+02 -0.29527450658E+02  0.43400728890E+02  0.00000000000E+00 0.  1.
         11    1    3    3    0    0 -0.13902390922E+02  0.17551239011E+02  0.17231703746E+02  0.28253390565E+02  0.51100000000E-03 0. -1.
        -11    1    3    3    0    0 -0.18758156672E+01  0.22972269396E+00  0.86642609436E+01  0.88679690399E+01  0.51100000000E-03 0.  1.
         12    1    3    3    0    0 -0.99912458598E+01  0.86543865164E+00  0.36314859691E+01  0.10665911505E+02  0.00000000000E+00 0. -1.
</event>
<event>
 7    1  0.7470072E-010  0.4778727E+02  0.7816164E-02  0.1312668E+00
        -11   -1    0    0    0    0  0.00000000000E+00  0.00000000000E+00  0.45593999997E+02  0.45594000000E+02  0.51100000000E-03 0. -1.
         11   -1    0    0    0    0 -0.00000000000E+00 -0.00000000000E+00 -0.45593999997E+02  0.45594000000E+02  0.51100000000E-03 0.  1.
    9900012    2    1    2    0    0 -0.89589682389E+01 -0.12636793235E+02  0.40542219284E+02  0.47787271899E+02  0.20000003897E+02 0.  0.
        -12    1    1    2    0    0  0.89589682389E+01  0.12636793235E+02 -0.40542219284E+02  0.43400728101E+02  0.00000000000E+00 0.  1.
         11    1    3    3    0    0 -0.58771802450E+01 -0.15173426254E+02  0.22671494179E+02  0.27906464492E+02  0.51100000000E-03 0. -1.
        -11    1    3    3    0    0 -0.13919937841E+01 -0.16128337480E+01  0.87277971448E+00  0.23023084252E+01  0.51100000000E-03 0.  1.
         12    1    3    3    0    0 -0.16897942098E+01  0.41494667665E+01  0.16997945391E+02  0.17578498981E+02  0.00000000000E+00 0. -1.
</event>
<event>
 7    1  0.7470072E-010  0.4778727E+02  0.7816164E-02  0.1312668E+00
        -11   -1    0    0    0    0  0.00000000000E+00  0.00000000000E+00  0.45593999997E+02  0.45594000000E+02  0.51100000000E-03 0. -1.
         11   -1    0    0    0    0 -0.00000000000E+00 -0.00000000000E+00 -0.45593999997E+02  0.45594000000E+02  0.51100000000E-03 0.  1.
    9900012    2    1    2    0    0 -0.30282342726E+02  0.48283460147E+01  0.30713025825E+02  0.47787272339E+02  0.20000005900E+02 0.  0.
        -12    1    1    2    0    0  0.30282342726E+02 -0.48283460147E+01 -0.30713025825E+02  0.43400727661E+02  0.00000000000E+00 0.  1.
         11    1    3    3    0    0  0.25022910701E-01 -0.87902149906E+00  0.51092735464E+01  0.51843978797E+01  0.51100000000E-03 0. -1.
        -11    1    3    3    0    0 -0.21566022675E+02 -0.44311112437E+00  0.10216486683E+02  0.23867682793E+02  0.51100000000E-03 0.  1.
        -12    1    3    3    0    0 -0.87413429615E+01  0.61504786382E+01  0.15387265595E+02  0.18735191666E+02  0.00000000000E+00 0.  1.
</event>
<event>
 7    1  0.7470072E-010  0.4778727E+02  0.7816164E-02  0.1312668E+00
        -11   -1    0    0    0    0  0.00000000000E+00  0.00000000000E+00  0.45593999997E+02  0.45594000000E+02  0.51100000000E-03 0.  1.
         11   -1    0    0    0    0 -0.00000000000E+00 -0.00000000000E+00 -0.45593999997E+02  0.45594000000E+02  0.51100000000E-03 0. -1.
    9900012    2    1    2    0    0 -0.48797537371E+01 -0.42821124719E+02 -0.51149320921E+01  0.47787271330E+02  0.20000001303E+02 0.  0.
        -12    1    1    2    0    0  0.48797537371E+01  0.42821124719E+02  0.51149320921E+01  0.43400728670E+02  0.00000000000E+00 0.  1.
         11    1    3    3    0    0 -0.11681800157E+00 -0.68960127822E+01  0.48508964585E+01  0.84320718362E+01  0.51100000000E-03 0. -1.
        -11    1    3    3    0    0 -0.23377866624E+01 -0.17937103093E+02 -0.11007209881E+02  0.21174597599E+02  0.51100000000E-03 0.  1.
        -12    1    3    3    0    0 -0.24251490731E+01 -0.17988008844E+02  0.10413813301E+01  0.18180601895E+02  0.00000000000E+00 0.  1.
</event>
<event>
 7    1  0.7470072E-010  0.4778727E+02  0.7816164E-02  0.1312668E+00
        -11   -1    0    0    0    0  0.00000000000E+00  0.00000000000E+00  0.45593999997E+02  0.45594000000E+02  0.51100000000E-03 0. -1.
         11   -1    0    0    0    0 -0.00000000000E+00 -0.00000000000E+00 -0.45593999997E+02  0.45594000000E+02  0.51100000000E-03 0.  1.
    9900012    2    1    2    0    0 -0.15446660089E+02 -0.23294947436E+02 -0.33201954117E+02  0.47787266813E+02  0.19999980709E+02 0.  0.
         12    1    1    2    0    0  0.15446660089E+02  0.23294947436E+02  0.33201954117E+02  0.43400733187E+02  0.00000000000E+00 0. -1.
         11    1    3    3    0    0 -0.73446964979E+01 -0.18597932204E+01 -0.85139414894E+01  0.11396955620E+02  0.51100000000E-03 0. -1.
        -11    1    3    3    0    0  0.36554263410E+01 -0.83315367472E+01 -0.75820437452E+01  0.11843311780E+02  0.51100000000E-03 0.  1.
        -12    1    3    3    0    0 -0.11757389932E+02 -0.13103617468E+02 -0.17105968882E+02  0.24546999413E+02  0.00000000000E+00 0.  1.
</event>
<event>
 7    1  0.7470072E-010  0.4778727E+02  0.7816164E-02  0.1312668E+00
        -11   -1    0    0    0    0  0.00000000000E+00  0.00000000000E+00  0.45593999997E+02  0.45594000000E+02  0.51100000000E-03 0. -1.
         11   -1    0    0    0    0 -0.00000000000E+00 -0.00000000000E+00 -0.45593999997E+02  0.45594000000E+02  0.51100000000E-03 0.  1.
    9900012    2    1    2    0    0  0.11115076962E+02  0.28273095416E+01  0.41857911774E+02  0.47787269670E+02  0.19999993731E+02 0.  0.
        -12    1    1    2    0    0 -0.11115076962E+02 -0.28273095416E+01 -0.41857911774E+02  0.43400730330E+02  0.00000000000E+00 0.  1.
         11    1    3    3    0    0  0.94795945286E+01  0.84794796518E+00  0.42279490747E+02  0.43337478771E+02  0.51100000000E-03 0. -1.
        -11    1    3    3    0    0  0.21761696773E+01  0.27177897382E+01 -0.11146770834E+00  0.34834639135E+01  0.51100000000E-03 0.  1.
         12    1    3    3    0    0 -0.54068724373E+00 -0.73842816179E+00 -0.31011126417E+00  0.96632698494E+00  0.00000000000E+00 0. -1.
</event>
<event>
 7    1  0.7470072E-010  0.4778727E+02  0.7816164E-02  0.1312668E+00
        -11   -1    0    0    0    0  0.00000000000E+00  0.00000000000E+00  0.45593999997E+02  0.45594000000E+02  0.51100000000E-03 0. -1.
         11   -1    0    0    0    0 -0.00000000000E+00 -0.00000000000E+00 -0.45593999997E+02  0.45594000000E+02  0.51100000000E-03 0.  1.
    9900012    2    1    2    0    0  0.33493237105E+02  0.34048705847E+01  0.27390384131E+02  0.47787271685E+02  0.20000002920E+02 0.  0.
        -12    1    1    2    0    0 -0.33493237105E+02 -0.34048705847E+01 -0.27390384131E+02  0.43400728315E+02  0.00000000000E+00 0.  1.
         11    1    3    3    0    0  0.15842310817E+02  0.51888689230E+01  0.17827092180E+02  0.24407138066E+02  0.51100000000E-03 0. -1.
        -11    1    3    3    0    0  0.97257193806E+01 -0.59772203067E+01  0.18740838624E+01  0.11568447201E+02  0.51100000000E-03 0.  1.
         12    1    3    3    0    0  0.79252069071E+01  0.41932219683E+01  0.76892080884E+01  0.11811686417E+02  0.00000000000E+00 0. -1.
</event>
<event>
 7    1  0.7470072E-010  0.4778727E+02  0.7816164E-02  0.1312668E+00
        -11   -1    0    0    0    0  0.00000000000E+00  0.00000000000E+00  0.45593999997E+02  0.45594000000E+02  0.51100000000E-03 0. -1.
         11   -1    0    0    0    0 -0.00000000000E+00 -0.00000000000E+00 -0.45593999997E+02  0.45594000000E+02  0.51100000000E-03 0.  1.
    9900012    2    1    2    0    0 -0.17043204581E+02  0.17621468225E+02  0.35813912683E+02  0.47787270669E+02  0.19999998289E+02 0.  0.
        -12    1    1    2    0    0  0.17043204581E+02 -0.17621468225E+02 -0.35813912683E+02  0.43400729331E+02  0.00000000000E+00 0.  1.
         11    1    3    3    0    0  0.27924993283E+01  0.52061438305E+01  0.50403925017E+01  0.77657931285E+01  0.51100000000E-03 0.  1.
        -11    1    3    3    0    0 -0.15247953814E+02  0.43854519617E+01  0.22993044819E+02  0.27935862162E+02  0.51100000000E-03 0. -1.
         12    1    3    3    0    0 -0.45877500953E+01  0.80298724325E+01  0.77804753622E+01  0.12085615379E+02  0.00000000000E+00 0. -1.
</event>
<event>
 7    1  0.7470072E-010  0.4778727E+02  0.7816164E-02  0.1312668E+00
        -11   -1    0    0    0    0  0.00000000000E+00  0.00000000000E+00  0.45593999997E+02  0.45594000000E+02  0.51100000000E-03 0. -1.
         11   -1    0    0    0    0 -0.00000000000E+00 -0.00000000000E+00 -0.45593999997E+02  0.45594000000E+02  0.51100000000E-03 0.  1.
    9900012    2    1    2    0    0 -0.40548165017E+02  0.81766044597E+01  0.13138214368E+02  0.47787271625E+02  0.20000002645E+02 0.  0.
        -12    1    1    2    0    0  0.40548165017E+02 -0.81766044597E+01 -0.13138214368E+02  0.43400728375E+02  0.00000000000E+00 0.  1.
         11    1    3    3    0    0 -0.34032393015E+02  0.27334140740E+01  0.12988782244E+02  0.36529218322E+02  0.51100000000E-03 0. -1.
        -11    1    3    3    0    0  0.10071322130E+01  0.55983412840E+00 -0.17451393453E+01  0.20912295765E+01  0.51100000000E-03 0.  1.
        -12    1    3    3    0    0 -0.75229042152E+01  0.48833562573E+01  0.18945714698E+01  0.91668237259E+01  0.00000000000E+00 0.  1.
</event>
<event>
 7    1  0.7470072E-010  0.4778727E+02  0.7816164E-02  0.1312668E+00
        -11   -1    0    0    0    0  0.00000000000E+00  0.00000000000E+00  0.45593999997E+02  0.45594000000E+02  0.51100000000E-03 0. -1.
         11   -1    0    0    0    0 -0.00000000000E+00 -0.00000000000E+00 -0.45593999997E+02  0.45594000000E+02  0.51100000000E-03 0.  1.
    9900012    2    1    2    0    0  0.26108267983E+02 -0.17764683565E+02 -0.29772430956E+02  0.47787270925E+02  0.19999999456E+02 0.  0.
         12    1    1    2    0    0 -0.26108267983E+02  0.17764683565E+02  0.29772430956E+02  0.43400729075E+02  0.00000000000E+00 0. -1.
         11    1    3    3    0    0 -0.70518679276E+00 -0.37992038879E+00  0.88179652589E+00  0.11912989921E+01  0.51100000000E-03 0. -1.
        -11    1    3    3    0    0  0.23420196083E+02 -0.18383151474E+02 -0.31072495815E+02  0.43034240311E+02  0.51100000000E-03 0.  1.
        -12    1    3    3    0    0  0.33932586924E+01  0.99838829803E+00  0.41826833375E+00  0.35617316219E+01  0.00000000000E+00 0.  1.
</event>
<event>
 7    1  0.7470072E-010  0.4778727E+02  0.7816164E-02  0.1312668E+00
        -11   -1    0    0    0    0  0.00000000000E+00  0.00000000000E+00  0.45593999997E+02  0.45594000000E+02  0.51100000000E-03 0.  1.
         11   -1    0    0    0    0 -0.00000000000E+00 -0.00000000000E+00 -0.45593999997E+02  0.45594000000E+02  0.51100000000E-03 0. -1.
    9900012    2    1    2    0    0 -0.23430029637E+02  0.29943701157E+02 -0.20929209579E+02  0.47787270267E+02  0.19999996455E+02 0.  0.
         12    1    1    2    0    0  0.23430029637E+02 -0.29943701157E+02  0.20929209579E+02  0.43400729733E+02  0.00000000000E+00 0. -1.
         11    1    3    3    0    0 -0.94825489755E+01  0.25049098990E+01 -0.16447875335E+00  0.98091978365E+01  0.51100000000E-03 0. -1.
        -11    1    3    3    0    0 -0.53494296339E+01  0.14548566446E+02 -0.61433575815E+01  0.16673872546E+02  0.51100000000E-03 0.  1.
         12    1    3    3    0    0 -0.85980510281E+01  0.12890224812E+02 -0.14621373244E+02  0.21304199884E+02  0.00000000000E+00 0. -1.
</event>
<event>
 7    1  0.7470072E-010  0.4778727E+02  0.7816164E-02  0.1312668E+00
        -11   -1    0    0    0    0  0.00000000000E+00  0.00000000000E+00  0.45593999997E+02  0.45594000000E+02  0.51100000000E-03 0. -1.
         11   -1    0    0    0    0 -0.00000000000E+00 -0.00000000000E+00 -0.45593999997E+02  0.45594000000E+02  0.51100000000E-03 0.  1.
    9900012    2    1    2    0    0  0.38257492222E+01 -0.25210557445E+02  0.35120009844E+02  0.47787266650E+02  0.19999979965E+02 0.  0.
        -12    1    1    2    0    0 -0.38257492222E+01  0.25210557445E+02 -0.35120009844E+02  0.43400733350E+02  0.00000000000E+00 0.  1.
         11    1    3    3    0    0  0.20186221973E+01  0.55115975766E+00  0.10061631179E+02  0.10276917577E+02  0.51100000000E-03 0. -1.
        -11    1    3    3    0    0  0.45064837719E+01 -0.22682785446E+02  0.23895494155E+02  0.33253748551E+02  0.51100000000E-03 0.  1.
        -12    1    3    3    0    0 -0.26993567470E+01 -0.30789317571E+01  0.11628845111E+01  0.42566005214E+01  0.00000000000E+00 0.  1.
</event>
<event>
 7    1  0.7470072E-010  0.4778727E+02  0.7816164E-02  0.1312668E+00
        -11   -1    0    0    0    0  0.00000000000E+00  0.00000000000E+00  0.45593999997E+02  0.45594000000E+02  0.51100000000E-03 0.  1.
         11   -1    0    0    0    0 -0.00000000000E+00 -0.00000000000E+00 -0.45593999997E+02  0.45594000000E+02  0.51100000000E-03 0. -1.
    9900012    2    1    2    0    0 -0.19609965536E+02 -0.34161550630E+02  0.18222532391E+02  0.47787274470E+02  0.20000015618E+02 0.  0.
         12    1    1    2    0    0  0.19609965536E+02  0.34161550630E+02 -0.18222532391E+02  0.43400725530E+02  0.00000000000E+00 0. -1.
         11    1    3    3    0    0 -0.11511365003E+01 -0.12140229565E+02  0.18676712812E+00  0.12196112961E+02  0.51100000000E-03 0. -1.
        -11    1    3    3    0    0 -0.13567074008E+02 -0.79130465778E+01  0.82866847207E+01  0.17758123414E+02  0.51100000000E-03 0.  1.
         12    1    3    3    0    0 -0.48917550277E+01 -0.14108274487E+02  0.97490805423E+01  0.17833038094E+02  0.00000000000E+00 0. -1.
</event>
<event>
 7    1  0.7470072E-010  0.4778727E+02  0.7816164E-02  0.1312668E+00
        -11   -1    0    0    0    0  0.00000000000E+00  0.00000000000E+00  0.45593999997E+02  0.45594000000E+02  0.51100000000E-03 0. -1.
         11   -1    0    0    0    0 -0.00000000000E+00 -0.00000000000E+00 -0.45593999997E+02  0.45594000000E+02  0.51100000000E-03 0.  1.
    9900012    2    1    2    0    0 -0.99486735962E+01  0.38024400444E+02 -0.18406306824E+02  0.47787271131E+02  0.20000000395E+02 0.  0.
         12    1    1    2    0    0  0.99486735962E+01 -0.38024400444E+02  0.18406306824E+02  0.43400728869E+02  0.00000000000E+00 0. -1.
         11    1    3    3    0    0 -0.86023703497E+01  0.19809163174E+02 -0.19150778671E+01  0.21681126465E+02  0.51100000000E-03 0. -1.
        -11    1    3    3    0    0 -0.24865646560E+01  0.18794062616E+02 -0.15378099296E+02  0.24410770812E+02  0.51100000000E-03 0.  1.
        -12    1    3    3    0    0  0.11402614095E+01 -0.57882534621E+00 -0.11131296607E+01  0.16953738540E+01  0.00000000000E+00 0.  1.
</event>
<event>
 7    1  0.7470072E-010  0.4778727E+02  0.7816164E-02  0.1312668E+00
        -11   -1    0    0    0    0  0.00000000000E+00  0.00000000000E+00  0.45593999997E+02  0.45594000000E+02  0.51100000000E-03 0. -1.
         11   -1    0    0    0    0 -0.00000000000E+00 -0.00000000000E+00 -0.45593999997E+02  0.45594000000E+02  0.51100000000E-03 0.  1.
    9900012    2    1    2    0    0  0.14363383036E+02 -0.59572979872E+01 -0.40519470689E+02  0.47787266406E+02  0.19999978851E+02 0.  0.
         12    1    1    2    0    0 -0.14363383036E+02  0.59572979872E+01  0.40519470689E+02  0.43400733594E+02  0.00000000000E+00 0. -1.
         11    1    3    3    0    0  0.12730426371E+01  0.58668515328E+01 -0.93066910282E+01  0.11074975513E+02  0.51100000000E-03 0. -1.
        -11    1    3    3    0    0  0.84145833450E+01 -0.35566285297E+01 -0.20198108903E+02  0.22167959376E+02  0.51100000000E-03 0.  1.
         12    1    3    3    0    0  0.46757570544E+01 -0.82675209903E+01 -0.11014670758E+02  0.14544331517E+02  0.00000000000E+00 0. -1.
</event>
<event>
 7    1  0.7470072E-010  0.4778727E+02  0.7816164E-02  0.1312668E+00
        -11   -1    0    0    0    0  0.00000000000E+00  0.00000000000E+00  0.45593999997E+02  0.45594000000E+02  0.51100000000E-03 0. -1.
         11   -1    0    0    0    0 -0.00000000000E+00 -0.00000000000E+00 -0.45593999997E+02  0.45594000000E+02  0.51100000000E-03 0.  1.
    9900012    2    1    2    0    0 -0.30626820242E+02  0.14458285296E+01 -0.30716944429E+02  0.47787271742E+02  0.20000003180E+02 0.  0.
         12    1    1    2    0    0  0.30626820242E+02 -0.14458285296E+01  0.30716944429E+02  0.43400728258E+02  0.00000000000E+00 0. -1.
         11    1    3    3    0    0 -0.11818272549E+02 -0.56533269967E+01 -0.12076249572E+02  0.17817617017E+02  0.51100000000E-03 0.  1.
        -11    1    3    3    0    0 -0.11713387426E+02  0.98262937316E+01 -0.15418086302E+02  0.21713518346E+02  0.51100000000E-03 0. -1.
         12    1    3    3    0    0 -0.70951602671E+01 -0.27271382053E+01 -0.32226085549E+01  0.82561363788E+01  0.00000000000E+00 0. -1.
</event>
<event>
 7    1  0.7470072E-010  0.4778727E+02  0.7816164E-02  0.1312668E+00
        -11   -1    0    0    0    0  0.00000000000E+00  0.00000000000E+00  0.45593999997E+02  0.45594000000E+02  0.51100000000E-03 0. -1.
         11   -1    0    0    0    0 -0.00000000000E+00 -0.00000000000E+00 -0.45593999997E+02  0.45594000000E+02  0.51100000000E-03 0.  1.
    9900012    2    1    2    0    0 -0.75016591027E+01  0.23870406517E+01  0.42680795270E+02  0.47787272618E+02  0.20000007176E+02 0.  0.
        -12    1    1    2    0    0  0.75016591027E+01 -0.23870406517E+01 -0.42680795270E+02  0.43400727382E+02  0.00000000000E+00 0.  1.
         11    1    3    3    0    0 -0.39082651763E+01 -0.18871525338E+01  0.30299669888E+02  0.30608918258E+02  0.51100000000E-03 0. -1.
        -11    1    3    3    0    0 -0.81387009222E+00  0.10898171478E+00 -0.18865276413E+01  0.20574859279E+01  0.51100000000E-03 0.  1.
         12    1    3    3    0    0 -0.27795238342E+01  0.41652114707E+01  0.14267653024E+02  0.15120868432E+02  0.00000000000E+00 0. -1.
</event>
<event>
 7    1  0.7470072E-010  0.4778727E+02  0.7816164E-02  0.1312668E+00
        -11   -1    0    0    0    0  0.00000000000E+00  0.00000000000E+00  0.45593999997E+02  0.45594000000E+02  0.51100000000E-03 0. -1.
         11   -1    0    0    0    0 -0.00000000000E+00 -0.00000000000E+00 -0.45593999997E+02  0.45594000000E+02  0.51100000000E-03 0.  1.
    9900012    2    1    2    0    0 -0.23076576401E+02 -0.16778249507E+02 -0.32704515062E+02  0.47787270279E+02  0.19999996508E+02 0.  0.
         12    1    1    2    0    0  0.23076576401E+02  0.16778249507E+02  0.32704515062E+02  0.43400729721E+02  0.00000000000E+00 0. -1.
         11    1    3    3    0    0 -0.41586503234E+01 -0.11353327103E+02 -0.95112788418E+01  0.15383654777E+02  0.51100000000E-03 0. -1.
        -11    1    3    3    0    0 -0.10896024740E+02  0.67167674476E+00 -0.59512456163E+01  0.12433496267E+02  0.51100000000E-03 0.  1.
        -12    1    3    3    0    0 -0.80219013378E+01 -0.60965991482E+01 -0.17241990604E+02  0.19970119234E+02  0.00000000000E+00 0.  1.
</event>
<event>
 7    1  0.7470072E-010  0.4778727E+02  0.7816164E-02  0.1312668E+00
        -11   -1    0    0    0    0  0.00000000000E+00  0.00000000000E+00  0.45593999997E+02  0.45594000000E+02  0.51100000000E-03 0. -1.
         11   -1    0    0    0    0 -0.00000000000E+00 -0.00000000000E+00 -0.45593999997E+02  0.45594000000E+02  0.51100000000E-03 0.  1.
    9900012    2    1    2    0    0 -0.22485816952E+02 -0.22931287069E+02  0.29191900913E+02  0.47787274551E+02  0.20000015986E+02 0.  0.
        -12    1    1    2    0    0  0.22485816952E+02  0.22931287069E+02 -0.29191900913E+02  0.43400725449E+02  0.00000000000E+00 0.  1.
         11    1    3    3    0    0 -0.89802888905E+01 -0.13379083829E+02  0.22665017111E+02  0.27809143704E+02  0.51100000000E-03 0. -1.
        -11    1    3    3    0    0 -0.14289885615E+02 -0.64495942910E+01  0.52708917688E+01  0.16540265950E+02  0.51100000000E-03 0.  1.
        -12    1    3    3    0    0  0.78435755265E+00 -0.31026089486E+01  0.12559920328E+01  0.34378648963E+01  0.00000000000E+00 0.  1.
</event>
<event>
 7    1  0.7470072E-010  0.4778727E+02  0.7816164E-02  0.1312668E+00
        -11   -1    0    0    0    0  0.00000000000E+00  0.00000000000E+00  0.45593999997E+02  0.45594000000E+02  0.51100000000E-03 0.  1.
         11   -1    0    0    0    0 -0.00000000000E+00 -0.00000000000E+00 -0.45593999997E+02  0.45594000000E+02  0.51100000000E-03 0. -1.
    9900012    2    1    2    0    0 -0.85164760722E+01 -0.28110373653E+02 -0.31951528010E+02  0.47787267129E+02  0.19999982147E+02 0.  0.
        -12    1    1    2    0    0  0.85164760722E+01  0.28110373653E+02  0.31951528010E+02  0.43400732871E+02  0.00000000000E+00 0.  1.
         11    1    3    3    0    0 -0.16583248723E+01 -0.18595454732E+02 -0.26133461904E+02  0.32116955170E+02  0.51100000000E-03 0. -1.
        -11    1    3    3    0    0 -0.15637579255E+01 -0.21125100361E+01  0.22866062392E+01  0.34837631746E+01  0.51100000000E-03 0.  1.
         12    1    3    3    0    0 -0.52943932744E+01 -0.74024088851E+01 -0.81046723448E+01  0.12186548784E+02  0.00000000000E+00 0. -1.
</event>
<event>
 7    1  0.7470072E-010  0.4778727E+02  0.7816164E-02  0.1312668E+00
        -11   -1    0    0    0    0  0.00000000000E+00  0.00000000000E+00  0.45593999997E+02  0.45594000000E+02  0.51100000000E-03 0. -1.
         11   -1    0    0    0    0 -0.00000000000E+00 -0.00000000000E+00 -0.45593999997E+02  0.45594000000E+02  0.51100000000E-03 0.  1.
    9900012    2    1    2    0    0  0.26547552207E+01 -0.12274444494E+02 -0.41544113688E+02  0.47787273105E+02  0.20000009396E+02 0.  0.
         12    1    1    2    0    0 -0.26547552207E+01  0.12274444494E+02  0.41544113688E+02  0.43400726895E+02  0.00000000000E+00 0. -1.
         11    1    3    3    0    0 -0.73600612944E+00  0.38362560773E+01 -0.14266607151E+02  0.14791708676E+02  0.51100000000E-03 0. -1.
        -11    1    3    3    0    0  0.62762448114E+01 -0.10783132869E+02 -0.17479099299E+02  0.21475244259E+02  0.51100000000E-03 0.  1.
         12    1    3    3    0    0 -0.28854834613E+01 -0.53275677025E+01 -0.97984072375E+01  0.11520320170E+02  0.00000000000E+00 0. -1.
</event>
<event>
 7    1  0.7470072E-010  0.4778727E+02  0.7816164E-02  0.1312668E+00
        -11   -1    0    0    0    0  0.00000000000E+00  0.00000000000E+00  0.45593999997E+02  0.45594000000E+02  0.51100000000E-03 0. -1.
         11   -1    0    0    0    0 -0.00000000000E+00 -0.00000000000E+00 -0.45593999997E+02  0.45594000000E+02  0.51100000000E-03 0.  1.
    9900012    2    1    2    0    0 -0.16196803415E+02  0.91601565239E+01 -0.39209416916E+02  0.47787270936E+02  0.19999999506E+02 0.  0.
         12    1    1    2    0    0  0.16196803415E+02 -0.91601565239E+01  0.39209416916E+02  0.43400729064E+02  0.00000000000E+00 0. -1.
         11    1    3    3    0    0  0.14342448039E+01  0.46199091531E+01 -0.21700197971E+02  0.22232840821E+02  0.51100000000E-03 0. -1.
        -11    1    3    3    0    0 -0.14704495632E+02  0.46101089952E+01 -0.16164120976E+02  0.22332803315E+02  0.51100000000E-03 0.  1.
         12    1    3    3    0    0 -0.29265525871E+01 -0.69861624385E-01 -0.13450979695E+01  0.32216268001E+01  0.00000000000E+00 0. -1.
</event>
<event>
 7    1  0.7470072E-010  0.4778727E+02  0.7816164E-02  0.1312668E+00
        -11   -1    0    0    0    0  0.00000000000E+00  0.00000000000E+00  0.45593999997E+02  0.45594000000E+02  0.51100000000E-03 0. -1.
         11   -1    0    0    0    0 -0.00000000000E+00 -0.00000000000E+00 -0.45593999997E+02  0.45594000000E+02  0.51100000000E-03 0.  1.
    9900012    2    1    2    0    0 -0.29775808851E+02  0.21144220475E+02 -0.23450938704E+02  0.47787269841E+02  0.19999994515E+02 0.  0.
         12    1    1    2    0    0  0.29775808851E+02 -0.21144220475E+02  0.23450938704E+02  0.43400730159E+02  0.00000000000E+00 0. -1.
         11    1    3    3    0    0 -0.21439238576E+02  0.14387616749E+02 -0.19540042139E+02  0.32379896750E+02  0.51100000000E-03 0. -1.
        -11    1    3    3    0    0 -0.63266034436E+01  0.49365737749E+01 -0.74494071483E+01  0.10949399020E+02  0.51100000000E-03 0.  1.
         12    1    3    3    0    0 -0.20099668308E+01  0.18200299504E+01  0.35385105832E+01  0.44579740722E+01  0.00000000000E+00 0. -1.
</event>
<event>
 7    1  0.7470072E-010  0.4778727E+02  0.7816164E-02  0.1312668E+00
        -11   -1    0    0    0    0  0.00000000000E+00  0.00000000000E+00  0.45593999997E+02  0.45594000000E+02  0.51100000000E-03 0. -1.
         11   -1    0    0    0    0 -0.00000000000E+00 -0.00000000000E+00 -0.45593999997E+02  0.45594000000E+02  0.51100000000E-03 0.  1.
    9900012    2    1    2    0    0 -0.37117534911E+01  0.68007835075E+01  0.42703578627E+02  0.47787269616E+02  0.19999993489E+02 0.  0.
        -12    1    1    2    0    0  0.37117534911E+01 -0.68007835075E+01 -0.42703578627E+02  0.43400730384E+02  0.00000000000E+00 0.  1.
         11    1    3    3    0    0 -0.45325639748E+01 -0.34782056620E+01  0.29880644316E+02  0.30421948587E+02  0.51100000000E-03 0. -1.
        -11    1    3    3    0    0  0.64193499428E+00  0.77095906520E+01  0.12592952707E+02  0.14779456238E+02  0.51100000000E-03 0.  1.
         12    1    3    3    0    0  0.17887548944E+00  0.25693985175E+01  0.22998160418E+00  0.25858647917E+01  0.00000000000E+00 0. -1.
</event>
<event>
 7    1  0.7470072E-010  0.4778727E+02  0.7816164E-02  0.1312668E+00
        -11   -1    0    0    0    0  0.00000000000E+00  0.00000000000E+00  0.45593999997E+02  0.45594000000E+02  0.51100000000E-03 0. -1.
         11   -1    0    0    0    0 -0.00000000000E+00 -0.00000000000E+00 -0.45593999997E+02  0.45594000000E+02  0.51100000000E-03 0.  1.
    9900012    2    1    2    0    0  0.12623747767E+02 -0.25717156468E+02  0.32602025129E+02  0.47787272045E+02  0.20000004561E+02 0.  0.
        -12    1    1    2    0    0 -0.12623747767E+02  0.25717156468E+02 -0.32602025129E+02  0.43400727955E+02  0.00000000000E+00 0.  1.
         11    1    3    3    0    0  0.56963338977E+01 -0.15023965033E+02  0.27315870157E+02  0.31691079311E+02  0.51100000000E-03 0. -1.
        -11    1    3    3    0    0  0.24499801946E+01 -0.25435639535E+01  0.57921007658E+01  0.67838449335E+01  0.51100000000E-03 0.  1.
         12    1    3    3    0    0  0.44774336748E+01 -0.81496274820E+01 -0.50594579384E+00  0.93123478003E+01  0.00000000000E+00 0. -1.
</event>
<event>
 7    1  0.7470072E-010  0.4778726E+02  0.7816164E-02  0.1312668E+00
        -11   -1    0    0    0    0  0.00000000000E+00  0.00000000000E+00  0.45593999997E+02  0.45594000000E+02  0.51100000000E-03 0. -1.
         11   -1    0    0    0    0 -0.00000000000E+00 -0.00000000000E+00 -0.45593999997E+02  0.45594000000E+02  0.51100000000E-03 0.  1.
    9900012    2    1    2    0    0 -0.72282847478E+01  0.58035246689E+01  0.42399232035E+02  0.47787264106E+02  0.19999968364E+02 0.  0.
        -12    1    1    2    0    0  0.72282847478E+01 -0.58035246689E+01 -0.42399232035E+02  0.43400735894E+02  0.00000000000E+00 0.  1.
         11    1    3    3    0    0 -0.75570579280E+01 -0.41836774477E+01  0.82543988725E+01  0.11947693607E+02  0.51100000000E-03 0. -1.
        -11    1    3    3    0    0 -0.27607324929E+00  0.39590024642E+01  0.71928799302E+01  0.82150738830E+01  0.51100000000E-03 0.  1.
         12    1    3    3    0    0  0.60484642952E+00  0.60281996524E+01  0.26951953232E+02  0.27624496616E+02  0.00000000000E+00 0. -1.
</event>
<event>
 7    1  0.7470072E-010  0.4778727E+02  0.7816164E-02  0.1312668E+00
        -11   -1    0    0    0    0  0.00000000000E+00  0.00000000000E+00  0.45593999997E+02  0.45594000000E+02  0.51100000000E-03 0. -1.
         11   -1    0    0    0    0 -0.00000000000E+00 -0.00000000000E+00 -0.45593999997E+02  0.45594000000E+02  0.51100000000E-03 0.  1.
    9900012    2    1    2    0    0  0.40177584694E+02  0.11453328227E+02 -0.11756115481E+02  0.47787270852E+02  0.19999999123E+02 0.  0.
         12    1    1    2    0    0 -0.40177584694E+02 -0.11453328227E+02  0.11756115481E+02  0.43400729148E+02  0.00000000000E+00 0. -1.
         11    1    3    3    0    0  0.33997579698E+01  0.10383871915E+00 -0.66610053454E+01  0.74791797147E+01  0.51100000000E-03 0. -1.
        -11    1    3    3    0    0  0.27104705736E+02  0.34284681343E+01 -0.51692052352E+01  0.27805397854E+02  0.51100000000E-03 0.  1.
         12    1    3    3    0    0  0.96731209885E+01  0.79210213736E+01  0.74095099146E-01  0.12502693284E+02  0.00000000000E+00 0. -1.
</event>
<event>
 7    1  0.7470072E-010  0.4778729E+02  0.7816164E-02  0.1312668E+00
        -11   -1    0    0    0    0  0.00000000000E+00  0.00000000000E+00  0.45593999997E+02  0.45594000000E+02  0.51100000000E-03 0. -1.
         11   -1    0    0    0    0 -0.00000000000E+00 -0.00000000000E+00 -0.45593999997E+02  0.45594000000E+02  0.51100000000E-03 0.  1.
    9900012    2    1    2    0    0  0.16676351794E+01  0.41057626186E+01  0.43173871820E+02  0.47787291461E+02  0.20000093085E+02 0.  0.
        -12    1    1    2    0    0 -0.16676351794E+01 -0.41057626186E+01 -0.43173871820E+02  0.43400708539E+02  0.00000000000E+00 0.  1.
         11    1    3    3    0    0 -0.19495763550E+01 -0.26484681962E+00 -0.82843488553E+00  0.21347825235E+01  0.51100000000E-03 0. -1.
        -11    1    3    3    0    0  0.49329447828E+01 -0.21995906668E+01  0.21944440749E+02  0.22599350065E+02  0.51100000000E-03 0.  1.
         12    1    3    3    0    0 -0.13157332484E+01  0.65702001050E+01  0.22057865957E+02  0.23053158872E+02  0.00000000000E+00 0. -1.
</event>
<event>
 7    1  0.7470072E-010  0.4778727E+02  0.7816164E-02  0.1312668E+00
        -11   -1    0    0    0    0  0.00000000000E+00  0.00000000000E+00  0.45593999997E+02  0.45594000000E+02  0.51100000000E-03 0. -1.
         11   -1    0    0    0    0 -0.00000000000E+00 -0.00000000000E+00 -0.45593999997E+02  0.45594000000E+02  0.51100000000E-03 0.  1.
    9900012    2    1    2    0    0  0.20264515368E+02  0.17260091464E+02 -0.34279175800E+02  0.47787271504E+02  0.20000002096E+02 0.  0.
         12    1    1    2    0    0 -0.20264515368E+02 -0.17260091464E+02  0.34279175800E+02  0.43400728496E+02  0.00000000000E+00 0. -1.
         11    1    3    3    0    0 -0.21987774812E+01 -0.63692348021E+00 -0.58319716376E+01  0.62651566121E+01  0.51100000000E-03 0. -1.
        -11    1    3    3    0    0  0.12381313376E+02  0.43293764748E+01 -0.14971981526E+02  0.19904789691E+02  0.51100000000E-03 0.  1.
         12    1    3    3    0    0  0.10081979474E+02  0.13567638469E+02 -0.13475222636E+02  0.21617325201E+02  0.00000000000E+00 0. -1.
</event>
<event>
 7    1  0.7470072E-010  0.4778728E+02  0.7816164E-02  0.1312668E+00
        -11   -1    0    0    0    0  0.00000000000E+00  0.00000000000E+00  0.45593999997E+02  0.45594000000E+02  0.51100000000E-03 0. -1.
         11   -1    0    0    0    0 -0.00000000000E+00 -0.00000000000E+00 -0.45593999997E+02  0.45594000000E+02  0.51100000000E-03 0.  1.
    9900012    2    1    2    0    0  0.32913980642E+02  0.52517597919E+01 -0.27797694205E+02  0.47787275285E+02  0.20000019337E+02 0.  0.
         12    1    1    2    0    0 -0.32913980642E+02 -0.52517597919E+01  0.27797694205E+02  0.43400724715E+02  0.00000000000E+00 0. -1.
         11    1    3    3    0    0  0.89882544513E+01  0.20735976345E+01 -0.18245274309E+02  0.20444523964E+02  0.51100000000E-03 0. -1.
        -11    1    3    3    0    0  0.19161425616E+02  0.58017697750E+01 -0.87335952069E+01  0.21842537619E+02  0.51100000000E-03 0.  1.
        -12    1    3    3    0    0  0.47643005752E+01 -0.26236076177E+01 -0.81882468927E+00  0.55002137026E+01  0.00000000000E+00 0.  1.
</event>
<event>
 7    1  0.7470072E-010  0.4778727E+02  0.7816164E-02  0.1312668E+00
        -11   -1    0    0    0    0  0.00000000000E+00  0.00000000000E+00  0.45593999997E+02  0.45594000000E+02  0.51100000000E-03 0. -1.
         11   -1    0    0    0    0 -0.00000000000E+00 -0.00000000000E+00 -0.45593999997E+02  0.45594000000E+02  0.51100000000E-03 0.  1.
    9900012    2    1    2    0    0  0.69969572035E+01 -0.10636822882E+02  0.41491247000E+02  0.47787274330E+02  0.20000014979E+02 0.  0.
        -12    1    1    2    0    0 -0.69969572035E+01  0.10636822882E+02 -0.41491247000E+02  0.43400725670E+02  0.00000000000E+00 0.  1.
         11    1    3    3    0    0  0.87206488932E+01  0.12685634315E+01  0.84484823462E+01  0.12208022957E+02  0.51100000000E-03 0. -1.
        -11    1    3    3    0    0 -0.17806575037E+01 -0.85593824521E+01  0.29214048047E+02  0.30494169486E+02  0.51100000000E-03 0.  1.
        -12    1    3    3    0    0  0.56965814004E-01 -0.33460038610E+01  0.38287166067E+01  0.50850818869E+01  0.00000000000E+00 0.  1.
</event>
<event>
 7    1  0.7470072E-010  0.4778727E+02  0.7816164E-02  0.1312668E+00
        -11   -1    0    0    0    0  0.00000000000E+00  0.00000000000E+00  0.45593999997E+02  0.45594000000E+02  0.51100000000E-03 0. -1.
         11   -1    0    0    0    0 -0.00000000000E+00 -0.00000000000E+00 -0.45593999997E+02  0.45594000000E+02  0.51100000000E-03 0.  1.
    9900012    2    1    2    0    0  0.10367366219E+02 -0.32998699029E+02  0.26215015901E+02  0.47787268686E+02  0.19999989245E+02 0.  0.
        -12    1    1    2    0    0 -0.10367366219E+02  0.32998699029E+02 -0.26215015901E+02  0.43400731314E+02  0.00000000000E+00 0.  1.
         11    1    3    3    0    0 -0.14100079577E+01 -0.17307936335E+02  0.96252908823E+01  0.19854445533E+02  0.51100000000E-03 0. -1.
        -11    1    3    3    0    0 -0.76488466366E+00 -0.67811245211E+01  0.31990856865E+01  0.75367664028E+01  0.51100000000E-03 0.  1.
         12    1    3    3    0    0  0.12542258841E+02 -0.89096381732E+01  0.13390639332E+02  0.20396056749E+02  0.00000000000E+00 0. -1.
</event>
<event>
 7    1  0.7470072E-010  0.4778727E+02  0.7816164E-02  0.1312668E+00
        -11   -1    0    0    0    0  0.00000000000E+00  0.00000000000E+00  0.45593999997E+02  0.45594000000E+02  0.51100000000E-03 0.  1.
         11   -1    0    0    0    0 -0.00000000000E+00 -0.00000000000E+00 -0.45593999997E+02  0.45594000000E+02  0.51100000000E-03 0. -1.
    9900012    2    1    2    0    0  0.42199841638E+02 -0.61124298180E+01 -0.80891788625E+01  0.47787271351E+02  0.20000001400E+02 0.  0.
         12    1    1    2    0    0 -0.42199841638E+02  0.61124298180E+01  0.80891788625E+01  0.43400728649E+02  0.00000000000E+00 0. -1.
         11    1    3    3    0    0  0.18066211577E+02 -0.87300080047E+01 -0.48215967097E+01  0.20636105146E+02  0.51100000000E-03 0. -1.
        -11    1    3    3    0    0  0.60866036831E+01  0.42503010748E+01  0.29572488704E+01  0.79910653084E+01  0.51100000000E-03 0.  1.
        -12    1    3    3    0    0  0.18047026378E+02 -0.16327228881E+01 -0.62248310233E+01  0.19160100897E+02  0.00000000000E+00 0.  1.
</event>
<event>
 7    1  0.7470072E-010  0.4778727E+02  0.7816164E-02  0.1312668E+00
        -11   -1    0    0    0    0  0.00000000000E+00  0.00000000000E+00  0.45593999997E+02  0.45594000000E+02  0.51100000000E-03 0. -1.
         11   -1    0    0    0    0 -0.00000000000E+00 -0.00000000000E+00 -0.45593999997E+02  0.45594000000E+02  0.51100000000E-03 0.  1.
    9900012    2    1    2    0    0 -0.10847045980E+02  0.29945955178E+02 -0.29482282901E+02  0.47787266791E+02  0.19999980608E+02 0.  0.
         12    1    1    2    0    0  0.10847045980E+02 -0.29945955178E+02  0.29482282901E+02  0.43400733209E+02  0.00000000000E+00 0. -1.
         11    1    3    3    0    0  0.47757558392E+01  0.47202305980E+01 -0.48929829540E+01  0.83084115920E+01  0.51100000000E-03 0. -1.
        -11    1    3    3    0    0 -0.12476617331E+02  0.12308220246E+02 -0.12707701950E+02  0.21648185947E+02  0.51100000000E-03 0.  1.
         12    1    3    3    0    0 -0.31461844876E+01  0.12917504334E+02 -0.11881597996E+02  0.17830669252E+02  0.00000000000E+00 0. -1.
</event>
<event>
 7    1  0.7470072E-010  0.4778727E+02  0.7816164E-02  0.1312668E+00
        -11   -1    0    0    0    0  0.00000000000E+00  0.00000000000E+00  0.45593999997E+02  0.45594000000E+02  0.51100000000E-03 0. -1.
         11   -1    0    0    0    0 -0.00000000000E+00 -0.00000000000E+00 -0.45593999997E+02  0.45594000000E+02  0.51100000000E-03 0.  1.
    9900012    2    1    2    0    0 -0.39167266630E+01 -0.72308821677E+00 -0.43217584737E+02  0.47787271494E+02  0.20000002050E+02 0.  0.
         12    1    1    2    0    0  0.39167266630E+01  0.72308821677E+00  0.43217584737E+02  0.43400728506E+02  0.00000000000E+00 0. -1.
         11    1    3    3    0    0 -0.91950361867E+01 -0.10757697344E+01 -0.15043060979E+02  0.17663511964E+02  0.51100000000E-03 0. -1.
        -11    1    3    3    0    0 -0.35831582056E+00 -0.27909588097E+01 -0.29102002463E+01  0.40480991884E+01  0.51100000000E-03 0.  1.
         12    1    3    3    0    0  0.56366253443E+01  0.31436403273E+01 -0.25264323512E+02  0.26075660342E+02  0.00000000000E+00 0. -1.
</event>
<event>
 7    1  0.7470072E-010  0.4778727E+02  0.7816164E-02  0.1312668E+00
        -11   -1    0    0    0    0  0.00000000000E+00  0.00000000000E+00  0.45593999997E+02  0.45594000000E+02  0.51100000000E-03 0. -1.
         11   -1    0    0    0    0 -0.00000000000E+00 -0.00000000000E+00 -0.45593999997E+02  0.45594000000E+02  0.51100000000E-03 0.  1.
    9900012    2    1    2    0    0 -0.15907071983E+02 -0.19647577552E+02 -0.35278332804E+02  0.47787274106E+02  0.20000013958E+02 0.  0.
         12    1    1    2    0    0  0.15907071983E+02  0.19647577552E+02  0.35278332804E+02  0.43400725894E+02  0.00000000000E+00 0. -1.
         11    1    3    3    0    0 -0.17045078410E+00 -0.66122662885E+00 -0.10617451625E+02  0.10639386890E+02  0.51100000000E-03 0. -1.
        -11    1    3    3    0    0 -0.17719985701E+02 -0.18540082926E+02 -0.21934007100E+02  0.33746603324E+02  0.51100000000E-03 0.  1.
        -12    1    3    3    0    0  0.19833645023E+01 -0.44626799673E+00 -0.27268740787E+01  0.34012838922E+01  0.00000000000E+00 0.  1.
</event>
<event>
 7    1  0.7470072E-010  0.4778727E+02  0.7816164E-02  0.1312668E+00
        -11   -1    0    0    0    0  0.00000000000E+00  0.00000000000E+00  0.45593999997E+02  0.45594000000E+02  0.51100000000E-03 0. -1.
         11   -1    0    0    0    0 -0.00000000000E+00 -0.00000000000E+00 -0.45593999997E+02  0.45594000000E+02  0.51100000000E-03 0.  1.
    9900012    2    1    2    0    0 -0.39654559622E+02  0.38815921249E+01  0.17206752726E+02  0.47787271947E+02  0.20000004113E+02 0.  0.
        -12    1    1    2    0    0  0.39654559622E+02 -0.38815921249E+01 -0.17206752726E+02  0.43400728053E+02  0.00000000000E+00 0.  1.
         11    1    3    3    0    0 -0.20943044941E+02 -0.28117656079E+01  0.13002493389E+02  0.24810924848E+02  0.51100000000E-03 0. -1.
        -11    1    3    3    0    0 -0.14580829629E+02  0.82736834271E+01  0.65153755741E+01  0.17986232214E+02  0.51100000000E-03 0.  1.
        -12    1    3    3    0    0 -0.41306850518E+01 -0.15803256942E+01 -0.23111162374E+01  0.49901148844E+01  0.00000000000E+00 0.  1.
</event>
<event>
 7    1  0.7470072E-010  0.4778728E+02  0.7816164E-02  0.1312668E+00
        -11   -1    0    0    0    0  0.00000000000E+00  0.00000000000E+00  0.45593999997E+02  0.45594000000E+02  0.51100000000E-03 0. -1.
         11   -1    0    0    0    0 -0.00000000000E+00 -0.00000000000E+00 -0.45593999997E+02  0.45594000000E+02  0.51100000000E-03 0.  1.
    9900012    2    1    2    0    0  0.66850419818E+01 -0.46752184632E+01  0.42627165463E+02  0.47787277778E+02  0.20000030700E+02 0.  0.
        -12    1    1    2    0    0 -0.66850419818E+01  0.46752184632E+01 -0.42627165463E+02  0.43400722222E+02  0.00000000000E+00 0.  1.
         11    1    3    3    0    0 -0.16903506451E+01 -0.44040119325E+01  0.26419796633E+02  0.26837627705E+02  0.51100000000E-03 0. -1.
        -11    1    3    3    0    0  0.80147438813E+01 -0.31957617557E+01  0.64939192166E+01  0.10799074022E+02  0.51100000000E-03 0.  1.
         12    1    3    3    0    0  0.36064874563E+00  0.29245552249E+01  0.97134496132E+01  0.10150576051E+02  0.00000000000E+00 0. -1.
</event>
<event>
 7    1  0.7470072E-010  0.4778727E+02  0.7816164E-02  0.1312668E+00
        -11   -1    0    0    0    0  0.00000000000E+00  0.00000000000E+00  0.45593999997E+02  0.45594000000E+02  0.51100000000E-03 0. -1.
         11   -1    0    0    0    0 -0.00000000000E+00 -0.00000000000E+00 -0.45593999997E+02  0.45594000000E+02  0.51100000000E-03 0.  1.
    9900012    2    1    2    0    0 -0.18167914598E+02  0.35725619575E+02 -0.16650226547E+02  0.47787273521E+02  0.20000011291E+02 0.  0.
         12    1    1    2    0    0  0.18167914598E+02 -0.35725619575E+02  0.16650226547E+02  0.43400726479E+02  0.00000000000E+00 0. -1.
         11    1    3    3    0    0 -0.42051773798E+01  0.11969313096E+02  0.93992874500E+00  0.12721298640E+02  0.51100000000E-03 0. -1.
        -11    1    3    3    0    0 -0.95829351736E+01  0.19780228055E+02 -0.72334686019E+01  0.23138996018E+02  0.51100000000E-03 0.  1.
         12    1    3    3    0    0 -0.43798020448E+01  0.39760784232E+01 -0.10356686690E+02  0.11926978862E+02  0.00000000000E+00 0. -1.
</event>
<event>
 7    1  0.7470072E-010  0.4778727E+02  0.7816164E-02  0.1312668E+00
        -11   -1    0    0    0    0  0.00000000000E+00  0.00000000000E+00  0.45593999997E+02  0.45594000000E+02  0.51100000000E-03 0. -1.
         11   -1    0    0    0    0 -0.00000000000E+00 -0.00000000000E+00 -0.45593999997E+02  0.45594000000E+02  0.51100000000E-03 0.  1.
    9900012    2    1    2    0    0 -0.10221074219E+02  0.16124885598E+02 -0.38976157272E+02  0.47787272708E+02  0.20000007586E+02 0.  0.
         12    1    1    2    0    0  0.10221074219E+02 -0.16124885598E+02  0.38976157272E+02  0.43400727292E+02  0.00000000000E+00 0. -1.
         11    1    3    3    0    0 -0.37831385128E+01  0.18578709488E+02 -0.30903212024E+02  0.36255883618E+02  0.51100000000E-03 0. -1.
        -11    1    3    3    0    0 -0.26470540085E+01 -0.99964996146E+00 -0.66535620249E+01  0.72302201108E+01  0.51100000000E-03 0.  1.
         12    1    3    3    0    0 -0.37908816973E+01 -0.14541739288E+01 -0.14193832237E+01  0.43011689799E+01  0.00000000000E+00 0. -1.
</event>
<event>
 7    1  0.7470072E-010  0.4778726E+02  0.7816164E-02  0.1312668E+00
        -11   -1    0    0    0    0  0.00000000000E+00  0.00000000000E+00  0.45593999997E+02  0.45594000000E+02  0.51100000000E-03 0. -1.
         11   -1    0    0    0    0 -0.00000000000E+00 -0.00000000000E+00 -0.45593999997E+02  0.45594000000E+02  0.51100000000E-03 0.  1.
    9900012    2    1    2    0    0 -0.36308008537E+02  0.21008663195E+02  0.11135010569E+02  0.47787264136E+02  0.19999968504E+02 0.  0.
        -12    1    1    2    0    0  0.36308008537E+02 -0.21008663195E+02 -0.11135010569E+02  0.43400735864E+02  0.00000000000E+00 0.  1.
         11    1    3    3    0    0 -0.18041319168E+02  0.11079120757E+02  0.10850713978E+02  0.23790210343E+02  0.51100000000E-03 0. -1.
        -11    1    3    3    0    0  0.13261089650E+01  0.20145836771E+01 -0.14174004957E+01  0.27975233342E+01  0.51100000000E-03 0.  1.
        -12    1    3    3    0    0 -0.19592798334E+02  0.79149587603E+01  0.17016970872E+01  0.21199530459E+02  0.00000000000E+00 0.  1.
</event>
<event>
 7    1  0.7470072E-010  0.4778727E+02  0.7816164E-02  0.1312668E+00
        -11   -1    0    0    0    0  0.00000000000E+00  0.00000000000E+00  0.45593999997E+02  0.45594000000E+02  0.51100000000E-03 0. -1.
         11   -1    0    0    0    0 -0.00000000000E+00 -0.00000000000E+00 -0.45593999997E+02  0.45594000000E+02  0.51100000000E-03 0.  1.
    9900012    2    1    2    0    0 -0.30476304132E+02 -0.28526080387E+02 -0.11877749239E+02  0.47787270711E+02  0.19999998482E+02 0.  0.
         12    1    1    2    0    0  0.30476304132E+02  0.28526080387E+02  0.11877749239E+02  0.43400729289E+02  0.00000000000E+00 0. -1.
         11    1    3    3    0    0 -0.15739080278E+02 -0.11446962528E+02 -0.14620276079E+02  0.24341406533E+02  0.51100000000E-03 0. -1.
        -11    1    3    3    0    0 -0.98076653868E+01 -0.10012572943E+02 -0.10014500104E+01  0.14051505957E+02  0.51100000000E-03 0.  1.
         12    1    3    3    0    0 -0.49295584674E+01 -0.70665449162E+01  0.37439768507E+01  0.93943582216E+01  0.00000000000E+00 0. -1.
</event>
<event>
 7    1  0.7470072E-010  0.4778727E+02  0.7816164E-02  0.1312668E+00
        -11   -1    0    0    0    0  0.00000000000E+00  0.00000000000E+00  0.45593999997E+02  0.45594000000E+02  0.51100000000E-03 0. -1.
         11   -1    0    0    0    0 -0.00000000000E+00 -0.00000000000E+00 -0.45593999997E+02  0.45594000000E+02  0.51100000000E-03 0.  1.
    9900012    2    1    2    0    0  0.11000780524E+02  0.38050217649E+02 -0.17742230223E+02  0.47787274562E+02  0.20000016037E+02 0.  0.
         12    1    1    2    0    0 -0.11000780524E+02 -0.38050217649E+02  0.17742230223E+02  0.43400725438E+02  0.00000000000E+00 0. -1.
         11    1    3    3    0    0  0.85864767036E+01  0.87593844464E+01 -0.60847619075E+01  0.13692287091E+02  0.51100000000E-03 0. -1.
        -11    1    3    3    0    0 -0.27170894269E+01  0.61546226791E+00 -0.20397540067E+00  0.27933805652E+01  0.51100000000E-03 0.  1.
        -12    1    3    3    0    0  0.51313932472E+01  0.28675370934E+02 -0.11453492915E+02  0.31301606905E+02  0.00000000000E+00 0.  1.
</event>
<event>
 7    1  0.7470072E-010  0.4778726E+02  0.7816164E-02  0.1312668E+00
        -11   -1    0    0    0    0  0.00000000000E+00  0.00000000000E+00  0.45593999997E+02  0.45594000000E+02  0.51100000000E-03 0. -1.
         11   -1    0    0    0    0 -0.00000000000E+00 -0.00000000000E+00 -0.45593999997E+02  0.45594000000E+02  0.51100000000E-03 0.  1.
    9900012    2    1    2    0    0 -0.34221912138E+02  0.68247481475E+01 -0.25805182189E+02  0.47787263999E+02  0.19999967875E+02 0.  0.
         12    1    1    2    0    0  0.34221912138E+02 -0.68247481475E+01  0.25805182189E+02  0.43400736001E+02  0.00000000000E+00 0. -1.
         11    1    3    3    0    0 -0.64518841460E+00 -0.26410108611E+00 -0.79571575196E+01  0.79876387954E+01  0.51100000000E-03 0. -1.
        -11    1    3    3    0    0 -0.34188094959E+02  0.70524211769E+01 -0.17802847364E+02  0.39185505687E+02  0.51100000000E-03 0.  1.
        -12    1    3    3    0    0  0.61137123595E+00  0.36428056664E-01 -0.45177305571E-01  0.61411951638E+00  0.00000000000E+00 0.  1.
</event>
<event>
 7    1  0.7470072E-010  0.4778727E+02  0.7816164E-02  0.1312668E+00
        -11   -1    0    0    0    0  0.00000000000E+00  0.00000000000E+00  0.45593999997E+02  0.45594000000E+02  0.51100000000E-03 0. -1.
         11   -1    0    0    0    0 -0.00000000000E+00 -0.00000000000E+00 -0.45593999997E+02  0.45594000000E+02  0.51100000000E-03 0.  1.
    9900012    2    1    2    0    0  0.80889634629E+01 -0.77540236042E+01 -0.41929308120E+02  0.47787273147E+02  0.20000009586E+02 0.  0.
         12    1    1    2    0    0 -0.80889634629E+01  0.77540236042E+01  0.41929308120E+02  0.43400726853E+02  0.00000000000E+00 0. -1.
         11    1    3    3    0    0  0.10719415580E+02 -0.17591795113E+01 -0.11754077553E+02  0.16004965552E+02  0.51100000000E-03 0. -1.
        -11    1    3    3    0    0 -0.41244349257E+01 -0.48950764625E+01 -0.12829642219E+02  0.14337798184E+02  0.51100000000E-03 0.  1.
        -12    1    3    3    0    0  0.14939828086E+01 -0.10997676304E+01 -0.17345588348E+02  0.17444509411E+02  0.00000000000E+00 0.  1.
</event>
<event>
 7    1  0.7470072E-010  0.4778727E+02  0.7816164E-02  0.1312668E+00
        -11   -1    0    0    0    0  0.00000000000E+00  0.00000000000E+00  0.45593999997E+02  0.45594000000E+02  0.51100000000E-03 0. -1.
         11   -1    0    0    0    0 -0.00000000000E+00 -0.00000000000E+00 -0.45593999997E+02  0.45594000000E+02  0.51100000000E-03 0.  1.
    9900012    2    1    2    0    0  0.22865266184E+02 -0.56959247887E+01 -0.36446665503E+02  0.47787269786E+02  0.19999994261E+02 0.  0.
         12    1    1    2    0    0 -0.22865266184E+02  0.56959247887E+01  0.36446665503E+02  0.43400730214E+02  0.00000000000E+00 0. -1.
         11    1    3    3    0    0  0.22597743015E+01  0.54964156583E+01 -0.10817451712E+02  0.12342383351E+02  0.51100000000E-03 0. -1.
        -11    1    3    3    0    0  0.62583161604E+01 -0.40449636133E+00 -0.90423559307E+01  0.11004287324E+02  0.51100000000E-03 0.  1.
         12    1    3    3    0    0  0.14347175722E+02 -0.10787844086E+02 -0.16586857860E+02  0.24440599110E+02  0.00000000000E+00 0. -1.
</event>
<event>
 7    1  0.7470072E-010  0.4778727E+02  0.7816164E-02  0.1312668E+00
        -11   -1    0    0    0    0  0.00000000000E+00  0.00000000000E+00  0.45593999997E+02  0.45594000000E+02  0.51100000000E-03 0.  1.
         11   -1    0    0    0    0 -0.00000000000E+00 -0.00000000000E+00 -0.45593999997E+02  0.45594000000E+02  0.51100000000E-03 0. -1.
    9900012    2    1    2    0    0  0.42642283195E+02  0.18704652122E+01  0.78587702209E+01  0.47787271601E+02  0.20000002539E+02 0.  0.
        -12    1    1    2    0    0 -0.42642283195E+02 -0.18704652122E+01 -0.78587702209E+01  0.43400728399E+02  0.00000000000E+00 0.  1.
         11    1    3    3    0    0  0.22850747752E+02  0.84503566158E+01  0.26662464588E+01  0.24508652966E+02  0.51100000000E-03 0. -1.
        -11    1    3    3    0    0  0.12193996675E+02 -0.20768623813E+01  0.70728274039E+01  0.14248922767E+02  0.51100000000E-03 0.  1.
         12    1    3    3    0    0  0.75975387674E+01 -0.45030290223E+01 -0.18803036418E+01  0.90296958688E+01  0.00000000000E+00 0. -1.
</event>
<event>
 7    1  0.7470072E-010  0.4778727E+02  0.7816164E-02  0.1312668E+00
        -11   -1    0    0    0    0  0.00000000000E+00  0.00000000000E+00  0.45593999997E+02  0.45594000000E+02  0.51100000000E-03 0. -1.
         11   -1    0    0    0    0 -0.00000000000E+00 -0.00000000000E+00 -0.45593999997E+02  0.45594000000E+02  0.51100000000E-03 0.  1.
    9900012    2    1    2    0    0 -0.86273176807E+01  0.21464829186E+02 -0.36721299099E+02  0.47787270630E+02  0.19999998109E+02 0.  0.
         12    1    1    2    0    0  0.86273176807E+01 -0.21464829186E+02  0.36721299099E+02  0.43400729370E+02  0.00000000000E+00 0. -1.
         11    1    3    3    0    0 -0.17893577651E+00  0.51899453311E+01 -0.87438029971E+01  0.10169643143E+02  0.51100000000E-03 0. -1.
        -11    1    3    3    0    0 -0.94011071376E+01  0.10043090916E+02 -0.28127816776E+02  0.31311636294E+02  0.51100000000E-03 0.  1.
        -12    1    3    3    0    0  0.95272523335E+00  0.62317929393E+01  0.15032067471E+00  0.63059911920E+01  0.00000000000E+00 0.  1.
</event>
<event>
 7    1  0.7470072E-010  0.4778722E+02  0.7816164E-02  0.1312668E+00
        -11   -1    0    0    0    0  0.00000000000E+00  0.00000000000E+00  0.45593999997E+02  0.45594000000E+02  0.51100000000E-03 0. -1.
         11   -1    0    0    0    0 -0.00000000000E+00 -0.00000000000E+00 -0.45593999997E+02  0.45594000000E+02  0.51100000000E-03 0.  1.
    9900012    2    1    2    0    0 -0.13666710444E+02 -0.33233799221E+02 -0.24338512267E+02  0.47787221615E+02  0.19999774630E+02 0.  0.
         12    1    1    2    0    0  0.13666710444E+02  0.33233799221E+02  0.24338512267E+02  0.43400778385E+02  0.00000000000E+00 0. -1.
         11    1    3    3    0    0  0.35584524946E+01 -0.12428051125E+02 -0.48068483590E+01  0.13792201795E+02  0.51100000000E-03 0. -1.
        -11    1    3    3    0    0 -0.15267140952E+02 -0.17621498466E+02 -0.13623889164E+02  0.27003947068E+02  0.51100000000E-03 0.  1.
        -12    1    3    3    0    0 -0.19580219875E+01 -0.31842496298E+01 -0.59077747441E+01  0.69910727528E+01  0.00000000000E+00 0.  1.
</event>
<event>
 7    1  0.7470072E-010  0.4778726E+02  0.7816164E-02  0.1312668E+00
        -11   -1    0    0    0    0  0.00000000000E+00  0.00000000000E+00  0.45593999997E+02  0.45594000000E+02  0.51100000000E-03 0. -1.
         11   -1    0    0    0    0 -0.00000000000E+00 -0.00000000000E+00 -0.45593999997E+02  0.45594000000E+02  0.51100000000E-03 0.  1.
    9900012    2    1    2    0    0 -0.56117138534E+01 -0.21864899879E+02  0.37068303763E+02  0.47787258959E+02  0.19999944896E+02 0.  0.
        -12    1    1    2    0    0  0.56117138534E+01  0.21864899879E+02 -0.37068303763E+02  0.43400741041E+02  0.00000000000E+00 0.  1.
         11    1    3    3    0    0 -0.87158774104E+01 -0.10102960524E+02  0.26405536362E+02  0.29585278117E+02  0.51100000000E-03 0. -1.
        -11    1    3    3    0    0  0.41444059760E+01 -0.73614711084E+01  0.10758875897E+02  0.13679209356E+02  0.51100000000E-03 0.  1.
        -12    1    3    3    0    0 -0.10402424189E+01 -0.44004682461E+01 -0.96108496441E-01  0.45227714864E+01  0.00000000000E+00 0.  1.
</event>
<event>
 7    1  0.7470072E-010  0.4778727E+02  0.7816164E-02  0.1312668E+00
        -11   -1    0    0    0    0  0.00000000000E+00  0.00000000000E+00  0.45593999997E+02  0.45594000000E+02  0.51100000000E-03 0. -1.
         11   -1    0    0    0    0 -0.00000000000E+00 -0.00000000000E+00 -0.45593999997E+02  0.45594000000E+02  0.51100000000E-03 0.  1.
    9900012    2    1    2    0    0  0.96745035896E+01 -0.24678516180E+02  0.34365659409E+02  0.47787265822E+02  0.19999976190E+02 0.  0.
        -12    1    1    2    0    0 -0.96745035896E+01  0.24678516180E+02 -0.34365659409E+02  0.43400734178E+02  0.00000000000E+00 0.  1.
         11    1    3    3    0    0  0.71678836837E+01 -0.18616116403E+02  0.13126063993E+02  0.23879528945E+02  0.51100000000E-03 0. -1.
        -11    1    3    3    0    0 -0.93635083573E+00 -0.53645134820E+01  0.18944112915E+02  0.19711270182E+02  0.51100000000E-03 0.  1.
         12    1    3    3    0    0  0.34429707416E+01 -0.69788629458E+00  0.22954825014E+01  0.41964666950E+01  0.00000000000E+00 0. -1.
</event>
<event>
 7    1  0.7470072E-010  0.4778727E+02  0.7816164E-02  0.1312668E+00
        -11   -1    0    0    0    0  0.00000000000E+00  0.00000000000E+00  0.45593999997E+02  0.45594000000E+02  0.51100000000E-03 0. -1.
         11   -1    0    0    0    0 -0.00000000000E+00 -0.00000000000E+00 -0.45593999997E+02  0.45594000000E+02  0.51100000000E-03 0.  1.
    9900012    2    1    2    0    0  0.93640086608E+01 -0.33598203557E+02 -0.25828270043E+02  0.47787268740E+02  0.19999989495E+02 0.  0.
         12    1    1    2    0    0 -0.93640086608E+01  0.33598203557E+02  0.25828270043E+02  0.43400731260E+02  0.00000000000E+00 0. -1.
         11    1    3    3    0    0  0.43815733150E+01 -0.57851532707E+01 -0.14824625073E+02  0.16505626068E+02  0.51100000000E-03 0.  1.
        -11    1    3    3    0    0 -0.13079492498E+01 -0.11033807095E+01 -0.13943830330E+01  0.22073705022E+01  0.51100000000E-03 0. -1.
         12    1    3    3    0    0  0.62903845957E+01 -0.26709669577E+02 -0.96092619374E+01  0.29074272170E+02  0.00000000000E+00 0. -1.
</event>
<event>
 7    1  0.7470072E-010  0.4778727E+02  0.7816164E-02  0.1312668E+00
        -11   -1    0    0    0    0  0.00000000000E+00  0.00000000000E+00  0.45593999997E+02  0.45594000000E+02  0.51100000000E-03 0. -1.
         11   -1    0    0    0    0 -0.00000000000E+00 -0.00000000000E+00 -0.45593999997E+02  0.45594000000E+02  0.51100000000E-03 0.  1.
    9900012    2    1    2    0    0  0.17814592606E+02  0.21144388941E+02  0.33454121871E+02  0.47787272315E+02  0.20000005794E+02 0.  0.
        -12    1    1    2    0    0 -0.17814592606E+02 -0.21144388941E+02 -0.33454121871E+02  0.43400727685E+02  0.00000000000E+00 0.  1.
         11    1    3    3    0    0  0.17634631464E+02  0.13523477209E+02  0.18765050183E+02  0.29085937691E+02  0.51100000000E-03 0. -1.
        -11    1    3    3    0    0  0.14608497145E+01  0.57278148447E+01  0.15243360122E+02  0.16349372247E+02  0.51100000000E-03 0.  1.
        -12    1    3    3    0    0 -0.12808885725E+01  0.18930968866E+01 -0.55428843446E+00  0.23519623776E+01  0.00000000000E+00 0.  1.
</event>
<event>
 7    1  0.7470072E-010  0.4778727E+02  0.7816164E-02  0.1312668E+00
        -11   -1    0    0    0    0  0.00000000000E+00  0.00000000000E+00  0.45593999997E+02  0.45594000000E+02  0.51100000000E-03 0. -1.
         11   -1    0    0    0    0 -0.00000000000E+00 -0.00000000000E+00 -0.45593999997E+02  0.45594000000E+02  0.51100000000E-03 0.  1.
    9900012    2    1    2    0    0 -0.40127719397E+02 -0.32450138272E+01  0.16212929235E+02  0.47787273588E+02  0.20000011598E+02 0.  0.
        -12    1    1    2    0    0  0.40127719397E+02  0.32450138272E+01 -0.16212929235E+02  0.43400726412E+02  0.00000000000E+00 0.  1.
         11    1    3    3    0    0 -0.18653869531E+02 -0.47604212873E+01  0.13697168847E+02  0.23627122000E+02  0.51100000000E-03 0. -1.
        -11    1    3    3    0    0 -0.74994942972E+01 -0.11363196894E+01 -0.39315114500E+01  0.85434430818E+01  0.51100000000E-03 0.  1.
         12    1    3    3    0    0 -0.13974355568E+02  0.26517271495E+01  0.64472718381E+01  0.15616708507E+02  0.00000000000E+00 0. -1.
</event>
<event>
 7    1  0.7470072E-010  0.4778727E+02  0.7816164E-02  0.1312668E+00
        -11   -1    0    0    0    0  0.00000000000E+00  0.00000000000E+00  0.45593999997E+02  0.45594000000E+02  0.51100000000E-03 0. -1.
         11   -1    0    0    0    0 -0.00000000000E+00 -0.00000000000E+00 -0.45593999997E+02  0.45594000000E+02  0.51100000000E-03 0.  1.
    9900012    2    1    2    0    0  0.23454449158E+01  0.33946810482E+02 -0.26939490662E+02  0.47787271770E+02  0.20000003308E+02 0.  0.
         12    1    1    2    0    0 -0.23454449158E+01 -0.33946810482E+02  0.26939490662E+02  0.43400728230E+02  0.00000000000E+00 0. -1.
         11    1    3    3    0    0 -0.62055424444E+01  0.99815383436E+01 -0.48770592930E+01  0.12724997931E+02  0.51100000000E-03 0. -1.
        -11    1    3    3    0    0  0.82645081521E+01  0.15820085529E+02 -0.19685608280E+02  0.26572549271E+02  0.51100000000E-03 0.  1.
        -12    1    3    3    0    0  0.28647920811E+00  0.81451866094E+01 -0.23768230886E+01  0.84897245676E+01  0.00000000000E+00 0.  1.
</event>
<event>
 7    1  0.7470072E-010  0.4778727E+02  0.7816164E-02  0.1312668E+00
        -11   -1    0    0    0    0  0.00000000000E+00  0.00000000000E+00  0.45593999997E+02  0.45594000000E+02  0.51100000000E-03 0. -1.
         11   -1    0    0    0    0 -0.00000000000E+00 -0.00000000000E+00 -0.45593999997E+02  0.45594000000E+02  0.51100000000E-03 0.  1.
    9900012    2    1    2    0    0 -0.17177285243E+02  0.36291115468E+02 -0.16477828310E+02  0.47787274015E+02  0.20000013544E+02 0.  0.
         12    1    1    2    0    0  0.17177285243E+02 -0.36291115468E+02  0.16477828310E+02  0.43400725985E+02  0.00000000000E+00 0. -1.
         11    1    3    3    0    0 -0.33782973672E+01  0.72534210489E+01  0.10994933597E+01  0.80767503318E+01  0.51100000000E-03 0. -1.
        -11    1    3    3    0    0 -0.67774899168E+01  0.27483184859E+02 -0.15242093087E+02  0.32149358026E+02  0.51100000000E-03 0.  1.
        -12    1    3    3    0    0 -0.70214979586E+01  0.15545095596E+01 -0.23352285834E+01  0.75611656569E+01  0.00000000000E+00 0.  1.
</event>
<event>
 7    1  0.7470072E-010  0.4778727E+02  0.7816164E-02  0.1312668E+00
        -11   -1    0    0    0    0  0.00000000000E+00  0.00000000000E+00  0.45593999997E+02  0.45594000000E+02  0.51100000000E-03 0.  1.
         11   -1    0    0    0    0 -0.00000000000E+00 -0.00000000000E+00 -0.45593999997E+02  0.45594000000E+02  0.51100000000E-03 0. -1.
    9900012    2    1    2    0    0 -0.18007832135E+02 -0.36890832795E+02  0.14085742395E+02  0.47787266120E+02  0.19999977549E+02 0.  0.
        -12    1    1    2    0    0  0.18007832135E+02  0.36890832795E+02 -0.14085742395E+02  0.43400733880E+02  0.00000000000E+00 0.  1.
         11    1    3    3    0    0 -0.20834104958E+01 -0.17461329521E+01 -0.49321179183E-01  0.27188255590E+01  0.51100000000E-03 0. -1.
        -11    1    3    3    0    0 -0.13646031082E+02 -0.12231303467E+02  0.55069887303E+00  0.18333636255E+02  0.51100000000E-03 0.  1.
        -12    1    3    3    0    0 -0.22783905569E+01 -0.22913396375E+02  0.13584364701E+02  0.26734804307E+02  0.00000000000E+00 0.  1.
</event>
<event>
 7    1  0.1316772E-009  0.4778727E+02  0.7816164E-02  0.1312668E+00
        -11   -1    0    0    0    0  0.00000000000E+00  0.00000000000E+00  0.45593999997E+02  0.45594000000E+02  0.51100000000E-03 0. -1.
         11   -1    0    0    0    0 -0.00000000000E+00 -0.00000000000E+00 -0.45593999997E+02  0.45594000000E+02  0.51100000000E-03 0.  1.
    9900012    2    1    2    0    0  0.28959321171E+01  0.23506598787E+02  0.36368623094E+02  0.47787270109E+02  0.19999995733E+02 0.  0.
        -12    1    1    2    0    0 -0.28959321171E+01 -0.23506598787E+02 -0.36368623094E+02  0.43400729891E+02  0.00000000000E+00 0.  1.
         11    1    3    3    0    0 -0.12249824548E+00  0.12655092377E+02  0.19662625781E+02  0.23383439049E+02  0.51100000000E-03 0. -1.
        -11    1    3    3    0    0  0.45583525771E+01  0.10283592251E+02  0.45442320738E+01  0.12131813269E+02  0.51100000000E-03 0.  1.
        -12    1    3    3    0    0 -0.15399222145E+01  0.56791415966E+00  0.12161765239E+02  0.12272017790E+02  0.00000000000E+00 0.  1.
</event>
<event>
 7    1  0.7470072E-010  0.4778727E+02  0.7816164E-02  0.1312668E+00
        -11   -1    0    0    0    0  0.00000000000E+00  0.00000000000E+00  0.45593999997E+02  0.45594000000E+02  0.51100000000E-03 0. -1.
         11   -1    0    0    0    0 -0.00000000000E+00 -0.00000000000E+00 -0.45593999997E+02  0.45594000000E+02  0.51100000000E-03 0.  1.
    9900012    2    1    2    0    0  0.28052673952E+02  0.29273553651E+02 -0.15483207624E+02  0.47787272155E+02  0.20000005061E+02 0.  0.
         12    1    1    2    0    0 -0.28052673952E+02 -0.29273553651E+02  0.15483207624E+02  0.43400727845E+02  0.00000000000E+00 0. -1.
         11    1    3    3    0    0  0.76666554177E+01  0.15093810910E+01 -0.53592719402E+00  0.78321807174E+01  0.51100000000E-03 0. -1.
        -11    1    3    3    0    0  0.10168158533E+02  0.23853890391E+02 -0.12294063930E+02  0.28697448370E+02  0.51100000000E-03 0.  1.
        -12    1    3    3    0    0  0.10217860001E+02  0.39102821686E+01 -0.26532164995E+01  0.11257643068E+02  0.00000000000E+00 0.  1.
</event>
<event>
 7    1  0.7470072E-010  0.4778725E+02  0.7816164E-02  0.1312668E+00
        -11   -1    0    0    0    0  0.00000000000E+00  0.00000000000E+00  0.45593999997E+02  0.45594000000E+02  0.51100000000E-03 0. -1.
         11   -1    0    0    0    0 -0.00000000000E+00 -0.00000000000E+00 -0.45593999997E+02  0.45594000000E+02  0.51100000000E-03 0.  1.
    9900012    2    1    2    0    0 -0.27268707174E+02  0.88151323799E-01 -0.33764402813E+02  0.47787250479E+02  0.19999906235E+02 0.  0.
         12    1    1    2    0    0  0.27268707174E+02 -0.88151323799E-01  0.33764402813E+02  0.43400749521E+02  0.00000000000E+00 0. -1.
         11    1    3    3    0    0 -0.70730670590E+01  0.47445983540E+01 -0.27391299478E+01  0.89466375971E+01  0.51100000000E-03 0. -1.
        -11    1    3    3    0    0 -0.79603437955E+01 -0.69668812819E+01 -0.17563711825E+02  0.20503377319E+02  0.51100000000E-03 0.  1.
        -12    1    3    3    0    0 -0.12235296320E+02  0.23104342517E+01 -0.13461561040E+02  0.18337235564E+02  0.00000000000E+00 0.  1.
</event>
<event>
 7    1  0.7470072E-010  0.4778727E+02  0.7816164E-02  0.1312668E+00
        -11   -1    0    0    0    0  0.00000000000E+00  0.00000000000E+00  0.45593999997E+02  0.45594000000E+02  0.51100000000E-03 0. -1.
         11   -1    0    0    0    0 -0.00000000000E+00 -0.00000000000E+00 -0.45593999997E+02  0.45594000000E+02  0.51100000000E-03 0.  1.
    9900012    2    1    2    0    0 -0.28191239358E+02  0.12212651518E+02 -0.30654990162E+02  0.47787271257E+02  0.20000000968E+02 0.  0.
         12    1    1    2    0    0  0.28191239358E+02 -0.12212651518E+02  0.30654990162E+02  0.43400728743E+02  0.00000000000E+00 0. -1.
         11    1    3    3    0    0 -0.52335017452E+01  0.11622032260E+01 -0.55425947924E+01  0.77110708821E+01  0.51100000000E-03 0. -1.
        -11    1    3    3    0    0 -0.26363866577E+01 -0.41848089997E+01 -0.81538032299E+01  0.95366486957E+01  0.51100000000E-03 0.  1.
        -12    1    3    3    0    0 -0.20321350955E+02  0.15235257292E+02 -0.16958592140E+02  0.30539551679E+02  0.00000000000E+00 0.  1.
</event>
<event>
 7    1  0.7470072E-010  0.4778726E+02  0.7816164E-02  0.1312668E+00
        -11   -1    0    0    0    0  0.00000000000E+00  0.00000000000E+00  0.45593999997E+02  0.45594000000E+02  0.51100000000E-03 0. -1.
         11   -1    0    0    0    0 -0.00000000000E+00 -0.00000000000E+00 -0.45593999997E+02  0.45594000000E+02  0.51100000000E-03 0.  1.
    9900012    2    1    2    0    0  0.30010296900E+02 -0.18511200744E+02  0.25304972904E+02  0.47787261219E+02  0.19999955204E+02 0.  0.
        -12    1    1    2    0    0 -0.30010296900E+02  0.18511200744E+02 -0.25304972904E+02  0.43400738781E+02  0.00000000000E+00 0.  1.
         11    1    3    3    0    0  0.25228983102E+02 -0.96128140651E+01  0.14613585574E+02  0.30699587395E+02  0.51100000000E-03 0.  1.
        -11    1    3    3    0    0  0.35914273196E+01 -0.10510844641E+02  0.78117833112E+01  0.13579402197E+02  0.51100000000E-03 0. -1.
        -12    1    3    3    0    0  0.11898864784E+01  0.16124579619E+01  0.28796040192E+01  0.35082716283E+01  0.00000000000E+00 0.  1.
</event>
<event>
 7    1  0.7470072E-010  0.4778727E+02  0.7816164E-02  0.1312668E+00
        -11   -1    0    0    0    0  0.00000000000E+00  0.00000000000E+00  0.45593999997E+02  0.45594000000E+02  0.51100000000E-03 0. -1.
         11   -1    0    0    0    0 -0.00000000000E+00 -0.00000000000E+00 -0.45593999997E+02  0.45594000000E+02  0.51100000000E-03 0.  1.
    9900012    2    1    2    0    0  0.12099932151E+02 -0.21684207171E+02  0.35595084790E+02  0.47787271206E+02  0.20000000736E+02 0.  0.
        -12    1    1    2    0    0 -0.12099932151E+02  0.21684207171E+02 -0.35595084790E+02  0.43400728794E+02  0.00000000000E+00 0.  1.
         11    1    3    3    0    0  0.41857230145E+01 -0.12429383697E+02  0.16969334681E+02  0.21446868676E+02  0.51100000000E-03 0. -1.
        -11    1    3    3    0    0 -0.34445493644E+00  0.53269282635E+00  0.11821898325E+02  0.11838905824E+02  0.51100000000E-03 0.  1.
        -12    1    3    3    0    0  0.82586640731E+01 -0.97875163006E+01  0.68038517841E+01  0.14501496706E+02  0.00000000000E+00 0.  1.
</event>
<event>
 7    1  0.7470072E-010  0.4778727E+02  0.7816164E-02  0.1312668E+00
        -11   -1    0    0    0    0  0.00000000000E+00  0.00000000000E+00  0.45593999997E+02  0.45594000000E+02  0.51100000000E-03 0. -1.
         11   -1    0    0    0    0 -0.00000000000E+00 -0.00000000000E+00 -0.45593999997E+02  0.45594000000E+02  0.51100000000E-03 0.  1.
    9900012    2    1    2    0    0  0.21735290407E+02 -0.91566218299E+01  0.36432906425E+02  0.47787271400E+02  0.20000001623E+02 0.  0.
        -12    1    1    2    0    0 -0.21735290407E+02  0.91566218299E+01 -0.36432906425E+02  0.43400728600E+02  0.00000000000E+00 0.  1.
         11    1    3    3    0    0  0.16329256208E+02 -0.40754827415E+01  0.31304733393E+02  0.35542094774E+02  0.51100000000E-03 0. -1.
        -11    1    3    3    0    0  0.55786424301E+01 -0.29287220659E+01 -0.39685795101E+00  0.63131735915E+01  0.51100000000E-03 0.  1.
         12    1    3    3    0    0 -0.17260823106E+00 -0.21524170225E+01  0.55250309827E+01  0.59320030344E+01  0.00000000000E+00 0. -1.
</event>
<event>
 7    1  0.7470072E-010  0.4778727E+02  0.7816164E-02  0.1312668E+00
        -11   -1    0    0    0    0  0.00000000000E+00  0.00000000000E+00  0.45593999997E+02  0.45594000000E+02  0.51100000000E-03 0. -1.
         11   -1    0    0    0    0 -0.00000000000E+00 -0.00000000000E+00 -0.45593999997E+02  0.45594000000E+02  0.51100000000E-03 0.  1.
    9900012    2    1    2    0    0  0.27579670749E+02 -0.51864512477E+01  0.33107183983E+02  0.47787272513E+02  0.20000006695E+02 0.  0.
        -12    1    1    2    0    0 -0.27579670749E+02  0.51864512477E+01 -0.33107183983E+02  0.43400727487E+02  0.00000000000E+00 0.  1.
         11    1    3    3    0    0  0.24550254773E+02 -0.25519359023E+01  0.29715777749E+02  0.38629714389E+02  0.51100000000E-03 0. -1.
        -11    1    3    3    0    0 -0.24626271948E+01 -0.10076333356E+01  0.18006926933E+01  0.32128417447E+01  0.51100000000E-03 0.  1.
        -12    1    3    3    0    0  0.54920431709E+01 -0.16268820098E+01  0.15907135400E+01  0.59447163794E+01  0.00000000000E+00 0.  1.
</event>
<event>
 7    1  0.7470072E-010  0.4778728E+02  0.7816164E-02  0.1312668E+00
        -11   -1    0    0    0    0  0.00000000000E+00  0.00000000000E+00  0.45593999997E+02  0.45594000000E+02  0.51100000000E-03 0. -1.
         11   -1    0    0    0    0 -0.00000000000E+00 -0.00000000000E+00 -0.45593999997E+02  0.45594000000E+02  0.51100000000E-03 0.  1.
    9900012    2    1    2    0    0 -0.17331218469E+02 -0.32950464726E+02 -0.22305111370E+02  0.47787282811E+02  0.20000053650E+02 0.  0.
         12    1    1    2    0    0  0.17331218469E+02  0.32950464726E+02  0.22305111370E+02  0.43400717189E+02  0.00000000000E+00 0. -1.
         11    1    3    3    0    0 -0.40277649594E+01 -0.17638459900E+02 -0.17668959304E+02  0.25288935948E+02  0.51100000000E-03 0. -1.
        -11    1    3    3    0    0 -0.11991192138E+02 -0.85812811216E+01 -0.51568688395E+01  0.15621151400E+02  0.51100000000E-03 0.  1.
        -12    1    3    3    0    0 -0.13122613720E+01 -0.67307237039E+01  0.52071677346E+00  0.68771954636E+01  0.00000000000E+00 0.  1.
</event>
<event>
 7    1  0.7470072E-010  0.4778727E+02  0.7816164E-02  0.1312668E+00
        -11   -1    0    0    0    0  0.00000000000E+00  0.00000000000E+00  0.45593999997E+02  0.45594000000E+02  0.51100000000E-03 0.  1.
         11   -1    0    0    0    0 -0.00000000000E+00 -0.00000000000E+00 -0.45593999997E+02  0.45594000000E+02  0.51100000000E-03 0. -1.
    9900012    2    1    2    0    0  0.24445711211E+02 -0.31630612755E+02 -0.16897775391E+02  0.47787271054E+02  0.20000000044E+02 0.  0.
        -12    1    1    2    0    0 -0.24445711211E+02  0.31630612755E+02  0.16897775391E+02  0.43400728946E+02  0.00000000000E+00 0.  1.
         11    1    3    3    0    0  0.41328675001E+01 -0.44545064992E+01 -0.17774469022E+01  0.63310772919E+01  0.51100000000E-03 0. -1.
        -11    1    3    3    0    0  0.14956812888E+02 -0.11415879685E+02  0.22444108374E+00  0.18816985274E+02  0.51100000000E-03 0.  1.
        -12    1    3    3    0    0  0.53560308236E+01 -0.15760226571E+02 -0.15344769573E+02  0.22639208488E+02  0.00000000000E+00 0.  1.
</event>
<event>
 7    1  0.7470072E-010  0.4778727E+02  0.7816164E-02  0.1312668E+00
        -11   -1    0    0    0    0  0.00000000000E+00  0.00000000000E+00  0.45593999997E+02  0.45594000000E+02  0.51100000000E-03 0. -1.
         11   -1    0    0    0    0 -0.00000000000E+00 -0.00000000000E+00 -0.45593999997E+02  0.45594000000E+02  0.51100000000E-03 0.  1.
    9900012    2    1    2    0    0  0.57199334959E+01 -0.19422209291E+02 -0.38388581337E+02  0.47787273854E+02  0.20000012809E+02 0.  0.
         12    1    1    2    0    0 -0.57199334959E+01  0.19422209291E+02  0.38388581337E+02  0.43400726146E+02  0.00000000000E+00 0. -1.
         11    1    3    3    0    0  0.98063883153E+01 -0.13167683725E+02 -0.21369934885E+02  0.26948604114E+02  0.51100000000E-03 0. -1.
        -11    1    3    3    0    0 -0.13059147613E+01  0.23674240239E+01 -0.59491400365E+01  0.65347056023E+01  0.51100000000E-03 0.  1.
        -12    1    3    3    0    0 -0.27805400581E+01 -0.86219495900E+01 -0.11069506416E+02  0.14303964137E+02  0.00000000000E+00 0.  1.
</event>
<event>
 7    1  0.1319021E-009  0.4778727E+02  0.7816164E-02  0.1312668E+00
        -11   -1    0    0    0    0  0.00000000000E+00  0.00000000000E+00  0.45593999997E+02  0.45594000000E+02  0.51100000000E-03 0. -1.
         11   -1    0    0    0    0 -0.00000000000E+00 -0.00000000000E+00 -0.45593999997E+02  0.45594000000E+02  0.51100000000E-03 0.  1.
    9900012    2    1    2    0    0 -0.23683639790E+02  0.85569496207E+01  0.35348084645E+02  0.47787271105E+02  0.20000000276E+02 0.  0.
        -12    1    1    2    0    0  0.23683639790E+02 -0.85569496207E+01 -0.35348084645E+02  0.43400728895E+02  0.00000000000E+00 0.  1.
         11    1    3    3    0    0 -0.12210461092E+02  0.83415026467E+01  0.28232834200E+02  0.31871130412E+02  0.51100000000E-03 0. -1.
        -11    1    3    3    0    0  0.40820571517E+00 -0.62282420232E+00 -0.11841980167E+01  0.13988806586E+01  0.51100000000E-03 0.  1.
         12    1    3    3    0    0 -0.11881384413E+02  0.83827117635E+00  0.82994484615E+01  0.14517260035E+02  0.00000000000E+00 0. -1.
</event>
<event>
 7    1  0.7470072E-010  0.4778727E+02  0.7816164E-02  0.1312668E+00
        -11   -1    0    0    0    0  0.00000000000E+00  0.00000000000E+00  0.45593999997E+02  0.45594000000E+02  0.51100000000E-03 0. -1.
         11   -1    0    0    0    0 -0.00000000000E+00 -0.00000000000E+00 -0.45593999997E+02  0.45594000000E+02  0.51100000000E-03 0.  1.
    9900012    2    1    2    0    0 -0.34184110257E+02  0.19561014697E+02 -0.18232840479E+02  0.47787272333E+02  0.20000005876E+02 0.  0.
         12    1    1    2    0    0  0.34184110257E+02 -0.19561014697E+02  0.18232840479E+02  0.43400727667E+02  0.00000000000E+00 0. -1.
         11    1    3    3    0    0  0.17003741260E+01  0.34729014110E+01 -0.67860106483E+00  0.39259159498E+01  0.51100000000E-03 0. -1.
        -11    1    3    3    0    0 -0.22015256274E+02  0.11102487815E+02 -0.15121044327E+02  0.28923739840E+02  0.51100000000E-03 0.  1.
         12    1    3    3    0    0 -0.13869228109E+02  0.49856254712E+01 -0.24331950873E+01  0.14937616544E+02  0.00000000000E+00 0. -1.
</event>
<event>
 7    1  0.7470072E-010  0.4778727E+02  0.7816164E-02  0.1312668E+00
        -11   -1    0    0    0    0  0.00000000000E+00  0.00000000000E+00  0.45593999997E+02  0.45594000000E+02  0.51100000000E-03 0. -1.
         11   -1    0    0    0    0 -0.00000000000E+00 -0.00000000000E+00 -0.45593999997E+02  0.45594000000E+02  0.51100000000E-03 0.  1.
    9900012    2    1    2    0    0  0.24835735563E+01 -0.27756257471E+02 -0.33272292444E+02  0.47787269466E+02  0.19999992805E+02 0.  0.
         12    1    1    2    0    0 -0.24835735563E+01  0.27756257471E+02  0.33272292444E+02  0.43400730534E+02  0.00000000000E+00 0. -1.
         11    1    3    3    0    0  0.41696181174E+00 -0.33591202513E+01 -0.44155883861E+00  0.34135788381E+01  0.51100000000E-03 0. -1.
        -11    1    3    3    0    0  0.91446037818E+01 -0.15487342815E+02 -0.16093415267E+02  0.24134613753E+02  0.51100000000E-03 0.  1.
        -12    1    3    3    0    0 -0.70779920372E+01 -0.89097944049E+01 -0.16737318338E+02  0.20239076875E+02  0.00000000000E+00 0.  1.
</event>
<event>
 7    1  0.7470072E-010  0.4778727E+02  0.7816164E-02  0.1312668E+00
        -11   -1    0    0    0    0  0.00000000000E+00  0.00000000000E+00  0.45593999997E+02  0.45594000000E+02  0.51100000000E-03 0. -1.
         11   -1    0    0    0    0 -0.00000000000E+00 -0.00000000000E+00 -0.45593999997E+02  0.45594000000E+02  0.51100000000E-03 0.  1.
    9900012    2    1    2    0    0  0.16590548149E+02  0.66908582357E+01  0.39542502588E+02  0.47787269790E+02  0.19999994282E+02 0.  0.
        -12    1    1    2    0    0 -0.16590548149E+02 -0.66908582357E+01 -0.39542502588E+02  0.43400730210E+02  0.00000000000E+00 0.  1.
         11    1    3    3    0    0  0.17364501482E+02  0.18054517826E+01  0.26046772696E+02  0.31356338051E+02  0.51100000000E-03 0. -1.
        -11    1    3    3    0    0 -0.37693602093E+01  0.51280798495E+01  0.93512862575E+01  0.11311579654E+02  0.51100000000E-03 0.  1.
        -12    1    3    3    0    0  0.29954068767E+01 -0.24267339644E+00  0.41444436344E+01  0.51193520852E+01  0.00000000000E+00 0.  1.
</event>
<event>
 7    1  0.7470072E-010  0.4778727E+02  0.7816164E-02  0.1312668E+00
        -11   -1    0    0    0    0  0.00000000000E+00  0.00000000000E+00  0.45593999997E+02  0.45594000000E+02  0.51100000000E-03 0. -1.
         11   -1    0    0    0    0 -0.00000000000E+00 -0.00000000000E+00 -0.45593999997E+02  0.45594000000E+02  0.51100000000E-03 0.  1.
    9900012    2    1    2    0    0 -0.16857605029E+01  0.40943578289E+02 -0.14297036676E+02  0.47787266719E+02  0.19999980279E+02 0.  0.
         12    1    1    2    0    0  0.16857605029E+01 -0.40943578289E+02  0.14297036676E+02  0.43400733281E+02  0.00000000000E+00 0. -1.
         11    1    3    3    0    0 -0.35730453698E+01  0.15883100804E+01  0.28165574568E+01  0.48189602919E+01  0.51100000000E-03 0. -1.
        -11    1    3    3    0    0  0.49959303279E+00  0.53351211965E+01 -0.20656902898E+01  0.57428379756E+01  0.51100000000E-03 0.  1.
         12    1    3    3    0    0  0.13876918341E+01  0.34020147012E+02 -0.15047903843E+02  0.37225468452E+02  0.00000000000E+00 0. -1.
</event>
<event>
 7    1  0.7470072E-010  0.4778727E+02  0.7816164E-02  0.1312668E+00
        -11   -1    0    0    0    0  0.00000000000E+00  0.00000000000E+00  0.45593999997E+02  0.45594000000E+02  0.51100000000E-03 0. -1.
         11   -1    0    0    0    0 -0.00000000000E+00 -0.00000000000E+00 -0.45593999997E+02  0.45594000000E+02  0.51100000000E-03 0.  1.
    9900012    2    1    2    0    0  0.40435183859E+02  0.12286915746E+02 -0.98818388137E+01  0.47787272695E+02  0.20000007526E+02 0.  0.
         12    1    1    2    0    0 -0.40435183859E+02 -0.12286915746E+02  0.98818388137E+01  0.43400727305E+02  0.00000000000E+00 0. -1.
         11    1    3    3    0    0  0.76387666578E-01  0.48757996963E+01  0.16473510685E-01  0.48764258829E+01  0.51100000000E-03 0. -1.
        -11    1    3    3    0    0  0.28285605350E+02  0.68496004487E+01 -0.10149061794E+02  0.30822004346E+02  0.51100000000E-03 0.  1.
        -12    1    3    3    0    0  0.12073190842E+02  0.56151560050E+00  0.25074946963E+00  0.12088842466E+02  0.00000000000E+00 0.  1.
</event>
<event>
 7    1  0.7470072E-010  0.4778727E+02  0.7816164E-02  0.1312668E+00
        -11   -1    0    0    0    0  0.00000000000E+00  0.00000000000E+00  0.45593999997E+02  0.45594000000E+02  0.51100000000E-03 0.  1.
         11   -1    0    0    0    0 -0.00000000000E+00 -0.00000000000E+00 -0.45593999997E+02  0.45594000000E+02  0.51100000000E-03 0. -1.
    9900012    2    1    2    0    0  0.23616271771E+02 -0.27222356798E+02  0.24183430510E+02  0.47787270591E+02  0.19999997933E+02 0.  0.
        -12    1    1    2    0    0 -0.23616271771E+02  0.27222356798E+02 -0.24183430510E+02  0.43400729409E+02  0.00000000000E+00 0.  1.
         11    1    3    3    0    0  0.11548637467E+02 -0.23312904865E+02  0.23236304330E+02  0.34882494173E+02  0.51100000000E-03 0.  1.
        -11    1    3    3    0    0  0.78023364465E+01 -0.15151432826E+01  0.10171396099E+01  0.80129074896E+01  0.51100000000E-03 0. -1.
        -12    1    3    3    0    0  0.42652978581E+01 -0.23943086500E+01 -0.70013429298E-01  0.48918689281E+01  0.00000000000E+00 0.  1.
</event>
<event>
 7    1  0.7470072E-010  0.4778725E+02  0.7816164E-02  0.1312668E+00
        -11   -1    0    0    0    0  0.00000000000E+00  0.00000000000E+00  0.45593999997E+02  0.45594000000E+02  0.51100000000E-03 0. -1.
         11   -1    0    0    0    0 -0.00000000000E+00 -0.00000000000E+00 -0.45593999997E+02  0.45594000000E+02  0.51100000000E-03 0.  1.
    9900012    2    1    2    0    0 -0.24356990063E+02 -0.27977935654E+01 -0.35812485775E+02  0.47787254026E+02  0.19999922406E+02 0.  0.
         12    1    1    2    0    0  0.24356990063E+02  0.27977935654E+01  0.35812485775E+02  0.43400745974E+02  0.00000000000E+00 0. -1.
         11    1    3    3    0    0 -0.29980111767E+01 -0.40007491230E+01  0.64362373884E+00  0.50406662595E+01  0.51100000000E-03 0. -1.
        -11    1    3    3    0    0 -0.13588625226E+02  0.36821543877E+01 -0.21239086621E+02  0.25481518739E+02  0.51100000000E-03 0.  1.
         12    1    3    3    0    0 -0.77703536597E+01 -0.24791988301E+01 -0.15217022892E+02  0.17265069028E+02  0.00000000000E+00 0. -1.
</event>
<event>
 7    1  0.7470072E-010  0.4778727E+02  0.7816164E-02  0.1312668E+00
        -11   -1    0    0    0    0  0.00000000000E+00  0.00000000000E+00  0.45593999997E+02  0.45594000000E+02  0.51100000000E-03 0. -1.
         11   -1    0    0    0    0 -0.00000000000E+00 -0.00000000000E+00 -0.45593999997E+02  0.45594000000E+02  0.51100000000E-03 0.  1.
    9900012    2    1    2    0    0  0.28607037493E+02  0.17374744729E+02  0.27629310859E+02  0.47787272275E+02  0.20000005611E+02 0.  0.
        -12    1    1    2    0    0 -0.28607037493E+02 -0.17374744729E+02 -0.27629310859E+02  0.43400727725E+02  0.00000000000E+00 0.  1.
         11    1    3    3    0    0  0.16431032625E+02  0.80185888084E+01  0.25861612929E+02  0.31671748029E+02  0.51100000000E-03 0. -1.
        -11    1    3    3    0    0  0.33799375765E-01 -0.16471233704E+00  0.62073970203E+00  0.64311009211E+00  0.51100000000E-03 0.  1.
         12    1    3    3    0    0  0.12142205492E+02  0.95208682575E+01  0.11469582270E+01  0.15472414154E+02  0.00000000000E+00 0. -1.
</event>
<event>
 7    1  0.7470072E-010  0.4778725E+02  0.7816164E-02  0.1312668E+00
        -11   -1    0    0    0    0  0.00000000000E+00  0.00000000000E+00  0.45593999997E+02  0.45594000000E+02  0.51100000000E-03 0. -1.
         11   -1    0    0    0    0 -0.00000000000E+00 -0.00000000000E+00 -0.45593999997E+02  0.45594000000E+02  0.51100000000E-03 0.  1.
    9900012    2    1    2    0    0 -0.95440338512E+01  0.34176600606E+02  0.24989920915E+02  0.47787253941E+02  0.19999922019E+02 0.  0.
        -12    1    1    2    0    0  0.95440338512E+01 -0.34176600606E+02 -0.24989920915E+02  0.43400746059E+02  0.00000000000E+00 0.  1.
         11    1    3    3    0    0 -0.78340323916E+01  0.32940443326E+02  0.21597637559E+02  0.40160961373E+02  0.51100000000E-03 0. -1.
        -11    1    3    3    0    0 -0.80474787795E+00  0.10736758841E+01 -0.18603468705E+01  0.22937501587E+01  0.51100000000E-03 0.  1.
         12    1    3    3    0    0 -0.90525358162E+00  0.16248139596E+00  0.52526302262E+01  0.53325424091E+01  0.00000000000E+00 0. -1.
</event>
<event>
 7    1  0.7470072E-010  0.4778727E+02  0.7816164E-02  0.1312668E+00
        -11   -1    0    0    0    0  0.00000000000E+00  0.00000000000E+00  0.45593999997E+02  0.45594000000E+02  0.51100000000E-03 0. -1.
         11   -1    0    0    0    0 -0.00000000000E+00 -0.00000000000E+00 -0.45593999997E+02  0.45594000000E+02  0.51100000000E-03 0.  1.
    9900012    2    1    2    0    0  0.18935458624E+02 -0.31925680320E+02 -0.22490497192E+02  0.47787272804E+02  0.20000008022E+02 0.  0.
         12    1    1    2    0    0 -0.18935458624E+02  0.31925680320E+02  0.22490497192E+02  0.43400727196E+02  0.00000000000E+00 0. -1.
         11    1    3    3    0    0 -0.20926420166E+00  0.33622225649E+00  0.11653956465E+01  0.12308469384E+01  0.51100000000E-03 0. -1.
        -11    1    3    3    0    0  0.19740177218E+02 -0.31058115802E+02 -0.18423960219E+02  0.41154871695E+02  0.51100000000E-03 0.  1.
        -12    1    3    3    0    0 -0.59545439199E+00 -0.12037867748E+01 -0.52319326188E+01  0.54015541708E+01  0.00000000000E+00 0.  1.
</event>
<event>
 7    1  0.7470072E-010  0.4778724E+02  0.7816164E-02  0.1312668E+00
        -11   -1    0    0    0    0  0.00000000000E+00  0.00000000000E+00  0.45593999997E+02  0.45594000000E+02  0.51100000000E-03 0. -1.
         11   -1    0    0    0    0 -0.00000000000E+00 -0.00000000000E+00 -0.45593999997E+02  0.45594000000E+02  0.51100000000E-03 0.  1.
    9900012    2    1    2    0    0 -0.78758060752E+01  0.60706327531E+00 -0.42675859276E+02  0.47787241803E+02  0.19999866676E+02 0.  0.
         12    1    1    2    0    0  0.78758060752E+01 -0.60706327531E+00  0.42675859276E+02  0.43400758197E+02  0.00000000000E+00 0. -1.
         11    1    3    3    0    0 -0.93298147393E+01 -0.10389404281E+01 -0.20272188594E+02  0.22340243305E+02  0.51100000000E-03 0.  1.
        -11    1    3    3    0    0  0.82903883752E+00  0.58322120951E+01 -0.56336017802E+01  0.81510411970E+01  0.51100000000E-03 0. -1.
        -12    1    3    3    0    0  0.62496982655E+00 -0.41862083916E+01 -0.16770068902E+02  0.17295957301E+02  0.00000000000E+00 0.  1.
</event>
<event>
 7    1  0.7470072E-010  0.4778727E+02  0.7816164E-02  0.1312668E+00
        -11   -1    0    0    0    0  0.00000000000E+00  0.00000000000E+00  0.45593999997E+02  0.45594000000E+02  0.51100000000E-03 0. -1.
         11   -1    0    0    0    0 -0.00000000000E+00 -0.00000000000E+00 -0.45593999997E+02  0.45594000000E+02  0.51100000000E-03 0.  1.
    9900012    2    1    2    0    0 -0.25365650029E+02  0.20180666066E+02  0.28860836059E+02  0.47787270257E+02  0.19999996408E+02 0.  0.
        -12    1    1    2    0    0  0.25365650029E+02 -0.20180666066E+02 -0.28860836059E+02  0.43400729743E+02  0.00000000000E+00 0.  1.
         11    1    3    3    0    0 -0.12949783643E+02  0.48400400837E+01  0.77873189164E+01  0.15867111287E+02  0.51100000000E-03 0. -1.
        -11    1    3    3    0    0 -0.50577947898E+01  0.78018742485E+01  0.11311894689E+01  0.93664358110E+01  0.51100000000E-03 0.  1.
        -12    1    3    3    0    0 -0.73580715962E+01  0.75387517333E+01  0.19942327673E+02  0.22553723159E+02  0.00000000000E+00 0.  1.
</event>
<event>
 7    1  0.7470072E-010  0.4778727E+02  0.7816164E-02  0.1312668E+00
        -11   -1    0    0    0    0  0.00000000000E+00  0.00000000000E+00  0.45593999997E+02  0.45594000000E+02  0.51100000000E-03 0.  1.
         11   -1    0    0    0    0 -0.00000000000E+00 -0.00000000000E+00 -0.45593999997E+02  0.45594000000E+02  0.51100000000E-03 0. -1.
    9900012    2    1    2    0    0 -0.19485029826E+02 -0.38722499549E+02 -0.21271755301E+01  0.47787271500E+02  0.20000002076E+02 0.  0.
         12    1    1    2    0    0  0.19485029826E+02  0.38722499549E+02  0.21271755301E+01  0.43400728500E+02  0.00000000000E+00 0. -1.
         11    1    3    3    0    0 -0.62019443554E+01 -0.11882663598E+02 -0.96554459385E+01  0.16519365741E+02  0.51100000000E-03 0. -1.
        -11    1    3    3    0    0 -0.73186306636E+01 -0.10606280218E+02  0.48420681538E+01  0.13765941999E+02  0.51100000000E-03 0.  1.
         12    1    3    3    0    0 -0.59644548069E+01 -0.16233555733E+02  0.26862022546E+01  0.17501963759E+02  0.00000000000E+00 0. -1.
</event>
<event>
 7    1  0.7470072E-010  0.4778727E+02  0.7816164E-02  0.1312668E+00
        -11   -1    0    0    0    0  0.00000000000E+00  0.00000000000E+00  0.45593999997E+02  0.45594000000E+02  0.51100000000E-03 0. -1.
         11   -1    0    0    0    0 -0.00000000000E+00 -0.00000000000E+00 -0.45593999997E+02  0.45594000000E+02  0.51100000000E-03 0.  1.
    9900012    2    1    2    0    0 -0.75546682653E+01  0.19086461250E+02  0.38239475114E+02  0.47787268755E+02  0.19999989560E+02 0.  0.
        -12    1    1    2    0    0  0.75546682653E+01 -0.19086461250E+02 -0.38239475114E+02  0.43400731245E+02  0.00000000000E+00 0.  1.
         11    1    3    3    0    0 -0.10456845391E+02  0.43433936281E+01  0.13849497601E+02  0.17889082364E+02  0.51100000000E-03 0. -1.
        -11    1    3    3    0    0  0.54821235367E+01  0.11232838123E+02  0.14846541993E+02  0.19407476399E+02  0.51100000000E-03 0.  1.
        -12    1    3    3    0    0 -0.25799464106E+01  0.35102294994E+01  0.95434355195E+01  0.10490709992E+02  0.00000000000E+00 0.  1.
</event>
<event>
 7    1  0.7470072E-010  0.4778727E+02  0.7816164E-02  0.1312668E+00
        -11   -1    0    0    0    0  0.00000000000E+00  0.00000000000E+00  0.45593999997E+02  0.45594000000E+02  0.51100000000E-03 0. -1.
         11   -1    0    0    0    0 -0.00000000000E+00 -0.00000000000E+00 -0.45593999997E+02  0.45594000000E+02  0.51100000000E-03 0.  1.
    9900012    2    1    2    0    0  0.14374803564E+02 -0.65077087401E+01  0.40430658428E+02  0.47787269690E+02  0.19999993824E+02 0.  0.
        -12    1    1    2    0    0 -0.14374803564E+02  0.65077087401E+01 -0.40430658428E+02  0.43400730310E+02  0.00000000000E+00 0.  1.
         11    1    3    3    0    0  0.12682584634E+02 -0.44106775033E+01  0.27703743989E+02  0.30786351851E+02  0.51100000000E-03 0. -1.
        -11    1    3    3    0    0 -0.35419912162E+01 -0.23299147403E+01  0.13070530152E+01  0.44365067698E+01  0.51100000000E-03 0.  1.
        -12    1    3    3    0    0  0.52342101455E+01  0.23288350353E+00  0.11419861424E+02  0.12564411069E+02  0.00000000000E+00 0.  1.
</event>
<event>
 7    1  0.7470072E-010  0.4778727E+02  0.7816164E-02  0.1312668E+00
        -11   -1    0    0    0    0  0.00000000000E+00  0.00000000000E+00  0.45593999997E+02  0.45594000000E+02  0.51100000000E-03 0. -1.
         11   -1    0    0    0    0 -0.00000000000E+00 -0.00000000000E+00 -0.45593999997E+02  0.45594000000E+02  0.51100000000E-03 0.  1.
    9900012    2    1    2    0    0 -0.20055763091E+01  0.36160023475E+01  0.43203304728E+02  0.47787270182E+02  0.19999996068E+02 0.  0.
        -12    1    1    2    0    0  0.20055763091E+01 -0.36160023475E+01 -0.43203304728E+02  0.43400729818E+02  0.00000000000E+00 0.  1.
         11    1    3    3    0    0  0.25176109922E+00 -0.55889090151E+01  0.12094314010E+02  0.13325603899E+02  0.51100000000E-03 0. -1.
        -11    1    3    3    0    0 -0.31052196402E+01  0.96008753733E+01  0.13635209667E+02  0.16962845866E+02  0.51100000000E-03 0.  1.
        -12    1    3    3    0    0  0.84788223187E+00 -0.39596401065E+00  0.17473781051E+02  0.17498820417E+02  0.00000000000E+00 0.  1.
</event>
<event>
 7    1  0.7470072E-010  0.4778727E+02  0.7816164E-02  0.1312668E+00
        -11   -1    0    0    0    0  0.00000000000E+00  0.00000000000E+00  0.45593999997E+02  0.45594000000E+02  0.51100000000E-03 0. -1.
         11   -1    0    0    0    0 -0.00000000000E+00 -0.00000000000E+00 -0.45593999997E+02  0.45594000000E+02  0.51100000000E-03 0.  1.
    9900012    2    1    2    0    0  0.90004129039E+00 -0.13463625288E+02  0.41249775606E+02  0.47787271115E+02  0.20000000323E+02 0.  0.
        -12    1    1    2    0    0 -0.90004129039E+00  0.13463625288E+02 -0.41249775606E+02  0.43400728885E+02  0.00000000000E+00 0.  1.
         11    1    3    3    0    0  0.28999778836E+01 -0.46070843908E+00  0.17747422265E+02  0.17988694264E+02  0.51100000000E-03 0. -1.
        -11    1    3    3    0    0 -0.65434158922E+01 -0.11037014069E+02  0.13422651985E+02  0.18568779111E+02  0.51100000000E-03 0.  1.
        -12    1    3    3    0    0  0.45434792990E+01 -0.19659027800E+01  0.10079701355E+02  0.11229797741E+02  0.00000000000E+00 0.  1.
</event>
<event>
 7    1  0.8485771E-010  0.4778727E+02  0.7816164E-02  0.1312668E+00
        -11   -1    0    0    0    0  0.00000000000E+00  0.00000000000E+00  0.45593999997E+02  0.45594000000E+02  0.51100000000E-03 0. -1.
         11   -1    0    0    0    0 -0.00000000000E+00 -0.00000000000E+00 -0.45593999997E+02  0.45594000000E+02  0.51100000000E-03 0.  1.
    9900012    2    1    2    0    0  0.85126472639E+01  0.14603207201E+01 -0.42532638782E+02  0.47787273487E+02  0.20000011138E+02 0.  0.
         12    1    1    2    0    0 -0.85126472639E+01 -0.14603207201E+01  0.42532638782E+02  0.43400726513E+02  0.00000000000E+00 0. -1.
         11    1    3    3    0    0  0.67665770402E+01 -0.25146590270E+01 -0.30681811131E+02  0.31519575020E+02  0.51100000000E-03 0. -1.
        -11    1    3    3    0    0  0.18282346914E+01  0.34675732818E+00 -0.12450973292E+02  0.12589258076E+02  0.51100000000E-03 0.  1.
         12    1    3    3    0    0 -0.82164467694E-01  0.36282224190E+01  0.60014564101E+00  0.36784403912E+01  0.00000000000E+00 0. -1.
</event>
<event>
 7    1  0.9370348E-010  0.4778727E+02  0.7816164E-02  0.1312668E+00
        -11   -1    0    0    0    0  0.00000000000E+00  0.00000000000E+00  0.45593999997E+02  0.45594000000E+02  0.51100000000E-03 0. -1.
         11   -1    0    0    0    0 -0.00000000000E+00 -0.00000000000E+00 -0.45593999997E+02  0.45594000000E+02  0.51100000000E-03 0.  1.
    9900012    2    1    2    0    0 -0.18666708382E+02 -0.88734313155E+01 -0.38163325471E+02  0.47787271940E+02  0.20000004082E+02 0.  0.
         12    1    1    2    0    0  0.18666708382E+02  0.88734313155E+01  0.38163325471E+02  0.43400728060E+02  0.00000000000E+00 0. -1.
         11    1    3    3    0    0 -0.23171590960E+00 -0.30082600616E+01 -0.20245634581E+02  0.20469221791E+02  0.51100000000E-03 0. -1.
        -11    1    3    3    0    0 -0.12709401201E+02 -0.49736422837E+01 -0.16384398642E+02  0.21324036100E+02  0.51100000000E-03 0.  1.
         12    1    3    3    0    0 -0.57255912706E+01 -0.89152897027E+00 -0.15332922484E+01  0.59940140492E+01  0.00000000000E+00 0. -1.
</event>
<event>
 7    1  0.7470072E-010  0.4778728E+02  0.7816164E-02  0.1312668E+00
        -11   -1    0    0    0    0  0.00000000000E+00  0.00000000000E+00  0.45593999997E+02  0.45594000000E+02  0.51100000000E-03 0. -1.
         11   -1    0    0    0    0 -0.00000000000E+00 -0.00000000000E+00 -0.45593999997E+02  0.45594000000E+02  0.51100000000E-03 0.  1.
    9900012    2    1    2    0    0  0.11544522756E+02  0.41636864103E+02 -0.40887870936E+01  0.47787278371E+02  0.20000033405E+02 0.  0.
         12    1    1    2    0    0 -0.11544522756E+02 -0.41636864103E+02  0.40887870936E+01  0.43400721629E+02  0.00000000000E+00 0. -1.
         11    1    3    3    0    0  0.37078318804E+01  0.21421567622E+02 -0.87983504129E+01  0.23452985885E+02  0.51100000000E-03 0. -1.
        -11    1    3    3    0    0  0.55104130715E+01  0.14809605921E+02 -0.13850514450E+01  0.15862138806E+02  0.51100000000E-03 0.  1.
         12    1    3    3    0    0  0.23262778042E+01  0.54056905601E+01  0.60946147642E+01  0.84721536800E+01  0.00000000000E+00 0. -1.
</event>
<event>
 7    1  0.7470072E-010  0.4778727E+02  0.7816164E-02  0.1312668E+00
        -11   -1    0    0    0    0  0.00000000000E+00  0.00000000000E+00  0.45593999997E+02  0.45594000000E+02  0.51100000000E-03 0. -1.
         11   -1    0    0    0    0 -0.00000000000E+00 -0.00000000000E+00 -0.45593999997E+02  0.45594000000E+02  0.51100000000E-03 0.  1.
    9900012    2    1    2    0    0  0.30250792737E+02  0.23743003037E+02  0.20119210449E+02  0.47787270933E+02  0.19999999493E+02 0.  0.
        -12    1    1    2    0    0 -0.30250792737E+02 -0.23743003037E+02 -0.20119210449E+02  0.43400729067E+02  0.00000000000E+00 0.  1.
         11    1    3    3    0    0  0.20711048603E+02  0.18970780969E+02  0.16631916586E+02  0.32641365082E+02  0.51100000000E-03 0. -1.
        -11    1    3    3    0    0  0.25597024572E+01 -0.31882501097E+01  0.35003345691E+00  0.41036007498E+01  0.51100000000E-03 0.  1.
        -12    1    3    3    0    0  0.69800416767E+01  0.79604721782E+01  0.31372604061E+01  0.11042305102E+02  0.00000000000E+00 0.  1.
</event>
<event>
 7    1  0.7470072E-010  0.4778727E+02  0.7816164E-02  0.1312668E+00
        -11   -1    0    0    0    0  0.00000000000E+00  0.00000000000E+00  0.45593999997E+02  0.45594000000E+02  0.51100000000E-03 0. -1.
         11   -1    0    0    0    0 -0.00000000000E+00 -0.00000000000E+00 -0.45593999997E+02  0.45594000000E+02  0.51100000000E-03 0.  1.
    9900012    2    1    2    0    0 -0.30158273031E+02 -0.35759481720E+01  0.31005067836E+02  0.47787273404E+02  0.20000010759E+02 0.  0.
        -12    1    1    2    0    0  0.30158273031E+02  0.35759481720E+01 -0.31005067836E+02  0.43400726596E+02  0.00000000000E+00 0.  1.
         11    1    3    3    0    0 -0.21158383352E+02 -0.93999274380E+01  0.14842362270E+02  0.27501482504E+02  0.51100000000E-03 0. -1.
        -11    1    3    3    0    0 -0.22961326051E+01  0.14945656415E+00  0.54005265652E+00  0.23635184234E+01  0.51100000000E-03 0.  1.
         12    1    3    3    0    0 -0.67037570739E+01  0.56745227019E+01  0.15622652910E+02  0.17922272477E+02  0.00000000000E+00 0. -1.
</event>
<event>
 7    1  0.7470072E-010  0.4778727E+02  0.7816164E-02  0.1312668E+00
        -11   -1    0    0    0    0  0.00000000000E+00  0.00000000000E+00  0.45593999997E+02  0.45594000000E+02  0.51100000000E-03 0. -1.
         11   -1    0    0    0    0 -0.00000000000E+00 -0.00000000000E+00 -0.45593999997E+02  0.45594000000E+02  0.51100000000E-03 0.  1.
    9900012    2    1    2    0    0 -0.30601151643E+02  0.14265135382E+02 -0.27270840151E+02  0.47787270837E+02  0.19999999055E+02 0.  0.
         12    1    1    2    0    0  0.30601151643E+02 -0.14265135382E+02  0.27270840151E+02  0.43400729163E+02  0.00000000000E+00 0. -1.
         11    1    3    3    0    0  0.27329952781E+00  0.60558019821E+01 -0.44288750455E+01  0.75074872432E+01  0.51100000000E-03 0. -1.
        -11    1    3    3    0    0 -0.17850700612E+02  0.19106623321E+00 -0.11432457147E+02  0.21198705039E+02  0.51100000000E-03 0.  1.
         12    1    3    3    0    0 -0.13023750559E+02  0.80182671662E+01 -0.11409507958E+02  0.19081078555E+02  0.00000000000E+00 0. -1.
</event>
<event>
 7    1  0.7470072E-010  0.4778727E+02  0.7816164E-02  0.1312668E+00
        -11   -1    0    0    0    0  0.00000000000E+00  0.00000000000E+00  0.45593999997E+02  0.45594000000E+02  0.51100000000E-03 0. -1.
         11   -1    0    0    0    0 -0.00000000000E+00 -0.00000000000E+00 -0.45593999997E+02  0.45594000000E+02  0.51100000000E-03 0.  1.
    9900012    2    1    2    0    0 -0.13024108445E+02  0.13094033108E+02  0.39275211571E+02  0.47787270193E+02  0.19999996117E+02 0.  0.
        -12    1    1    2    0    0  0.13024108445E+02 -0.13094033108E+02 -0.39275211571E+02  0.43400729807E+02  0.00000000000E+00 0.  1.
         11    1    3    3    0    0  0.14780007393E+00  0.24084917081E+01  0.19393407058E+02  0.19542950513E+02  0.51100000000E-03 0. -1.
        -11    1    3    3    0    0 -0.10037789473E+02  0.20612098662E+01  0.69268886694E+01  0.12368815243E+02  0.51100000000E-03 0.  1.
        -12    1    3    3    0    0 -0.31341190459E+01  0.86243315341E+01  0.12954915844E+02  0.15875504437E+02  0.00000000000E+00 0.  1.
</event>
<event>
 7    1  0.7470072E-010  0.4778726E+02  0.7816164E-02  0.1312668E+00
        -11   -1    0    0    0    0  0.00000000000E+00  0.00000000000E+00  0.45593999997E+02  0.45594000000E+02  0.51100000000E-03 0. -1.
         11   -1    0    0    0    0 -0.00000000000E+00 -0.00000000000E+00 -0.45593999997E+02  0.45594000000E+02  0.51100000000E-03 0.  1.
    9900012    2    1    2    0    0 -0.66049975824E+01 -0.13404899992E+02 -0.40746859238E+02  0.47787264123E+02  0.19999968445E+02 0.  0.
         12    1    1    2    0    0  0.66049975824E+01  0.13404899992E+02  0.40746859238E+02  0.43400735877E+02  0.00000000000E+00 0. -1.
         11    1    3    3    0    0 -0.44806876546E+01  0.28668149325E+01 -0.99095535669E+01  0.11246974788E+02  0.51100000000E-03 0. -1.
        -11    1    3    3    0    0 -0.78894792749E+00 -0.63259227031E-01 -0.10360932550E+02  0.10391119483E+02  0.51100000000E-03 0.  1.
         12    1    3    3    0    0 -0.13353620004E+01 -0.16208455697E+02 -0.20476373122E+02  0.26149169852E+02  0.00000000000E+00 0. -1.
</event>
<event>
 7    1  0.7470072E-010  0.4778727E+02  0.7816164E-02  0.1312668E+00
        -11   -1    0    0    0    0  0.00000000000E+00  0.00000000000E+00  0.45593999997E+02  0.45594000000E+02  0.51100000000E-03 0. -1.
         11   -1    0    0    0    0 -0.00000000000E+00 -0.00000000000E+00 -0.45593999997E+02  0.45594000000E+02  0.51100000000E-03 0.  1.
    9900012    2    1    2    0    0 -0.17035601285E+02 -0.54381678132E+01  0.39545394989E+02  0.47787266768E+02  0.19999980501E+02 0.  0.
        -12    1    1    2    0    0  0.17035601285E+02  0.54381678132E+01 -0.39545394989E+02  0.43400733232E+02  0.00000000000E+00 0.  1.
         11    1    3    3    0    0 -0.15642020706E+02 -0.77815601818E+01  0.22024062736E+02  0.28112005092E+02  0.51100000000E-03 0. -1.
        -11    1    3    3    0    0  0.15945423831E+01  0.44451124032E+01  0.13184820290E+02  0.14005037524E+02  0.51100000000E-03 0.  1.
        -12    1    3    3    0    0 -0.29881229620E+01 -0.21017200346E+01  0.43365119620E+01  0.56702241522E+01  0.00000000000E+00 0.  1.
</event>
<event>
 7    1  0.7470072E-010  0.4778727E+02  0.7816164E-02  0.1312668E+00
        -11   -1    0    0    0    0  0.00000000000E+00  0.00000000000E+00  0.45593999997E+02  0.45594000000E+02  0.51100000000E-03 0. -1.
         11   -1    0    0    0    0 -0.00000000000E+00 -0.00000000000E+00 -0.45593999997E+02  0.45594000000E+02  0.51100000000E-03 0.  1.
    9900012    2    1    2    0    0  0.20308282601E+02 -0.33521435862E+02 -0.18641629199E+02  0.47787270241E+02  0.19999996336E+02 0.  0.
         12    1    1    2    0    0 -0.20308282601E+02  0.33521435862E+02  0.18641629199E+02  0.43400729759E+02  0.00000000000E+00 0. -1.
         11    1    3    3    0    0  0.16307295049E+02 -0.32109895106E+02 -0.93847473112E+01  0.37216215792E+02  0.51100000000E-03 0.  1.
        -11    1    3    3    0    0  0.19381887948E+01  0.72635180044E+00 -0.46430167522E+01  0.50834798677E+01  0.51100000000E-03 0. -1.
        -12    1    3    3    0    0  0.20627987566E+01 -0.21378925566E+01 -0.46138651351E+01  0.54875745807E+01  0.00000000000E+00 0.  1.
</event>
<event>
 7    1  0.7470072E-010  0.4778727E+02  0.7816164E-02  0.1312668E+00
        -11   -1    0    0    0    0  0.00000000000E+00  0.00000000000E+00  0.45593999997E+02  0.45594000000E+02  0.51100000000E-03 0.  1.
         11   -1    0    0    0    0 -0.00000000000E+00 -0.00000000000E+00 -0.45593999997E+02  0.45594000000E+02  0.51100000000E-03 0. -1.
    9900012    2    1    2    0    0  0.24440538339E+02 -0.22759778990E+02  0.27717789303E+02  0.47787270769E+02  0.19999998745E+02 0.  0.
        -12    1    1    2    0    0 -0.24440538339E+02  0.22759778990E+02 -0.27717789303E+02  0.43400729231E+02  0.00000000000E+00 0.  1.
         11    1    3    3    0    0  0.78101730634E+01 -0.12201319988E+02  0.21140871603E+01  0.14640368079E+02  0.51100000000E-03 0. -1.
        -11    1    3    3    0    0  0.72268941712E+01 -0.84767220915E+01  0.16399413084E+02  0.19824821980E+02  0.51100000000E-03 0.  1.
         12    1    3    3    0    0  0.94034711040E+01 -0.20817369108E+01  0.92042890587E+01  0.13322080710E+02  0.00000000000E+00 0. -1.
</event>
<event>
 7    1  0.7470072E-010  0.4778727E+02  0.7816164E-02  0.1312668E+00
        -11   -1    0    0    0    0  0.00000000000E+00  0.00000000000E+00  0.45593999997E+02  0.45594000000E+02  0.51100000000E-03 0. -1.
         11   -1    0    0    0    0 -0.00000000000E+00 -0.00000000000E+00 -0.45593999997E+02  0.45594000000E+02  0.51100000000E-03 0.  1.
    9900012    2    1    2    0    0 -0.14241614790E+01  0.63831451569E+01  0.42905135855E+02  0.47787268891E+02  0.19999990183E+02 0.  0.
        -12    1    1    2    0    0  0.14241614790E+01 -0.63831451569E+01 -0.42905135855E+02  0.43400731109E+02  0.00000000000E+00 0.  1.
         11    1    3    3    0    0  0.45224375019E+00  0.58377663890E+01  0.30753842382E+02  0.31306275128E+02  0.51100000000E-03 0. -1.
        -11    1    3    3    0    0  0.18425226757E+01 -0.75809393140E+00 -0.13563515827E+01  0.24102460655E+01  0.51100000000E-03 0.  1.
        -12    1    3    3    0    0 -0.37189279048E+01  0.13034726993E+01  0.13507645055E+02  0.14070747698E+02  0.00000000000E+00 0.  1.
</event>
<event>
 7    1  0.7470072E-010  0.4778727E+02  0.7816164E-02  0.1312668E+00
        -11   -1    0    0    0    0  0.00000000000E+00  0.00000000000E+00  0.45593999997E+02  0.45594000000E+02  0.51100000000E-03 0. -1.
         11   -1    0    0    0    0 -0.00000000000E+00 -0.00000000000E+00 -0.45593999997E+02  0.45594000000E+02  0.51100000000E-03 0.  1.
    9900012    2    1    2    0    0 -0.18819649955E+02 -0.15871607450E+02 -0.35742635295E+02  0.47787272756E+02  0.20000007802E+02 0.  0.
         12    1    1    2    0    0  0.18819649955E+02  0.15871607450E+02  0.35742635295E+02  0.43400727244E+02  0.00000000000E+00 0. -1.
         11    1    3    3    0    0 -0.10675644029E+02 -0.13303849901E+02 -0.14185398794E+02  0.22185295509E+02  0.51100000000E-03 0. -1.
        -11    1    3    3    0    0 -0.93293624671E+01  0.14336654376E+01 -0.16830174861E+02  0.19296299820E+02  0.51100000000E-03 0.  1.
         12    1    3    3    0    0  0.11853565417E+01 -0.40014229874E+01 -0.47270616410E+01  0.63056774270E+01  0.00000000000E+00 0. -1.
</event>
<event>
 7    1  0.7470072E-010  0.4778727E+02  0.7816164E-02  0.1312668E+00
        -11   -1    0    0    0    0  0.00000000000E+00  0.00000000000E+00  0.45593999997E+02  0.45594000000E+02  0.51100000000E-03 0. -1.
         11   -1    0    0    0    0 -0.00000000000E+00 -0.00000000000E+00 -0.45593999997E+02  0.45594000000E+02  0.51100000000E-03 0.  1.
    9900012    2    1    2    0    0 -0.14350807478E+02 -0.17259331799E+02  0.37145567465E+02  0.47787269687E+02  0.19999993810E+02 0.  0.
        -12    1    1    2    0    0  0.14350807478E+02  0.17259331799E+02 -0.37145567465E+02  0.43400730313E+02  0.00000000000E+00 0.  1.
         11    1    3    3    0    0 -0.65192757322E+01 -0.19380451831E+02  0.24233195430E+02  0.31707264629E+02  0.51100000000E-03 0. -1.
        -11    1    3    3    0    0 -0.18226020462E+01  0.19391099317E+01  0.12091196736E+01  0.29230114936E+01  0.51100000000E-03 0.  1.
         12    1    3    3    0    0 -0.60089296991E+01  0.18201010086E+00  0.11703252362E+02  0.13156993564E+02  0.00000000000E+00 0. -1.
</event>
<event>
 7    1  0.7470072E-010  0.4778727E+02  0.7816164E-02  0.1312668E+00
        -11   -1    0    0    0    0  0.00000000000E+00  0.00000000000E+00  0.45593999997E+02  0.45594000000E+02  0.51100000000E-03 0. -1.
         11   -1    0    0    0    0 -0.00000000000E+00 -0.00000000000E+00 -0.45593999997E+02  0.45594000000E+02  0.51100000000E-03 0.  1.
    9900012    2    1    2    0    0 -0.24287715713E+01  0.12192693965E+02 -0.41581994346E+02  0.47787274530E+02  0.20000015893E+02 0.  0.
         12    1    1    2    0    0  0.24287715713E+01 -0.12192693965E+02  0.41581994346E+02  0.43400725470E+02  0.00000000000E+00 0. -1.
         11    1    3    3    0    0 -0.33965053370E+01  0.11373865896E+02 -0.35861013022E+02  0.37774506339E+02  0.51100000000E-03 0. -1.
        -11    1    3    3    0    0 -0.14708536957E+01  0.33736534551E+01 -0.53048584300E+01  0.64565061336E+01  0.51100000000E-03 0.  1.
         12    1    3    3    0    0  0.24385874614E+01 -0.25548253863E+01 -0.41612289488E+00  0.35562620580E+01  0.00000000000E+00 0. -1.
</event>
<event>
 7    1  0.7470072E-010  0.4778727E+02  0.7816164E-02  0.1312668E+00
        -11   -1    0    0    0    0  0.00000000000E+00  0.00000000000E+00  0.45593999997E+02  0.45594000000E+02  0.51100000000E-03 0. -1.
         11   -1    0    0    0    0 -0.00000000000E+00 -0.00000000000E+00 -0.45593999997E+02  0.45594000000E+02  0.51100000000E-03 0.  1.
    9900012    2    1    2    0    0 -0.38996573762E+02  0.12005013977E+02 -0.14790878777E+02  0.47787271656E+02  0.20000002788E+02 0.  0.
         12    1    1    2    0    0  0.38996573762E+02 -0.12005013977E+02  0.14790878777E+02  0.43400728344E+02  0.00000000000E+00 0. -1.
         11    1    3    3    0    0 -0.22566283777E+02 -0.17181226309E+01 -0.84516736072E+01  0.24158226257E+02  0.51100000000E-03 0. -1.
        -11    1    3    3    0    0 -0.94229857266E+01  0.85722199729E+01 -0.76117806583E+01  0.14839636799E+02  0.51100000000E-03 0.  1.
         12    1    3    3    0    0 -0.70073042591E+01  0.51509166352E+01  0.12725754887E+01  0.87894085999E+01  0.00000000000E+00 0. -1.
</event>
<event>
 7    1  0.7470072E-010  0.4778727E+02  0.7816164E-02  0.1312668E+00
        -11   -1    0    0    0    0  0.00000000000E+00  0.00000000000E+00  0.45593999997E+02  0.45594000000E+02  0.51100000000E-03 0. -1.
         11   -1    0    0    0    0 -0.00000000000E+00 -0.00000000000E+00 -0.45593999997E+02  0.45594000000E+02  0.51100000000E-03 0.  1.
    9900012    2    1    2    0    0  0.15411291325E+02 -0.20241070255E+02  0.35162683337E+02  0.47787272762E+02  0.20000007829E+02 0.  0.
        -12    1    1    2    0    0 -0.15411291325E+02  0.20241070255E+02 -0.35162683337E+02  0.43400727238E+02  0.00000000000E+00 0.  1.
         11    1    3    3    0    0  0.10685572449E+02 -0.61564345756E+01  0.80148010892E+01  0.14707827236E+02  0.51100000000E-03 0. -1.
        -11    1    3    3    0    0  0.35879586180E+01 -0.56235751021E+01  0.22268611416E+02  0.23246270639E+02  0.51100000000E-03 0.  1.
        -12    1    3    3    0    0  0.11377602581E+01 -0.84610605774E+01  0.48792708317E+01  0.98331748866E+01  0.00000000000E+00 0.  1.
</event>
<event>
 7    1  0.7470072E-010  0.4778727E+02  0.7816164E-02  0.1312668E+00
        -11   -1    0    0    0    0  0.00000000000E+00  0.00000000000E+00  0.45593999997E+02  0.45594000000E+02  0.51100000000E-03 0. -1.
         11   -1    0    0    0    0 -0.00000000000E+00 -0.00000000000E+00 -0.45593999997E+02  0.45594000000E+02  0.51100000000E-03 0.  1.
    9900012    2    1    2    0    0 -0.34180622952E+02 -0.22412743897E+02  0.14593735865E+02  0.47787271885E+02  0.20000003833E+02 0.  0.
        -12    1    1    2    0    0  0.34180622952E+02  0.22412743897E+02 -0.14593735865E+02  0.43400728115E+02  0.00000000000E+00 0.  1.
         11    1    3    3    0    0 -0.27573271590E+02 -0.93111355914E+01  0.56549654732E+01  0.29647279588E+02  0.51100000000E-03 0. -1.
        -11    1    3    3    0    0  0.27583606115E+00 -0.54699253224E+01  0.36510518505E+01  0.65822753241E+01  0.51100000000E-03 0.  1.
        -12    1    3    3    0    0 -0.68831874229E+01 -0.76316829837E+01  0.52877185409E+01  0.11557716973E+02  0.00000000000E+00 0.  1.
</event>
<event>
 7    1  0.7470072E-010  0.4778733E+02  0.7816164E-02  0.1312668E+00
        -11   -1    0    0    0    0  0.00000000000E+00  0.00000000000E+00  0.45593999997E+02  0.45594000000E+02  0.51100000000E-03 0. -1.
         11   -1    0    0    0    0 -0.00000000000E+00 -0.00000000000E+00 -0.45593999997E+02  0.45594000000E+02  0.51100000000E-03 0.  1.
    9900012    2    1    2    0    0  0.12887247446E+02  0.18609461577E+01 -0.41401377230E+02  0.47787328301E+02  0.20000261054E+02 0.  0.
         12    1    1    2    0    0 -0.12887247446E+02 -0.18609461577E+01  0.41401377230E+02  0.43400671699E+02  0.00000000000E+00 0. -1.
         11    1    3    3    0    0  0.11201236575E+01 -0.24681458156E+01  0.10226121885E+01  0.28969219397E+01  0.51100000000E-03 0. -1.
        -11    1    3    3    0    0  0.77689438111E+01  0.38375826142E+00 -0.14997564100E+02  0.16894694065E+02  0.51100000000E-03 0.  1.
         12    1    3    3    0    0  0.39981799777E+01  0.39453337119E+01 -0.27426425319E+02  0.27995712297E+02  0.00000000000E+00 0. -1.
</event>
<event>
 7    1  0.7470072E-010  0.4778727E+02  0.7816164E-02  0.1312668E+00
        -11   -1    0    0    0    0  0.00000000000E+00  0.00000000000E+00  0.45593999997E+02  0.45594000000E+02  0.51100000000E-03 0. -1.
         11   -1    0    0    0    0 -0.00000000000E+00 -0.00000000000E+00 -0.45593999997E+02  0.45594000000E+02  0.51100000000E-03 0.  1.
    9900012    2    1    2    0    0 -0.27785517044E+02  0.22011707832E+02  0.25041435140E+02  0.47787265986E+02  0.19999976936E+02 0.  0.
        -12    1    1    2    0    0  0.27785517044E+02 -0.22011707832E+02 -0.25041435140E+02  0.43400734014E+02  0.00000000000E+00 0.  1.
         11    1    3    3    0    0 -0.17978798201E+02  0.11228823501E+02  0.60665850309E+01  0.22048290549E+02  0.51100000000E-03 0. -1.
        -11    1    3    3    0    0  0.28813980604E+00  0.30313363454E+00  0.66689377956E+01  0.66820390699E+01  0.51100000000E-03 0.  1.
         12    1    3    3    0    0 -0.10094858650E+02  0.10479750696E+02  0.12305912314E+02  0.19056936367E+02  0.00000000000E+00 0. -1.
</event>
<event>
 7    1  0.7470072E-010  0.4778727E+02  0.7816164E-02  0.1312668E+00
        -11   -1    0    0    0    0  0.00000000000E+00  0.00000000000E+00  0.45593999997E+02  0.45594000000E+02  0.51100000000E-03 0. -1.
         11   -1    0    0    0    0 -0.00000000000E+00 -0.00000000000E+00 -0.45593999997E+02  0.45594000000E+02  0.51100000000E-03 0.  1.
    9900012    2    1    2    0    0  0.17605232884E+02  0.17299995722E+02 -0.35698588675E+02  0.47787270625E+02  0.19999998089E+02 0.  0.
         12    1    1    2    0    0 -0.17605232884E+02 -0.17299995722E+02  0.35698588675E+02  0.43400729375E+02  0.00000000000E+00 0. -1.
         11    1    3    3    0    0  0.82595094993E+00  0.63744596787E+01 -0.19547649237E+02  0.20577330297E+02  0.51100000000E-03 0. -1.
        -11    1    3    3    0    0  0.82267151750E+01  0.57125967552E+01 -0.13571519383E+02  0.16867090528E+02  0.51100000000E-03 0.  1.
         12    1    3    3    0    0  0.85525667591E+01  0.52129392880E+01 -0.25794200549E+01  0.10342849801E+02  0.00000000000E+00 0. -1.
</event>
<event>
 7    1  0.7470072E-010  0.4778728E+02  0.7816164E-02  0.1312668E+00
        -11   -1    0    0    0    0  0.00000000000E+00  0.00000000000E+00  0.45593999997E+02  0.45594000000E+02  0.51100000000E-03 0. -1.
         11   -1    0    0    0    0 -0.00000000000E+00 -0.00000000000E+00 -0.45593999997E+02  0.45594000000E+02  0.51100000000E-03 0.  1.
    9900012    2    1    2    0    0 -0.33256742160E+01  0.16010400071E+01  0.43243489168E+02  0.47787276578E+02  0.20000025231E+02 0.  0.
        -12    1    1    2    0    0  0.33256742160E+01 -0.16010400071E+01 -0.43243489168E+02  0.43400723422E+02  0.00000000000E+00 0.  1.
         11    1    3    3    0    0  0.21621308133E+01 -0.67257069308E+01  0.67323946617E+01  0.97588463209E+01  0.51100000000E-03 0. -1.
        -11    1    3    3    0    0 -0.38389580342E+01  0.72226533949E+01  0.32967552173E+02  0.33967099043E+02  0.51100000000E-03 0.  1.
         12    1    3    3    0    0 -0.16488469952E+01  0.11040935429E+01  0.35435423336E+01  0.40613312146E+01  0.00000000000E+00 0. -1.
</event>
<event>
 7    1  0.7470072E-010  0.4778728E+02  0.7816164E-02  0.1312668E+00
        -11   -1    0    0    0    0  0.00000000000E+00  0.00000000000E+00  0.45593999997E+02  0.45594000000E+02  0.51100000000E-03 0. -1.
         11   -1    0    0    0    0 -0.00000000000E+00 -0.00000000000E+00 -0.45593999997E+02  0.45594000000E+02  0.51100000000E-03 0.  1.
    9900012    2    1    2    0    0 -0.34887652330E+01 -0.74949852820E+01 -0.42606059376E+02  0.47787279006E+02  0.20000036300E+02 0.  0.
         12    1    1    2    0    0  0.34887652330E+01  0.74949852820E+01  0.42606059376E+02  0.43400720994E+02  0.00000000000E+00 0. -1.
         11    1    3    3    0    0  0.49601364865E+01 -0.19755152192E+01 -0.33170330725E+02  0.33597268564E+02  0.51100000000E-03 0. -1.
        -11    1    3    3    0    0 -0.39196489554E+01 -0.11830539385E+01 -0.23208653538E+01  0.47063447395E+01  0.51100000000E-03 0.  1.
         12    1    3    3    0    0 -0.45292527640E+01 -0.43364161243E+01 -0.71148632979E+01  0.94836657022E+01  0.00000000000E+00 0. -1.
</event>
<event>
 7    1  0.7470072E-010  0.4778727E+02  0.7816164E-02  0.1312668E+00
        -11   -1    0    0    0    0  0.00000000000E+00  0.00000000000E+00  0.45593999997E+02  0.45594000000E+02  0.51100000000E-03 0. -1.
         11   -1    0    0    0    0 -0.00000000000E+00 -0.00000000000E+00 -0.45593999997E+02  0.45594000000E+02  0.51100000000E-03 0.  1.
    9900012    2    1    2    0    0  0.84368247505E+01  0.10313003429E+01  0.42560306633E+02  0.47787270824E+02  0.19999998997E+02 0.  0.
        -12    1    1    2    0    0 -0.84368247505E+01 -0.10313003429E+01 -0.42560306633E+02  0.43400729176E+02  0.00000000000E+00 0.  1.
         11    1    3    3    0    0  0.29528730582E+01  0.11433018482E+01  0.31177171449E+02  0.31337559226E+02  0.51100000000E-03 0. -1.
        -11    1    3    3    0    0 -0.23961452355E+01 -0.13210902204E+01  0.23773481250E+00  0.27465085950E+01  0.51100000000E-03 0.  1.
         12    1    3    3    0    0  0.78800969279E+01  0.12090887152E+01  0.11145400371E+02  0.13703203003E+02  0.00000000000E+00 0. -1.
</event>
<event>
 7    1  0.7470072E-010  0.4778727E+02  0.7816164E-02  0.1312668E+00
        -11   -1    0    0    0    0  0.00000000000E+00  0.00000000000E+00  0.45593999997E+02  0.45594000000E+02  0.51100000000E-03 0. -1.
         11   -1    0    0    0    0 -0.00000000000E+00 -0.00000000000E+00 -0.45593999997E+02  0.45594000000E+02  0.51100000000E-03 0.  1.
    9900012    2    1    2    0    0 -0.80784375526E+01  0.32975339087E+02 -0.27036808187E+02  0.47787272609E+02  0.20000007132E+02 0.  0.
         12    1    1    2    0    0  0.80784375526E+01 -0.32975339087E+02  0.27036808187E+02  0.43400727391E+02  0.00000000000E+00 0. -1.
         11    1    3    3    0    0  0.17044219669E+00  0.18856197710E+02 -0.12214629410E+02  0.22467363319E+02  0.51100000000E-03 0. -1.
        -11    1    3    3    0    0 -0.32215439173E+01  0.74451392332E+00 -0.95228872422E+01  0.10080576763E+02  0.51100000000E-03 0.  1.
        -12    1    3    3    0    0 -0.50273358320E+01  0.13374627453E+02 -0.52992915352E+01  0.15239332526E+02  0.00000000000E+00 0.  1.
</event>
<event>
 7    1  0.7470072E-010  0.4778727E+02  0.7816164E-02  0.1312668E+00
        -11   -1    0    0    0    0  0.00000000000E+00  0.00000000000E+00  0.45593999997E+02  0.45594000000E+02  0.51100000000E-03 0. -1.
         11   -1    0    0    0    0 -0.00000000000E+00 -0.00000000000E+00 -0.45593999997E+02  0.45594000000E+02  0.51100000000E-03 0.  1.
    9900012    2    1    2    0    0  0.11188015699E+02 -0.16660814631E+02 -0.38482060330E+02  0.47787269514E+02  0.19999993024E+02 0.  0.
         12    1    1    2    0    0 -0.11188015699E+02  0.16660814631E+02  0.38482060330E+02  0.43400730486E+02  0.00000000000E+00 0. -1.
         11    1    3    3    0    0 -0.51415055424E+01 -0.29952356946E+01 -0.44898232710E+01  0.74541954210E+01  0.51100000000E-03 0. -1.
        -11    1    3    3    0    0  0.78680824711E+01 -0.70978174807E+01 -0.13048265553E+02  0.16809014515E+02  0.51100000000E-03 0.  1.
         12    1    3    3    0    0  0.84614387702E+01 -0.65677614560E+01 -0.20943971506E+02  0.23524059578E+02  0.00000000000E+00 0. -1.
</event>
<event>
 7    1  0.7470072E-010  0.4778727E+02  0.7816164E-02  0.1312668E+00
        -11   -1    0    0    0    0  0.00000000000E+00  0.00000000000E+00  0.45593999997E+02  0.45594000000E+02  0.51100000000E-03 0. -1.
         11   -1    0    0    0    0 -0.00000000000E+00 -0.00000000000E+00 -0.45593999997E+02  0.45594000000E+02  0.51100000000E-03 0.  1.
    9900012    2    1    2    0    0 -0.72699014143E+01  0.27566461438E+02 -0.32724025791E+02  0.47787272739E+02  0.20000007728E+02 0.  0.
         12    1    1    2    0    0  0.72699014143E+01 -0.27566461438E+02  0.32724025791E+02  0.43400727261E+02  0.00000000000E+00 0. -1.
         11    1    3    3    0    0  0.27545062449E+01  0.51832122182E+00 -0.72785868396E+01  0.77996017965E+01  0.51100000000E-03 0. -1.
        -11    1    3    3    0    0 -0.87706807880E+01  0.90628995803E+01 -0.82310023348E+01  0.15060225429E+02  0.51100000000E-03 0.  1.
        -12    1    3    3    0    0 -0.12537268711E+01  0.17985240636E+02 -0.17214436617E+02  0.24927445513E+02  0.00000000000E+00 0.  1.
</event>
<event>
 7    1  0.7470072E-010  0.4778727E+02  0.7816164E-02  0.1312668E+00
        -11   -1    0    0    0    0  0.00000000000E+00  0.00000000000E+00  0.45593999997E+02  0.45594000000E+02  0.51100000000E-03 0. -1.
         11   -1    0    0    0    0 -0.00000000000E+00 -0.00000000000E+00 -0.45593999997E+02  0.45594000000E+02  0.51100000000E-03 0.  1.
    9900012    2    1    2    0    0 -0.24797105421E+02  0.29271848774E+02 -0.20294964033E+02  0.47787272668E+02  0.20000007400E+02 0.  0.
         12    1    1    2    0    0  0.24797105421E+02 -0.29271848774E+02  0.20294964033E+02  0.43400727332E+02  0.00000000000E+00 0. -1.
         11    1    3    3    0    0 -0.12229748147E+02  0.45337071028E+01  0.41236500650E+00  0.13049570300E+02  0.51100000000E-03 0. -1.
        -11    1    3    3    0    0 -0.96778723251E+01  0.20840673334E+02 -0.16193433889E+02  0.28110890757E+02  0.51100000000E-03 0.  1.
         12    1    3    3    0    0 -0.28894849489E+01  0.38974683372E+01 -0.45138951498E+01  0.66268116113E+01  0.00000000000E+00 0. -1.
</event>
<event>
 7    1  0.7470072E-010  0.4778727E+02  0.7816164E-02  0.1312668E+00
        -11   -1    0    0    0    0  0.00000000000E+00  0.00000000000E+00  0.45593999997E+02  0.45594000000E+02  0.51100000000E-03 0. -1.
         11   -1    0    0    0    0 -0.00000000000E+00 -0.00000000000E+00 -0.45593999997E+02  0.45594000000E+02  0.51100000000E-03 0.  1.
    9900012    2    1    2    0    0 -0.12414835203E+01  0.32750607469E+02 -0.28451361386E+02  0.47787268029E+02  0.19999986250E+02 0.  0.
         12    1    1    2    0    0  0.12414835203E+01 -0.32750607469E+02  0.28451361386E+02  0.43400731971E+02  0.00000000000E+00 0. -1.
         11    1    3    3    0    0 -0.22866940823E+01  0.88460962443E+00 -0.10023023635E+02  0.10318551597E+02  0.51100000000E-03 0. -1.
        -11    1    3    3    0    0  0.39481434709E+01  0.21363349329E+02 -0.12073636684E+02  0.24854642111E+02  0.51100000000E-03 0.  1.
         12    1    3    3    0    0 -0.29029329088E+01  0.10502648516E+02 -0.63547010664E+01  0.12614074321E+02  0.00000000000E+00 0. -1.
</event>
<event>
 7    1  0.7470072E-010  0.4778727E+02  0.7816164E-02  0.1312668E+00
        -11   -1    0    0    0    0  0.00000000000E+00  0.00000000000E+00  0.45593999997E+02  0.45594000000E+02  0.51100000000E-03 0. -1.
         11   -1    0    0    0    0 -0.00000000000E+00 -0.00000000000E+00 -0.45593999997E+02  0.45594000000E+02  0.51100000000E-03 0.  1.
    9900012    2    1    2    0    0 -0.34939154092E+02 -0.15333947924E+02 -0.20682098958E+02  0.47787266540E+02  0.19999979460E+02 0.  0.
         12    1    1    2    0    0  0.34939154092E+02  0.15333947924E+02  0.20682098958E+02  0.43400733460E+02  0.00000000000E+00 0. -1.
         11    1    3    3    0    0 -0.10894665627E+00  0.10725282967E+01 -0.59674250124E+01  0.60640207669E+01  0.51100000000E-03 0. -1.
        -11    1    3    3    0    0 -0.19976278124E+02 -0.10271352744E+02 -0.52334187962E+01  0.23063847195E+02  0.51100000000E-03 0.  1.
         12    1    3    3    0    0 -0.14853929312E+02 -0.61351234768E+01 -0.94812551495E+01  0.18659398578E+02  0.00000000000E+00 0. -1.
</event>
<event>
 7    1  0.7470072E-010  0.4778727E+02  0.7816164E-02  0.1312668E+00
        -11   -1    0    0    0    0  0.00000000000E+00  0.00000000000E+00  0.45593999997E+02  0.45594000000E+02  0.51100000000E-03 0. -1.
         11   -1    0    0    0    0 -0.00000000000E+00 -0.00000000000E+00 -0.45593999997E+02  0.45594000000E+02  0.51100000000E-03 0.  1.
    9900012    2    1    2    0    0  0.13417036771E+01 -0.15921217728E+02 -0.40352669855E+02  0.47787270662E+02  0.19999998255E+02 0.  0.
         12    1    1    2    0    0 -0.13417036771E+01  0.15921217728E+02  0.40352669855E+02  0.43400729338E+02  0.00000000000E+00 0. -1.
         11    1    3    3    0    0 -0.15552021244E+01  0.92546015411E+00  0.43352076308E+00  0.18609327386E+01  0.51100000000E-03 0. -1.
        -11    1    3    3    0    0  0.63888192244E+01 -0.51026155686E+01 -0.22269619682E+02  0.23723188187E+02  0.51100000000E-03 0.  1.
        -12    1    3    3    0    0 -0.34919134230E+01 -0.11744062313E+02 -0.18516570936E+02  0.22203149736E+02  0.00000000000E+00 0.  1.
</event>
<event>
 7    1  0.7470072E-010  0.4778727E+02  0.7816164E-02  0.1312668E+00
        -11   -1    0    0    0    0  0.00000000000E+00  0.00000000000E+00  0.45593999997E+02  0.45594000000E+02  0.51100000000E-03 0.  1.
         11   -1    0    0    0    0 -0.00000000000E+00 -0.00000000000E+00 -0.45593999997E+02  0.45594000000E+02  0.51100000000E-03 0. -1.
    9900012    2    1    2    0    0  0.16084410271E+01  0.40067582077E+02  0.16601962264E+02  0.47787269971E+02  0.19999995105E+02 0.  0.
        -12    1    1    2    0    0 -0.16084410271E+01 -0.40067582077E+02 -0.16601962264E+02  0.43400730029E+02  0.00000000000E+00 0.  1.
         11    1    3    3    0    0 -0.13280115406E+01  0.26269563810E+02  0.21038478885E+01  0.26387113779E+02  0.51100000000E-03 0. -1.
        -11    1    3    3    0    0  0.45251317166E+01  0.51492008494E+01  0.52137201330E+01  0.86124308024E+01  0.51100000000E-03 0.  1.
         12    1    3    3    0    0 -0.15886791489E+01  0.86488174179E+01  0.92843942430E+01  0.12787725389E+02  0.00000000000E+00 0. -1.
</event>
<event>
 7    1  0.7470072E-010  0.4778727E+02  0.7816164E-02  0.1312668E+00
        -11   -1    0    0    0    0  0.00000000000E+00  0.00000000000E+00  0.45593999997E+02  0.45594000000E+02  0.51100000000E-03 0. -1.
         11   -1    0    0    0    0 -0.00000000000E+00 -0.00000000000E+00 -0.45593999997E+02  0.45594000000E+02  0.51100000000E-03 0.  1.
    9900012    2    1    2    0    0  0.35038272666E+02  0.17070407323E+02  0.19093035682E+02  0.47787269947E+02  0.19999994995E+02 0.  0.
        -12    1    1    2    0    0 -0.35038272666E+02 -0.17070407323E+02 -0.19093035682E+02  0.43400730053E+02  0.00000000000E+00 0.  1.
         11    1    3    3    0    0  0.27793107009E+02  0.12071732727E+02  0.12766588694E+02  0.32881139204E+02  0.51100000000E-03 0. -1.
        -11    1    3    3    0    0  0.52697896953E+01  0.65474544128E+01  0.82243552290E+01  0.11759245806E+02  0.51100000000E-03 0.  1.
         12    1    3    3    0    0  0.19753759624E+01 -0.15487798166E+01 -0.18979082416E+01  0.31468849370E+01  0.00000000000E+00 0. -1.
</event>
<event>
 7    1  0.7470072E-010  0.4778728E+02  0.7816164E-02  0.1312668E+00
        -11   -1    0    0    0    0  0.00000000000E+00  0.00000000000E+00  0.45593999997E+02  0.45594000000E+02  0.51100000000E-03 0. -1.
         11   -1    0    0    0    0 -0.00000000000E+00 -0.00000000000E+00 -0.45593999997E+02  0.45594000000E+02  0.51100000000E-03 0.  1.
    9900012    2    1    2    0    0  0.29922370138E+02 -0.20610474675E+02  0.23737789541E+02  0.47787279346E+02  0.20000037852E+02 0.  0.
        -12    1    1    2    0    0 -0.29922370138E+02  0.20610474675E+02 -0.23737789541E+02  0.43400720654E+02  0.00000000000E+00 0.  1.
         11    1    3    3    0    0  0.10825696902E+02 -0.67099292116E+01  0.70311950316E+01  0.14548421470E+02  0.51100000000E-03 0. -1.
        -11    1    3    3    0    0  0.15540822372E+02 -0.64633584800E+01  0.27856967237E+01  0.17060254082E+02  0.51100000000E-03 0.  1.
        -12    1    3    3    0    0  0.35558508640E+01 -0.74371869830E+01  0.13920897786E+02  0.16178603795E+02  0.00000000000E+00 0.  1.
</event>
<event>
 7    1  0.7470072E-010  0.4778727E+02  0.7816164E-02  0.1312668E+00
        -11   -1    0    0    0    0  0.00000000000E+00  0.00000000000E+00  0.45593999997E+02  0.45594000000E+02  0.51100000000E-03 0. -1.
         11   -1    0    0    0    0 -0.00000000000E+00 -0.00000000000E+00 -0.45593999997E+02  0.45594000000E+02  0.51100000000E-03 0.  1.
    9900012    2    1    2    0    0  0.14319052299E+02 -0.29643555607E+02 -0.28281577340E+02  0.47787271151E+02  0.20000000484E+02 0.  0.
         12    1    1    2    0    0 -0.14319052299E+02  0.29643555607E+02  0.28281577340E+02  0.43400728849E+02  0.00000000000E+00 0. -1.
         11    1    3    3    0    0  0.34968353137E+01 -0.27693365687E+01  0.16869173181E+01  0.47689383033E+01  0.51100000000E-03 0. -1.
        -11    1    3    3    0    0  0.62448701008E+01 -0.24876361044E+02 -0.26843535928E+02  0.37126906183E+02  0.51100000000E-03 0.  1.
        -12    1    3    3    0    0  0.45773468849E+01 -0.19978579952E+01 -0.31249587305E+01  0.58914266643E+01  0.00000000000E+00 0.  1.
</event>
<event>
 7    1  0.7470072E-010  0.4778728E+02  0.7816164E-02  0.1312668E+00
        -11   -1    0    0    0    0  0.00000000000E+00  0.00000000000E+00  0.45593999997E+02  0.45594000000E+02  0.51100000000E-03 0. -1.
         11   -1    0    0    0    0 -0.00000000000E+00 -0.00000000000E+00 -0.45593999997E+02  0.45594000000E+02  0.51100000000E-03 0.  1.
    9900012    2    1    2    0    0  0.18641316188E+02  0.21227701858E+02 -0.32947057676E+02  0.47787278751E+02  0.20000035139E+02 0.  0.
         12    1    1    2    0    0 -0.18641316188E+02 -0.21227701858E+02  0.32947057676E+02  0.43400721249E+02  0.00000000000E+00 0. -1.
         11    1    3    3    0    0  0.59899050446E+01  0.41747970197E+01 -0.85372055890E+00  0.73509680759E+01  0.51100000000E-03 0. -1.
        -11    1    3    3    0    0  0.12398594074E+01  0.31217199263E+01 -0.15793325932E+02  0.16146564059E+02  0.51100000000E-03 0.  1.
        -12    1    3    3    0    0  0.11411551736E+02  0.13931184912E+02 -0.16300011185E+02  0.24289746617E+02  0.00000000000E+00 0.  1.
</event>
<event>
 7    1  0.7470072E-010  0.4778727E+02  0.7816164E-02  0.1312668E+00
        -11   -1    0    0    0    0  0.00000000000E+00  0.00000000000E+00  0.45593999997E+02  0.45594000000E+02  0.51100000000E-03 0. -1.
         11   -1    0    0    0    0 -0.00000000000E+00 -0.00000000000E+00 -0.45593999997E+02  0.45594000000E+02  0.51100000000E-03 0.  1.
    9900012    2    1    2    0    0 -0.20088849340E+02  0.40833175941E+01 -0.38254253515E+02  0.47787271177E+02  0.20000000603E+02 0.  0.
         12    1    1    2    0    0  0.20088849340E+02 -0.40833175941E+01  0.38254253515E+02  0.43400728823E+02  0.00000000000E+00 0. -1.
         11    1    3    3    0    0 -0.27388427608E+01 -0.39078946527E+01 -0.14345624919E+02  0.15118526875E+02  0.51100000000E-03 0. -1.
        -11    1    3    3    0    0 -0.18849352308E+02  0.78870625921E+01 -0.20502433450E+02  0.28945701173E+02  0.51100000000E-03 0.  1.
        -12    1    3    3    0    0  0.14993457288E+01  0.10414965474E+00 -0.34061951466E+01  0.37230431292E+01  0.00000000000E+00 0.  1.
</event>
<event>
 7    1  0.7470072E-010  0.4778727E+02  0.7816164E-02  0.1312668E+00
        -11   -1    0    0    0    0  0.00000000000E+00  0.00000000000E+00  0.45593999997E+02  0.45594000000E+02  0.51100000000E-03 0. -1.
         11   -1    0    0    0    0 -0.00000000000E+00 -0.00000000000E+00 -0.45593999997E+02  0.45594000000E+02  0.51100000000E-03 0.  1.
    9900012    2    1    2    0    0 -0.93020364691E+01 -0.52188507089E+01  0.42069695996E+02  0.47787267213E+02  0.19999982533E+02 0.  0.
        -12    1    1    2    0    0  0.93020364691E+01  0.52188507089E+01 -0.42069695996E+02  0.43400732787E+02  0.00000000000E+00 0.  1.
         11    1    3    3    0    0  0.32258868495E+01  0.29467518734E+01  0.33394150295E+01  0.54992168142E+01  0.51100000000E-03 0. -1.
        -11    1    3    3    0    0 -0.85776042403E+01 -0.57114299239E+01  0.15610510749E+02  0.18705180362E+02  0.51100000000E-03 0.  1.
         12    1    3    3    0    0 -0.39503190784E+01 -0.24541726584E+01  0.23119770218E+02  0.23582870037E+02  0.00000000000E+00 0. -1.
</event>
<event>
 7    1  0.7470072E-010  0.4778727E+02  0.7816164E-02  0.1312668E+00
        -11   -1    0    0    0    0  0.00000000000E+00  0.00000000000E+00  0.45593999997E+02  0.45594000000E+02  0.51100000000E-03 0. -1.
         11   -1    0    0    0    0 -0.00000000000E+00 -0.00000000000E+00 -0.45593999997E+02  0.45594000000E+02  0.51100000000E-03 0.  1.
    9900012    2    1    2    0    0  0.81452139362E+01 -0.93252440253E+01  0.41597100256E+02  0.47787269177E+02  0.19999991487E+02 0.  0.
        -12    1    1    2    0    0 -0.81452139362E+01  0.93252440253E+01 -0.41597100256E+02  0.43400730823E+02  0.00000000000E+00 0.  1.
         11    1    3    3    0    0  0.18800453539E+01 -0.11934757549E+02  0.30012479215E+02  0.32353082035E+02  0.51100000000E-03 0. -1.
        -11    1    3    3    0    0  0.60450243999E+00  0.42594274608E+01  0.48348704821E+01  0.64717940583E+01  0.51100000000E-03 0.  1.
         12    1    3    3    0    0  0.56606661423E+01 -0.16499139369E+01  0.67497505593E+01  0.89623930837E+01  0.00000000000E+00 0. -1.
</event>
<event>
 7    1  0.7470072E-010  0.4778727E+02  0.7816164E-02  0.1312668E+00
        -11   -1    0    0    0    0  0.00000000000E+00  0.00000000000E+00  0.45593999997E+02  0.45594000000E+02  0.51100000000E-03 0. -1.
         11   -1    0    0    0    0 -0.00000000000E+00 -0.00000000000E+00 -0.45593999997E+02  0.45594000000E+02  0.51100000000E-03 0.  1.
    9900012    2    1    2    0    0  0.12218758903E+02  0.66716826718E+01 -0.41107346929E+02  0.47787269703E+02  0.19999993882E+02 0.  0.
         12    1    1    2    0    0 -0.12218758903E+02 -0.66716826718E+01  0.41107346929E+02  0.43400730297E+02  0.00000000000E+00 0. -1.
         11    1    3    3    0    0  0.12771264080E+00  0.56534032949E+01 -0.50271048450E+01  0.75663110376E+01  0.51100000000E-03 0. -1.
        -11    1    3    3    0    0  0.12936897764E+02 -0.17134259249E+01 -0.34645110548E+02  0.37021383515E+02  0.51100000000E-03 0.  1.
        -12    1    3    3    0    0 -0.84585150172E+00  0.27317053018E+01 -0.14351315356E+01  0.31995751504E+01  0.00000000000E+00 0.  1.
</event>
<event>
 7    1  0.7470072E-010  0.4778728E+02  0.7816164E-02  0.1312668E+00
        -11   -1    0    0    0    0  0.00000000000E+00  0.00000000000E+00  0.45593999997E+02  0.45594000000E+02  0.51100000000E-03 0. -1.
         11   -1    0    0    0    0 -0.00000000000E+00 -0.00000000000E+00 -0.45593999997E+02  0.45594000000E+02  0.51100000000E-03 0.  1.
    9900012    2    1    2    0    0  0.72870420227E+01  0.10567717230E+02 -0.41458950721E+02  0.47787283142E+02  0.20000055157E+02 0.  0.
         12    1    1    2    0    0 -0.72870420227E+01 -0.10567717230E+02  0.41458950721E+02  0.43400716858E+02  0.00000000000E+00 0. -1.
         11    1    3    3    0    0  0.20934347630E+01 -0.18902771044E+00 -0.40688366004E-01  0.21023454489E+01  0.51100000000E-03 0. -1.
        -11    1    3    3    0    0 -0.31309107268E+01  0.15906471740E+01 -0.24330574774E+02  0.24582709970E+02  0.51100000000E-03 0.  1.
        -12    1    3    3    0    0  0.83245179866E+01  0.91660977667E+01 -0.17087687581E+02  0.21102227723E+02  0.00000000000E+00 0.  1.
</event>
<event>
 7    1  0.7470072E-010  0.4778728E+02  0.7816164E-02  0.1312668E+00
        -11   -1    0    0    0    0  0.00000000000E+00  0.00000000000E+00  0.45593999997E+02  0.45594000000E+02  0.51100000000E-03 0. -1.
         11   -1    0    0    0    0 -0.00000000000E+00 -0.00000000000E+00 -0.45593999997E+02  0.45594000000E+02  0.51100000000E-03 0.  1.
    9900012    2    1    2    0    0  0.21241833726E+02  0.13418286629E+02  0.35388656540E+02  0.47787275032E+02  0.20000018180E+02 0.  0.
        -12    1    1    2    0    0 -0.21241833726E+02 -0.13418286629E+02 -0.35388656540E+02  0.43400724968E+02  0.00000000000E+00 0.  1.
         11    1    3    3    0    0  0.80794820490E+01 -0.42508631429E+01  0.15092598794E+02  0.17639002417E+02  0.51100000000E-03 0. -1.
        -11    1    3    3    0    0  0.87169345584E+01  0.10324751497E+02  0.14315678820E+02  0.19685631864E+02  0.51100000000E-03 0.  1.
         12    1    3    3    0    0  0.44454171182E+01  0.73443982756E+01  0.59803789260E+01  0.10462640751E+02  0.00000000000E+00 0. -1.
</event>
<event>
 7    1  0.7470072E-010  0.4778727E+02  0.7816164E-02  0.1312668E+00
        -11   -1    0    0    0    0  0.00000000000E+00  0.00000000000E+00  0.45593999997E+02  0.45594000000E+02  0.51100000000E-03 0. -1.
         11   -1    0    0    0    0 -0.00000000000E+00 -0.00000000000E+00 -0.45593999997E+02  0.45594000000E+02  0.51100000000E-03 0.  1.
    9900012    2    1    2    0    0  0.23086211466E+02  0.11730767475E+02  0.34828711238E+02  0.47787271989E+02  0.20000004306E+02 0.  0.
        -12    1    1    2    0    0 -0.23086211466E+02 -0.11730767475E+02 -0.34828711238E+02  0.43400728011E+02  0.00000000000E+00 0.  1.
         11    1    3    3    0    0  0.20980844133E+02  0.11408951521E+02  0.24108205924E+02  0.33934725407E+02  0.51100000000E-03 0. -1.
        -11    1    3    3    0    0 -0.33000071208E+01 -0.91164662111E-01  0.47926405067E+01  0.58196014709E+01  0.51100000000E-03 0.  1.
        -12    1    3    3    0    0  0.54053744540E+01  0.41298061581E+00  0.59278648074E+01  0.80329451107E+01  0.00000000000E+00 0.  1.
</event>
<event>
 7    1  0.7470072E-010  0.4778727E+02  0.7816164E-02  0.1312668E+00
        -11   -1    0    0    0    0  0.00000000000E+00  0.00000000000E+00  0.45593999997E+02  0.45594000000E+02  0.51100000000E-03 0. -1.
         11   -1    0    0    0    0 -0.00000000000E+00 -0.00000000000E+00 -0.45593999997E+02  0.45594000000E+02  0.51100000000E-03 0.  1.
    9900012    2    1    2    0    0  0.23153241725E+02  0.29787249098E+02 -0.21453918599E+02  0.47787269194E+02  0.19999991565E+02 0.  0.
         12    1    1    2    0    0 -0.23153241725E+02 -0.29787249098E+02  0.21453918599E+02  0.43400730806E+02  0.00000000000E+00 0. -1.
         11    1    3    3    0    0  0.75177845400E+00 -0.72282294905E+00 -0.54285348388E+01  0.55278055879E+01  0.51100000000E-03 0. -1.
        -11    1    3    3    0    0  0.17183440879E+02  0.20520853473E+02 -0.65982902511E+01  0.27566528657E+02  0.51100000000E-03 0.  1.
         12    1    3    3    0    0  0.52180223917E+01  0.99892185745E+01 -0.94270935090E+01  0.14692934950E+02  0.00000000000E+00 0. -1.
</event>
<event>
 7    1  0.7470072E-010  0.4778727E+02  0.7816164E-02  0.1312668E+00
        -11   -1    0    0    0    0  0.00000000000E+00  0.00000000000E+00  0.45593999997E+02  0.45594000000E+02  0.51100000000E-03 0.  1.
         11   -1    0    0    0    0 -0.00000000000E+00 -0.00000000000E+00 -0.45593999997E+02  0.45594000000E+02  0.51100000000E-03 0. -1.
    9900012    2    1    2    0    0 -0.35654049302E+02  0.24348548315E+02  0.44226729807E+01  0.47787273359E+02  0.20000010553E+02 0.  0.
        -12    1    1    2    0    0  0.35654049302E+02 -0.24348548315E+02 -0.44226729807E+01  0.43400726641E+02  0.00000000000E+00 0.  1.
         11    1    3    3    0    0 -0.20702666198E+02  0.11283063000E+02 -0.43570006893E+01  0.23976892076E+02  0.51100000000E-03 0. -1.
        -11    1    3    3    0    0 -0.30490306619E+01  0.82555500323E+01  0.60675384579E+01  0.10689514372E+02  0.51100000000E-03 0.  1.
        -12    1    3    3    0    0 -0.11902352442E+02  0.48099352831E+01  0.27121352121E+01  0.13120866911E+02  0.00000000000E+00 0.  1.
</event>
<event>
 7    1  0.7470072E-010  0.4778727E+02  0.7816164E-02  0.1312668E+00
        -11   -1    0    0    0    0  0.00000000000E+00  0.00000000000E+00  0.45593999997E+02  0.45594000000E+02  0.51100000000E-03 0. -1.
         11   -1    0    0    0    0 -0.00000000000E+00 -0.00000000000E+00 -0.45593999997E+02  0.45594000000E+02  0.51100000000E-03 0.  1.
    9900012    2    1    2    0    0 -0.10874633904E+02 -0.81054476733E+01  0.41227025199E+02  0.47787267848E+02  0.19999985428E+02 0.  0.
        -12    1    1    2    0    0  0.10874633904E+02  0.81054476733E+01 -0.41227025199E+02  0.43400732152E+02  0.00000000000E+00 0.  1.
         11    1    3    3    0    0 -0.17919302733E+01 -0.27772283031E+01  0.49647181128E+00  0.33422291472E+01  0.51100000000E-03 0. -1.
        -11    1    3    3    0    0 -0.71124218983E+01  0.27763221626E+01  0.29402735044E+02  0.30377875804E+02  0.51100000000E-03 0.  1.
        -12    1    3    3    0    0 -0.19702817321E+01 -0.81045415327E+01  0.11327818344E+02  0.14067162898E+02  0.00000000000E+00 0.  1.
</event>
<event>
 7    1  0.7470072E-010  0.4778727E+02  0.7816164E-02  0.1312668E+00
        -11   -1    0    0    0    0  0.00000000000E+00  0.00000000000E+00  0.45593999997E+02  0.45594000000E+02  0.51100000000E-03 0. -1.
         11   -1    0    0    0    0 -0.00000000000E+00 -0.00000000000E+00 -0.45593999997E+02  0.45594000000E+02  0.51100000000E-03 0.  1.
    9900012    2    1    2    0    0  0.13824837494E+02  0.19953422489E+02  0.35977187263E+02  0.47787271848E+02  0.20000003665E+02 0.  0.
        -12    1    1    2    0    0 -0.13824837494E+02 -0.19953422489E+02 -0.35977187263E+02  0.43400728152E+02  0.00000000000E+00 0.  1.
         11    1    3    3    0    0  0.18556591685E+01  0.57556796005E+01 -0.54028463017E+00  0.60715093968E+01  0.51100000000E-03 0. -1.
        -11    1    3    3    0    0  0.10135946515E+02  0.60274152372E+01  0.21277131870E+02  0.24326600401E+02  0.51100000000E-03 0.  1.
         12    1    3    3    0    0  0.18332318100E+01  0.81703276514E+01  0.15240340023E+02  0.17389162051E+02  0.00000000000E+00 0. -1.
</event>
<event>
 7    1  0.7470072E-010  0.4778727E+02  0.7816164E-02  0.1312668E+00
        -11   -1    0    0    0    0  0.00000000000E+00  0.00000000000E+00  0.45593999997E+02  0.45594000000E+02  0.51100000000E-03 0. -1.
         11   -1    0    0    0    0 -0.00000000000E+00 -0.00000000000E+00 -0.45593999997E+02  0.45594000000E+02  0.51100000000E-03 0.  1.
    9900012    2    1    2    0    0  0.27489639208E+02 -0.18025525772E+02  0.28337673417E+02  0.47787267543E+02  0.19999984035E+02 0.  0.
        -12    1    1    2    0    0 -0.27489639208E+02  0.18025525772E+02 -0.28337673417E+02  0.43400732457E+02  0.00000000000E+00 0.  1.
         11    1    3    3    0    0  0.45771066218E+01 -0.75022555147E+01  0.68133195255E+01  0.11120029948E+02  0.51100000000E-03 0. -1.
        -11    1    3    3    0    0  0.17885753615E+02 -0.40965156722E+00  0.98451036263E+01  0.20420432475E+02  0.51100000000E-03 0.  1.
        -12    1    3    3    0    0  0.50267789706E+01 -0.10113618690E+02  0.11679250265E+02  0.16246805119E+02  0.00000000000E+00 0.  1.
</event>
<event>
 7    1  0.7470072E-010  0.4778731E+02  0.7816164E-02  0.1312668E+00
        -11   -1    0    0    0    0  0.00000000000E+00  0.00000000000E+00  0.45593999997E+02  0.45594000000E+02  0.51100000000E-03 0.  1.
         11   -1    0    0    0    0 -0.00000000000E+00 -0.00000000000E+00 -0.45593999997E+02  0.45594000000E+02  0.51100000000E-03 0. -1.
    9900012    2    1    2    0    0 -0.39480677411E+02 -0.12346143284E+01 -0.17982548167E+02  0.47787306458E+02  0.20000161464E+02 0.  0.
         12    1    1    2    0    0  0.39480677411E+02  0.12346143284E+01  0.17982548167E+02  0.43400693542E+02  0.00000000000E+00 0. -1.
         11    1    3    3    0    0 -0.22441449822E+02 -0.10171113569E+02 -0.98606524522E+01  0.26538701709E+02  0.51100000000E-03 0. -1.
        -11    1    3    3    0    0 -0.17200237650E+02  0.88704366899E+01 -0.82444232232E+01  0.21035763281E+02  0.51100000000E-03 0.  1.
         12    1    3    3    0    0  0.16101006039E+00  0.66062550694E-01  0.12252750891E+00  0.21284146821E+00  0.00000000000E+00 0. -1.
</event>
<event>
 7    1  0.7470072E-010  0.4778727E+02  0.7816164E-02  0.1312668E+00
        -11   -1    0    0    0    0  0.00000000000E+00  0.00000000000E+00  0.45593999997E+02  0.45594000000E+02  0.51100000000E-03 0.  1.
         11   -1    0    0    0    0 -0.00000000000E+00 -0.00000000000E+00 -0.45593999997E+02  0.45594000000E+02  0.51100000000E-03 0. -1.
    9900012    2    1    2    0    0  0.22400447333E+02 -0.19764404649E+02  0.31483510718E+02  0.47787272138E+02  0.20000004984E+02 0.  0.
        -12    1    1    2    0    0 -0.22400447333E+02  0.19764404649E+02 -0.31483510718E+02  0.43400727862E+02  0.00000000000E+00 0.  1.
         11    1    3    3    0    0  0.25662960907E+01  0.36924016506E+01  0.35967356317E+01  0.57581431938E+01  0.51100000000E-03 0. -1.
        -11    1    3    3    0    0  0.17532412260E+02 -0.17097700310E+02  0.23674717441E+02  0.34061842019E+02  0.51100000000E-03 0.  1.
        -12    1    3    3    0    0  0.23017389820E+01 -0.63591059902E+01  0.42120576450E+01  0.79672869247E+01  0.00000000000E+00 0.  1.
</event>
<event>
 7    1  0.7470072E-010  0.4778727E+02  0.7816164E-02  0.1312668E+00
        -11   -1    0    0    0    0  0.00000000000E+00  0.00000000000E+00  0.45593999997E+02  0.45594000000E+02  0.51100000000E-03 0. -1.
         11   -1    0    0    0    0 -0.00000000000E+00 -0.00000000000E+00 -0.45593999997E+02  0.45594000000E+02  0.51100000000E-03 0.  1.
    9900012    2    1    2    0    0  0.83403803343E+01  0.20537646825E+02  0.37313087730E+02  0.47787269623E+02  0.19999993521E+02 0.  0.
        -12    1    1    2    0    0 -0.83403803343E+01 -0.20537646825E+02 -0.37313087730E+02  0.43400730377E+02  0.00000000000E+00 0.  1.
         11    1    3    3    0    0 -0.12674162676E+01 -0.25688862267E+01  0.29461315533E+01  0.41091619378E+01  0.51100000000E-03 0. -1.
        -11    1    3    3    0    0  0.11745902133E+02  0.19622705411E+02  0.29143829401E+02  0.37045641808E+02  0.51100000000E-03 0.  1.
         12    1    3    3    0    0 -0.21381055313E+01  0.34838276412E+01  0.52231267758E+01  0.66324658772E+01  0.00000000000E+00 0. -1.
</event>
<event>
 7    1  0.7470072E-010  0.4778727E+02  0.7816164E-02  0.1312668E+00
        -11   -1    0    0    0    0  0.00000000000E+00  0.00000000000E+00  0.45593999997E+02  0.45594000000E+02  0.51100000000E-03 0. -1.
         11   -1    0    0    0    0 -0.00000000000E+00 -0.00000000000E+00 -0.45593999997E+02  0.45594000000E+02  0.51100000000E-03 0.  1.
    9900012    2    1    2    0    0  0.17791974677E+02  0.25604740652E+02  0.30190504526E+02  0.47787266478E+02  0.19999979178E+02 0.  0.
        -12    1    1    2    0    0 -0.17791974677E+02 -0.25604740652E+02 -0.30190504526E+02  0.43400733522E+02  0.00000000000E+00 0.  1.
         11    1    3    3    0    0  0.73274208300E+01  0.18570824167E+02  0.27888616343E+02  0.34297835617E+02  0.51100000000E-03 0. -1.
        -11    1    3    3    0    0  0.68384858462E+01  0.36399324714E+01  0.33051589701E+01  0.84224742887E+01  0.51100000000E-03 0.  1.
         12    1    3    3    0    0  0.36260680006E+01  0.33939840131E+01 -0.10032707865E+01  0.50669565715E+01  0.00000000000E+00 0. -1.
</event>
<event>
 7    1  0.7470072E-010  0.4778726E+02  0.7816164E-02  0.1312668E+00
        -11   -1    0    0    0    0  0.00000000000E+00  0.00000000000E+00  0.45593999997E+02  0.45594000000E+02  0.51100000000E-03 0. -1.
         11   -1    0    0    0    0 -0.00000000000E+00 -0.00000000000E+00 -0.45593999997E+02  0.45594000000E+02  0.51100000000E-03 0.  1.
    9900012    2    1    2    0    0  0.20701070197E+02  0.37048115038E+02  0.90844582344E+01  0.47787256728E+02  0.19999934726E+02 0.  0.
        -12    1    1    2    0    0 -0.20701070197E+02 -0.37048115038E+02 -0.90844582344E+01  0.43400743272E+02  0.00000000000E+00 0.  1.
         11    1    3    3    0    0  0.92344945504E+01  0.25345941815E+02  0.14586866708E+01  0.27015188749E+02  0.51100000000E-03 0. -1.
        -11    1    3    3    0    0  0.54007853330E+01  0.55359818942E+01  0.91590083035E+01  0.11987619076E+02  0.51100000000E-03 0.  1.
         12    1    3    3    0    0  0.60657903138E+01  0.61661913288E+01 -0.15332367399E+01  0.87844489033E+01  0.00000000000E+00 0. -1.
</event>
<event>
 7    1  0.7470072E-010  0.4778728E+02  0.7816164E-02  0.1312668E+00
        -11   -1    0    0    0    0  0.00000000000E+00  0.00000000000E+00  0.45593999997E+02  0.45594000000E+02  0.51100000000E-03 0. -1.
         11   -1    0    0    0    0 -0.00000000000E+00 -0.00000000000E+00 -0.45593999997E+02  0.45594000000E+02  0.51100000000E-03 0.  1.
    9900012    2    1    2    0    0  0.34001738345E+02 -0.44189952332E+01 -0.26607837435E+02  0.47787277168E+02  0.20000027920E+02 0.  0.
         12    1    1    2    0    0 -0.34001738345E+02  0.44189952332E+01  0.26607837435E+02  0.43400722832E+02  0.00000000000E+00 0. -1.
         11    1    3    3    0    0  0.59106587385E+01  0.34151194898E+01 -0.20589838304E+00  0.68294452379E+01  0.51100000000E-03 0. -1.
        -11    1    3    3    0    0  0.26980206192E+02 -0.59819486437E+01 -0.19758779582E+02  0.33972409490E+02  0.51100000000E-03 0.  1.
        -12    1    3    3    0    0  0.11108734151E+01 -0.18521660792E+01 -0.66431594696E+01  0.69854224401E+01  0.00000000000E+00 0.  1.
</event>
<event>
 7    1  0.7470072E-010  0.4778727E+02  0.7816164E-02  0.1312668E+00
        -11   -1    0    0    0    0  0.00000000000E+00  0.00000000000E+00  0.45593999997E+02  0.45594000000E+02  0.51100000000E-03 0. -1.
         11   -1    0    0    0    0 -0.00000000000E+00 -0.00000000000E+00 -0.45593999997E+02  0.45594000000E+02  0.51100000000E-03 0.  1.
    9900012    2    1    2    0    0 -0.24034947191E+02 -0.14737074576E+02 -0.32996410837E+02  0.47787272107E+02  0.20000004845E+02 0.  0.
         12    1    1    2    0    0  0.24034947191E+02  0.14737074576E+02  0.32996410837E+02  0.43400727893E+02  0.00000000000E+00 0. -1.
         11    1    3    3    0    0 -0.16267024617E+02 -0.42269582055E+01 -0.24235726347E+02  0.29493282242E+02  0.51100000000E-03 0.  1.
        -11    1    3    3    0    0 -0.27876108800E+01 -0.96597064047E+01 -0.86141059783E+01  0.13239468430E+02  0.51100000000E-03 0. -1.
         12    1    3    3    0    0 -0.49803116943E+01 -0.85040996570E+00 -0.14657851140E+00  0.50545214355E+01  0.00000000000E+00 0. -1.
</event>
<event>
 7    1  0.7470072E-010  0.4778727E+02  0.7816164E-02  0.1312668E+00
        -11   -1    0    0    0    0  0.00000000000E+00  0.00000000000E+00  0.45593999997E+02  0.45594000000E+02  0.51100000000E-03 0. -1.
         11   -1    0    0    0    0 -0.00000000000E+00 -0.00000000000E+00 -0.45593999997E+02  0.45594000000E+02  0.51100000000E-03 0.  1.
    9900012    2    1    2    0    0  0.12422458730E+02 -0.27619778552E+02  0.31087836297E+02  0.47787271736E+02  0.20000003155E+02 0.  0.
        -12    1    1    2    0    0 -0.12422458730E+02  0.27619778552E+02 -0.31087836297E+02  0.43400728264E+02  0.00000000000E+00 0.  1.
         11    1    3    3    0    0  0.50362009146E+01 -0.36400464744E+01  0.67377834776E+01  0.91657506207E+01  0.51100000000E-03 0. -1.
        -11    1    3    3    0    0  0.94718724652E+01 -0.92306304772E+01  0.48588222674E+01  0.14090034105E+02  0.51100000000E-03 0.  1.
        -12    1    3    3    0    0 -0.20856146500E+01 -0.14749101601E+02  0.19491230552E+02  0.24531487010E+02  0.00000000000E+00 0.  1.
</event>
<event>
 7    1  0.7470072E-010  0.4778727E+02  0.7816164E-02  0.1312668E+00
        -11   -1    0    0    0    0  0.00000000000E+00  0.00000000000E+00  0.45593999997E+02  0.45594000000E+02  0.51100000000E-03 0. -1.
         11   -1    0    0    0    0 -0.00000000000E+00 -0.00000000000E+00 -0.45593999997E+02  0.45594000000E+02  0.51100000000E-03 0.  1.
    9900012    2    1    2    0    0  0.91525822713E+01  0.16736176243E+02  0.38984022691E+02  0.47787269792E+02  0.19999994288E+02 0.  0.
        -12    1    1    2    0    0 -0.91525822713E+01 -0.16736176243E+02 -0.38984022691E+02  0.43400730208E+02  0.00000000000E+00 0.  1.
         11    1    3    3    0    0 -0.32795872792E+01  0.60523575968E+01  0.19716918415E+02  0.20884051266E+02  0.51100000000E-03 0. -1.
        -11    1    3    3    0    0  0.18453299385E+01  0.67576410213E+00 -0.78618193837E+00  0.21165967979E+01  0.51100000000E-03 0.  1.
         12    1    3    3    0    0  0.10586839612E+02  0.10008054544E+02  0.20053286214E+02  0.24786621728E+02  0.00000000000E+00 0. -1.
</event>
<event>
 7    1  0.7470072E-010  0.4778728E+02  0.7816164E-02  0.1312668E+00
        -11   -1    0    0    0    0  0.00000000000E+00  0.00000000000E+00  0.45593999997E+02  0.45594000000E+02  0.51100000000E-03 0. -1.
         11   -1    0    0    0    0 -0.00000000000E+00 -0.00000000000E+00 -0.45593999997E+02  0.45594000000E+02  0.51100000000E-03 0.  1.
    9900012    2    1    2    0    0 -0.18773810282E+02 -0.20031131702E+02  0.33614291770E+02  0.47787276493E+02  0.20000024843E+02 0.  0.
        -12    1    1    2    0    0  0.18773810282E+02  0.20031131702E+02 -0.33614291770E+02  0.43400723507E+02  0.00000000000E+00 0.  1.
         11    1    3    3    0    0 -0.14320586373E+02 -0.60580153381E+01  0.12692916670E+02  0.20072092012E+02  0.51100000000E-03 0. -1.
        -11    1    3    3    0    0 -0.44470053806E+01 -0.52923671455E+00  0.33601598203E+01  0.55988054650E+01  0.51100000000E-03 0.  1.
         12    1    3    3    0    0 -0.62185282675E-02 -0.13443879649E+02  0.17561215280E+02  0.22116379016E+02  0.00000000000E+00 0. -1.
</event>
<event>
 7    1  0.7470072E-010  0.4778727E+02  0.7816164E-02  0.1312668E+00
        -11   -1    0    0    0    0  0.00000000000E+00  0.00000000000E+00  0.45593999997E+02  0.45594000000E+02  0.51100000000E-03 0. -1.
         11   -1    0    0    0    0 -0.00000000000E+00 -0.00000000000E+00 -0.45593999997E+02  0.45594000000E+02  0.51100000000E-03 0.  1.
    9900012    2    1    2    0    0 -0.20971495172E+02 -0.37212741521E+02  0.76832037697E+01  0.47787270036E+02  0.19999995403E+02 0.  0.
        -12    1    1    2    0    0  0.20971495172E+02  0.37212741521E+02 -0.76832037697E+01  0.43400729964E+02  0.00000000000E+00 0.  1.
         11    1    3    3    0    0 -0.17665458163E+02 -0.24001100631E+02  0.11741806753E+02  0.32031098478E+02  0.51100000000E-03 0. -1.
        -11    1    3    3    0    0 -0.83860468640E+00 -0.56120036380E+01 -0.51856350768E+01  0.76869144697E+01  0.51100000000E-03 0.  1.
        -12    1    3    3    0    0 -0.24674323217E+01 -0.75996372519E+01  0.11270320933E+01  0.80692570886E+01  0.00000000000E+00 0.  1.
</event>
<event>
 7    1  0.7470072E-010  0.4778727E+02  0.7816164E-02  0.1312668E+00
        -11   -1    0    0    0    0  0.00000000000E+00  0.00000000000E+00  0.45593999997E+02  0.45594000000E+02  0.51100000000E-03 0. -1.
         11   -1    0    0    0    0 -0.00000000000E+00 -0.00000000000E+00 -0.45593999997E+02  0.45594000000E+02  0.51100000000E-03 0.  1.
    9900012    2    1    2    0    0 -0.18276205087E+02 -0.18296287808E+02  0.34854694157E+02  0.47787268154E+02  0.19999986823E+02 0.  0.
        -12    1    1    2    0    0  0.18276205087E+02  0.18296287808E+02 -0.34854694157E+02  0.43400731846E+02  0.00000000000E+00 0.  1.
         11    1    3    3    0    0 -0.15412608048E+01 -0.94504652264E+00  0.25003482448E+01  0.30855047245E+01  0.51100000000E-03 0. -1.
        -11    1    3    3    0    0 -0.14453736400E+02 -0.13505870763E+02  0.34479607540E+02  0.39751256299E+02  0.51100000000E-03 0.  1.
        -12    1    3    3    0    0 -0.22812078831E+01 -0.38453705228E+01 -0.21252616279E+01  0.49505071307E+01  0.00000000000E+00 0.  1.
</event>
<event>
 7    1  0.7470072E-010  0.4778727E+02  0.7816164E-02  0.1312668E+00
        -11   -1    0    0    0    0  0.00000000000E+00  0.00000000000E+00  0.45593999997E+02  0.45594000000E+02  0.51100000000E-03 0.  1.
         11   -1    0    0    0    0 -0.00000000000E+00 -0.00000000000E+00 -0.45593999997E+02  0.45594000000E+02  0.51100000000E-03 0. -1.
    9900012    2    1    2    0    0  0.99926356809E+01 -0.39005852253E+02  0.16196115742E+02  0.47787269097E+02  0.19999991119E+02 0.  0.
        -12    1    1    2    0    0 -0.99926356809E+01  0.39005852253E+02 -0.16196115742E+02  0.43400730903E+02  0.00000000000E+00 0.  1.
         11    1    3    3    0    0 -0.78863688841E+00 -0.39693391683E+01  0.30785217381E+01  0.50847711775E+01  0.51100000000E-03 0. -1.
        -11    1    3    3    0    0  0.61119499486E+01 -0.11957166667E+02  0.13651855297E+02  0.19149488771E+02  0.51100000000E-03 0.  1.
        -12    1    3    3    0    0  0.46693226207E+01 -0.23079346417E+02 -0.53426129329E+00  0.23553009148E+02  0.00000000000E+00 0.  1.
</event>
<event>
 7    1  0.7470072E-010  0.4778727E+02  0.7816164E-02  0.1312668E+00
        -11   -1    0    0    0    0  0.00000000000E+00  0.00000000000E+00  0.45593999997E+02  0.45594000000E+02  0.51100000000E-03 0. -1.
         11   -1    0    0    0    0 -0.00000000000E+00 -0.00000000000E+00 -0.45593999997E+02  0.45594000000E+02  0.51100000000E-03 0.  1.
    9900012    2    1    2    0    0  0.12873799304E+02  0.33974872783E+02  0.23740193872E+02  0.47787268506E+02  0.19999988426E+02 0.  0.
        -12    1    1    2    0    0 -0.12873799304E+02 -0.33974872783E+02 -0.23740193872E+02  0.43400731494E+02  0.00000000000E+00 0.  1.
         11    1    3    3    0    0  0.89221821142E+01  0.11955567346E+02  0.41680411762E+01  0.15489141092E+02  0.51100000000E-03 0.  1.
        -11    1    3    3    0    0  0.34514639556E+01  0.12484522264E+02  0.18648641847E+02  0.22705676440E+02  0.51100000000E-03 0. -1.
        -12    1    3    3    0    0  0.50015323429E+00  0.95347831730E+01  0.92351084925E+00  0.95924509747E+01  0.00000000000E+00 0.  1.
</event>
<event>
 7    1  0.7470072E-010  0.4778727E+02  0.7816164E-02  0.1312668E+00
        -11   -1    0    0    0    0  0.00000000000E+00  0.00000000000E+00  0.45593999997E+02  0.45594000000E+02  0.51100000000E-03 0. -1.
         11   -1    0    0    0    0 -0.00000000000E+00 -0.00000000000E+00 -0.45593999997E+02  0.45594000000E+02  0.51100000000E-03 0.  1.
    9900012    2    1    2    0    0 -0.91528012190E+01  0.45772937865E+01  0.42176982521E+02  0.47787271398E+02  0.20000001614E+02 0.  0.
        -12    1    1    2    0    0  0.91528012190E+01 -0.45772937865E+01 -0.42176982521E+02  0.43400728602E+02  0.00000000000E+00 0.  1.
         11    1    3    3    0    0 -0.10277124088E+01 -0.15535852670E+01  0.80854923098E+01  0.82972890832E+01  0.51100000000E-03 0. -1.
        -11    1    3    3    0    0 -0.96818708735E+00  0.25539195732E+00 -0.19961984606E+01  0.22332531973E+01  0.51100000000E-03 0.  1.
        -12    1    3    3    0    0 -0.71569017228E+01  0.58754870962E+01  0.36087688672E+02  0.37256729118E+02  0.00000000000E+00 0.  1.
</event>
<event>
 7    1  0.7470072E-010  0.4778727E+02  0.7816164E-02  0.1312668E+00
        -11   -1    0    0    0    0  0.00000000000E+00  0.00000000000E+00  0.45593999997E+02  0.45594000000E+02  0.51100000000E-03 0. -1.
         11   -1    0    0    0    0 -0.00000000000E+00 -0.00000000000E+00 -0.45593999997E+02  0.45594000000E+02  0.51100000000E-03 0.  1.
    9900012    2    1    2    0    0  0.95525340728E+01 -0.14905784388E+02 -0.39625621772E+02  0.47787271709E+02  0.20000003029E+02 0.  0.
         12    1    1    2    0    0 -0.95525340728E+01  0.14905784388E+02  0.39625621772E+02  0.43400728291E+02  0.00000000000E+00 0. -1.
         11    1    3    3    0    0  0.30490390630E+01  0.34016130954E+01 -0.37657388879E+01  0.59201689580E+01  0.51100000000E-03 0. -1.
        -11    1    3    3    0    0  0.44473843386E+00 -0.86551414400E+01 -0.81144934594E+01  0.11872416350E+02  0.51100000000E-03 0.  1.
         12    1    3    3    0    0  0.60587565759E+01 -0.96522560434E+01 -0.27745389424E+02  0.29994686401E+02  0.00000000000E+00 0. -1.
</event>
<event>
 7    1  0.8577075E-010  0.4778727E+02  0.7816164E-02  0.1312668E+00
        -11   -1    0    0    0    0  0.00000000000E+00  0.00000000000E+00  0.45593999997E+02  0.45594000000E+02  0.51100000000E-03 0.  1.
         11   -1    0    0    0    0 -0.00000000000E+00 -0.00000000000E+00 -0.45593999997E+02  0.45594000000E+02  0.51100000000E-03 0. -1.
    9900012    2    1    2    0    0  0.15560291705E+02 -0.14422708956E+02 -0.37861406982E+02  0.47787270165E+02  0.19999995989E+02 0.  0.
         12    1    1    2    0    0 -0.15560291705E+02  0.14422708956E+02  0.37861406982E+02  0.43400729835E+02  0.00000000000E+00 0. -1.
         11    1    3    3    0    0  0.94217702168E+01 -0.53956311696E+01 -0.54455424066E+01  0.12146461299E+02  0.51100000000E-03 0. -1.
        -11    1    3    3    0    0  0.46420742622E+01 -0.10937687624E+02 -0.22644199860E+02  0.25572282878E+02  0.51100000000E-03 0.  1.
         12    1    3    3    0    0  0.14964472256E+01  0.19106098374E+01 -0.97716647155E+01  0.10068525988E+02  0.00000000000E+00 0. -1.
</event>
<event>
 7    1  0.7470072E-010  0.4778726E+02  0.7816164E-02  0.1312668E+00
        -11   -1    0    0    0    0  0.00000000000E+00  0.00000000000E+00  0.45593999997E+02  0.45594000000E+02  0.51100000000E-03 0. -1.
         11   -1    0    0    0    0 -0.00000000000E+00 -0.00000000000E+00 -0.45593999997E+02  0.45594000000E+02  0.51100000000E-03 0.  1.
    9900012    2    1    2    0    0  0.27533672686E+01 -0.22761191923E+02  0.36850658051E+02  0.47787263971E+02  0.19999967751E+02 0.  0.
        -12    1    1    2    0    0 -0.27533672686E+01  0.22761191923E+02 -0.36850658051E+02  0.43400736029E+02  0.00000000000E+00 0.  1.
         11    1    3    3    0    0  0.84082055346E+01 -0.71212157132E+01  0.18521936697E+02  0.21551607198E+02  0.51100000000E-03 0. -1.
        -11    1    3    3    0    0 -0.72194190078E+01 -0.12058840533E+02  0.10700160320E+02  0.17664344793E+02  0.51100000000E-03 0.  1.
        -12    1    3    3    0    0  0.15645807418E+01 -0.35811356761E+01  0.76285610332E+01  0.85713119804E+01  0.00000000000E+00 0.  1.
</event>
<event>
 7    1  0.7470072E-010  0.4778728E+02  0.7816164E-02  0.1312668E+00
        -11   -1    0    0    0    0  0.00000000000E+00  0.00000000000E+00  0.45593999997E+02  0.45594000000E+02  0.51100000000E-03 0. -1.
         11   -1    0    0    0    0 -0.00000000000E+00 -0.00000000000E+00 -0.45593999997E+02  0.45594000000E+02  0.51100000000E-03 0.  1.
    9900012    2    1    2    0    0 -0.29483920029E+02 -0.27878081990E+02  0.15399153033E+02  0.47787275238E+02  0.20000019122E+02 0.  0.
        -12    1    1    2    0    0  0.29483920029E+02  0.27878081990E+02 -0.15399153033E+02  0.43400724762E+02  0.00000000000E+00 0.  1.
         11    1    3    3    0    0 -0.48067871054E+01 -0.87015934459E+01  0.66260449238E+01  0.11946857426E+02  0.51100000000E-03 0. -1.
        -11    1    3    3    0    0 -0.19899934724E+02 -0.93828013933E+01  0.24351087728E+00  0.22002355824E+02  0.51100000000E-03 0.  1.
        -12    1    3    3    0    0 -0.47771981998E+01 -0.97936871509E+01  0.85295972317E+01  0.13838061988E+02  0.00000000000E+00 0.  1.
</event>
<event>
 7    1  0.7470072E-010  0.4778728E+02  0.7816164E-02  0.1312668E+00
        -11   -1    0    0    0    0  0.00000000000E+00  0.00000000000E+00  0.45593999997E+02  0.45594000000E+02  0.51100000000E-03 0. -1.
         11   -1    0    0    0    0 -0.00000000000E+00 -0.00000000000E+00 -0.45593999997E+02  0.45594000000E+02  0.51100000000E-03 0.  1.
    9900012    2    1    2    0    0  0.24497075590E+01 -0.28211772322E+02 -0.32889473332E+02  0.47787278569E+02  0.20000034310E+02 0.  0.
         12    1    1    2    0    0 -0.24497075590E+01  0.28211772322E+02  0.32889473332E+02  0.43400721431E+02  0.00000000000E+00 0. -1.
         11    1    3    3    0    0 -0.37959931929E+01 -0.12193233400E+02 -0.23473540754E+02  0.26722492789E+02  0.51100000000E-03 0. -1.
        -11    1    3    3    0    0  0.54327001050E+01 -0.13504486780E+02 -0.10758926191E+02  0.18100825580E+02  0.51100000000E-03 0.  1.
         12    1    3    3    0    0  0.81300064687E+00 -0.25140521418E+01  0.13429936136E+01  0.29639602005E+01  0.00000000000E+00 0. -1.
</event>
<event>
 7    1  0.7470072E-010  0.4778728E+02  0.7816164E-02  0.1312668E+00
        -11   -1    0    0    0    0  0.00000000000E+00  0.00000000000E+00  0.45593999997E+02  0.45594000000E+02  0.51100000000E-03 0.  1.
         11   -1    0    0    0    0 -0.00000000000E+00 -0.00000000000E+00 -0.45593999997E+02  0.45594000000E+02  0.51100000000E-03 0. -1.
    9900012    2    1    2    0    0 -0.38666276977E+02  0.19571327681E+02  0.23462476220E+01  0.47787277422E+02  0.20000029076E+02 0.  0.
         12    1    1    2    0    0  0.38666276977E+02 -0.19571327681E+02 -0.23462476220E+01  0.43400722578E+02  0.00000000000E+00 0. -1.
         11    1    3    3    0    0 -0.44457159539E+01  0.71838381928E+01 -0.33760918505E+01  0.90977974239E+01  0.51100000000E-03 0. -1.
        -11    1    3    3    0    0 -0.17495407327E+02  0.25377600948E+00  0.12063513343E+01  0.17538784553E+02  0.51100000000E-03 0.  1.
        -12    1    3    3    0    0 -0.16725153696E+02  0.12133713479E+02  0.45159881382E+01  0.21150695444E+02  0.00000000000E+00 0.  1.
</event>
<event>
 7    1  0.7470072E-010  0.4778727E+02  0.7816164E-02  0.1312668E+00
        -11   -1    0    0    0    0  0.00000000000E+00  0.00000000000E+00  0.45593999997E+02  0.45594000000E+02  0.51100000000E-03 0. -1.
         11   -1    0    0    0    0 -0.00000000000E+00 -0.00000000000E+00 -0.45593999997E+02  0.45594000000E+02  0.51100000000E-03 0.  1.
    9900012    2    1    2    0    0 -0.35030322583E+02  0.17027430933E+02 -0.19145927806E+02  0.47787268946E+02  0.19999990434E+02 0.  0.
         12    1    1    2    0    0  0.35030322583E+02 -0.17027430933E+02  0.19145927806E+02  0.43400731054E+02  0.00000000000E+00 0. -1.
         11    1    3    3    0    0 -0.20999409124E+02  0.42447097926E+01 -0.29008364785E+01  0.21619611405E+02  0.51100000000E-03 0. -1.
        -11    1    3    3    0    0 -0.48347936664E+01  0.95572671756E+01 -0.75171944010E+01  0.13085289358E+02  0.51100000000E-03 0.  1.
         12    1    3    3    0    0 -0.91961197928E+01  0.32254539653E+01 -0.87278969262E+01  0.13082368183E+02  0.00000000000E+00 0. -1.
</event>
<event>
 7    1  0.7470072E-010  0.4778727E+02  0.7816164E-02  0.1312668E+00
        -11   -1    0    0    0    0  0.00000000000E+00  0.00000000000E+00  0.45593999997E+02  0.45594000000E+02  0.51100000000E-03 0. -1.
         11   -1    0    0    0    0 -0.00000000000E+00 -0.00000000000E+00 -0.45593999997E+02  0.45594000000E+02  0.51100000000E-03 0.  1.
    9900012    2    1    2    0    0  0.20295883542E+02  0.70746712078E+01 -0.37704767246E+02  0.47787270346E+02  0.19999996815E+02 0.  0.
         12    1    1    2    0    0 -0.20295883542E+02 -0.70746712078E+01  0.37704767246E+02  0.43400729654E+02  0.00000000000E+00 0. -1.
         11    1    3    3    0    0  0.11104163101E+02 -0.21795835960E+01 -0.69694033578E+01  0.13290056668E+02  0.51100000000E-03 0. -1.
        -11    1    3    3    0    0  0.63408766137E+01  0.23459346213E+01 -0.75383431902E+01  0.10126042850E+02  0.51100000000E-03 0.  1.
         12    1    3    3    0    0  0.28508438272E+01  0.69083201825E+01 -0.23197020698E+02  0.24371170828E+02  0.00000000000E+00 0. -1.
</event>
<event>
 7    1  0.7470072E-010  0.4778726E+02  0.7816164E-02  0.1312668E+00
        -11   -1    0    0    0    0  0.00000000000E+00  0.00000000000E+00  0.45593999997E+02  0.45594000000E+02  0.51100000000E-03 0. -1.
         11   -1    0    0    0    0 -0.00000000000E+00 -0.00000000000E+00 -0.45593999997E+02  0.45594000000E+02  0.51100000000E-03 0.  1.
    9900012    2    1    2    0    0  0.16832843119E+02  0.13233296506E+02  0.37751281682E+02  0.47787262534E+02  0.19999961200E+02 0.  0.
        -12    1    1    2    0    0 -0.16832843119E+02 -0.13233296506E+02 -0.37751281682E+02  0.43400737466E+02  0.00000000000E+00 0.  1.
         11    1    3    3    0    0  0.12904647687E+02  0.10274189555E+02  0.25974869385E+02  0.30769834948E+02  0.51100000000E-03 0. -1.
        -11    1    3    3    0    0  0.50826035455E+01 -0.30399636359E+01  0.40827046779E+01  0.71932409564E+01  0.51100000000E-03 0.  1.
        -12    1    3    3    0    0 -0.11544081129E+01  0.59990705871E+01  0.76937076198E+01  0.98241866299E+01  0.00000000000E+00 0.  1.
</event>
<event>
 7    1  0.7470072E-010  0.4778727E+02  0.7816164E-02  0.1312668E+00
        -11   -1    0    0    0    0  0.00000000000E+00  0.00000000000E+00  0.45593999997E+02  0.45594000000E+02  0.51100000000E-03 0. -1.
         11   -1    0    0    0    0 -0.00000000000E+00 -0.00000000000E+00 -0.45593999997E+02  0.45594000000E+02  0.51100000000E-03 0.  1.
    9900012    2    1    2    0    0  0.61395399932E+01  0.35074006803E+02  0.24814179054E+02  0.47787269745E+02  0.19999994073E+02 0.  0.
        -12    1    1    2    0    0 -0.61395399932E+01 -0.35074006803E+02 -0.24814179054E+02  0.43400730255E+02  0.00000000000E+00 0.  1.
         11    1    3    3    0    0  0.10640638744E+01  0.49676304232E+01  0.62894460929E+01  0.80849685446E+01  0.51100000000E-03 0. -1.
        -11    1    3    3    0    0 -0.26389153535E+01  0.15296861101E+02  0.16865639119E+02  0.22921771680E+02  0.51100000000E-03 0.  1.
        -12    1    3    3    0    0  0.77143914724E+01  0.14809515279E+02  0.16590938421E+01  0.16780529520E+02  0.00000000000E+00 0.  1.
</event>
<event>
 7    1  0.7470072E-010  0.4778726E+02  0.7816164E-02  0.1312668E+00
        -11   -1    0    0    0    0  0.00000000000E+00  0.00000000000E+00  0.45593999997E+02  0.45594000000E+02  0.51100000000E-03 0.  1.
         11   -1    0    0    0    0 -0.00000000000E+00 -0.00000000000E+00 -0.45593999997E+02  0.45594000000E+02  0.51100000000E-03 0. -1.
    9900012    2    1    2    0    0  0.15482539638E+02  0.37943630370E+02  0.14289717210E+02  0.47787261098E+02  0.19999954651E+02 0.  0.
         12    1    1    2    0    0 -0.15482539638E+02 -0.37943630370E+02 -0.14289717210E+02  0.43400738902E+02  0.00000000000E+00 0. -1.
         11    1    3    3    0    0 -0.14883287855E+01  0.13666672996E+01  0.79551068838E+00  0.21715753724E+01  0.51100000000E-03 0. -1.
        -11    1    3    3    0    0  0.77625487814E+01  0.19473116769E+02 -0.15872734207E+01  0.21023293687E+02  0.51100000000E-03 0.  1.
        -12    1    3    3    0    0  0.92083196422E+01  0.17103846301E+02  0.15081479943E+02  0.24592392038E+02  0.00000000000E+00 0.  1.
</event>
<event>
 7    1  0.7470072E-010  0.4778729E+02  0.7816164E-02  0.1312668E+00
        -11   -1    0    0    0    0  0.00000000000E+00  0.00000000000E+00  0.45593999997E+02  0.45594000000E+02  0.51100000000E-03 0. -1.
         11   -1    0    0    0    0 -0.00000000000E+00 -0.00000000000E+00 -0.45593999997E+02  0.45594000000E+02  0.51100000000E-03 0.  1.
    9900012    2    1    2    0    0 -0.28086622995E+02 -0.29114902528E+02  0.15718967753E+02  0.47787287014E+02  0.20000072811E+02 0.  0.
        -12    1    1    2    0    0  0.28086622995E+02  0.29114902528E+02 -0.15718967753E+02  0.43400712986E+02  0.00000000000E+00 0.  1.
         11    1    3    3    0    0 -0.43539197212E+01 -0.75228284151E+01 -0.35873991564E+01  0.94031376290E+01  0.51100000000E-03 0. -1.
        -11    1    3    3    0    0 -0.14132776413E+02 -0.84422465914E+01  0.66183438584E+01  0.17742868210E+02  0.51100000000E-03 0.  1.
         12    1    3    3    0    0 -0.95999268610E+01 -0.13149827522E+02  0.12688023051E+02  0.20641281175E+02  0.00000000000E+00 0. -1.
</event>
<event>
 7    1  0.7470072E-010  0.4778726E+02  0.7816164E-02  0.1312668E+00
        -11   -1    0    0    0    0  0.00000000000E+00  0.00000000000E+00  0.45593999997E+02  0.45594000000E+02  0.51100000000E-03 0. -1.
         11   -1    0    0    0    0 -0.00000000000E+00 -0.00000000000E+00 -0.45593999997E+02  0.45594000000E+02  0.51100000000E-03 0.  1.
    9900012    2    1    2    0    0 -0.17265313545E+02  0.26093352594E+02 -0.30077729595E+02  0.47787263612E+02  0.19999966113E+02 0.  0.
         12    1    1    2    0    0  0.17265313545E+02 -0.26093352594E+02  0.30077729595E+02  0.43400736388E+02  0.00000000000E+00 0. -1.
         11    1    3    3    0    0  0.38908426036E+00  0.20943389420E+01 -0.35707747202E+01  0.41578930397E+01  0.51100000000E-03 0. -1.
        -11    1    3    3    0    0  0.81828412350E+00  0.10149005497E+02 -0.14178896129E+02  0.17456030396E+02  0.51100000000E-03 0.  1.
        -12    1    3    3    0    0 -0.18472681929E+02  0.13850008156E+02 -0.12328058746E+02  0.26173340177E+02  0.00000000000E+00 0.  1.
</event>
<event>
 7    1  0.7470072E-010  0.4778727E+02  0.7816164E-02  0.1312668E+00
        -11   -1    0    0    0    0  0.00000000000E+00  0.00000000000E+00  0.45593999997E+02  0.45594000000E+02  0.51100000000E-03 0. -1.
         11   -1    0    0    0    0 -0.00000000000E+00 -0.00000000000E+00 -0.45593999997E+02  0.45594000000E+02  0.51100000000E-03 0.  1.
    9900012    2    1    2    0    0  0.25239824659E+02  0.28949263351E+02  0.20211745138E+02  0.47787271447E+02  0.20000001836E+02 0.  0.
        -12    1    1    2    0    0 -0.25239824659E+02 -0.28949263351E+02 -0.20211745138E+02  0.43400728553E+02  0.00000000000E+00 0.  1.
         11    1    3    3    0    0  0.61600578647E+01  0.14434811579E+02  0.51556737058E+00  0.15702735691E+02  0.51100000000E-03 0.  1.
        -11    1    3    3    0    0  0.10868776512E+02  0.39461930111E+01  0.63850554516E+01  0.13208772673E+02  0.51100000000E-03 0. -1.
         12    1    3    3    0    0  0.82109902822E+01  0.10568258761E+02  0.13311122315E+02  0.18875763083E+02  0.00000000000E+00 0. -1.
</event>
<event>
 7    1  0.7470072E-010  0.4778727E+02  0.7816164E-02  0.1312668E+00
        -11   -1    0    0    0    0  0.00000000000E+00  0.00000000000E+00  0.45593999997E+02  0.45594000000E+02  0.51100000000E-03 0. -1.
         11   -1    0    0    0    0 -0.00000000000E+00 -0.00000000000E+00 -0.45593999997E+02  0.45594000000E+02  0.51100000000E-03 0.  1.
    9900012    2    1    2    0    0 -0.24714107819E+02  0.16617752504E+02  0.31570336951E+02  0.47787274214E+02  0.20000014451E+02 0.  0.
        -12    1    1    2    0    0  0.24714107819E+02 -0.16617752504E+02 -0.31570336951E+02  0.43400725786E+02  0.00000000000E+00 0.  1.
         11    1    3    3    0    0 -0.21952567139E+02  0.12184962708E+02  0.32790505002E+02  0.41298979875E+02  0.51100000000E-03 0. -1.
        -11    1    3    3    0    0 -0.35602195659E+01  0.42520421765E+01 -0.11705893264E+01  0.56679189885E+01  0.51100000000E-03 0.  1.
        -12    1    3    3    0    0  0.79867888640E+00  0.18074761934E+00 -0.49578724309E-01  0.82037535030E+00  0.00000000000E+00 0.  1.
</event>
<event>
 7    1  0.7470072E-010  0.4778727E+02  0.7816164E-02  0.1312668E+00
        -11   -1    0    0    0    0  0.00000000000E+00  0.00000000000E+00  0.45593999997E+02  0.45594000000E+02  0.51100000000E-03 0. -1.
         11   -1    0    0    0    0 -0.00000000000E+00 -0.00000000000E+00 -0.45593999997E+02  0.45594000000E+02  0.51100000000E-03 0.  1.
    9900012    2    1    2    0    0  0.12348048753E+02  0.36595108791E+02  0.19797650393E+02  0.47787271245E+02  0.20000000912E+02 0.  0.
        -12    1    1    2    0    0 -0.12348048753E+02 -0.36595108791E+02 -0.19797650393E+02  0.43400728755E+02  0.00000000000E+00 0.  1.
         11    1    3    3    0    0  0.47422515591E+01  0.17185224175E+02 -0.42203304900E-01  0.17827581473E+02  0.51100000000E-03 0. -1.
        -11    1    3    3    0    0  0.22336957500E+01  0.66623464585E-01  0.10747958161E+01  0.24797221007E+01  0.51100000000E-03 0.  1.
         12    1    3    3    0    0  0.53721014436E+01  0.19343261152E+02  0.18765057881E+02  0.27479967671E+02  0.00000000000E+00 0. -1.
</event>
<event>
 7    1  0.7470072E-010  0.4778728E+02  0.7816164E-02  0.1312668E+00
        -11   -1    0    0    0    0  0.00000000000E+00  0.00000000000E+00  0.45593999997E+02  0.45594000000E+02  0.51100000000E-03 0. -1.
         11   -1    0    0    0    0 -0.00000000000E+00 -0.00000000000E+00 -0.45593999997E+02  0.45594000000E+02  0.51100000000E-03 0.  1.
    9900012    2    1    2    0    0 -0.33307330213E+02 -0.27190333059E+02  0.59101588771E+01  0.47787280700E+02  0.20000044024E+02 0.  0.
         12    1    1    2    0    0  0.33307330213E+02  0.27190333059E+02 -0.59101588771E+01  0.43400719300E+02  0.00000000000E+00 0. -1.
         11    1    3    3    0    0 -0.59893553828E+01 -0.88477300134E+01 -0.24996948304E+01  0.10972838229E+02  0.51100000000E-03 0. -1.
        -11    1    3    3    0    0 -0.25008715878E+02 -0.14501133511E+02  0.11769630892E+02  0.31212865209E+02  0.51100000000E-03 0.  1.
        -12    1    3    3    0    0 -0.23092589523E+01 -0.38414695349E+01 -0.33597771843E+01  0.56015772622E+01  0.00000000000E+00 0.  1.
</event>
<event>
 7    1  0.7470072E-010  0.4778727E+02  0.7816164E-02  0.1312668E+00
        -11   -1    0    0    0    0  0.00000000000E+00  0.00000000000E+00  0.45593999997E+02  0.45594000000E+02  0.51100000000E-03 0. -1.
         11   -1    0    0    0    0 -0.00000000000E+00 -0.00000000000E+00 -0.45593999997E+02  0.45594000000E+02  0.51100000000E-03 0.  1.
    9900012    2    1    2    0    0  0.15856405563E+02 -0.13805775331E+02 -0.37968387611E+02  0.47787268582E+02  0.19999988771E+02 0.  0.
         12    1    1    2    0    0 -0.15856405563E+02  0.13805775331E+02  0.37968387611E+02  0.43400731418E+02  0.00000000000E+00 0. -1.
         11    1    3    3    0    0 -0.98111925124E+00  0.16086624623E-01  0.11703602826E+01  0.15272842620E+01  0.51100000000E-03 0. -1.
        -11    1    3    3    0    0  0.34103050275E+01 -0.10195168923E+02 -0.16788096214E+02  0.19935190606E+02  0.51100000000E-03 0.  1.
        -12    1    3    3    0    0  0.13427219787E+02 -0.36266930325E+01 -0.22350651680E+02  0.26324793714E+02  0.00000000000E+00 0.  1.
</event>
<event>
 7    1  0.7470072E-010  0.4778727E+02  0.7816164E-02  0.1312668E+00
        -11   -1    0    0    0    0  0.00000000000E+00  0.00000000000E+00  0.45593999997E+02  0.45594000000E+02  0.51100000000E-03 0. -1.
         11   -1    0    0    0    0 -0.00000000000E+00 -0.00000000000E+00 -0.45593999997E+02  0.45594000000E+02  0.51100000000E-03 0.  1.
    9900012    2    1    2    0    0  0.31938488004E+02  0.14445529949E+02  0.25590678070E+02  0.47787272408E+02  0.20000006215E+02 0.  0.
        -12    1    1    2    0    0 -0.31938488004E+02 -0.14445529949E+02 -0.25590678070E+02  0.43400727592E+02  0.00000000000E+00 0.  1.
         11    1    3    3    0    0  0.61062861719E+01 -0.10625459685E-01  0.81116308893E+01  0.10153098033E+02  0.51100000000E-03 0. -1.
        -11    1    3    3    0    0  0.22609942749E+02  0.93139292494E+01  0.19459169797E+02  0.31250889245E+02  0.51100000000E-03 0.  1.
        -12    1    3    3    0    0  0.32222590830E+01  0.51422261593E+01 -0.19801226165E+01  0.63832851298E+01  0.00000000000E+00 0.  1.
</event>
<event>
 7    1  0.7470072E-010  0.4778727E+02  0.7816164E-02  0.1312668E+00
        -11   -1    0    0    0    0  0.00000000000E+00  0.00000000000E+00  0.45593999997E+02  0.45594000000E+02  0.51100000000E-03 0.  1.
         11   -1    0    0    0    0 -0.00000000000E+00 -0.00000000000E+00 -0.45593999997E+02  0.45594000000E+02  0.51100000000E-03 0. -1.
    9900012    2    1    2    0    0  0.13241461378E+02  0.27296419046E+02  0.31035342594E+02  0.47787270950E+02  0.19999999569E+02 0.  0.
        -12    1    1    2    0    0 -0.13241461378E+02 -0.27296419046E+02 -0.31035342594E+02  0.43400729050E+02  0.00000000000E+00 0.  1.
         11    1    3    3    0    0  0.52971728037E+01  0.29918802432E+01  0.13627142172E+02  0.14923484551E+02  0.51100000000E-03 0.  1.
        -11    1    3    3    0    0  0.91154978600E+00  0.86537890989E+01  0.12098480828E+02  0.14902759053E+02  0.51100000000E-03 0. -1.
         12    1    3    3    0    0  0.70327387887E+01  0.15650749704E+02  0.53097195939E+01  0.17961027346E+02  0.00000000000E+00 0. -1.
</event>
<event>
 7    1  0.7470072E-010  0.4778727E+02  0.7816164E-02  0.1312668E+00
        -11   -1    0    0    0    0  0.00000000000E+00  0.00000000000E+00  0.45593999997E+02  0.45594000000E+02  0.51100000000E-03 0. -1.
         11   -1    0    0    0    0 -0.00000000000E+00 -0.00000000000E+00 -0.45593999997E+02  0.45594000000E+02  0.51100000000E-03 0.  1.
    9900012    2    1    2    0    0 -0.15768272901E+02 -0.15583334499E+02  0.37311451833E+02  0.47787272100E+02  0.20000004813E+02 0.  0.
        -12    1    1    2    0    0  0.15768272901E+02  0.15583334499E+02 -0.37311451833E+02  0.43400727900E+02  0.00000000000E+00 0.  1.
         11    1    3    3    0    0 -0.31189685900E+01  0.30566642972E+01  0.13170668226E+02  0.13875794157E+02  0.51100000000E-03 0. -1.
        -11    1    3    3    0    0 -0.12873724584E+02 -0.18948360308E+02  0.24385906346E+02  0.33458116677E+02  0.51100000000E-03 0.  1.
        -12    1    3    3    0    0  0.22442027284E+00  0.30836151130E+00 -0.24512273937E+00  0.45336126640E+00  0.00000000000E+00 0.  1.
</event>
<event>
 7    1  0.7470072E-010  0.4778730E+02  0.7816164E-02  0.1312668E+00
        -11   -1    0    0    0    0  0.00000000000E+00  0.00000000000E+00  0.45593999997E+02  0.45594000000E+02  0.51100000000E-03 0. -1.
         11   -1    0    0    0    0 -0.00000000000E+00 -0.00000000000E+00 -0.45593999997E+02  0.45594000000E+02  0.51100000000E-03 0.  1.
    9900012    2    1    2    0    0  0.29901276699E+02 -0.23025324460E+02 -0.21432893729E+02  0.47787298988E+02  0.20000127406E+02 0.  0.
         12    1    1    2    0    0 -0.29901276699E+02  0.23025324460E+02  0.21432893729E+02  0.43400701012E+02  0.00000000000E+00 0. -1.
         11    1    3    3    0    0  0.14781971289E+02 -0.19236889689E+02 -0.15745408813E+02  0.28922007175E+02  0.51100000000E-03 0. -1.
        -11    1    3    3    0    0  0.39952683934E+01 -0.42444722987E+01 -0.50522303145E+01  0.77138023076E+01  0.51100000000E-03 0.  1.
         12    1    3    3    0    0  0.11124037017E+02  0.45603752762E+00 -0.63525460161E+00  0.11151489505E+02  0.00000000000E+00 0. -1.
</event>
<event>
 7    1  0.7470072E-010  0.4778725E+02  0.7816164E-02  0.1312668E+00
        -11   -1    0    0    0    0  0.00000000000E+00  0.00000000000E+00  0.45593999997E+02  0.45594000000E+02  0.51100000000E-03 0. -1.
         11   -1    0    0    0    0 -0.00000000000E+00 -0.00000000000E+00 -0.45593999997E+02  0.45594000000E+02  0.51100000000E-03 0.  1.
    9900012    2    1    2    0    0  0.28609234018E+02 -0.52540941652E+01 -0.32210730747E+02  0.47787251713E+02  0.19999911859E+02 0.  0.
         12    1    1    2    0    0 -0.28609234018E+02  0.52540941652E+01  0.32210730747E+02  0.43400748287E+02  0.00000000000E+00 0. -1.
         11    1    3    3    0    0  0.54153999920E+01  0.45666136670E+01 -0.56726524319E+01  0.90752136797E+01  0.51100000000E-03 0. -1.
        -11    1    3    3    0    0  0.10866619570E+02 -0.83481741694E+01 -0.21098153057E+02  0.25157652822E+02  0.51100000000E-03 0.  1.
        -12    1    3    3    0    0  0.12327214456E+02 -0.14725336628E+01 -0.54399252589E+01  0.13554385211E+02  0.00000000000E+00 0.  1.
</event>
<event>
 7    1  0.7470072E-010  0.4778727E+02  0.7816164E-02  0.1312668E+00
        -11   -1    0    0    0    0  0.00000000000E+00  0.00000000000E+00  0.45593999997E+02  0.45594000000E+02  0.51100000000E-03 0. -1.
         11   -1    0    0    0    0 -0.00000000000E+00 -0.00000000000E+00 -0.45593999997E+02  0.45594000000E+02  0.51100000000E-03 0.  1.
    9900012    2    1    2    0    0 -0.83364651499E+01 -0.98201840696E+01  0.41445029850E+02  0.47787272292E+02  0.20000005688E+02 0.  0.
        -12    1    1    2    0    0  0.83364651499E+01  0.98201840696E+01 -0.41445029850E+02  0.43400727708E+02  0.00000000000E+00 0.  1.
         11    1    3    3    0    0 -0.32821234715E+01 -0.82556890445E+01  0.91056170313E+01  0.12721674334E+02  0.51100000000E-03 0. -1.
        -11    1    3    3    0    0  0.43631146702E-01  0.19286460570E+01  0.26477776344E+02  0.26547960744E+02  0.51100000000E-03 0.  1.
        -12    1    3    3    0    0 -0.50979728251E+01 -0.34931410821E+01  0.58616364743E+01  0.85176372136E+01  0.00000000000E+00 0.  1.
</event>
<event>
 7    1  0.7470072E-010  0.4778728E+02  0.7816164E-02  0.1312668E+00
        -11   -1    0    0    0    0  0.00000000000E+00  0.00000000000E+00  0.45593999997E+02  0.45594000000E+02  0.51100000000E-03 0. -1.
         11   -1    0    0    0    0 -0.00000000000E+00 -0.00000000000E+00 -0.45593999997E+02  0.45594000000E+02  0.51100000000E-03 0.  1.
    9900012    2    1    2    0    0 -0.17598626111E+02 -0.15677882680E+02 -0.36443313856E+02  0.47787276836E+02  0.20000026406E+02 0.  0.
         12    1    1    2    0    0  0.17598626111E+02  0.15677882680E+02  0.36443313856E+02  0.43400723164E+02  0.00000000000E+00 0. -1.
         11    1    3    3    0    0 -0.12599457457E+02 -0.87431492813E+01 -0.11314552914E+02  0.19058019190E+02  0.51100000000E-03 0. -1.
        -11    1    3    3    0    0 -0.36536878203E+01 -0.75395990790E+01 -0.81560790478E+01  0.11692588022E+02  0.51100000000E-03 0.  1.
         12    1    3    3    0    0 -0.13454808342E+01  0.60486568028E+00 -0.16972681895E+02  0.17036669623E+02  0.00000000000E+00 0. -1.
</event>
<event>
 7    1  0.7470072E-010  0.4778727E+02  0.7816164E-02  0.1312668E+00
        -11   -1    0    0    0    0  0.00000000000E+00  0.00000000000E+00  0.45593999997E+02  0.45594000000E+02  0.51100000000E-03 0. -1.
         11   -1    0    0    0    0 -0.00000000000E+00 -0.00000000000E+00 -0.45593999997E+02  0.45594000000E+02  0.51100000000E-03 0.  1.
    9900012    2    1    2    0    0 -0.16244785852E+02  0.30494091800E+02 -0.26264819244E+02  0.47787269223E+02  0.19999991695E+02 0.  0.
         12    1    1    2    0    0  0.16244785852E+02 -0.30494091800E+02  0.26264819244E+02  0.43400730777E+02  0.00000000000E+00 0. -1.
         11    1    3    3    0    0 -0.51201279055E+01  0.47099877892E+01  0.26528214454E+01  0.74456132471E+01  0.51100000000E-03 0. -1.
        -11    1    3    3    0    0 -0.83218552648E+01  0.17566020785E+02 -0.20434807069E+02  0.28202831444E+02  0.51100000000E-03 0.  1.
         12    1    3    3    0    0 -0.28028026819E+01  0.82180832255E+01 -0.84828336204E+01  0.12138824532E+02  0.00000000000E+00 0. -1.
</event>
<event>
 7    1  0.7470072E-010  0.4778727E+02  0.7816164E-02  0.1312668E+00
        -11   -1    0    0    0    0  0.00000000000E+00  0.00000000000E+00  0.45593999997E+02  0.45594000000E+02  0.51100000000E-03 0. -1.
         11   -1    0    0    0    0 -0.00000000000E+00 -0.00000000000E+00 -0.45593999997E+02  0.45594000000E+02  0.51100000000E-03 0.  1.
    9900012    2    1    2    0    0 -0.35815028399E+02  0.54564861558E+01  0.23898400199E+02  0.47787273825E+02  0.20000012679E+02 0.  0.
        -12    1    1    2    0    0  0.35815028399E+02 -0.54564861558E+01 -0.23898400199E+02  0.43400726175E+02  0.00000000000E+00 0.  1.
         11    1    3    3    0    0 -0.20105170593E+02  0.11281535245E+02  0.13837768482E+02  0.26888189952E+02  0.51100000000E-03 0. -1.
        -11    1    3    3    0    0 -0.96997928320E+01 -0.45830534235E+01  0.22424154988E+01  0.10959871678E+02  0.51100000000E-03 0.  1.
         12    1    3    3    0    0 -0.60100649739E+01 -0.12419956655E+01  0.78182162190E+01  0.99392121957E+01  0.00000000000E+00 0. -1.
</event>
<event>
 7    1  0.7470072E-010  0.4778727E+02  0.7816164E-02  0.1312668E+00
        -11   -1    0    0    0    0  0.00000000000E+00  0.00000000000E+00  0.45593999997E+02  0.45594000000E+02  0.51100000000E-03 0. -1.
         11   -1    0    0    0    0 -0.00000000000E+00 -0.00000000000E+00 -0.45593999997E+02  0.45594000000E+02  0.51100000000E-03 0.  1.
    9900012    2    1    2    0    0  0.12098177639E+01  0.21288452922E+02  0.37801604095E+02  0.47787272368E+02  0.20000006035E+02 0.  0.
        -12    1    1    2    0    0 -0.12098177639E+01 -0.21288452922E+02 -0.37801604095E+02  0.43400727632E+02  0.00000000000E+00 0.  1.
         11    1    3    3    0    0  0.51022525828E-01  0.22242380574E+02  0.21034749408E+02  0.30613506493E+02  0.51100000000E-03 0. -1.
        -11    1    3    3    0    0 -0.87900142039E+00 -0.10942635714E+01  0.10212446939E+02  0.10308449399E+02  0.51100000000E-03 0.  1.
         12    1    3    3    0    0  0.20377966584E+01  0.14033591930E+00  0.65544077477E+01  0.68653164759E+01  0.00000000000E+00 0. -1.
</event>
<event>
 7    1  0.7470072E-010  0.4778727E+02  0.7816164E-02  0.1312668E+00
        -11   -1    0    0    0    0  0.00000000000E+00  0.00000000000E+00  0.45593999997E+02  0.45594000000E+02  0.51100000000E-03 0. -1.
         11   -1    0    0    0    0 -0.00000000000E+00 -0.00000000000E+00 -0.45593999997E+02  0.45594000000E+02  0.51100000000E-03 0.  1.
    9900012    2    1    2    0    0  0.16059518706E+02  0.55031175433E+01 -0.39942843919E+02  0.47787271618E+02  0.20000002613E+02 0.  0.
         12    1    1    2    0    0 -0.16059518706E+02 -0.55031175433E+01  0.39942843919E+02  0.43400728382E+02  0.00000000000E+00 0. -1.
         11    1    3    3    0    0  0.31453873304E+01  0.35247034117E+01  0.58390592518E+00  0.47600359231E+01  0.51100000000E-03 0. -1.
        -11    1    3    3    0    0  0.81815144931E+01 -0.23638167669E-01 -0.32360552979E+02  0.33378782595E+02  0.51100000000E-03 0.  1.
        -12    1    3    3    0    0  0.47326168824E+01  0.20020522993E+01 -0.81661968652E+01  0.96484530991E+01  0.00000000000E+00 0.  1.
</event>
<event>
 7    1  0.7470072E-010  0.4778727E+02  0.7816164E-02  0.1312668E+00
        -11   -1    0    0    0    0  0.00000000000E+00  0.00000000000E+00  0.45593999997E+02  0.45594000000E+02  0.51100000000E-03 0. -1.
         11   -1    0    0    0    0 -0.00000000000E+00 -0.00000000000E+00 -0.45593999997E+02  0.45594000000E+02  0.51100000000E-03 0.  1.
    9900012    2    1    2    0    0  0.70327573293E+01  0.10151249632E+02 -0.41606679954E+02  0.47787270034E+02  0.19999995393E+02 0.  0.
         12    1    1    2    0    0 -0.70327573293E+01 -0.10151249632E+02  0.41606679954E+02  0.43400729966E+02  0.00000000000E+00 0. -1.
         11    1    3    3    0    0 -0.35076006119E+01 -0.28621393144E+01 -0.10184672616E+02  0.11145521974E+02  0.51100000000E-03 0. -1.
        -11    1    3    3    0    0  0.39114532218E+01  0.22217671276E+01 -0.16337340149E+02  0.16945335608E+02  0.51100000000E-03 0.  1.
         12    1    3    3    0    0  0.66289047194E+01  0.10791621819E+02 -0.15084667189E+02  0.19696412452E+02  0.00000000000E+00 0. -1.
</event>
<event>
 7    1  0.7470072E-010  0.4778725E+02  0.7816164E-02  0.1312668E+00
        -11   -1    0    0    0    0  0.00000000000E+00  0.00000000000E+00  0.45593999997E+02  0.45594000000E+02  0.51100000000E-03 0. -1.
         11   -1    0    0    0    0 -0.00000000000E+00 -0.00000000000E+00 -0.45593999997E+02  0.45594000000E+02  0.51100000000E-03 0.  1.
    9900012    2    1    2    0    0  0.13413126725E+02 -0.30237314892E+02  0.28096575313E+02  0.47787254330E+02  0.19999923791E+02 0.  0.
        -12    1    1    2    0    0 -0.13413126725E+02  0.30237314892E+02 -0.28096575313E+02  0.43400745670E+02  0.00000000000E+00 0.  1.
         11    1    3    3    0    0  0.90747125542E+01 -0.28617129515E+02  0.28653343795E+02  0.41500658073E+02  0.51100000000E-03 0. -1.
        -11    1    3    3    0    0  0.45343151899E+01 -0.26119960272E+01 -0.64185013879E+00  0.52720498243E+01  0.51100000000E-03 0.  1.
        -12    1    3    3    0    0 -0.19590101888E+00  0.99181065013E+00  0.85081656496E-01  0.10145464322E+01  0.00000000000E+00 0.  1.
</event>
<event>
 7    1  0.7470072E-010  0.4778727E+02  0.7816164E-02  0.1312668E+00
        -11   -1    0    0    0    0  0.00000000000E+00  0.00000000000E+00  0.45593999997E+02  0.45594000000E+02  0.51100000000E-03 0. -1.
         11   -1    0    0    0    0 -0.00000000000E+00 -0.00000000000E+00 -0.45593999997E+02  0.45594000000E+02  0.51100000000E-03 0.  1.
    9900012    2    1    2    0    0 -0.68871037629E+01 -0.35613734483E+02  0.23829665810E+02  0.47787271266E+02  0.20000001008E+02 0.  0.
        -12    1    1    2    0    0  0.68871037629E+01  0.35613734483E+02 -0.23829665810E+02  0.43400728734E+02  0.00000000000E+00 0.  1.
         11    1    3    3    0    0 -0.57991102377E+01 -0.29259350706E+02  0.24023923386E+02  0.38299976220E+02  0.51100000000E-03 0. -1.
        -11    1    3    3    0    0  0.49797778132E+00  0.69475472206E+00 -0.18823719840E+01  0.20673631857E+01  0.51100000000E-03 0.  1.
         12    1    3    3    0    0 -0.15859713065E+01 -0.70491384982E+01  0.16881144080E+01  0.74199318600E+01  0.00000000000E+00 0. -1.
</event>
<event>
 7    1  0.7470072E-010  0.4778727E+02  0.7816164E-02  0.1312668E+00
        -11   -1    0    0    0    0  0.00000000000E+00  0.00000000000E+00  0.45593999997E+02  0.45594000000E+02  0.51100000000E-03 0. -1.
         11   -1    0    0    0    0 -0.00000000000E+00 -0.00000000000E+00 -0.45593999997E+02  0.45594000000E+02  0.51100000000E-03 0.  1.
    9900012    2    1    2    0    0  0.10099692517E+02  0.17353523426E+02  0.38476939966E+02  0.47787268746E+02  0.19999989521E+02 0.  0.
        -12    1    1    2    0    0 -0.10099692517E+02 -0.17353523426E+02 -0.38476939966E+02  0.43400731254E+02  0.00000000000E+00 0.  1.
         11    1    3    3    0    0  0.10192680210E+01  0.25476338712E-01  0.13857781018E+02  0.13895238442E+02  0.51100000000E-03 0.  1.
        -11    1    3    3    0    0  0.39697545756E+01  0.82415671534E+01  0.25691277334E+01  0.95017260593E+01  0.51100000000E-03 0. -1.
         12    1    3    3    0    0  0.51106699200E+01  0.90864799340E+01  0.22050031214E+02  0.24390304245E+02  0.00000000000E+00 0. -1.
</event>
<event>
 7    1  0.7470072E-010  0.4778727E+02  0.7816164E-02  0.1312668E+00
        -11   -1    0    0    0    0  0.00000000000E+00  0.00000000000E+00  0.45593999997E+02  0.45594000000E+02  0.51100000000E-03 0.  1.
         11   -1    0    0    0    0 -0.00000000000E+00 -0.00000000000E+00 -0.45593999997E+02  0.45594000000E+02  0.51100000000E-03 0. -1.
    9900012    2    1    2    0    0 -0.27446719852E+02 -0.33180461448E+02  0.54182761575E+01  0.47787272252E+02  0.20000005506E+02 0.  0.
         12    1    1    2    0    0  0.27446719852E+02  0.33180461448E+02 -0.54182761575E+01  0.43400727748E+02  0.00000000000E+00 0. -1.
         11    1    3    3    0    0 -0.49876586623E+01 -0.17268989874E+02  0.51273685585E+01  0.18691834014E+02  0.51100000000E-03 0. -1.
        -11    1    3    3    0    0 -0.21483626289E+02 -0.14928782398E+02  0.27170089737E+01  0.26302031869E+02  0.51100000000E-03 0.  1.
         12    1    3    3    0    0 -0.97543490015E+00 -0.98268917571E+00 -0.24261013748E+01  0.27934063688E+01  0.00000000000E+00 0. -1.
</event>
<event>
 7    1  0.7470072E-010  0.4778727E+02  0.7816164E-02  0.1312668E+00
        -11   -1    0    0    0    0  0.00000000000E+00  0.00000000000E+00  0.45593999997E+02  0.45594000000E+02  0.51100000000E-03 0. -1.
         11   -1    0    0    0    0 -0.00000000000E+00 -0.00000000000E+00 -0.45593999997E+02  0.45594000000E+02  0.51100000000E-03 0.  1.
    9900012    2    1    2    0    0  0.98276889882E+01  0.21193490296E+02 -0.36576979824E+02  0.47787274720E+02  0.20000016760E+02 0.  0.
         12    1    1    2    0    0 -0.98276889882E+01 -0.21193490296E+02  0.36576979824E+02  0.43400725280E+02  0.00000000000E+00 0. -1.
         11    1    3    3    0    0  0.37225921312E+01 -0.18395333660E+01 -0.11268634323E+01  0.43024872615E+01  0.51100000000E-03 0. -1.
        -11    1    3    3    0    0 -0.18624462400E+01  0.73644727022E+01 -0.11245975446E+02  0.13571150584E+02  0.51100000000E-03 0.  1.
         12    1    3    3    0    0  0.79675430971E+01  0.15668550959E+02 -0.24204140946E+02  0.29913636875E+02  0.00000000000E+00 0. -1.
</event>
<event>
 7    1  0.7470072E-010  0.4778727E+02  0.7816164E-02  0.1312668E+00
        -11   -1    0    0    0    0  0.00000000000E+00  0.00000000000E+00  0.45593999997E+02  0.45594000000E+02  0.51100000000E-03 0. -1.
         11   -1    0    0    0    0 -0.00000000000E+00 -0.00000000000E+00 -0.45593999997E+02  0.45594000000E+02  0.51100000000E-03 0.  1.
    9900012    2    1    2    0    0  0.21564838499E+02  0.61643321207E+01 -0.37156181339E+02  0.47787273489E+02  0.20000011146E+02 0.  0.
         12    1    1    2    0    0 -0.21564838499E+02 -0.61643321207E+01  0.37156181339E+02  0.43400726511E+02  0.00000000000E+00 0. -1.
         11    1    3    3    0    0  0.19317711171E+02  0.47455199780E+01 -0.32184700427E+02  0.37835814602E+02  0.51100000000E-03 0.  1.
        -11    1    3    3    0    0 -0.93306863777E+00 -0.30135320891E+01 -0.15834922110E+01  0.35297932769E+01  0.51100000000E-03 0. -1.
        -12    1    3    3    0    0  0.31801959664E+01  0.44323442317E+01 -0.33879887008E+01  0.64216656102E+01  0.00000000000E+00 0.  1.
</event>
<event>
 7    1  0.7470072E-010  0.4778727E+02  0.7816164E-02  0.1312668E+00
        -11   -1    0    0    0    0  0.00000000000E+00  0.00000000000E+00  0.45593999997E+02  0.45594000000E+02  0.51100000000E-03 0. -1.
         11   -1    0    0    0    0 -0.00000000000E+00 -0.00000000000E+00 -0.45593999997E+02  0.45594000000E+02  0.51100000000E-03 0.  1.
    9900012    2    1    2    0    0  0.15466061595E+02  0.83129615728E+01 -0.39690285883E+02  0.47787272070E+02  0.20000004676E+02 0.  0.
         12    1    1    2    0    0 -0.15466061595E+02 -0.83129615728E+01  0.39690285883E+02  0.43400727930E+02  0.00000000000E+00 0. -1.
         11    1    3    3    0    0  0.92863193838E+01  0.85823640565E+01 -0.18022079301E+02  0.22015631790E+02  0.51100000000E-03 0. -1.
        -11    1    3    3    0    0 -0.11139972992E+00  0.29258894871E+01 -0.17138319851E+02  0.17386639893E+02  0.51100000000E-03 0.  1.
         12    1    3    3    0    0  0.62911419410E+01 -0.31952919708E+01 -0.45298867307E+01  0.83850003872E+01  0.00000000000E+00 0. -1.
</event>
<event>
 7    1  0.7470072E-010  0.4778726E+02  0.7816164E-02  0.1312668E+00
        -11   -1    0    0    0    0  0.00000000000E+00  0.00000000000E+00  0.45593999997E+02  0.45594000000E+02  0.51100000000E-03 0. -1.
         11   -1    0    0    0    0 -0.00000000000E+00 -0.00000000000E+00 -0.45593999997E+02  0.45594000000E+02  0.51100000000E-03 0.  1.
    9900012    2    1    2    0    0  0.21219470724E+02 -0.25629303262E+02  0.27865700401E+02  0.47787258274E+02  0.19999941775E+02 0.  0.
        -12    1    1    2    0    0 -0.21219470724E+02  0.25629303262E+02 -0.27865700401E+02  0.43400741726E+02  0.00000000000E+00 0.  1.
         11    1    3    3    0    0  0.46216881065E+01 -0.16448657790E+02  0.71157496653E+01  0.18508166781E+02  0.51100000000E-03 0. -1.
        -11    1    3    3    0    0  0.17190429628E+02 -0.74865741483E+01  0.19714791860E+02  0.27207217455E+02  0.51100000000E-03 0.  1.
        -12    1    3    3    0    0 -0.59264701115E+00 -0.16940713241E+01  0.10351588760E+01  0.20718740381E+01  0.00000000000E+00 0.  1.
</event>
<event>
 7    1  0.7470072E-010  0.4778727E+02  0.7816164E-02  0.1312668E+00
        -11   -1    0    0    0    0  0.00000000000E+00  0.00000000000E+00  0.45593999997E+02  0.45594000000E+02  0.51100000000E-03 0. -1.
         11   -1    0    0    0    0 -0.00000000000E+00 -0.00000000000E+00 -0.45593999997E+02  0.45594000000E+02  0.51100000000E-03 0.  1.
    9900012    2    1    2    0    0 -0.28679385920E+02 -0.24470973167E+02  0.21500868438E+02  0.47787273646E+02  0.20000011862E+02 0.  0.
        -12    1    1    2    0    0  0.28679385920E+02  0.24470973167E+02 -0.21500868438E+02  0.43400726354E+02  0.00000000000E+00 0.  1.
         11    1    3    3    0    0 -0.37036472665E+01 -0.93512378440E+01  0.74299193953E+01  0.12504653325E+02  0.51100000000E-03 0. -1.
        -11    1    3    3    0    0 -0.11478271565E+02 -0.30583594508E+01 -0.72898452192E+00  0.11901079756E+02  0.51100000000E-03 0.  1.
        -12    1    3    3    0    0 -0.13497467088E+02 -0.12061375872E+02  0.14799933565E+02  0.23381540566E+02  0.00000000000E+00 0.  1.
</event>
<event>
 7    1  0.7470072E-010  0.4778727E+02  0.7816164E-02  0.1312668E+00
        -11   -1    0    0    0    0  0.00000000000E+00  0.00000000000E+00  0.45593999997E+02  0.45594000000E+02  0.51100000000E-03 0. -1.
         11   -1    0    0    0    0 -0.00000000000E+00 -0.00000000000E+00 -0.45593999997E+02  0.45594000000E+02  0.51100000000E-03 0.  1.
    9900012    2    1    2    0    0 -0.10031092929E+02 -0.85910707280E+01 -0.41342398159E+02  0.47787271813E+02  0.20000003504E+02 0.  0.
         12    1    1    2    0    0  0.10031092929E+02  0.85910707280E+01  0.41342398159E+02  0.43400728187E+02  0.00000000000E+00 0. -1.
         11    1    3    3    0    0  0.52608129069E+00  0.43059961241E+01 -0.93542224432E+01  0.10311151338E+02  0.51100000000E-03 0.  1.
        -11    1    3    3    0    0 -0.61841264985E+01 -0.30324816450E+00 -0.99128306926E+01  0.11687582838E+02  0.51100000000E-03 0. -1.
         12    1    3    3    0    0 -0.43730477215E+01 -0.12593818688E+02 -0.22075345024E+02  0.25788537636E+02  0.00000000000E+00 0. -1.
</event>
<event>
 7    1  0.7470072E-010  0.4778727E+02  0.7816164E-02  0.1312668E+00
        -11   -1    0    0    0    0  0.00000000000E+00  0.00000000000E+00  0.45593999997E+02  0.45594000000E+02  0.51100000000E-03 0. -1.
         11   -1    0    0    0    0 -0.00000000000E+00 -0.00000000000E+00 -0.45593999997E+02  0.45594000000E+02  0.51100000000E-03 0.  1.
    9900012    2    1    2    0    0  0.40148458536E+02 -0.13749218363E+02 -0.90930557613E+01  0.47787269690E+02  0.19999993823E+02 0.  0.
         12    1    1    2    0    0 -0.40148458536E+02  0.13749218363E+02  0.90930557613E+01  0.43400730310E+02  0.00000000000E+00 0. -1.
         11    1    3    3    0    0  0.17895270638E+02 -0.34875887005E+01 -0.11202335111E+02  0.21398511591E+02  0.51100000000E-03 0. -1.
        -11    1    3    3    0    0  0.17090356289E+02 -0.38492635044E+01  0.39380024393E+01  0.17955638977E+02  0.51100000000E-03 0.  1.
         12    1    3    3    0    0  0.51628316092E+01 -0.64123661581E+01 -0.18287230900E+01  0.84331191211E+01  0.00000000000E+00 0. -1.
</event>
<event>
 7    1  0.7470072E-010  0.4778727E+02  0.7816164E-02  0.1312668E+00
        -11   -1    0    0    0    0  0.00000000000E+00  0.00000000000E+00  0.45593999997E+02  0.45594000000E+02  0.51100000000E-03 0. -1.
         11   -1    0    0    0    0 -0.00000000000E+00 -0.00000000000E+00 -0.45593999997E+02  0.45594000000E+02  0.51100000000E-03 0.  1.
    9900012    2    1    2    0    0 -0.32639869694E+02  0.12901364309E+02  0.25530706099E+02  0.47787271335E+02  0.20000001327E+02 0.  0.
        -12    1    1    2    0    0  0.32639869694E+02 -0.12901364309E+02 -0.25530706099E+02  0.43400728665E+02  0.00000000000E+00 0.  1.
         11    1    3    3    0    0 -0.12643078925E+02  0.51290946762E+01 -0.57973037283E+00  0.13656176056E+02  0.51100000000E-03 0. -1.
        -11    1    3    3    0    0 -0.41235773869E+00  0.10471252950E+01  0.60298203476E+00  0.12767528670E+01  0.51100000000E-03 0.  1.
         12    1    3    3    0    0 -0.19584433031E+02  0.67251443373E+01  0.25507454437E+02  0.32854342413E+02  0.00000000000E+00 0. -1.
</event>
<event>
 7    1  0.7470072E-010  0.4778727E+02  0.7816164E-02  0.1312668E+00
        -11   -1    0    0    0    0  0.00000000000E+00  0.00000000000E+00  0.45593999997E+02  0.45594000000E+02  0.51100000000E-03 0. -1.
         11   -1    0    0    0    0 -0.00000000000E+00 -0.00000000000E+00 -0.45593999997E+02  0.45594000000E+02  0.51100000000E-03 0.  1.
    9900012    2    1    2    0    0  0.78782515889E+01 -0.58788423841E+01 -0.42272868583E+02  0.47787273576E+02  0.20000011543E+02 0.  0.
         12    1    1    2    0    0 -0.78782515889E+01  0.58788423841E+01  0.42272868583E+02  0.43400726424E+02  0.00000000000E+00 0. -1.
         11    1    3    3    0    0  0.13054151055E+01  0.11556774967E+01 -0.10964721470E+01  0.20595995980E+01  0.51100000000E-03 0. -1.
        -11    1    3    3    0    0  0.15050274375E+01  0.14477109454E+01  0.10662966106E+01  0.23447736121E+01  0.51100000000E-03 0.  1.
        -12    1    3    3    0    0  0.50678090460E+01 -0.84822308263E+01 -0.42242693047E+02  0.43382900366E+02  0.00000000000E+00 0.  1.
</event>
<event>
 7    1  0.7470072E-010  0.4778727E+02  0.7816164E-02  0.1312668E+00
        -11   -1    0    0    0    0  0.00000000000E+00  0.00000000000E+00  0.45593999997E+02  0.45594000000E+02  0.51100000000E-03 0. -1.
         11   -1    0    0    0    0 -0.00000000000E+00 -0.00000000000E+00 -0.45593999997E+02  0.45594000000E+02  0.51100000000E-03 0.  1.
    9900012    2    1    2    0    0 -0.38416774342E+02  0.11919897938E+02  0.16300018636E+02  0.47787272757E+02  0.20000007809E+02 0.  0.
        -12    1    1    2    0    0  0.38416774342E+02 -0.11919897938E+02 -0.16300018636E+02  0.43400727243E+02  0.00000000000E+00 0.  1.
         11    1    3    3    0    0 -0.12551961034E+02  0.59780402535E+01  0.15500145735E+02  0.20821700438E+02  0.51100000000E-03 0. -1.
        -11    1    3    3    0    0 -0.24406922527E+02  0.66344872460E+01  0.37011767080E+00  0.25295281687E+02  0.51100000000E-03 0.  1.
        -12    1    3    3    0    0 -0.14578907808E+01 -0.69262956138E+00  0.42975522973E+00  0.16702906321E+01  0.00000000000E+00 0.  1.
</event>
<event>
 7    1  0.7470072E-010  0.4778727E+02  0.7816164E-02  0.1312668E+00
        -11   -1    0    0    0    0  0.00000000000E+00  0.00000000000E+00  0.45593999997E+02  0.45594000000E+02  0.51100000000E-03 0.  1.
         11   -1    0    0    0    0 -0.00000000000E+00 -0.00000000000E+00 -0.45593999997E+02  0.45594000000E+02  0.51100000000E-03 0. -1.
    9900012    2    1    2    0    0 -0.23963316282E+02 -0.35108378986E+02 -0.87626863690E+01  0.47787268732E+02  0.19999989456E+02 0.  0.
        -12    1    1    2    0    0  0.23963316282E+02  0.35108378986E+02  0.87626863690E+01  0.43400731268E+02  0.00000000000E+00 0.  1.
         11    1    3    3    0    0  0.31740310524E+00 -0.94057757642E+01 -0.63989100983E+01  0.11380483872E+02  0.51100000000E-03 0. -1.
        -11    1    3    3    0    0 -0.44797684708E+01 -0.11922465312E+01  0.92244801455E+00  0.47265936935E+01  0.51100000000E-03 0.  1.
         12    1    3    3    0    0 -0.19800950916E+02 -0.24510356690E+02 -0.32862242852E+01  0.31680191166E+02  0.00000000000E+00 0. -1.
</event>
<event>
 7    1  0.7470072E-010  0.4778728E+02  0.7816164E-02  0.1312668E+00
        -11   -1    0    0    0    0  0.00000000000E+00  0.00000000000E+00  0.45593999997E+02  0.45594000000E+02  0.51100000000E-03 0. -1.
         11   -1    0    0    0    0 -0.00000000000E+00 -0.00000000000E+00 -0.45593999997E+02  0.45594000000E+02  0.51100000000E-03 0.  1.
    9900012    2    1    2    0    0  0.31659912000E+01 -0.38124285576E+02 -0.20497271122E+02  0.47787276799E+02  0.20000026236E+02 0.  0.
         12    1    1    2    0    0 -0.31659912000E+01  0.38124285576E+02  0.20497271122E+02  0.43400723201E+02  0.00000000000E+00 0. -1.
         11    1    3    3    0    0  0.74194953269E+01 -0.19638507904E+02 -0.11913193903E+02  0.24138021726E+02  0.51100000000E-03 0. -1.
        -11    1    3    3    0    0  0.22628363143E+00 -0.11296602739E+02  0.39420459287E+00  0.11305743463E+02  0.51100000000E-03 0.  1.
         12    1    3    3    0    0 -0.44797877583E+01 -0.71891749326E+01 -0.89782818115E+01  0.12343511610E+02  0.00000000000E+00 0. -1.
</event>
<event>
 7    1  0.7470072E-010  0.4778728E+02  0.7816164E-02  0.1312668E+00
        -11   -1    0    0    0    0  0.00000000000E+00  0.00000000000E+00  0.45593999997E+02  0.45594000000E+02  0.51100000000E-03 0. -1.
         11   -1    0    0    0    0 -0.00000000000E+00 -0.00000000000E+00 -0.45593999997E+02  0.45594000000E+02  0.51100000000E-03 0.  1.
    9900012    2    1    2    0    0 -0.15476206597E+02  0.36237294750E+02  0.18192530456E+02  0.47787278050E+02  0.20000031939E+02 0.  0.
        -12    1    1    2    0    0  0.15476206597E+02 -0.36237294750E+02 -0.18192530456E+02  0.43400721950E+02  0.00000000000E+00 0.  1.
         11    1    3    3    0    0 -0.79661620194E+01  0.21691199408E+02  0.89532494337E+01  0.24781617073E+02  0.51100000000E-03 0. -1.
        -11    1    3    3    0    0 -0.46650124411E+01  0.43547799811E+01  0.10564097087E+02  0.12342066167E+02  0.51100000000E-03 0.  1.
        -12    1    3    3    0    0 -0.28450321360E+01  0.10191315362E+02 -0.13248160649E+01  0.10663594809E+02  0.00000000000E+00 0.  1.
</event>
<event>
 7    1  0.7470072E-010  0.4778727E+02  0.7816164E-02  0.1312668E+00
        -11   -1    0    0    0    0  0.00000000000E+00  0.00000000000E+00  0.45593999997E+02  0.45594000000E+02  0.51100000000E-03 0. -1.
         11   -1    0    0    0    0 -0.00000000000E+00 -0.00000000000E+00 -0.45593999997E+02  0.45594000000E+02  0.51100000000E-03 0.  1.
    9900012    2    1    2    0    0  0.10248492136E+02 -0.23410158837E+02  0.35079280005E+02  0.47787274044E+02  0.20000013677E+02 0.  0.
        -12    1    1    2    0    0 -0.10248492136E+02  0.23410158837E+02 -0.35079280005E+02  0.43400725956E+02  0.00000000000E+00 0.  1.
         11    1    3    3    0    0  0.12054317078E+01 -0.95122171943E+00  0.80907868810E+01  0.82352122605E+01  0.51100000000E-03 0. -1.
        -11    1    3    3    0    0  0.11582531061E+02 -0.12490975927E+02  0.22764004767E+02  0.28432013975E+02  0.51100000000E-03 0.  1.
        -12    1    3    3    0    0 -0.25394706330E+01 -0.99679611900E+01  0.42244883567E+01  0.11120047808E+02  0.00000000000E+00 0.  1.
</event>
<event>
 7    1  0.7470072E-010  0.4778727E+02  0.7816164E-02  0.1312668E+00
        -11   -1    0    0    0    0  0.00000000000E+00  0.00000000000E+00  0.45593999997E+02  0.45594000000E+02  0.51100000000E-03 0. -1.
         11   -1    0    0    0    0 -0.00000000000E+00 -0.00000000000E+00 -0.45593999997E+02  0.45594000000E+02  0.51100000000E-03 0.  1.
    9900012    2    1    2    0    0  0.75933697413E+01 -0.21016523132E+02  0.37205776770E+02  0.47787270356E+02  0.19999996859E+02 0.  0.
        -12    1    1    2    0    0 -0.75933697413E+01  0.21016523132E+02 -0.37205776770E+02  0.43400729644E+02  0.00000000000E+00 0.  1.
         11    1    3    3    0    0  0.79577280320E+01 -0.36363641831E+01  0.16370442847E+02  0.18561788146E+02  0.51100000000E-03 0. -1.
        -11    1    3    3    0    0 -0.51245040400E+01 -0.52876996235E+01  0.59621014886E+01  0.94745429117E+01  0.51100000000E-03 0.  1.
         12    1    3    3    0    0  0.47601457493E+01 -0.12092459326E+02  0.14873232435E+02  0.19750939298E+02  0.00000000000E+00 0. -1.
</event>
<event>
 7    1  0.7470072E-010  0.4778727E+02  0.7816164E-02  0.1312668E+00
        -11   -1    0    0    0    0  0.00000000000E+00  0.00000000000E+00  0.45593999997E+02  0.45594000000E+02  0.51100000000E-03 0. -1.
         11   -1    0    0    0    0 -0.00000000000E+00 -0.00000000000E+00 -0.45593999997E+02  0.45594000000E+02  0.51100000000E-03 0.  1.
    9900012    2    1    2    0    0 -0.28460716030E+02 -0.77790272840E+01 -0.31829197616E+02  0.47787269093E+02  0.19999991101E+02 0.  0.
         12    1    1    2    0    0  0.28460716030E+02  0.77790272840E+01  0.31829197616E+02  0.43400730907E+02  0.00000000000E+00 0. -1.
         11    1    3    3    0    0 -0.11456943098E+01 -0.10896616954E+01  0.14940746865E+01  0.21753706561E+01  0.51100000000E-03 0. -1.
        -11    1    3    3    0    0 -0.27436795649E+02 -0.86565250238E+01 -0.28946970542E+02  0.40812256551E+02  0.51100000000E-03 0.  1.
         12    1    3    3    0    0  0.12177392889E+00  0.19671594352E+01 -0.43763017598E+01  0.47996418852E+01  0.00000000000E+00 0. -1.
</event>
<event>
 7    1  0.7470072E-010  0.4778727E+02  0.7816164E-02  0.1312668E+00
        -11   -1    0    0    0    0  0.00000000000E+00  0.00000000000E+00  0.45593999997E+02  0.45594000000E+02  0.51100000000E-03 0. -1.
         11   -1    0    0    0    0 -0.00000000000E+00 -0.00000000000E+00 -0.45593999997E+02  0.45594000000E+02  0.51100000000E-03 0.  1.
    9900012    2    1    2    0    0  0.24563020337E+02  0.10471101110E+02  0.34214581258E+02  0.47787268472E+02  0.19999988269E+02 0.  0.
        -12    1    1    2    0    0 -0.24563020337E+02 -0.10471101110E+02 -0.34214581258E+02  0.43400731528E+02  0.00000000000E+00 0.  1.
         11    1    3    3    0    0  0.14705384276E+02  0.43003512953E+01  0.32420159048E+02  0.35858165889E+02  0.51100000000E-03 0. -1.
        -11    1    3    3    0    0  0.70479646550E+01  0.49039455043E+01  0.20779215377E+01  0.88340390233E+01  0.51100000000E-03 0.  1.
         12    1    3    3    0    0  0.28096714053E+01  0.12668043104E+01 -0.28349932724E+00  0.30950635592E+01  0.00000000000E+00 0. -1.
</event>
<event>
 7    1  0.7470072E-010  0.4778727E+02  0.7816164E-02  0.1312668E+00
        -11   -1    0    0    0    0  0.00000000000E+00  0.00000000000E+00  0.45593999997E+02  0.45594000000E+02  0.51100000000E-03 0. -1.
         11   -1    0    0    0    0 -0.00000000000E+00 -0.00000000000E+00 -0.45593999997E+02  0.45594000000E+02  0.51100000000E-03 0.  1.
    9900012    2    1    2    0    0 -0.21076455965E+02  0.49100732630E+01  0.37620438897E+02  0.47787271455E+02  0.20000001870E+02 0.  0.
        -12    1    1    2    0    0  0.21076455965E+02 -0.49100732630E+01 -0.37620438897E+02  0.43400728545E+02  0.00000000000E+00 0.  1.
         11    1    3    3    0    0 -0.63966092304E+01  0.89294636584E+00  0.84100264257E+00  0.65131596452E+01  0.51100000000E-03 0. -1.
        -11    1    3    3    0    0  0.16723699987E+01  0.44361456856E+00  0.18028453710E+01  0.24987730971E+01  0.51100000000E-03 0.  1.
         12    1    3    3    0    0 -0.16352216733E+02  0.35735123286E+01  0.34976590883E+02  0.38775338712E+02  0.00000000000E+00 0. -1.
</event>
<event>
 7    1  0.7470072E-010  0.4778727E+02  0.7816164E-02  0.1312668E+00
        -11   -1    0    0    0    0  0.00000000000E+00  0.00000000000E+00  0.45593999997E+02  0.45594000000E+02  0.51100000000E-03 0. -1.
         11   -1    0    0    0    0 -0.00000000000E+00 -0.00000000000E+00 -0.45593999997E+02  0.45594000000E+02  0.51100000000E-03 0.  1.
    9900012    2    1    2    0    0 -0.19731347138E+02  0.15944119975E+02  0.35214800856E+02  0.47787271653E+02  0.20000002776E+02 0.  0.
        -12    1    1    2    0    0  0.19731347138E+02 -0.15944119975E+02 -0.35214800856E+02  0.43400728347E+02  0.00000000000E+00 0.  1.
         11    1    3    3    0    0 -0.20946832261E+01 -0.43194162870E+01  0.87304093029E+01  0.99631873281E+01  0.51100000000E-03 0. -1.
        -11    1    3    3    0    0 -0.62660549775E+00  0.59842614771E+00  0.28411739637E+00  0.91185045929E+00  0.51100000000E-03 0.  1.
         12    1    3    3    0    0 -0.17010058415E+02  0.19665110114E+02  0.26200274157E+02  0.36912233866E+02  0.00000000000E+00 0. -1.
</event>
<event>
 7    1  0.7470072E-010  0.4778727E+02  0.7816164E-02  0.1312668E+00
        -11   -1    0    0    0    0  0.00000000000E+00  0.00000000000E+00  0.45593999997E+02  0.45594000000E+02  0.51100000000E-03 0. -1.
         11   -1    0    0    0    0 -0.00000000000E+00 -0.00000000000E+00 -0.45593999997E+02  0.45594000000E+02  0.51100000000E-03 0.  1.
    9900012    2    1    2    0    0  0.35926127748E+01 -0.23681158864E+01  0.43186898910E+02  0.47787273315E+02  0.20000010350E+02 0.  0.
        -12    1    1    2    0    0 -0.35926127748E+01  0.23681158864E+01 -0.43186898910E+02  0.43400726685E+02  0.00000000000E+00 0.  1.
         11    1    3    3    0    0  0.42715679131E+00 -0.58425495070E+01  0.71305025016E+01  0.92283212912E+01  0.51100000000E-03 0.  1.
        -11    1    3    3    0    0  0.77570842122E+01  0.34580776041E-01  0.23662653186E+02  0.24901700893E+02  0.51100000000E-03 0. -1.
        -12    1    3    3    0    0 -0.45916282287E+01  0.34398528446E+01  0.12393743222E+02  0.13657251130E+02  0.00000000000E+00 0.  1.
</event>
<event>
 7    1  0.7470072E-010  0.4778727E+02  0.7816164E-02  0.1312668E+00
        -11   -1    0    0    0    0  0.00000000000E+00  0.00000000000E+00  0.45593999997E+02  0.45594000000E+02  0.51100000000E-03 0.  1.
         11   -1    0    0    0    0 -0.00000000000E+00 -0.00000000000E+00 -0.45593999997E+02  0.45594000000E+02  0.51100000000E-03 0. -1.
    9900012    2    1    2    0    0  0.41124665313E+02 -0.60418265617E+01 -0.12485252596E+02  0.47787270770E+02  0.19999998747E+02 0.  0.
         12    1    1    2    0    0 -0.41124665313E+02  0.60418265617E+01  0.12485252596E+02  0.43400729230E+02  0.00000000000E+00 0. -1.
         11    1    3    3    0    0 -0.67529966321E+00  0.12544812016E+01 -0.30968696997E+01  0.34088641684E+01  0.51100000000E-03 0. -1.
        -11    1    3    3    0    0  0.21339189995E+02 -0.53300227633E+00 -0.13854984165E+01  0.21390762660E+02  0.51100000000E-03 0.  1.
         12    1    3    3    0    0  0.20460774982E+02 -0.67633054870E+01 -0.80028844795E+01  0.22987643941E+02  0.00000000000E+00 0. -1.
</event>
<event>
 7    1  0.7470072E-010  0.4778727E+02  0.7816164E-02  0.1312668E+00
        -11   -1    0    0    0    0  0.00000000000E+00  0.00000000000E+00  0.45593999997E+02  0.45594000000E+02  0.51100000000E-03 0.  1.
         11   -1    0    0    0    0 -0.00000000000E+00 -0.00000000000E+00 -0.45593999997E+02  0.45594000000E+02  0.51100000000E-03 0. -1.
    9900012    2    1    2    0    0 -0.34741586027E+02 -0.12317197308E+02  0.22911394435E+02  0.47787272539E+02  0.20000006812E+02 0.  0.
        -12    1    1    2    0    0  0.34741586027E+02  0.12317197308E+02 -0.22911394435E+02  0.43400727461E+02  0.00000000000E+00 0.  1.
         11    1    3    3    0    0  0.15490318079E+01 -0.41084637493E+01  0.86963270375E+00  0.44760736390E+01  0.51100000000E-03 0.  1.
        -11    1    3    3    0    0 -0.19572307445E+02 -0.55257329378E+01  0.11449521922E+02  0.23338819501E+02  0.51100000000E-03 0. -1.
        -12    1    3    3    0    0 -0.16718310390E+02 -0.26830006211E+01  0.10592239809E+02  0.19972379398E+02  0.00000000000E+00 0.  1.
</event>
<event>
 7    1  0.7470072E-010  0.4778727E+02  0.7816164E-02  0.1312668E+00
        -11   -1    0    0    0    0  0.00000000000E+00  0.00000000000E+00  0.45593999997E+02  0.45594000000E+02  0.51100000000E-03 0. -1.
         11   -1    0    0    0    0 -0.00000000000E+00 -0.00000000000E+00 -0.45593999997E+02  0.45594000000E+02  0.51100000000E-03 0.  1.
    9900012    2    1    2    0    0 -0.65833270880E+01 -0.37458395064E+02 -0.20908175900E+02  0.47787269871E+02  0.19999994648E+02 0.  0.
         12    1    1    2    0    0  0.65833270880E+01  0.37458395064E+02  0.20908175900E+02  0.43400730129E+02  0.00000000000E+00 0. -1.
         11    1    3    3    0    0  0.46058692268E+01 -0.55551085243E+01 -0.36396664091E+01  0.80821057826E+01  0.51100000000E-03 0. -1.
        -11    1    3    3    0    0 -0.74467829343E+01 -0.59839688238E+01 -0.50747670414E+01  0.10817380447E+02  0.51100000000E-03 0.  1.
        -12    1    3    3    0    0 -0.37424133804E+01 -0.25919317716E+02 -0.12193742449E+02  0.28887783641E+02  0.00000000000E+00 0.  1.
</event>
<event>
 7    1  0.7470072E-010  0.4778727E+02  0.7816164E-02  0.1312668E+00
        -11   -1    0    0    0    0  0.00000000000E+00  0.00000000000E+00  0.45593999997E+02  0.45594000000E+02  0.51100000000E-03 0. -1.
         11   -1    0    0    0    0 -0.00000000000E+00 -0.00000000000E+00 -0.45593999997E+02  0.45594000000E+02  0.51100000000E-03 0.  1.
    9900012    2    1    2    0    0  0.32762951612E+00 -0.69604948408E+01 -0.42837685239E+02  0.47787272977E+02  0.20000008809E+02 0.  0.
         12    1    1    2    0    0 -0.32762951612E+00  0.69604948408E+01  0.42837685239E+02  0.43400727023E+02  0.00000000000E+00 0. -1.
         11    1    3    3    0    0  0.35440273704E+01  0.15644811494E+01 -0.60503087736E+01  0.71842861709E+01  0.51100000000E-03 0. -1.
        -11    1    3    3    0    0 -0.27511604381E+01  0.15975364640E+01 -0.89099763861E+00  0.33037680856E+01  0.51100000000E-03 0.  1.
        -12    1    3    3    0    0 -0.46523741616E+00 -0.10122512454E+02 -0.35896378827E+02  0.37299218720E+02  0.00000000000E+00 0.  1.
</event>
<event>
 7    1  0.7470072E-010  0.4778727E+02  0.7816164E-02  0.1312668E+00
        -11   -1    0    0    0    0  0.00000000000E+00  0.00000000000E+00  0.45593999997E+02  0.45594000000E+02  0.51100000000E-03 0. -1.
         11   -1    0    0    0    0 -0.00000000000E+00 -0.00000000000E+00 -0.45593999997E+02  0.45594000000E+02  0.51100000000E-03 0.  1.
    9900012    2    1    2    0    0  0.20445619483E+02 -0.20210608739E+02  0.32513560454E+02  0.47787266423E+02  0.19999978928E+02 0.  0.
        -12    1    1    2    0    0 -0.20445619483E+02  0.20210608739E+02 -0.32513560454E+02  0.43400733577E+02  0.00000000000E+00 0.  1.
         11    1    3    3    0    0 -0.34034120815E+00 -0.50020640961E+01  0.48567123619E+01  0.69802673722E+01  0.51100000000E-03 0. -1.
        -11    1    3    3    0    0  0.20963392560E+02 -0.96673907963E+01  0.16586231481E+02  0.28425786664E+02  0.51100000000E-03 0.  1.
        -12    1    3    3    0    0 -0.17743186921E+00 -0.55411538463E+01  0.11070616612E+02  0.12381212387E+02  0.00000000000E+00 0.  1.
</event>
<event>
 7    1  0.7470072E-010  0.4778727E+02  0.7816164E-02  0.1312668E+00
        -11   -1    0    0    0    0  0.00000000000E+00  0.00000000000E+00  0.45593999997E+02  0.45594000000E+02  0.51100000000E-03 0. -1.
         11   -1    0    0    0    0 -0.00000000000E+00 -0.00000000000E+00 -0.45593999997E+02  0.45594000000E+02  0.51100000000E-03 0.  1.
    9900012    2    1    2    0    0  0.62361834638E+01 -0.29649036860E+02 -0.31075198153E+02  0.47787270615E+02  0.19999998040E+02 0.  0.
         12    1    1    2    0    0 -0.62361834638E+01  0.29649036860E+02  0.31075198153E+02  0.43400729385E+02  0.00000000000E+00 0. -1.
         11    1    3    3    0    0 -0.51804634518E+01 -0.62517592958E+01 -0.14768450675E+02  0.16853154941E+02  0.51100000000E-03 0. -1.
        -11    1    3    3    0    0  0.12198964172E+01 -0.59914869021E+01 -0.37824445419E+01  0.71897809105E+01  0.51100000000E-03 0.  1.
         12    1    3    3    0    0  0.10196750498E+02 -0.17405790662E+02 -0.12524302936E+02  0.23744334763E+02  0.00000000000E+00 0. -1.
</event>
<event>
 7    1  0.7470072E-010  0.4778727E+02  0.7816164E-02  0.1312668E+00
        -11   -1    0    0    0    0  0.00000000000E+00  0.00000000000E+00  0.45593999997E+02  0.45594000000E+02  0.51100000000E-03 0. -1.
         11   -1    0    0    0    0 -0.00000000000E+00 -0.00000000000E+00 -0.45593999997E+02  0.45594000000E+02  0.51100000000E-03 0.  1.
    9900012    2    1    2    0    0  0.28811297678E+02  0.30685018088E+02  0.10581213198E+02  0.47787270955E+02  0.19999999590E+02 0.  0.
        -12    1    1    2    0    0 -0.28811297678E+02 -0.30685018088E+02 -0.10581213198E+02  0.43400729045E+02  0.00000000000E+00 0.  1.
         11    1    3    3    0    0  0.54608537632E+01  0.84564604206E+00  0.75577608662E+01  0.93624671227E+01  0.51100000000E-03 0. -1.
        -11    1    3    3    0    0  0.20780611637E+02  0.26069839715E+02  0.44739942173E+01  0.33637582959E+02  0.51100000000E-03 0.  1.
         12    1    3    3    0    0  0.25698322774E+01  0.37695323309E+01 -0.14505418855E+01  0.47872208733E+01  0.00000000000E+00 0. -1.
</event>
<event>
 7    1  0.7470072E-010  0.4778728E+02  0.7816164E-02  0.1312668E+00
        -11   -1    0    0    0    0  0.00000000000E+00  0.00000000000E+00  0.45593999997E+02  0.45594000000E+02  0.51100000000E-03 0. -1.
         11   -1    0    0    0    0 -0.00000000000E+00 -0.00000000000E+00 -0.45593999997E+02  0.45594000000E+02  0.51100000000E-03 0.  1.
    9900012    2    1    2    0    0 -0.22075822993E+01 -0.22231245465E+02 -0.37209152921E+02  0.47787277015E+02  0.20000027222E+02 0.  0.
         12    1    1    2    0    0  0.22075822993E+01  0.22231245465E+02  0.37209152921E+02  0.43400722985E+02  0.00000000000E+00 0. -1.
         11    1    3    3    0    0 -0.61877054477E+01 -0.19145819478E+02 -0.18061961036E+02  0.27038575016E+02  0.51100000000E-03 0. -1.
        -11    1    3    3    0    0  0.71563596764E+00 -0.99980779632E+00 -0.15086725110E+02  0.15136744209E+02  0.51100000000E-03 0.  1.
         12    1    3    3    0    0  0.32644871808E+01 -0.20856181908E+01 -0.40604667753E+01  0.56119577889E+01  0.00000000000E+00 0. -1.
</event>
<event>
 7    1  0.7470072E-010  0.4778726E+02  0.7816164E-02  0.1312668E+00
        -11   -1    0    0    0    0  0.00000000000E+00  0.00000000000E+00  0.45593999997E+02  0.45594000000E+02  0.51100000000E-03 0.  1.
         11   -1    0    0    0    0 -0.00000000000E+00 -0.00000000000E+00 -0.45593999997E+02  0.45594000000E+02  0.51100000000E-03 0. -1.
    9900012    2    1    2    0    0  0.28918855043E+02  0.18855927018E+02  0.26301675120E+02  0.47787259513E+02  0.19999947423E+02 0.  0.
        -12    1    1    2    0    0 -0.28918855043E+02 -0.18855927018E+02 -0.26301675120E+02  0.43400740487E+02  0.00000000000E+00 0.  1.
         11    1    3    3    0    0  0.16403153251E+02  0.87198822452E+01  0.89403449616E+01  0.20616244838E+02  0.51100000000E-03 0. -1.
        -11    1    3    3    0    0  0.38464891117E+01 -0.29443083783E+01  0.64129234112E+01  0.80367914774E+01  0.51100000000E-03 0.  1.
        -12    1    3    3    0    0  0.86692126808E+01  0.13080353151E+02  0.10948406747E+02  0.19134223197E+02  0.00000000000E+00 0.  1.
</event>
<event>
 7    1  0.7470072E-010  0.4778728E+02  0.7816164E-02  0.1312668E+00
        -11   -1    0    0    0    0  0.00000000000E+00  0.00000000000E+00  0.45593999997E+02  0.45594000000E+02  0.51100000000E-03 0.  1.
         11   -1    0    0    0    0 -0.00000000000E+00 -0.00000000000E+00 -0.45593999997E+02  0.45594000000E+02  0.51100000000E-03 0. -1.
    9900012    2    1    2    0    0  0.21965687140E+02 -0.12721544131E+02 -0.35203597909E+02  0.47787281085E+02  0.20000045781E+02 0.  0.
         12    1    1    2    0    0 -0.21965687140E+02  0.12721544131E+02  0.35203597909E+02  0.43400718915E+02  0.00000000000E+00 0. -1.
         11    1    3    3    0    0  0.13057403086E+02 -0.11710337850E+02 -0.31429586369E+02  0.35992314284E+02  0.51100000000E-03 0. -1.
        -11    1    3    3    0    0  0.34184796828E+01  0.28486211405E+01 -0.12147007915E+01  0.46126070739E+01  0.51100000000E-03 0.  1.
         12    1    3    3    0    0  0.54898043710E+01 -0.38598274207E+01 -0.25593107481E+01  0.71823597275E+01  0.00000000000E+00 0. -1.
</event>
<event>
 7    1  0.7470072E-010  0.4778727E+02  0.7816164E-02  0.1312668E+00
        -11   -1    0    0    0    0  0.00000000000E+00  0.00000000000E+00  0.45593999997E+02  0.45594000000E+02  0.51100000000E-03 0. -1.
         11   -1    0    0    0    0 -0.00000000000E+00 -0.00000000000E+00 -0.45593999997E+02  0.45594000000E+02  0.51100000000E-03 0.  1.
    9900012    2    1    2    0    0 -0.19290014516E+02  0.78468095438E+01  0.38078158779E+02  0.47787271250E+02  0.20000000937E+02 0.  0.
        -12    1    1    2    0    0  0.19290014516E+02 -0.78468095438E+01 -0.38078158779E+02  0.43400728750E+02  0.00000000000E+00 0.  1.
         11    1    3    3    0    0 -0.53449530352E+01  0.34364551672E+01  0.10754608872E+02  0.12491571531E+02  0.51100000000E-03 0. -1.
        -11    1    3    3    0    0 -0.73154821087E+01  0.38098414201E+01  0.27424731041E+02  0.28638209495E+02  0.51100000000E-03 0.  1.
        -12    1    3    3    0    0 -0.66295793718E+01  0.60051295654E+00 -0.10118113431E+00  0.66574902238E+01  0.00000000000E+00 0.  1.
</event>
<event>
 7    1  0.7470072E-010  0.4778725E+02  0.7816164E-02  0.1312668E+00
        -11   -1    0    0    0    0  0.00000000000E+00  0.00000000000E+00  0.45593999997E+02  0.45594000000E+02  0.51100000000E-03 0. -1.
         11   -1    0    0    0    0 -0.00000000000E+00 -0.00000000000E+00 -0.45593999997E+02  0.45594000000E+02  0.51100000000E-03 0.  1.
    9900012    2    1    2    0    0 -0.13850200668E+02 -0.21759196445E+02 -0.34904648638E+02  0.47787249027E+02  0.19999899614E+02 0.  0.
         12    1    1    2    0    0  0.13850200668E+02  0.21759196445E+02  0.34904648638E+02  0.43400750973E+02  0.00000000000E+00 0. -1.
         11    1    3    3    0    0 -0.43303640238E+01 -0.15485858637E+02 -0.18984357343E+02  0.24879101557E+02  0.51100000000E-03 0. -1.
        -11    1    3    3    0    0 -0.18056772252E+01 -0.82929495924E+01 -0.86189393797E+01  0.12096263864E+02  0.51100000000E-03 0.  1.
         12    1    3    3    0    0 -0.77141594194E+01  0.20196117851E+01 -0.73013519150E+01  0.10811883605E+02  0.00000000000E+00 0. -1.
</event>
<event>
 7    1  0.7470072E-010  0.4778727E+02  0.7816164E-02  0.1312668E+00
        -11   -1    0    0    0    0  0.00000000000E+00  0.00000000000E+00  0.45593999997E+02  0.45594000000E+02  0.51100000000E-03 0. -1.
         11   -1    0    0    0    0 -0.00000000000E+00 -0.00000000000E+00 -0.45593999997E+02  0.45594000000E+02  0.51100000000E-03 0.  1.
    9900012    2    1    2    0    0  0.23501324841E+02  0.30281073528E+02 -0.20356019517E+02  0.47787271735E+02  0.20000003150E+02 0.  0.
         12    1    1    2    0    0 -0.23501324841E+02 -0.30281073528E+02  0.20356019517E+02  0.43400728265E+02  0.00000000000E+00 0. -1.
         11    1    3    3    0    0  0.25580795603E+01 -0.10585944533E+01  0.19562568756E+01  0.33898870892E+01  0.51100000000E-03 0. -1.
        -11    1    3    3    0    0  0.11485490702E+02  0.23152419362E+02 -0.14213044301E+02  0.29495112266E+02  0.51100000000E-03 0.  1.
         12    1    3    3    0    0  0.94577545784E+01  0.81872486193E+01 -0.80992320918E+01  0.14902272380E+02  0.00000000000E+00 0. -1.
</event>
<event>
 7    1  0.7470072E-010  0.4778726E+02  0.7816164E-02  0.1312668E+00
        -11   -1    0    0    0    0  0.00000000000E+00  0.00000000000E+00  0.45593999997E+02  0.45594000000E+02  0.51100000000E-03 0. -1.
         11   -1    0    0    0    0 -0.00000000000E+00 -0.00000000000E+00 -0.45593999997E+02  0.45594000000E+02  0.51100000000E-03 0.  1.
    9900012    2    1    2    0    0  0.32646426806E+02 -0.18570942417E+01 -0.28537457252E+02  0.47787257510E+02  0.19999938293E+02 0.  0.
         12    1    1    2    0    0 -0.32646426806E+02  0.18570942417E+01  0.28537457252E+02  0.43400742490E+02  0.00000000000E+00 0. -1.
         11    1    3    3    0    0  0.76145636784E+01  0.62153012220E+01 -0.63476496108E+01  0.11700607041E+02  0.51100000000E-03 0. -1.
        -11    1    3    3    0    0  0.23426145547E+02 -0.65135459934E+01 -0.23221693336E+02  0.33622278600E+02  0.51100000000E-03 0.  1.
         12    1    3    3    0    0  0.16057175807E+01 -0.15588494703E+01  0.10318856952E+01  0.24643718689E+01  0.00000000000E+00 0. -1.
</event>
<event>
 7    1  0.7470072E-010  0.4778721E+02  0.7816164E-02  0.1312668E+00
        -11   -1    0    0    0    0  0.00000000000E+00  0.00000000000E+00  0.45593999997E+02  0.45594000000E+02  0.51100000000E-03 0. -1.
         11   -1    0    0    0    0 -0.00000000000E+00 -0.00000000000E+00 -0.45593999997E+02  0.45594000000E+02  0.51100000000E-03 0.  1.
    9900012    2    1    2    0    0 -0.42873367077E+00  0.11392641778E+02  0.41876628812E+02  0.47787214985E+02  0.19999744400E+02 0.  0.
        -12    1    1    2    0    0  0.42873367077E+00 -0.11392641778E+02 -0.41876628812E+02  0.43400785015E+02  0.00000000000E+00 0.  1.
         11    1    3    3    0    0  0.77659200532E+01  0.41077092706E+01  0.17964335568E+02  0.19997503404E+02  0.51100000000E-03 0. -1.
        -11    1    3    3    0    0 -0.88693870728E+01  0.72241807436E+01  0.15061623541E+02  0.18913151996E+02  0.51100000000E-03 0.  1.
        -12    1    3    3    0    0  0.67473334883E+00  0.60751763827E-01  0.88506697031E+01  0.88765595848E+01  0.00000000000E+00 0.  1.
</event>
<event>
 7    1  0.7470072E-010  0.4778729E+02  0.7816164E-02  0.1312668E+00
        -11   -1    0    0    0    0  0.00000000000E+00  0.00000000000E+00  0.45593999997E+02  0.45594000000E+02  0.51100000000E-03 0. -1.
         11   -1    0    0    0    0 -0.00000000000E+00 -0.00000000000E+00 -0.45593999997E+02  0.45594000000E+02  0.51100000000E-03 0.  1.
    9900012    2    1    2    0    0  0.28517893852E+02  0.93018078387E+01  0.31366027827E+02  0.47787290323E+02  0.20000087898E+02 0.  0.
        -12    1    1    2    0    0 -0.28517893852E+02 -0.93018078387E+01 -0.31366027827E+02  0.43400709677E+02  0.00000000000E+00 0.  1.
         11    1    3    3    0    0  0.99610811895E+01  0.43502311905E+01  0.17219338591E+02  0.20363036896E+02  0.51100000000E-03 0. -1.
        -11    1    3    3    0    0 -0.35332228775E-01  0.37729726690E+01 -0.39154644706E+00  0.37933995319E+01  0.51100000000E-03 0.  1.
        -12    1    3    3    0    0  0.18592144892E+02  0.11786039792E+01  0.14538235683E+02  0.23630853895E+02  0.00000000000E+00 0.  1.
</event>
<event>
 7    1  0.7470072E-010  0.4778727E+02  0.7816164E-02  0.1312668E+00
        -11   -1    0    0    0    0  0.00000000000E+00  0.00000000000E+00  0.45593999997E+02  0.45594000000E+02  0.51100000000E-03 0. -1.
         11   -1    0    0    0    0 -0.00000000000E+00 -0.00000000000E+00 -0.45593999997E+02  0.45594000000E+02  0.51100000000E-03 0.  1.
    9900012    2    1    2    0    0  0.11408975375E+02 -0.19646406301E+02 -0.36979412872E+02  0.47787274476E+02  0.20000015644E+02 0.  0.
         12    1    1    2    0    0 -0.11408975375E+02  0.19646406301E+02  0.36979412872E+02  0.43400725524E+02  0.00000000000E+00 0. -1.
         11    1    3    3    0    0  0.12232660067E+02 -0.22488682729E+02 -0.30329743037E+02  0.39689698112E+02  0.51100000000E-03 0. -1.
        -11    1    3    3    0    0 -0.19719914279E+01  0.25084406766E+01 -0.58355320341E+01  0.66508991274E+01  0.51100000000E-03 0.  1.
         12    1    3    3    0    0  0.11483067358E+01  0.33383575152E+00 -0.81413780087E+00  0.14466772367E+01  0.00000000000E+00 0. -1.
</event>
<event>
 7    1  0.7470072E-010  0.4778727E+02  0.7816164E-02  0.1312668E+00
        -11   -1    0    0    0    0  0.00000000000E+00  0.00000000000E+00  0.45593999997E+02  0.45594000000E+02  0.51100000000E-03 0. -1.
         11   -1    0    0    0    0 -0.00000000000E+00 -0.00000000000E+00 -0.45593999997E+02  0.45594000000E+02  0.51100000000E-03 0.  1.
    9900012    2    1    2    0    0  0.88491359182E+01  0.83727445022E+01 -0.41655894193E+02  0.47787267540E+02  0.19999984023E+02 0.  0.
         12    1    1    2    0    0 -0.88491359182E+01 -0.83727445022E+01  0.41655894193E+02  0.43400732460E+02  0.00000000000E+00 0. -1.
         11    1    3    3    0    0  0.11676739900E+02  0.39094322874E+01 -0.26576859415E+02  0.29290943517E+02  0.51100000000E-03 0. -1.
        -11    1    3    3    0    0 -0.44831633877E+01 -0.41145887125E+00 -0.11135962472E+02  0.12011565793E+02  0.51100000000E-03 0.  1.
         12    1    3    3    0    0  0.16555594061E+01  0.48747710861E+01 -0.39430723063E+01  0.64847582300E+01  0.00000000000E+00 0. -1.
</event>
<event>
 7    1  0.7868212E-010  0.4778727E+02  0.7816164E-02  0.1312668E+00
        -11   -1    0    0    0    0  0.00000000000E+00  0.00000000000E+00  0.45593999997E+02  0.45594000000E+02  0.51100000000E-03 0. -1.
         11   -1    0    0    0    0 -0.00000000000E+00 -0.00000000000E+00 -0.45593999997E+02  0.45594000000E+02  0.51100000000E-03 0.  1.
    9900012    2    1    2    0    0  0.18853909383E+02 -0.14519933096E+02 -0.36294972853E+02  0.47787269470E+02  0.19999992822E+02 0.  0.
         12    1    1    2    0    0 -0.18853909383E+02  0.14519933096E+02  0.36294972853E+02  0.43400730530E+02  0.00000000000E+00 0. -1.
         11    1    3    3    0    0  0.81673395032E+01 -0.12573094573E+01 -0.22949941110E+01  0.85763197155E+01  0.51100000000E-03 0. -1.
        -11    1    3    3    0    0  0.64844108241E+00 -0.52472572594E+01 -0.17611812797E+02  0.18388315171E+02  0.51100000000E-03 0.  1.
        -12    1    3    3    0    0  0.10038128797E+02 -0.80153663789E+01 -0.16388165946E+02  0.20822634583E+02  0.00000000000E+00 0.  1.
</event>
<event>
 7    1  0.7470072E-010  0.4778727E+02  0.7816164E-02  0.1312668E+00
        -11   -1    0    0    0    0  0.00000000000E+00  0.00000000000E+00  0.45593999997E+02  0.45594000000E+02  0.51100000000E-03 0. -1.
         11   -1    0    0    0    0 -0.00000000000E+00 -0.00000000000E+00 -0.45593999997E+02  0.45594000000E+02  0.51100000000E-03 0.  1.
    9900012    2    1    2    0    0 -0.25002122312E+01 -0.36806510602E+02 -0.22861603278E+02  0.47787272030E+02  0.20000004494E+02 0.  0.
         12    1    1    2    0    0  0.25002122312E+01  0.36806510602E+02  0.22861603278E+02  0.43400727970E+02  0.00000000000E+00 0. -1.
         11    1    3    3    0    0 -0.19661436701E+01 -0.13041487415E+01  0.24936362280E+01  0.34328918960E+01  0.51100000000E-03 0. -1.
        -11    1    3    3    0    0 -0.71056964365E+00 -0.15369809418E+02 -0.62762909395E+01  0.16617092976E+02  0.51100000000E-03 0.  1.
         12    1    3    3    0    0  0.17650108250E+00 -0.20132552442E+02 -0.19078948567E+02  0.27737287158E+02  0.00000000000E+00 0. -1.
</event>
<event>
 7    1  0.7470072E-010  0.4778721E+02  0.7816164E-02  0.1312668E+00
        -11   -1    0    0    0    0  0.00000000000E+00  0.00000000000E+00  0.45593999997E+02  0.45594000000E+02  0.51100000000E-03 0. -1.
         11   -1    0    0    0    0 -0.00000000000E+00 -0.00000000000E+00 -0.45593999997E+02  0.45594000000E+02  0.51100000000E-03 0.  1.
    9900012    2    1    2    0    0 -0.12517906903E+02  0.99952142392E+01 -0.40336408752E+02  0.47787214616E+02  0.19999742720E+02 0.  0.
         12    1    1    2    0    0  0.12517906903E+02 -0.99952142392E+01  0.40336408752E+02  0.43400785384E+02  0.00000000000E+00 0. -1.
         11    1    3    3    0    0 -0.60215556268E+01  0.42890918685E+01 -0.26984008201E+01  0.78699941849E+01  0.51100000000E-03 0. -1.
        -11    1    3    3    0    0 -0.76058009188E+01  0.65558924942E+01 -0.37074759861E+02  0.38410490143E+02  0.51100000000E-03 0.  1.
        -12    1    3    3    0    0  0.11094496428E+01 -0.84977012348E+00 -0.56324807118E+00  0.15067302885E+01  0.00000000000E+00 0.  1.
</event>
<event>
 7    1  0.7470072E-010  0.4778727E+02  0.7816164E-02  0.1312668E+00
        -11   -1    0    0    0    0  0.00000000000E+00  0.00000000000E+00  0.45593999997E+02  0.45594000000E+02  0.51100000000E-03 0. -1.
         11   -1    0    0    0    0 -0.00000000000E+00 -0.00000000000E+00 -0.45593999997E+02  0.45594000000E+02  0.51100000000E-03 0.  1.
    9900012    2    1    2    0    0  0.13366907317E+02 -0.31245011995E+02  0.26994410550E+02  0.47787272048E+02  0.20000004578E+02 0.  0.
        -12    1    1    2    0    0 -0.13366907317E+02  0.31245011995E+02 -0.26994410550E+02  0.43400727952E+02  0.00000000000E+00 0.  1.
         11    1    3    3    0    0  0.26367116169E+01 -0.22460921984E+02  0.14488976251E+02  0.26858438108E+02  0.51100000000E-03 0. -1.
        -11    1    3    3    0    0  0.10451262789E+02 -0.66673316501E+01  0.13704919628E+02  0.18479908752E+02  0.51100000000E-03 0.  1.
         12    1    3    3    0    0  0.27893291082E+00 -0.21167583601E+01 -0.11994853287E+01  0.24489251882E+01  0.00000000000E+00 0. -1.
</event>
<event>
 7    1  0.7470072E-010  0.4778727E+02  0.7816164E-02  0.1312668E+00
        -11   -1    0    0    0    0  0.00000000000E+00  0.00000000000E+00  0.45593999997E+02  0.45594000000E+02  0.51100000000E-03 0. -1.
         11   -1    0    0    0    0 -0.00000000000E+00 -0.00000000000E+00 -0.45593999997E+02  0.45594000000E+02  0.51100000000E-03 0.  1.
    9900012    2    1    2    0    0 -0.88323595539E+01 -0.32923331417E+02  0.26863860725E+02  0.47787270283E+02  0.19999996528E+02 0.  0.
        -12    1    1    2    0    0  0.88323595539E+01  0.32923331417E+02 -0.26863860725E+02  0.43400729717E+02  0.00000000000E+00 0.  1.
         11    1    3    3    0    0 -0.53540148637E+01 -0.15886986125E+02  0.22909935576E+02  0.28388852594E+02  0.51100000000E-03 0. -1.
        -11    1    3    3    0    0 -0.48221583803E+00 -0.26438694680E+01 -0.21884137430E+01  0.34657946924E+01  0.51100000000E-03 0.  1.
        -12    1    3    3    0    0 -0.29961288521E+01 -0.14392475825E+02  0.61423388929E+01  0.15932622996E+02  0.00000000000E+00 0.  1.
</event>
<event>
 7    1  0.7470072E-010  0.4778727E+02  0.7816164E-02  0.1312668E+00
        -11   -1    0    0    0    0  0.00000000000E+00  0.00000000000E+00  0.45593999997E+02  0.45594000000E+02  0.51100000000E-03 0. -1.
         11   -1    0    0    0    0 -0.00000000000E+00 -0.00000000000E+00 -0.45593999997E+02  0.45594000000E+02  0.51100000000E-03 0.  1.
    9900012    2    1    2    0    0  0.23334529987E+02  0.33453264819E+02 -0.14832481774E+02  0.47787265762E+02  0.19999975917E+02 0.  0.
         12    1    1    2    0    0 -0.23334529987E+02 -0.33453264819E+02  0.14832481774E+02  0.43400734238E+02  0.00000000000E+00 0. -1.
         11    1    3    3    0    0  0.93495708843E+01  0.20323742774E+02 -0.11907953926E+02  0.25343014087E+02  0.51100000000E-03 0.  1.
        -11    1    3    3    0    0  0.15445749412E+02  0.13491653357E+02 -0.18432735879E+01  0.20591103491E+02  0.51100000000E-03 0. -1.
         12    1    3    3    0    0 -0.14607903100E+01 -0.36213131128E+00 -0.10812542606E+01  0.18531481842E+01  0.00000000000E+00 0. -1.
</event>
<event>
 7    1  0.7470072E-010  0.4778727E+02  0.7816164E-02  0.1312668E+00
        -11   -1    0    0    0    0  0.00000000000E+00  0.00000000000E+00  0.45593999997E+02  0.45594000000E+02  0.51100000000E-03 0. -1.
         11   -1    0    0    0    0 -0.00000000000E+00 -0.00000000000E+00 -0.45593999997E+02  0.45594000000E+02  0.51100000000E-03 0.  1.
    9900012    2    1    2    0    0  0.12308516767E+02  0.23293677686E+02  0.34489542576E+02  0.47787267837E+02  0.19999985378E+02 0.  0.
        -12    1    1    2    0    0 -0.12308516767E+02 -0.23293677686E+02 -0.34489542576E+02  0.43400732163E+02  0.00000000000E+00 0.  1.
         11    1    3    3    0    0  0.86553784694E+01  0.23789750871E+02  0.27097894462E+02  0.37083199801E+02  0.51100000000E-03 0. -1.
        -11    1    3    3    0    0  0.30335787331E+01 -0.79460356377E+00  0.86879758843E+01  0.92366076013E+01  0.51100000000E-03 0.  1.
         12    1    3    3    0    0  0.61955956418E+00  0.29853037932E+00 -0.12963277703E+01  0.14674604352E+01  0.00000000000E+00 0. -1.
</event>
<event>
 7    1  0.7470072E-010  0.4778727E+02  0.7816164E-02  0.1312668E+00
        -11   -1    0    0    0    0  0.00000000000E+00  0.00000000000E+00  0.45593999997E+02  0.45594000000E+02  0.51100000000E-03 0. -1.
         11   -1    0    0    0    0 -0.00000000000E+00 -0.00000000000E+00 -0.45593999997E+02  0.45594000000E+02  0.51100000000E-03 0.  1.
    9900012    2    1    2    0    0 -0.93949380585E+00  0.16333063517E+02  0.40199150813E+02  0.47787270299E+02  0.19999996602E+02 0.  0.
        -12    1    1    2    0    0  0.93949380585E+00 -0.16333063517E+02 -0.40199150813E+02  0.43400729701E+02  0.00000000000E+00 0.  1.
         11    1    3    3    0    0 -0.28816933740E+01  0.14624349526E+02  0.27430720125E+02  0.31218907133E+02  0.51100000000E-03 0. -1.
        -11    1    3    3    0    0  0.42345690964E+01  0.35854579729E+01  0.28917996074E+01  0.62569632841E+01  0.51100000000E-03 0.  1.
         12    1    3    3    0    0 -0.22923695283E+01 -0.18767439812E+01  0.98766310809E+01  0.10311399882E+02  0.00000000000E+00 0. -1.
</event>
<event>
 7    1  0.7470072E-010  0.4778727E+02  0.7816164E-02  0.1312668E+00
        -11   -1    0    0    0    0  0.00000000000E+00  0.00000000000E+00  0.45593999997E+02  0.45594000000E+02  0.51100000000E-03 0. -1.
         11   -1    0    0    0    0 -0.00000000000E+00 -0.00000000000E+00 -0.45593999997E+02  0.45594000000E+02  0.51100000000E-03 0.  1.
    9900012    2    1    2    0    0  0.35356297311E+02 -0.52173104718E+01  0.24623870790E+02  0.47787273038E+02  0.20000009091E+02 0.  0.
        -12    1    1    2    0    0 -0.35356297311E+02  0.52173104718E+01 -0.24623870790E+02  0.43400726962E+02  0.00000000000E+00 0.  1.
         11    1    3    3    0    0  0.19018373009E+02  0.23820542731E+01  0.57773165047E+01  0.20018743236E+02  0.51100000000E-03 0. -1.
        -11    1    3    3    0    0  0.40218386245E+01 -0.68900168605E+01  0.86110185024E+01  0.11738703428E+02  0.51100000000E-03 0.  1.
         12    1    3    3    0    0  0.12316085677E+02 -0.70934788438E+00  0.10235535783E+02  0.16029826374E+02  0.00000000000E+00 0. -1.
</event>
<event>
 7    1  0.7470072E-010  0.4778727E+02  0.7816164E-02  0.1312668E+00
        -11   -1    0    0    0    0  0.00000000000E+00  0.00000000000E+00  0.45593999997E+02  0.45594000000E+02  0.51100000000E-03 0.  1.
         11   -1    0    0    0    0 -0.00000000000E+00 -0.00000000000E+00 -0.45593999997E+02  0.45594000000E+02  0.51100000000E-03 0. -1.
    9900012    2    1    2    0    0 -0.38211208637E+02 -0.12117003234E+02  0.16634454479E+02  0.47787270643E+02  0.19999998172E+02 0.  0.
         12    1    1    2    0    0  0.38211208637E+02  0.12117003234E+02 -0.16634454479E+02  0.43400729357E+02  0.00000000000E+00 0. -1.
         11    1    3    3    0    0 -0.45396583502E+01  0.89193140341E+00  0.35707916998E+01  0.58441931171E+01  0.51100000000E-03 0. -1.
        -11    1    3    3    0    0 -0.86336930332E+01  0.28784557430E+01  0.74545069211E+01  0.11764175983E+02  0.51100000000E-03 0.  1.
        -12    1    3    3    0    0 -0.25037857254E+02 -0.15887390380E+02  0.56091558577E+01  0.30178901544E+02  0.00000000000E+00 0.  1.
</event>
<event>
 7    1  0.7470072E-010  0.4778728E+02  0.7816164E-02  0.1312668E+00
        -11   -1    0    0    0    0  0.00000000000E+00  0.00000000000E+00  0.45593999997E+02  0.45594000000E+02  0.51100000000E-03 0. -1.
         11   -1    0    0    0    0 -0.00000000000E+00 -0.00000000000E+00 -0.45593999997E+02  0.45594000000E+02  0.51100000000E-03 0.  1.
    9900012    2    1    2    0    0 -0.23343053078E+02  0.32453451525E+02 -0.16896687928E+02  0.47787277589E+02  0.20000029839E+02 0.  0.
         12    1    1    2    0    0  0.23343053078E+02 -0.32453451525E+02  0.16896687928E+02  0.43400722411E+02  0.00000000000E+00 0. -1.
         11    1    3    3    0    0 -0.66760159412E+01  0.19232037004E+02 -0.15082718812E+02  0.25336314712E+02  0.51100000000E-03 0. -1.
        -11    1    3    3    0    0 -0.31493738996E+01  0.33988849770E+01 -0.32801876074E+01  0.56772005467E+01  0.51100000000E-03 0.  1.
         12    1    3    3    0    0 -0.13517663238E+02  0.98225295441E+01  0.14662184917E+01  0.16773762330E+02  0.00000000000E+00 0. -1.
</event>
<event>
 7    1  0.7470072E-010  0.4778727E+02  0.7816164E-02  0.1312668E+00
        -11   -1    0    0    0    0  0.00000000000E+00  0.00000000000E+00  0.45593999997E+02  0.45594000000E+02  0.51100000000E-03 0. -1.
         11   -1    0    0    0    0 -0.00000000000E+00 -0.00000000000E+00 -0.45593999997E+02  0.45594000000E+02  0.51100000000E-03 0.  1.
    9900012    2    1    2    0    0  0.54895858286E+01 -0.23289801573E+02  0.36208739201E+02  0.47787271845E+02  0.20000003649E+02 0.  0.
        -12    1    1    2    0    0 -0.54895858286E+01  0.23289801573E+02 -0.36208739201E+02  0.43400728155E+02  0.00000000000E+00 0.  1.
         11    1    3    3    0    0  0.50452631129E+01  0.80969011596E+00  0.10676116422E+02  0.11835951170E+02  0.51100000000E-03 0. -1.
        -11    1    3    3    0    0 -0.23606468176E+01 -0.19728682444E+02  0.18056167425E+02  0.26848067839E+02  0.51100000000E-03 0.  1.
         12    1    3    3    0    0  0.28049695333E+01 -0.43708092458E+01  0.74764553533E+01  0.91032528360E+01  0.00000000000E+00 0. -1.
</event>
<event>
 7    1  0.7470072E-010  0.4778727E+02  0.7816164E-02  0.1312668E+00
        -11   -1    0    0    0    0  0.00000000000E+00  0.00000000000E+00  0.45593999997E+02  0.45594000000E+02  0.51100000000E-03 0. -1.
         11   -1    0    0    0    0 -0.00000000000E+00 -0.00000000000E+00 -0.45593999997E+02  0.45594000000E+02  0.51100000000E-03 0.  1.
    9900012    2    1    2    0    0  0.20732940374E+02 -0.77136416058E+01  0.37339906656E+02  0.47787265992E+02  0.19999976964E+02 0.  0.
        -12    1    1    2    0    0 -0.20732940374E+02  0.77136416058E+01 -0.37339906656E+02  0.43400734008E+02  0.00000000000E+00 0.  1.
         11    1    3    3    0    0  0.15903995074E+02 -0.10814499111E+02  0.14738647000E+02  0.24230521372E+02  0.51100000000E-03 0. -1.
        -11    1    3    3    0    0  0.30422123852E+01  0.14666566438E+01  0.70395114739E+01  0.78077435895E+01  0.51100000000E-03 0.  1.
         12    1    3    3    0    0  0.17867329149E+01  0.16342008613E+01  0.15561748182E+02  0.15749001030E+02  0.00000000000E+00 0. -1.
</event>
<event>
 7    1  0.7470072E-010  0.4778727E+02  0.7816164E-02  0.1312668E+00
        -11   -1    0    0    0    0  0.00000000000E+00  0.00000000000E+00  0.45593999997E+02  0.45594000000E+02  0.51100000000E-03 0.  1.
         11   -1    0    0    0    0 -0.00000000000E+00 -0.00000000000E+00 -0.45593999997E+02  0.45594000000E+02  0.51100000000E-03 0. -1.
    9900012    2    1    2    0    0  0.14076509037E+02  0.36190800896E+02 -0.19383022529E+02  0.47787265691E+02  0.19999975590E+02 0.  0.
         12    1    1    2    0    0 -0.14076509037E+02 -0.36190800896E+02  0.19383022529E+02  0.43400734309E+02  0.00000000000E+00 0. -1.
         11    1    3    3    0    0  0.11225051865E+02  0.16445905984E+02 -0.16832553048E+02  0.26073059954E+02  0.51100000000E-03 0. -1.
        -11    1    3    3    0    0  0.45748522288E+01  0.19227337362E+02 -0.23026219773E+01  0.19897784882E+02  0.51100000000E-03 0.  1.
        -12    1    3    3    0    0 -0.17233950563E+01  0.51755755006E+00 -0.24784750464E+00  0.18164208552E+01  0.00000000000E+00 0.  1.
</event>
<event>
 7    1  0.7470072E-010  0.4778727E+02  0.7816164E-02  0.1312668E+00
        -11   -1    0    0    0    0  0.00000000000E+00  0.00000000000E+00  0.45593999997E+02  0.45594000000E+02  0.51100000000E-03 0. -1.
         11   -1    0    0    0    0 -0.00000000000E+00 -0.00000000000E+00 -0.45593999997E+02  0.45594000000E+02  0.51100000000E-03 0.  1.
    9900012    2    1    2    0    0  0.30360758698E+02 -0.42804336656E+01  0.30716856994E+02  0.47787273225E+02  0.20000009940E+02 0.  0.
        -12    1    1    2    0    0 -0.30360758698E+02  0.42804336656E+01 -0.30716856994E+02  0.43400726775E+02  0.00000000000E+00 0.  1.
         11    1    3    3    0    0  0.55034247161E+01 -0.46745225335E+01  0.44735139614E+01  0.84941845957E+01  0.51100000000E-03 0. -1.
        -11    1    3    3    0    0  0.24632507923E+02  0.43853422190E+01  0.24179237902E+02  0.34794068729E+02  0.51100000000E-03 0.  1.
        -12    1    3    3    0    0  0.22482605885E+00 -0.39912533511E+01  0.20641051298E+01  0.44990198995E+01  0.00000000000E+00 0.  1.
</event>
<event>
 7    1  0.7470072E-010  0.4778727E+02  0.7816164E-02  0.1312668E+00
        -11   -1    0    0    0    0  0.00000000000E+00  0.00000000000E+00  0.45593999997E+02  0.45594000000E+02  0.51100000000E-03 0.  1.
         11   -1    0    0    0    0 -0.00000000000E+00 -0.00000000000E+00 -0.45593999997E+02  0.45594000000E+02  0.51100000000E-03 0. -1.
    9900012    2    1    2    0    0  0.30313786429E+02 -0.21386253573E+02  0.22523893195E+02  0.47787271271E+02  0.20000001032E+02 0.  0.
        -12    1    1    2    0    0 -0.30313786429E+02  0.21386253573E+02 -0.22523893195E+02  0.43400728729E+02  0.00000000000E+00 0.  1.
         11    1    3    3    0    0  0.11067346470E+02 -0.16824202023E+02  0.12110624543E+02  0.23499088465E+02  0.51100000000E-03 0. -1.
        -11    1    3    3    0    0  0.98849201543E+01  0.16430611436E+01  0.19097398506E+01  0.10200902065E+02  0.51100000000E-03 0.  1.
        -12    1    3    3    0    0  0.93615198045E+01 -0.62051126936E+01  0.85035288015E+01  0.14087280741E+02  0.00000000000E+00 0.  1.
</event>
<event>
 7    1  0.7470072E-010  0.4778727E+02  0.7816164E-02  0.1312668E+00
        -11   -1    0    0    0    0  0.00000000000E+00  0.00000000000E+00  0.45593999997E+02  0.45594000000E+02  0.51100000000E-03 0.  1.
         11   -1    0    0    0    0 -0.00000000000E+00 -0.00000000000E+00 -0.45593999997E+02  0.45594000000E+02  0.51100000000E-03 0. -1.
    9900012    2    1    2    0    0 -0.18957356284E+02  0.38972959394E+02  0.23130843973E+01  0.47787270967E+02  0.19999999646E+02 0.  0.
         12    1    1    2    0    0  0.18957356284E+02 -0.38972959394E+02 -0.23130843973E+01  0.43400729033E+02  0.00000000000E+00 0. -1.
         11    1    3    3    0    0 -0.21508151290E+01  0.61733350511E+01 -0.35918396159E+01  0.74590470879E+01  0.51100000000E-03 0. -1.
        -11    1    3    3    0    0 -0.13873797175E+02  0.15570804553E+02 -0.23741995351E+01  0.20989736210E+02  0.51100000000E-03 0.  1.
        -12    1    3    3    0    0 -0.29327439807E+01  0.17228819789E+02  0.82791235484E+01  0.19338487669E+02  0.00000000000E+00 0.  1.
</event>
<event>
 7    1  0.7470072E-010  0.4778728E+02  0.7816164E-02  0.1312668E+00
        -11   -1    0    0    0    0  0.00000000000E+00  0.00000000000E+00  0.45593999997E+02  0.45594000000E+02  0.51100000000E-03 0. -1.
         11   -1    0    0    0    0 -0.00000000000E+00 -0.00000000000E+00 -0.45593999997E+02  0.45594000000E+02  0.51100000000E-03 0.  1.
    9900012    2    1    2    0    0  0.20159401591E+02  0.74424381617E+01 -0.37707181634E+02  0.47787275293E+02  0.20000019373E+02 0.  0.
         12    1    1    2    0    0 -0.20159401591E+02 -0.74424381617E+01  0.37707181634E+02  0.43400724707E+02  0.00000000000E+00 0. -1.
         11    1    3    3    0    0  0.14813321784E+02 -0.46246807124E+01 -0.16337384639E+02  0.22532916169E+02  0.51100000000E-03 0. -1.
        -11    1    3    3    0    0  0.51688373913E+01  0.10468789506E+02 -0.19919056162E+02  0.23088551976E+02  0.51100000000E-03 0.  1.
         12    1    3    3    0    0  0.17724241622E+00  0.15983293679E+01 -0.14507408321E+01  0.21658071484E+01  0.00000000000E+00 0. -1.
</event>
<event>
 7    1  0.7470072E-010  0.4778727E+02  0.7816164E-02  0.1312668E+00
        -11   -1    0    0    0    0  0.00000000000E+00  0.00000000000E+00  0.45593999997E+02  0.45594000000E+02  0.51100000000E-03 0. -1.
         11   -1    0    0    0    0 -0.00000000000E+00 -0.00000000000E+00 -0.45593999997E+02  0.45594000000E+02  0.51100000000E-03 0.  1.
    9900012    2    1    2    0    0  0.80798630629E+01 -0.27897084401E+02  0.32250457080E+02  0.47787268589E+02  0.19999988803E+02 0.  0.
        -12    1    1    2    0    0 -0.80798630629E+01  0.27897084401E+02 -0.32250457080E+02  0.43400731411E+02  0.00000000000E+00 0.  1.
         11    1    3    3    0    0  0.18748766931E+01 -0.17683852058E+01  0.30548718167E+01  0.39968226040E+01  0.51100000000E-03 0. -1.
        -11    1    3    3    0    0  0.17271768327E+01 -0.23397491928E+02  0.13119216394E+02  0.26880096863E+02  0.51100000000E-03 0.  1.
        -12    1    3    3    0    0  0.44778095371E+01 -0.27312072671E+01  0.16076368869E+02  0.16910349121E+02  0.00000000000E+00 0.  1.
</event>
<event>
 7    1  0.7470072E-010  0.4778727E+02  0.7816164E-02  0.1312668E+00
        -11   -1    0    0    0    0  0.00000000000E+00  0.00000000000E+00  0.45593999997E+02  0.45594000000E+02  0.51100000000E-03 0. -1.
         11   -1    0    0    0    0 -0.00000000000E+00 -0.00000000000E+00 -0.45593999997E+02  0.45594000000E+02  0.51100000000E-03 0.  1.
    9900012    2    1    2    0    0 -0.24064041764E+01 -0.42527011453E+02 -0.83238088528E+01  0.47787270997E+02  0.19999999785E+02 0.  0.
         12    1    1    2    0    0  0.24064041764E+01  0.42527011453E+02  0.83238088528E+01  0.43400729003E+02  0.00000000000E+00 0. -1.
         11    1    3    3    0    0 -0.30556645806E+01 -0.19329962123E+02 -0.11542899838E+01  0.19604002330E+02  0.51100000000E-03 0. -1.
        -11    1    3    3    0    0  0.62858400747E+01 -0.46318051421E+01 -0.13217327260E+01  0.79191149745E+01  0.51100000000E-03 0.  1.
        -12    1    3    3    0    0 -0.56365796706E+01 -0.18565244187E+02 -0.58477861430E+01  0.20264153693E+02  0.00000000000E+00 0.  1.
</event>
<event>
 7    1  0.7470072E-010  0.4778727E+02  0.7816164E-02  0.1312668E+00
        -11   -1    0    0    0    0  0.00000000000E+00  0.00000000000E+00  0.45593999997E+02  0.45594000000E+02  0.51100000000E-03 0. -1.
         11   -1    0    0    0    0 -0.00000000000E+00 -0.00000000000E+00 -0.45593999997E+02  0.45594000000E+02  0.51100000000E-03 0.  1.
    9900012    2    1    2    0    0  0.41877086804E+01 -0.24555567734E+02  0.35540266575E+02  0.47787270064E+02  0.19999995531E+02 0.  0.
        -12    1    1    2    0    0 -0.41877086804E+01  0.24555567734E+02 -0.35540266575E+02  0.43400729936E+02  0.00000000000E+00 0.  1.
         11    1    3    3    0    0  0.98596841956E+01 -0.86452410137E+01  0.23211635743E+02  0.26659587370E+02  0.51100000000E-03 0. -1.
        -11    1    3    3    0    0 -0.18333697200E+01 -0.95114608823E+01  0.73050878431E+01  0.12132330415E+02  0.51100000000E-03 0.  1.
         12    1    3    3    0    0 -0.38386057951E+01 -0.63988658378E+01  0.50235429887E+01  0.89953522788E+01  0.00000000000E+00 0. -1.
</event>
<event>
 7    1  0.7470072E-010  0.4778727E+02  0.7816164E-02  0.1312668E+00
        -11   -1    0    0    0    0  0.00000000000E+00  0.00000000000E+00  0.45593999997E+02  0.45594000000E+02  0.51100000000E-03 0. -1.
         11   -1    0    0    0    0 -0.00000000000E+00 -0.00000000000E+00 -0.45593999997E+02  0.45594000000E+02  0.51100000000E-03 0.  1.
    9900012    2    1    2    0    0 -0.17436627022E+02 -0.25937719302E+02  0.30113485227E+02  0.47787271469E+02  0.20000001936E+02 0.  0.
        -12    1    1    2    0    0  0.17436627022E+02  0.25937719302E+02 -0.30113485227E+02  0.43400728531E+02  0.00000000000E+00 0.  1.
         11    1    3    3    0    0 -0.56887385814E+01 -0.19661820365E+02  0.18845403975E+02  0.27822619897E+02  0.51100000000E-03 0. -1.
        -11    1    3    3    0    0 -0.38892216515E+01  0.25512008961E+01  0.28565324148E+01  0.54584291481E+01  0.51100000000E-03 0.  1.
         12    1    3    3    0    0 -0.78586667891E+01 -0.88270998328E+01  0.84115488375E+01  0.14506222424E+02  0.00000000000E+00 0. -1.
</event>
<event>
 7    1  0.7470072E-010  0.4778728E+02  0.7816164E-02  0.1312668E+00
        -11   -1    0    0    0    0  0.00000000000E+00  0.00000000000E+00  0.45593999997E+02  0.45594000000E+02  0.51100000000E-03 0. -1.
         11   -1    0    0    0    0 -0.00000000000E+00 -0.00000000000E+00 -0.45593999997E+02  0.45594000000E+02  0.51100000000E-03 0.  1.
    9900012    2    1    2    0    0  0.25425286466E+00  0.79161706758E+01  0.42671916752E+02  0.47787275559E+02  0.20000020586E+02 0.  0.
        -12    1    1    2    0    0 -0.25425286466E+00 -0.79161706758E+01 -0.42671916752E+02  0.43400724441E+02  0.00000000000E+00 0.  1.
         11    1    3    3    0    0  0.63460631046E+01  0.14816139168E+01  0.91775439672E+01  0.11255887804E+02  0.51100000000E-03 0. -1.
        -11    1    3    3    0    0 -0.78861024073E+01  0.41043684240E+01  0.12540147321E+02  0.15371784101E+02  0.51100000000E-03 0.  1.
        -12    1    3    3    0    0  0.17942921673E+01  0.23301883350E+01  0.20954225463E+02  0.21159603655E+02  0.00000000000E+00 0.  1.
</event>
<event>
 7    1  0.7470072E-010  0.4778727E+02  0.7816164E-02  0.1312668E+00
        -11   -1    0    0    0    0  0.00000000000E+00  0.00000000000E+00  0.45593999997E+02  0.45594000000E+02  0.51100000000E-03 0. -1.
         11   -1    0    0    0    0 -0.00000000000E+00 -0.00000000000E+00 -0.45593999997E+02  0.45594000000E+02  0.51100000000E-03 0.  1.
    9900012    2    1    2    0    0  0.22030300265E+02  0.33414329007E+02 -0.16786055677E+02  0.47787272150E+02  0.20000005038E+02 0.  0.
         12    1    1    2    0    0 -0.22030300265E+02 -0.33414329007E+02  0.16786055677E+02  0.43400727850E+02  0.00000000000E+00 0. -1.
         11    1    3    3    0    0  0.51800193259E+01  0.47884419144E+01  0.31697583466E+01  0.77336372052E+01  0.51100000000E-03 0. -1.
        -11    1    3    3    0    0  0.15056964373E+02  0.16758307726E+02 -0.15015662399E+02  0.27074400668E+02  0.51100000000E-03 0.  1.
         12    1    3    3    0    0  0.17933165656E+01  0.11867579366E+02 -0.49401516248E+01  0.12979234276E+02  0.00000000000E+00 0. -1.
</event>
<event>
 7    1  0.7470072E-010  0.4778727E+02  0.7816164E-02  0.1312668E+00
        -11   -1    0    0    0    0  0.00000000000E+00  0.00000000000E+00  0.45593999997E+02  0.45594000000E+02  0.51100000000E-03 0. -1.
         11   -1    0    0    0    0 -0.00000000000E+00 -0.00000000000E+00 -0.45593999997E+02  0.45594000000E+02  0.51100000000E-03 0.  1.
    9900012    2    1    2    0    0 -0.11613763466E+02 -0.10093525482E+02 -0.40581580490E+02  0.47787269204E+02  0.19999991611E+02 0.  0.
         12    1    1    2    0    0  0.11613763466E+02  0.10093525482E+02  0.40581580490E+02  0.43400730796E+02  0.00000000000E+00 0. -1.
         11    1    3    3    0    0 -0.94085613843E+01 -0.98330394400E+01 -0.16536469195E+02  0.21416454087E+02  0.51100000000E-03 0. -1.
        -11    1    3    3    0    0 -0.48118437217E+01 -0.48713088407E+00 -0.23081140624E+02  0.23582412711E+02  0.51100000000E-03 0.  1.
        -12    1    3    3    0    0  0.26066416402E+01  0.22664484205E+00 -0.96397067077E+00  0.27884024063E+01  0.00000000000E+00 0.  1.
</event>
<event>
 7    1  0.7470072E-010  0.4778727E+02  0.7816164E-02  0.1312668E+00
        -11   -1    0    0    0    0  0.00000000000E+00  0.00000000000E+00  0.45593999997E+02  0.45594000000E+02  0.51100000000E-03 0. -1.
         11   -1    0    0    0    0 -0.00000000000E+00 -0.00000000000E+00 -0.45593999997E+02  0.45594000000E+02  0.51100000000E-03 0.  1.
    9900012    2    1    2    0    0  0.23245056071E+01 -0.12328892165E+02 -0.41547783031E+02  0.47787272090E+02  0.20000004769E+02 0.  0.
         12    1    1    2    0    0 -0.23245056071E+01  0.12328892165E+02  0.41547783031E+02  0.43400727910E+02  0.00000000000E+00 0. -1.
         11    1    3    3    0    0  0.70578801812E+01 -0.56012854610E+01 -0.95095990331E+01  0.13100402494E+02  0.51100000000E-03 0. -1.
        -11    1    3    3    0    0 -0.66684112686E+01 -0.72014107133E+00 -0.12975003945E+02  0.14606061743E+02  0.51100000000E-03 0.  1.
         12    1    3    3    0    0  0.19350366945E+01 -0.60074656326E+01 -0.19063180052E+02  0.20080807853E+02  0.00000000000E+00 0. -1.
</event>
<event>
 7    1  0.7470072E-010  0.4778727E+02  0.7816164E-02  0.1312668E+00
        -11   -1    0    0    0    0  0.00000000000E+00  0.00000000000E+00  0.45593999997E+02  0.45594000000E+02  0.51100000000E-03 0. -1.
         11   -1    0    0    0    0 -0.00000000000E+00 -0.00000000000E+00 -0.45593999997E+02  0.45594000000E+02  0.51100000000E-03 0.  1.
    9900012    2    1    2    0    0 -0.37130527053E+02 -0.12929029165E+02  0.18378987021E+02  0.47787274219E+02  0.20000014474E+02 0.  0.
        -12    1    1    2    0    0  0.37130527053E+02  0.12929029165E+02 -0.18378987021E+02  0.43400725781E+02  0.00000000000E+00 0.  1.
         11    1    3    3    0    0 -0.41590068227E+01 -0.43444915701E+01  0.10204976320E+02  0.11845399390E+02  0.51100000000E-03 0. -1.
        -11    1    3    3    0    0 -0.24491700399E+02 -0.60850114887E+01  0.23284266117E+01  0.25343486816E+02  0.51100000000E-03 0.  1.
         12    1    3    3    0    0 -0.84798198316E+01 -0.24995261059E+01  0.58455840894E+01  0.10598388013E+02  0.00000000000E+00 0. -1.
</event>
<event>
 7    1  0.7470072E-010  0.4778727E+02  0.7816164E-02  0.1312668E+00
        -11   -1    0    0    0    0  0.00000000000E+00  0.00000000000E+00  0.45593999997E+02  0.45594000000E+02  0.51100000000E-03 0. -1.
         11   -1    0    0    0    0 -0.00000000000E+00 -0.00000000000E+00 -0.45593999997E+02  0.45594000000E+02  0.51100000000E-03 0.  1.
    9900012    2    1    2    0    0 -0.58960550370E-01 -0.59576480576E+01  0.42989842506E+02  0.47787267225E+02  0.19999982587E+02 0.  0.
        -12    1    1    2    0    0  0.58960550370E-01  0.59576480576E+01 -0.42989842506E+02  0.43400732775E+02  0.00000000000E+00 0.  1.
         11    1    3    3    0    0 -0.72571211104E+01 -0.76197050872E+00  0.62317471991E+01  0.95958886656E+01  0.51100000000E-03 0. -1.
        -11    1    3    3    0    0  0.64338420641E+01 -0.15535561660E+01  0.22248856474E+02  0.23212485329E+02  0.51100000000E-03 0.  1.
         12    1    3    3    0    0  0.76431849587E+00 -0.36421213828E+01  0.14509238833E+02  0.14978893231E+02  0.00000000000E+00 0. -1.
</event>
<event>
 7    1  0.7928327E-010  0.4778727E+02  0.7816164E-02  0.1312668E+00
        -11   -1    0    0    0    0  0.00000000000E+00  0.00000000000E+00  0.45593999997E+02  0.45594000000E+02  0.51100000000E-03 0. -1.
         11   -1    0    0    0    0 -0.00000000000E+00 -0.00000000000E+00 -0.45593999997E+02  0.45594000000E+02  0.51100000000E-03 0.  1.
    9900012    2    1    2    0    0 -0.10194203542E+02  0.21609100848E+02 -0.36231866069E+02  0.47787272539E+02  0.20000006816E+02 0.  0.
         12    1    1    2    0    0  0.10194203542E+02 -0.21609100848E+02  0.36231866069E+02  0.43400727461E+02  0.00000000000E+00 0. -1.
         11    1    3    3    0    0 -0.20798862583E+01  0.13939027889E+02 -0.88035299293E+01  0.16616996263E+02  0.51100000000E-03 0. -1.
        -11    1    3    3    0    0 -0.59296275184E+01  0.91997341929E+01 -0.25849037365E+02  0.28070773496E+02  0.51100000000E-03 0.  1.
         12    1    3    3    0    0 -0.21846897656E+01 -0.15296612341E+01 -0.15792987742E+01  0.30995027797E+01  0.00000000000E+00 0. -1.
</event>
<event>
 7    1  0.7470072E-010  0.4778728E+02  0.7816164E-02  0.1312668E+00
        -11   -1    0    0    0    0  0.00000000000E+00  0.00000000000E+00  0.45593999997E+02  0.45594000000E+02  0.51100000000E-03 0. -1.
         11   -1    0    0    0    0 -0.00000000000E+00 -0.00000000000E+00 -0.45593999997E+02  0.45594000000E+02  0.51100000000E-03 0.  1.
    9900012    2    1    2    0    0 -0.13917828579E+02  0.99886728285E+00 -0.41096460024E+02  0.47787277487E+02  0.20000029373E+02 0.  0.
         12    1    1    2    0    0  0.13917828579E+02 -0.99886728285E+00  0.41096460024E+02  0.43400722513E+02  0.00000000000E+00 0. -1.
         11    1    3    3    0    0 -0.15235895514E+00 -0.33232728797E+01 -0.16555487658E+02  0.16886430285E+02  0.51100000000E-03 0. -1.
        -11    1    3    3    0    0 -0.47188958313E+01 -0.86050742142E+00 -0.17918519438E+02  0.18549441771E+02  0.51100000000E-03 0.  1.
        -12    1    3    3    0    0 -0.90465737925E+01  0.51826475840E+01 -0.66224529269E+01  0.12351405431E+02  0.00000000000E+00 0.  1.
</event>
<event>
 7    1  0.7470072E-010  0.4778727E+02  0.7816164E-02  0.1312668E+00
        -11   -1    0    0    0    0  0.00000000000E+00  0.00000000000E+00  0.45593999997E+02  0.45594000000E+02  0.51100000000E-03 0. -1.
         11   -1    0    0    0    0 -0.00000000000E+00 -0.00000000000E+00 -0.45593999997E+02  0.45594000000E+02  0.51100000000E-03 0.  1.
    9900012    2    1    2    0    0  0.19239942912E+02  0.89764767518E+01  0.37853279824E+02  0.47787270380E+02  0.19999996969E+02 0.  0.
        -12    1    1    2    0    0 -0.19239942912E+02 -0.89764767518E+01 -0.37853279824E+02  0.43400729620E+02  0.00000000000E+00 0.  1.
         11    1    3    3    0    0  0.94883338616E+01  0.44523422123E+01  0.25897237055E+02  0.27937765086E+02  0.51100000000E-03 0. -1.
        -11    1    3    3    0    0  0.11090563167E+02  0.48713974036E+00  0.62726712313E+01  0.12750854917E+02  0.51100000000E-03 0.  1.
        -12    1    3    3    0    0 -0.13389541160E+01  0.40369947991E+01  0.56833715376E+01  0.70986503764E+01  0.00000000000E+00 0.  1.
</event>
<event>
 7    1  0.7470072E-010  0.4778727E+02  0.7816164E-02  0.1312668E+00
        -11   -1    0    0    0    0  0.00000000000E+00  0.00000000000E+00  0.45593999997E+02  0.45594000000E+02  0.51100000000E-03 0. -1.
         11   -1    0    0    0    0 -0.00000000000E+00 -0.00000000000E+00 -0.45593999997E+02  0.45594000000E+02  0.51100000000E-03 0.  1.
    9900012    2    1    2    0    0  0.26388351622E+02  0.17884847275E+02 -0.29451833491E+02  0.47787270060E+02  0.19999995510E+02 0.  0.
         12    1    1    2    0    0 -0.26388351622E+02 -0.17884847275E+02  0.29451833491E+02  0.43400729940E+02  0.00000000000E+00 0. -1.
         11    1    3    3    0    0  0.59053580368E+01 -0.41499910243E+00 -0.13909820075E+02  0.15117161525E+02  0.51100000000E-03 0. -1.
        -11    1    3    3    0    0  0.88612658703E+01  0.89279363873E+01 -0.24546110686E+01  0.12816208360E+02  0.51100000000E-03 0.  1.
        -12    1    3    3    0    0  0.11621727715E+02  0.93719099906E+01 -0.13087402347E+02  0.19853900175E+02  0.00000000000E+00 0.  1.
</event>
<event>
 7    1  0.7470072E-010  0.4778727E+02  0.7816164E-02  0.1312668E+00
        -11   -1    0    0    0    0  0.00000000000E+00  0.00000000000E+00  0.45593999997E+02  0.45594000000E+02  0.51100000000E-03 0. -1.
         11   -1    0    0    0    0 -0.00000000000E+00 -0.00000000000E+00 -0.45593999997E+02  0.45594000000E+02  0.51100000000E-03 0.  1.
    9900012    2    1    2    0    0 -0.73658480196E+01 -0.75252789019E+01  0.42103892978E+02  0.47787270242E+02  0.19999996343E+02 0.  0.
        -12    1    1    2    0    0  0.73658480196E+01  0.75252789019E+01 -0.42103892978E+02  0.43400729758E+02  0.00000000000E+00 0.  1.
         11    1    3    3    0    0 -0.52628411354E+01  0.39737032724E+01  0.28529347014E+02  0.29281589025E+02  0.51100000000E-03 0. -1.
        -11    1    3    3    0    0  0.14078432665E+01 -0.29086246161E+01  0.27108526543E+01  0.42179191783E+01  0.51100000000E-03 0.  1.
         12    1    3    3    0    0 -0.35108501508E+01 -0.85903575582E+01  0.10863693309E+02  0.14287762039E+02  0.00000000000E+00 0. -1.
</event>
<event>
 7    1  0.7470072E-010  0.4778727E+02  0.7816164E-02  0.1312668E+00
        -11   -1    0    0    0    0  0.00000000000E+00  0.00000000000E+00  0.45593999997E+02  0.45594000000E+02  0.51100000000E-03 0.  1.
         11   -1    0    0    0    0 -0.00000000000E+00 -0.00000000000E+00 -0.45593999997E+02  0.45594000000E+02  0.51100000000E-03 0. -1.
    9900012    2    1    2    0    0  0.62079823405E+01  0.25567412749E+02  0.34516545554E+02  0.47787267790E+02  0.19999985162E+02 0.  0.
        -12    1    1    2    0    0 -0.62079823405E+01 -0.25567412749E+02 -0.34516545554E+02  0.43400732210E+02  0.00000000000E+00 0.  1.
         11    1    3    3    0    0  0.23080200478E+01  0.89048636543E+01  0.16843975251E+02  0.19192265520E+02  0.51100000000E-03 0. -1.
        -11    1    3    3    0    0 -0.56106194532E+00  0.14176319421E+02  0.51879731088E+01  0.15106220179E+02  0.51100000000E-03 0.  1.
        -12    1    3    3    0    0  0.44610242380E+01  0.24862296732E+01  0.12484597193E+02  0.13488782092E+02  0.00000000000E+00 0.  1.
</event>
<event>
 7    1  0.7470072E-010  0.4778725E+02  0.7816164E-02  0.1312668E+00
        -11   -1    0    0    0    0  0.00000000000E+00  0.00000000000E+00  0.45593999997E+02  0.45594000000E+02  0.51100000000E-03 0. -1.
         11   -1    0    0    0    0 -0.00000000000E+00 -0.00000000000E+00 -0.45593999997E+02  0.45594000000E+02  0.51100000000E-03 0.  1.
    9900012    2    1    2    0    0  0.26250544742E+02 -0.32521298968E+02  0.11700390265E+02  0.47787249797E+02  0.19999903125E+02 0.  0.
        -12    1    1    2    0    0 -0.26250544742E+02  0.32521298968E+02 -0.11700390265E+02  0.43400750203E+02  0.00000000000E+00 0.  1.
         11    1    3    3    0    0  0.15529328313E+02 -0.12424251584E+02  0.97321326523E+01  0.22141284324E+02  0.51100000000E-03 0. -1.
        -11    1    3    3    0    0 -0.17210072738E+01 -0.78625712104E+01  0.15171198570E+01  0.81904545048E+01  0.51100000000E-03 0.  1.
        -12    1    3    3    0    0  0.12442223702E+02 -0.12234476174E+02  0.45113775583E+00  0.17455510969E+02  0.00000000000E+00 0.  1.
</event>
<event>
 7    1  0.7470072E-010  0.4778727E+02  0.7816164E-02  0.1312668E+00
        -11   -1    0    0    0    0  0.00000000000E+00  0.00000000000E+00  0.45593999997E+02  0.45594000000E+02  0.51100000000E-03 0. -1.
         11   -1    0    0    0    0 -0.00000000000E+00 -0.00000000000E+00 -0.45593999997E+02  0.45594000000E+02  0.51100000000E-03 0.  1.
    9900012    2    1    2    0    0 -0.44450601856E+01 -0.76667448386E+01 -0.42486300858E+02  0.47787270777E+02  0.19999998783E+02 0.  0.
         12    1    1    2    0    0  0.44450601856E+01  0.76667448386E+01  0.42486300858E+02  0.43400729223E+02  0.00000000000E+00 0. -1.
         11    1    3    3    0    0  0.48184950560E+01 -0.32211412502E+01 -0.41164834057E+01  0.71090844311E+01  0.51100000000E-03 0. -1.
        -11    1    3    3    0    0 -0.97618616985E+00  0.25061596008E+01 -0.78973028049E+01  0.83427314014E+01  0.51100000000E-03 0.  1.
         12    1    3    3    0    0 -0.82873690717E+01 -0.69517631892E+01 -0.30472514647E+02  0.32335454945E+02  0.00000000000E+00 0. -1.
</event>
<event>
 7    1  0.7470072E-010  0.4778726E+02  0.7816164E-02  0.1312668E+00
        -11   -1    0    0    0    0  0.00000000000E+00  0.00000000000E+00  0.45593999997E+02  0.45594000000E+02  0.51100000000E-03 0. -1.
         11   -1    0    0    0    0 -0.00000000000E+00 -0.00000000000E+00 -0.45593999997E+02  0.45594000000E+02  0.51100000000E-03 0.  1.
    9900012    2    1    2    0    0 -0.30548791998E+02 -0.26068242543E+02  0.16457280267E+02  0.47787262269E+02  0.19999959987E+02 0.  0.
        -12    1    1    2    0    0  0.30548791998E+02  0.26068242543E+02 -0.16457280267E+02  0.43400737731E+02  0.00000000000E+00 0.  1.
         11    1    3    3    0    0 -0.32082863445E+02 -0.25048992172E+02  0.17593489770E+02  0.44342902681E+02  0.51100000000E-03 0. -1.
        -11    1    3    3    0    0  0.44446450997E+00 -0.86528320162E+00 -0.18795716690E+01  0.21163774804E+01  0.51100000000E-03 0.  1.
         12    1    3    3    0    0  0.10896069369E+01 -0.15396716988E+00  0.74336216578E+00  0.13279821068E+01  0.00000000000E+00 0. -1.
</event>
<event>
 7    1  0.7470072E-010  0.4778728E+02  0.7816164E-02  0.1312668E+00
        -11   -1    0    0    0    0  0.00000000000E+00  0.00000000000E+00  0.45593999997E+02  0.45594000000E+02  0.51100000000E-03 0.  1.
         11   -1    0    0    0    0 -0.00000000000E+00 -0.00000000000E+00 -0.45593999997E+02  0.45594000000E+02  0.51100000000E-03 0. -1.
    9900012    2    1    2    0    0 -0.21540748587E+02 -0.35165393624E+02  0.13528260477E+02  0.47787278924E+02  0.20000035925E+02 0.  0.
        -12    1    1    2    0    0  0.21540748587E+02  0.35165393624E+02 -0.13528260477E+02  0.43400721076E+02  0.00000000000E+00 0.  1.
         11    1    3    3    0    0 -0.60264237457E+01 -0.10611686110E+02  0.28689122771E+01  0.12536200508E+02  0.51100000000E-03 0.  1.
        -11    1    3    3    0    0 -0.12874679875E+02 -0.23485942422E+02  0.14510587968E+02  0.30461517309E+02  0.51100000000E-03 0. -1.
        -12    1    3    3    0    0 -0.26396449663E+01 -0.10677650927E+01 -0.38512397688E+01  0.47895611071E+01  0.00000000000E+00 0.  1.
</event>
<event>
 7    1  0.7470072E-010  0.4778727E+02  0.7816164E-02  0.1312668E+00
        -11   -1    0    0    0    0  0.00000000000E+00  0.00000000000E+00  0.45593999997E+02  0.45594000000E+02  0.51100000000E-03 0.  1.
         11   -1    0    0    0    0 -0.00000000000E+00 -0.00000000000E+00 -0.45593999997E+02  0.45594000000E+02  0.51100000000E-03 0. -1.
    9900012    2    1    2    0    0 -0.20125348104E+02 -0.37281728319E+02  0.94163036568E+01  0.47787266397E+02  0.19999978811E+02 0.  0.
        -12    1    1    2    0    0  0.20125348104E+02  0.37281728319E+02 -0.94163036568E+01  0.43400733603E+02  0.00000000000E+00 0.  1.
         11    1    3    3    0    0 -0.92834742873E+00 -0.13476090240E+02  0.79175768590E+01  0.15657421905E+02  0.51100000000E-03 0. -1.
        -11    1    3    3    0    0 -0.23822156621E+01 -0.93691959756E+01  0.23602137216E+01  0.99512508642E+01  0.51100000000E-03 0.  1.
         12    1    3    3    0    0 -0.16814785013E+02 -0.14436442102E+02 -0.86148692369E+00  0.22178593628E+02  0.00000000000E+00 0. -1.
</event>
<event>
 7    1  0.7470072E-010  0.4778727E+02  0.7816164E-02  0.1312668E+00
        -11   -1    0    0    0    0  0.00000000000E+00  0.00000000000E+00  0.45593999997E+02  0.45594000000E+02  0.51100000000E-03 0.  1.
         11   -1    0    0    0    0 -0.00000000000E+00 -0.00000000000E+00 -0.45593999997E+02  0.45594000000E+02  0.51100000000E-03 0. -1.
    9900012    2    1    2    0    0 -0.23940867597E+02 -0.34440145264E+02 -0.11150540814E+02  0.47787270657E+02  0.19999998234E+02 0.  0.
        -12    1    1    2    0    0  0.23940867597E+02  0.34440145264E+02  0.11150540814E+02  0.43400729343E+02  0.00000000000E+00 0.  1.
         11    1    3    3    0    0 -0.10084561999E+02 -0.11776523309E+02 -0.22600126015E+01  0.15668201849E+02  0.51100000000E-03 0. -1.
        -11    1    3    3    0    0 -0.87352625016E+01 -0.13390001079E+01 -0.37108802800E+01  0.95847986403E+01  0.51100000000E-03 0.  1.
        -12    1    3    3    0    0 -0.51210430965E+01 -0.21324621847E+02 -0.51796479321E+01  0.22534270168E+02  0.00000000000E+00 0.  1.
</event>
<event>
 7    1  0.7470072E-010  0.4778728E+02  0.7816164E-02  0.1312668E+00
        -11   -1    0    0    0    0  0.00000000000E+00  0.00000000000E+00  0.45593999997E+02  0.45594000000E+02  0.51100000000E-03 0. -1.
         11   -1    0    0    0    0 -0.00000000000E+00 -0.00000000000E+00 -0.45593999997E+02  0.45594000000E+02  0.51100000000E-03 0.  1.
    9900012    2    1    2    0    0  0.15481345963E+02  0.35904616696E+02  0.18836378302E+02  0.47787277420E+02  0.20000029071E+02 0.  0.
        -12    1    1    2    0    0 -0.15481345963E+02 -0.35904616696E+02 -0.18836378302E+02  0.43400722580E+02  0.00000000000E+00 0.  1.
         11    1    3    3    0    0  0.63747572827E+01  0.14395448118E+02  0.12595055994E+02  0.20161892091E+02  0.51100000000E-03 0. -1.
        -11    1    3    3    0    0  0.14232458761E+00  0.14415065383E+01 -0.33463347337E+01  0.36463891454E+01  0.51100000000E-03 0.  1.
        -12    1    3    3    0    0  0.89642640923E+01  0.20067662039E+02  0.95876570416E+01  0.23978996184E+02  0.00000000000E+00 0.  1.
</event>
<event>
 7    1  0.7470072E-010  0.4778727E+02  0.7816164E-02  0.1312668E+00
        -11   -1    0    0    0    0  0.00000000000E+00  0.00000000000E+00  0.45593999997E+02  0.45594000000E+02  0.51100000000E-03 0. -1.
         11   -1    0    0    0    0 -0.00000000000E+00 -0.00000000000E+00 -0.45593999997E+02  0.45594000000E+02  0.51100000000E-03 0.  1.
    9900012    2    1    2    0    0  0.33977307302E+02 -0.15704314797E+02 -0.21966796213E+02  0.47787273617E+02  0.20000011727E+02 0.  0.
         12    1    1    2    0    0 -0.33977307302E+02  0.15704314797E+02  0.21966796213E+02  0.43400726383E+02  0.00000000000E+00 0. -1.
         11    1    3    3    0    0  0.10012640102E+02 -0.11955861848E+02 -0.18969435421E+01  0.15709678208E+02  0.51100000000E-03 0. -1.
        -11    1    3    3    0    0  0.16490750676E+02 -0.78146353193E-01 -0.11340621933E+02  0.20014011861E+02  0.51100000000E-03 0.  1.
         12    1    3    3    0    0  0.74739165247E+01 -0.36703065958E+01 -0.87292307375E+01  0.12063583547E+02  0.00000000000E+00 0. -1.
</event>
<event>
 7    1  0.7470072E-010  0.4778727E+02  0.7816164E-02  0.1312668E+00
        -11   -1    0    0    0    0  0.00000000000E+00  0.00000000000E+00  0.45593999997E+02  0.45594000000E+02  0.51100000000E-03 0. -1.
         11   -1    0    0    0    0 -0.00000000000E+00 -0.00000000000E+00 -0.45593999997E+02  0.45594000000E+02  0.51100000000E-03 0.  1.
    9900012    2    1    2    0    0 -0.15458062920E+01 -0.36401406946E+02 -0.23583286376E+02  0.47787270270E+02  0.19999996470E+02 0.  0.
         12    1    1    2    0    0  0.15458062920E+01  0.36401406946E+02  0.23583286376E+02  0.43400729730E+02  0.00000000000E+00 0. -1.
         11    1    3    3    0    0 -0.88897430195E+00 -0.16782126679E+02 -0.16977677429E+01  0.16891194947E+02  0.51100000000E-03 0. -1.
        -11    1    3    3    0    0  0.38180044113E+01 -0.13904466699E+02 -0.16108912064E+02  0.21619629970E+02  0.51100000000E-03 0.  1.
         12    1    3    3    0    0 -0.44748364013E+01 -0.57148135683E+01 -0.57766065692E+01  0.92764453534E+01  0.00000000000E+00 0. -1.
</event>
<event>
 7    1  0.7470072E-010  0.4778730E+02  0.7816164E-02  0.1312668E+00
        -11   -1    0    0    0    0  0.00000000000E+00  0.00000000000E+00  0.45593999997E+02  0.45594000000E+02  0.51100000000E-03 0. -1.
         11   -1    0    0    0    0 -0.00000000000E+00 -0.00000000000E+00 -0.45593999997E+02  0.45594000000E+02  0.51100000000E-03 0.  1.
    9900012    2    1    2    0    0  0.22721834595E+02  0.30818594341E+02  0.20434112852E+02  0.47787303086E+02  0.20000146091E+02 0.  0.
        -12    1    1    2    0    0 -0.22721834595E+02 -0.30818594341E+02 -0.20434112852E+02  0.43400696914E+02  0.00000000000E+00 0.  1.
         11    1    3    3    0    0  0.16619613850E+02  0.20467065730E+02  0.10191620335E+02  0.28266260266E+02  0.51100000000E-03 0. -1.
        -11    1    3    3    0    0 -0.14075608221E+01  0.67949830804E+01  0.86691106739E+00  0.69931793621E+01  0.51100000000E-03 0.  1.
        -12    1    3    3    0    0  0.75097815672E+01  0.35565455313E+01  0.93755814501E+01  0.12527863458E+02  0.00000000000E+00 0.  1.
</event>
<event>
 7    1  0.7470072E-010  0.4778727E+02  0.7816164E-02  0.1312668E+00
        -11   -1    0    0    0    0  0.00000000000E+00  0.00000000000E+00  0.45593999997E+02  0.45594000000E+02  0.51100000000E-03 0. -1.
         11   -1    0    0    0    0 -0.00000000000E+00 -0.00000000000E+00 -0.45593999997E+02  0.45594000000E+02  0.51100000000E-03 0.  1.
    9900012    2    1    2    0    0  0.18390968807E+02  0.39309637186E+02  0.38475107513E+00  0.47787270251E+02  0.19999996383E+02 0.  0.
         12    1    1    2    0    0 -0.18390968807E+02 -0.39309637186E+02 -0.38475107513E+00  0.43400729749E+02  0.00000000000E+00 0. -1.
         11    1    3    3    0    0  0.16178858020E+01  0.94045711770E+00  0.47660801166E+01  0.51203060453E+01  0.51100000000E-03 0. -1.
        -11    1    3    3    0    0  0.43612446070E+01  0.18555606433E+02 -0.19896296767E+01  0.19164801359E+02  0.51100000000E-03 0.  1.
         12    1    3    3    0    0  0.12411838398E+02  0.19813573635E+02 -0.23916993648E+01  0.23502162847E+02  0.00000000000E+00 0. -1.
</event>
<event>
 7    1  0.7470072E-010  0.4778725E+02  0.7816164E-02  0.1312668E+00
        -11   -1    0    0    0    0  0.00000000000E+00  0.00000000000E+00  0.45593999997E+02  0.45594000000E+02  0.51100000000E-03 0. -1.
         11   -1    0    0    0    0 -0.00000000000E+00 -0.00000000000E+00 -0.45593999997E+02  0.45594000000E+02  0.51100000000E-03 0.  1.
    9900012    2    1    2    0    0 -0.80586386066E+01 -0.55057421584E+01  0.42289125566E+02  0.47787251227E+02  0.19999909645E+02 0.  0.
        -12    1    1    2    0    0  0.80586386066E+01  0.55057421584E+01 -0.42289125566E+02  0.43400748773E+02  0.00000000000E+00 0.  1.
         11    1    3    3    0    0 -0.32763238675E+01 -0.89196879483E+01  0.88104472772E+01  0.12958360724E+02  0.51100000000E-03 0.  1.
        -11    1    3    3    0    0 -0.39167500342E+01  0.13917175844E+00  0.28729163643E+02  0.28995260708E+02  0.51100000000E-03 0. -1.
        -12    1    3    3    0    0 -0.86556470487E+00  0.32747740315E+01  0.47495146455E+01  0.58336297948E+01  0.00000000000E+00 0.  1.
</event>
<event>
 7    1  0.7470072E-010  0.4778727E+02  0.7816164E-02  0.1312668E+00
        -11   -1    0    0    0    0  0.00000000000E+00  0.00000000000E+00  0.45593999997E+02  0.45594000000E+02  0.51100000000E-03 0.  1.
         11   -1    0    0    0    0 -0.00000000000E+00 -0.00000000000E+00 -0.45593999997E+02  0.45594000000E+02  0.51100000000E-03 0. -1.
    9900012    2    1    2    0    0 -0.40118717802E+02  0.10301224085E+01 -0.16524239361E+02  0.47787272394E+02  0.20000006154E+02 0.  0.
        -12    1    1    2    0    0  0.40118717802E+02 -0.10301224085E+01  0.16524239361E+02  0.43400727606E+02  0.00000000000E+00 0.  1.
         11    1    3    3    0    0 -0.15857678341E+02 -0.48525793443E+00  0.21505859996E+01  0.16010198563E+02  0.51100000000E-03 0. -1.
        -11    1    3    3    0    0 -0.11955224097E+01  0.18281854488E+01 -0.14583294677E+00  0.21892472169E+01  0.51100000000E-03 0.  1.
         12    1    3    3    0    0 -0.23065517052E+02 -0.31280510588E+00 -0.18528992414E+02  0.29587826614E+02  0.00000000000E+00 0. -1.
</event>
<event>
 7    1  0.7470072E-010  0.4778727E+02  0.7816164E-02  0.1312668E+00
        -11   -1    0    0    0    0  0.00000000000E+00  0.00000000000E+00  0.45593999997E+02  0.45594000000E+02  0.51100000000E-03 0. -1.
         11   -1    0    0    0    0 -0.00000000000E+00 -0.00000000000E+00 -0.45593999997E+02  0.45594000000E+02  0.51100000000E-03 0.  1.
    9900012    2    1    2    0    0 -0.24112217339E+02  0.34379491044E+02 -0.10966980579E+02  0.47787273135E+02  0.20000009530E+02 0.  0.
         12    1    1    2    0    0  0.24112217339E+02 -0.34379491044E+02  0.10966980579E+02  0.43400726865E+02  0.00000000000E+00 0. -1.
         11    1    3    3    0    0 -0.64927547729E+01  0.44361425019E+01  0.28013412126E+01  0.83476186837E+01  0.51100000000E-03 0. -1.
        -11    1    3    3    0    0 -0.27448013375E+01  0.58613569801E+01 -0.84418703792E+01  0.10637415842E+02  0.51100000000E-03 0.  1.
        -12    1    3    3    0    0 -0.14874661228E+02  0.24081991562E+02 -0.53264514125E+01  0.28802238609E+02  0.00000000000E+00 0.  1.
</event>
<event>
 7    1  0.7470072E-010  0.4778726E+02  0.7816164E-02  0.1312668E+00
        -11   -1    0    0    0    0  0.00000000000E+00  0.00000000000E+00  0.45593999997E+02  0.45594000000E+02  0.51100000000E-03 0. -1.
         11   -1    0    0    0    0 -0.00000000000E+00 -0.00000000000E+00 -0.45593999997E+02  0.45594000000E+02  0.51100000000E-03 0.  1.
    9900012    2    1    2    0    0  0.35405904934E+01 -0.16049157795E+02 -0.40168553532E+02  0.47787263373E+02  0.19999965021E+02 0.  0.
         12    1    1    2    0    0 -0.35405904934E+01  0.16049157795E+02  0.40168553532E+02  0.43400736627E+02  0.00000000000E+00 0. -1.
         11    1    3    3    0    0 -0.30934760086E+01  0.18848138073E+01 -0.96725595670E+01  0.10328626518E+02  0.51100000000E-03 0. -1.
        -11    1    3    3    0    0 -0.27102022399E+01 -0.60383946424E+01 -0.88690533736E+01  0.11066504147E+02  0.51100000000E-03 0.  1.
         12    1    3    3    0    0  0.93442687419E+01 -0.11895576960E+02 -0.21626940591E+02  0.26392132708E+02  0.00000000000E+00 0. -1.
</event>
<event>
 7    1  0.7470072E-010  0.4778727E+02  0.7816164E-02  0.1312668E+00
        -11   -1    0    0    0    0  0.00000000000E+00  0.00000000000E+00  0.45593999997E+02  0.45594000000E+02  0.51100000000E-03 0. -1.
         11   -1    0    0    0    0 -0.00000000000E+00 -0.00000000000E+00 -0.45593999997E+02  0.45594000000E+02  0.51100000000E-03 0.  1.
    9900012    2    1    2    0    0  0.29276603485E+02 -0.32028981870E+02  0.80500851271E+00  0.47787271550E+02  0.20000002307E+02 0.  0.
        -12    1    1    2    0    0 -0.29276603485E+02  0.32028981870E+02 -0.80500851271E+00  0.43400728450E+02  0.00000000000E+00 0.  1.
         11    1    3    3    0    0  0.68966400126E+01 -0.46463533451E+01 -0.65897228472E+01  0.10610216319E+02  0.51100000000E-03 0. -1.
        -11    1    3    3    0    0  0.82674995911E+01 -0.10713098937E+02  0.72142757354E+01  0.15335182196E+02  0.51100000000E-03 0.  1.
        -12    1    3    3    0    0  0.14112463881E+02 -0.16669529588E+02  0.18045562449E+00  0.21841873036E+02  0.00000000000E+00 0.  1.
</event>
<event>
 7    1  0.7470072E-010  0.4778727E+02  0.7816164E-02  0.1312668E+00
        -11   -1    0    0    0    0  0.00000000000E+00  0.00000000000E+00  0.45593999997E+02  0.45594000000E+02  0.51100000000E-03 0. -1.
         11   -1    0    0    0    0 -0.00000000000E+00 -0.00000000000E+00 -0.45593999997E+02  0.45594000000E+02  0.51100000000E-03 0.  1.
    9900012    2    1    2    0    0 -0.42508708665E+00  0.18427305264E+02 -0.39292202604E+02  0.47787268856E+02  0.19999990023E+02 0.  0.
         12    1    1    2    0    0  0.42508708665E+00 -0.18427305264E+02  0.39292202604E+02  0.43400731144E+02  0.00000000000E+00 0. -1.
         11    1    3    3    0    0  0.37446946709E+01  0.50714833264E+01 -0.27194203263E+00  0.63100423167E+01  0.51100000000E-03 0. -1.
        -11    1    3    3    0    0 -0.30567666459E+01  0.90630744312E+01 -0.28435208483E+02  0.30000737028E+02  0.51100000000E-03 0.  1.
         12    1    3    3    0    0 -0.11130151116E+01  0.42927475068E+01 -0.10585052088E+02  0.11476489511E+02  0.00000000000E+00 0. -1.
</event>
<event>
 7    1  0.7470072E-010  0.4778727E+02  0.7816164E-02  0.1312668E+00
        -11   -1    0    0    0    0  0.00000000000E+00  0.00000000000E+00  0.45593999997E+02  0.45594000000E+02  0.51100000000E-03 0. -1.
         11   -1    0    0    0    0 -0.00000000000E+00 -0.00000000000E+00 -0.45593999997E+02  0.45594000000E+02  0.51100000000E-03 0.  1.
    9900012    2    1    2    0    0  0.33919108771E+02  0.13505873098E+02  0.23467177821E+02  0.47787274398E+02  0.20000015289E+02 0.  0.
        -12    1    1    2    0    0 -0.33919108771E+02 -0.13505873098E+02 -0.23467177821E+02  0.43400725602E+02  0.00000000000E+00 0.  1.
         11    1    3    3    0    0  0.92435062506E+01  0.97953429309E+01  0.16901464196E+01  0.13573788937E+02  0.51100000000E-03 0. -1.
        -11    1    3    3    0    0  0.54204047713E+01 -0.24676375207E+01  0.32358291734E+01  0.67779505397E+01  0.51100000000E-03 0.  1.
         12    1    3    3    0    0  0.19255197749E+02  0.61781676875E+01  0.18541202228E+02  0.27435534921E+02  0.00000000000E+00 0. -1.
</event>
<event>
 7    1  0.7470072E-010  0.4778728E+02  0.7816164E-02  0.1312668E+00
        -11   -1    0    0    0    0  0.00000000000E+00  0.00000000000E+00  0.45593999997E+02  0.45594000000E+02  0.51100000000E-03 0. -1.
         11   -1    0    0    0    0 -0.00000000000E+00 -0.00000000000E+00 -0.45593999997E+02  0.45594000000E+02  0.51100000000E-03 0.  1.
    9900012    2    1    2    0    0  0.15857572886E+02  0.36487212736E+02 -0.17344842483E+02  0.47787275676E+02  0.20000021116E+02 0.  0.
         12    1    1    2    0    0 -0.15857572886E+02 -0.36487212736E+02  0.17344842483E+02  0.43400724324E+02  0.00000000000E+00 0. -1.
         11    1    3    3    0    0  0.19368682777E+01 -0.14289716948E+01 -0.29394618915E+01  0.37991914011E+01  0.51100000000E-03 0. -1.
        -11    1    3    3    0    0  0.60826875361E+01  0.15980679966E+02 -0.10365165764E+01  0.17130545429E+02  0.51100000000E-03 0.  1.
         12    1    3    3    0    0  0.78380170725E+01  0.21935504465E+02 -0.13368864015E+02  0.26857538845E+02  0.00000000000E+00 0. -1.
</event>
<event>
 7    1  0.7470072E-010  0.4778727E+02  0.7816164E-02  0.1312668E+00
        -11   -1    0    0    0    0  0.00000000000E+00  0.00000000000E+00  0.45593999997E+02  0.45594000000E+02  0.51100000000E-03 0. -1.
         11   -1    0    0    0    0 -0.00000000000E+00 -0.00000000000E+00 -0.45593999997E+02  0.45594000000E+02  0.51100000000E-03 0.  1.
    9900012    2    1    2    0    0  0.20043844468E+02  0.59536621561E+01  0.38031844725E+02  0.47787274116E+02  0.20000014004E+02 0.  0.
        -12    1    1    2    0    0 -0.20043844468E+02 -0.59536621561E+01 -0.38031844725E+02  0.43400725884E+02  0.00000000000E+00 0.  1.
         11    1    3    3    0    0  0.10371754341E+02 -0.60652047846E+01  0.18698127365E+02  0.22225660044E+02  0.51100000000E-03 0.  1.
        -11    1    3    3    0    0  0.46278202190E+01  0.93704674047E+01  0.15501498919E+02  0.18695423193E+02  0.51100000000E-03 0. -1.
        -12    1    3    3    0    0  0.50442699076E+01  0.26483995359E+01  0.38322184405E+01  0.68661908784E+01  0.00000000000E+00 0.  1.
</event>
<event>
 7    1  0.7470072E-010  0.4778727E+02  0.7816164E-02  0.1312668E+00
        -11   -1    0    0    0    0  0.00000000000E+00  0.00000000000E+00  0.45593999997E+02  0.45594000000E+02  0.51100000000E-03 0. -1.
         11   -1    0    0    0    0 -0.00000000000E+00 -0.00000000000E+00 -0.45593999997E+02  0.45594000000E+02  0.51100000000E-03 0.  1.
    9900012    2    1    2    0    0  0.22111787210E+01  0.10130649900E+02 -0.42143845959E+02  0.47787272690E+02  0.20000007505E+02 0.  0.
         12    1    1    2    0    0 -0.22111787210E+01 -0.10130649900E+02  0.42143845959E+02  0.43400727310E+02  0.00000000000E+00 0. -1.
         11    1    3    3    0    0 -0.73065639589E+01  0.52625822849E+01 -0.13202797961E+02  0.15981067657E+02  0.51100000000E-03 0. -1.
        -11    1    3    3    0    0  0.87596832285E+01  0.61498387593E+01 -0.19461612841E+02  0.22210514214E+02  0.51100000000E-03 0.  1.
        -12    1    3    3    0    0  0.75805945142E+00 -0.12817711439E+01 -0.94794351573E+01  0.95956908192E+01  0.00000000000E+00 0.  1.
</event>
<event>
 7    1  0.7470072E-010  0.4778727E+02  0.7816164E-02  0.1312668E+00
        -11   -1    0    0    0    0  0.00000000000E+00  0.00000000000E+00  0.45593999997E+02  0.45594000000E+02  0.51100000000E-03 0. -1.
         11   -1    0    0    0    0 -0.00000000000E+00 -0.00000000000E+00 -0.45593999997E+02  0.45594000000E+02  0.51100000000E-03 0.  1.
    9900012    2    1    2    0    0 -0.42921083352E+02 -0.63927444419E+01  0.73258689905E+00  0.47787271190E+02  0.20000000665E+02 0.  0.
        -12    1    1    2    0    0  0.42921083352E+02  0.63927444419E+01 -0.73258689905E+00  0.43400728810E+02  0.00000000000E+00 0.  1.
         11    1    3    3    0    0 -0.12537490579E+02 -0.85328358395E+01  0.35113435141E+01  0.15566871587E+02  0.51100000000E-03 0. -1.
        -11    1    3    3    0    0 -0.19978205727E+02  0.21307451135E+01 -0.65813287715E+01  0.21141964607E+02  0.51100000000E-03 0.  1.
         12    1    3    3    0    0 -0.10405387047E+02  0.93462840424E-02  0.38025721564E+01  0.11078434996E+02  0.00000000000E+00 0. -1.
</event>
<event>
 7    1  0.7470072E-010  0.4778727E+02  0.7816164E-02  0.1312668E+00
        -11   -1    0    0    0    0  0.00000000000E+00  0.00000000000E+00  0.45593999997E+02  0.45594000000E+02  0.51100000000E-03 0. -1.
         11   -1    0    0    0    0 -0.00000000000E+00 -0.00000000000E+00 -0.45593999997E+02  0.45594000000E+02  0.51100000000E-03 0.  1.
    9900012    2    1    2    0    0  0.45547578148E+01  0.15187783807E+02  0.40400599391E+02  0.47787273890E+02  0.20000012974E+02 0.  0.
        -12    1    1    2    0    0 -0.45547578148E+01 -0.15187783807E+02 -0.40400599391E+02  0.43400726110E+02  0.00000000000E+00 0.  1.
         11    1    3    3    0    0 -0.45999388396E+01  0.11361720212E+02  0.12003183437E+02  0.17155889263E+02  0.51100000000E-03 0. -1.
        -11    1    3    3    0    0  0.22412284183E+01 -0.88933204704E+00  0.11797428453E+02  0.12041317813E+02  0.51100000000E-03 0.  1.
         12    1    3    3    0    0  0.69134682362E+01  0.47153956418E+01  0.16599987501E+02  0.18590066814E+02  0.00000000000E+00 0. -1.
</event>
