<event>
 7    1  0.4871930E-013  0.5052884E+02  0.7816164E-02  0.1300439E+00
        -11   -1    0    0    0    0  0.00000000000E+00  0.00000000000E+00  0.45593999997E+02  0.45594000000E+02  0.51100000000E-03 0.  1.
         11   -1    0    0    0    0 -0.00000000000E+00 -0.00000000000E+00 -0.45593999997E+02  0.45594000000E+02  0.51100000000E-03 0. -1.
    9900012    2    1    2    0    0  0.37948064660E+02  0.10196170636E+02  0.10447496775E+02  0.50528835032E+02  0.29999924562E+02 0.  0.
         12    1    1    2    0    0 -0.37948064660E+02 -0.10196170636E+02 -0.10447496775E+02  0.40659164968E+02  0.00000000000E+00 0. -1.
         11    1    3    3    0    0  0.24259520094E+02  0.12352278801E+02  0.14218748405E+02  0.30712797223E+02  0.51100000000E-03 0. -1.
        -11    1    3    3    0    0  0.82678484303E+01 -0.28293437033E+01  0.45576763248E+01  0.98557048048E+01  0.51100000000E-03 0.  1.
         12    1    3    3    0    0  0.54206961350E+01  0.67323553856E+00 -0.83289279547E+01  0.99603330041E+01  0.00000000000E+00 0. -1.
</event>
<event>
 7    1  0.4871930E-013  0.5052886E+02  0.7816164E-02  0.1300439E+00
        -11   -1    0    0    0    0  0.00000000000E+00  0.00000000000E+00  0.45593999997E+02  0.45594000000E+02  0.51100000000E-03 0. -1.
         11   -1    0    0    0    0 -0.00000000000E+00 -0.00000000000E+00 -0.45593999997E+02  0.45594000000E+02  0.51100000000E-03 0.  1.
    9900012    2    1    2    0    0 -0.48169358345E+01  0.36100144155E+02 -0.18076013760E+02  0.50528861392E+02  0.30000004688E+02 0.  0.
         12    1    1    2    0    0  0.48169358345E+01 -0.36100144155E+02  0.18076013760E+02  0.40659138608E+02  0.00000000000E+00 0. -1.
         11    1    3    3    0    0  0.84240893228E+01  0.86174517172E+01 -0.92897749989E+01  0.15215967758E+02  0.51100000000E-03 0. -1.
        -11    1    3    3    0    0 -0.29545919913E+01 -0.12844926422E+01  0.75058760528E+00  0.33080080407E+01  0.51100000000E-03 0.  1.
        -12    1    3    3    0    0 -0.10286433166E+02  0.28767185080E+02 -0.95368263665E+01  0.32004885594E+02  0.00000000000E+00 0.  1.
</event>
<event>
 7    1  0.4871930E-013  0.5052885E+02  0.7816164E-02  0.1300439E+00
        -11   -1    0    0    0    0  0.00000000000E+00  0.00000000000E+00  0.45593999997E+02  0.45594000000E+02  0.51100000000E-03 0.  1.
         11   -1    0    0    0    0 -0.00000000000E+00 -0.00000000000E+00 -0.45593999997E+02  0.45594000000E+02  0.51100000000E-03 0. -1.
    9900012    2    1    2    0    0 -0.26291424801E+02  0.14369553824E+02 -0.27485327612E+02  0.50528851840E+02  0.29999975652E+02 0.  0.
         12    1    1    2    0    0  0.26291424801E+02 -0.14369553824E+02  0.27485327612E+02  0.40659148160E+02  0.00000000000E+00 0. -1.
         11    1    3    3    0    0 -0.45809171799E+01 -0.61172771068E+01 -0.13459384087E+02  0.15477755060E+02  0.51100000000E-03 0. -1.
        -11    1    3    3    0    0 -0.99543206383E+01  0.51357843574E+01 -0.10586017160E+02  0.15411960937E+02  0.51100000000E-03 0.  1.
        -12    1    3    3    0    0 -0.11756186983E+02  0.15351046574E+02 -0.34399263640E+01  0.19639135843E+02  0.00000000000E+00 0.  1.
</event>
<event>
 7    1  0.4871930E-013  0.5052886E+02  0.7816164E-02  0.1300439E+00
        -11   -1    0    0    0    0  0.00000000000E+00  0.00000000000E+00  0.45593999997E+02  0.45594000000E+02  0.51100000000E-03 0. -1.
         11   -1    0    0    0    0 -0.00000000000E+00 -0.00000000000E+00 -0.45593999997E+02  0.45594000000E+02  0.51100000000E-03 0.  1.
    9900012    2    1    2    0    0 -0.27388659472E+01  0.40326599273E+02 -0.44079093212E+01  0.50528860066E+02  0.30000000656E+02 0.  0.
         12    1    1    2    0    0  0.27388659472E+01 -0.40326599273E+02  0.44079093212E+01  0.40659139934E+02  0.00000000000E+00 0. -1.
         11    1    3    3    0    0 -0.54702110459E+01  0.20265772954E+01  0.38861319918E+00  0.58464728598E+01  0.51100000000E-03 0. -1.
        -11    1    3    3    0    0  0.97524610010E+00  0.87687365259E+01  0.84972599037E+01  0.12249296770E+02  0.51100000000E-03 0.  1.
        -12    1    3    3    0    0  0.17560989986E+01  0.29531285452E+02 -0.13293782424E+02  0.32433090436E+02  0.00000000000E+00 0.  1.
</event>
<event>
 7    1  0.4871930E-013  0.5052885E+02  0.7816164E-02  0.1300439E+00
        -11   -1    0    0    0    0  0.00000000000E+00  0.00000000000E+00  0.45593999997E+02  0.45594000000E+02  0.51100000000E-03 0.  1.
         11   -1    0    0    0    0 -0.00000000000E+00 -0.00000000000E+00 -0.45593999997E+02  0.45594000000E+02  0.51100000000E-03 0. -1.
    9900012    2    1    2    0    0  0.17343389852E+02  0.29981626683E+02  0.21294961599E+02  0.50528849743E+02  0.29999969279E+02 0.  0.
         12    1    1    2    0    0 -0.17343389852E+02 -0.29981626683E+02 -0.21294961599E+02  0.40659150257E+02  0.00000000000E+00 0. -1.
         11    1    3    3    0    0  0.91098185732E+00  0.68902631553E+01  0.15745565848E+02  0.17211288691E+02  0.51100000000E-03 0. -1.
        -11    1    3    3    0    0  0.64257424948E+01  0.20821131344E+02  0.71484989953E+01  0.22932743298E+02  0.51100000000E-03 0.  1.
         12    1    3    3    0    0  0.10006665500E+02  0.22702321837E+01 -0.15991032436E+01  0.10384817754E+02  0.00000000000E+00 0. -1.
</event>
<event>
 7    1  0.4871930E-013  0.5052888E+02  0.7816164E-02  0.1300439E+00
        -11   -1    0    0    0    0  0.00000000000E+00  0.00000000000E+00  0.45593999997E+02  0.45594000000E+02  0.51100000000E-03 0.  1.
         11   -1    0    0    0    0 -0.00000000000E+00 -0.00000000000E+00 -0.45593999997E+02  0.45594000000E+02  0.51100000000E-03 0. -1.
    9900012    2    1    2    0    0 -0.37263740203E+01 -0.25291758435E+02  0.31616527348E+02  0.50528884052E+02  0.30000073565E+02 0.  0.
         12    1    1    2    0    0  0.37263740203E+01  0.25291758435E+02 -0.31616527348E+02  0.40659115948E+02  0.00000000000E+00 0. -1.
         11    1    3    3    0    0 -0.79204960767E+01 -0.82815842838E+01  0.21606098375E+02  0.24456949598E+02  0.51100000000E-03 0. -1.
        -11    1    3    3    0    0  0.54691649967E+01 -0.16812564167E+02  0.13569056593E+02  0.22286618781E+02  0.51100000000E-03 0.  1.
        -12    1    3    3    0    0 -0.12750429403E+01 -0.19760998504E+00 -0.35586276202E+01  0.37853156731E+01  0.00000000000E+00 0.  1.
</event>
<event>
 7    1  0.4871930E-013  0.5052887E+02  0.7816164E-02  0.1300439E+00
        -11   -1    0    0    0    0  0.00000000000E+00  0.00000000000E+00  0.45593999997E+02  0.45594000000E+02  0.51100000000E-03 0.  1.
         11   -1    0    0    0    0 -0.00000000000E+00 -0.00000000000E+00 -0.45593999997E+02  0.45594000000E+02  0.51100000000E-03 0. -1.
    9900012    2    1    2    0    0 -0.39404361424E+02  0.99783770563E+01 -0.94526135633E+00  0.50528865394E+02  0.30000016852E+02 0.  0.
         12    1    1    2    0    0  0.39404361424E+02 -0.99783770563E+01  0.94526135633E+00  0.40659134606E+02  0.00000000000E+00 0. -1.
         11    1    3    3    0    0 -0.20358275973E+02  0.13960526448E+02 -0.85168710001E+01  0.26113077015E+02  0.51100000000E-03 0. -1.
        -11    1    3    3    0    0  0.36561890044E+00  0.26370856215E+01  0.13413555298E+01  0.29811294293E+01  0.51100000000E-03 0.  1.
         12    1    3    3    0    0 -0.19411704351E+02 -0.66192350130E+01  0.62302541140E+01  0.21434658950E+02  0.00000000000E+00 0. -1.
</event>
<event>
 7    1  0.4871930E-013  0.5052882E+02  0.7816164E-02  0.1300439E+00
        -11   -1    0    0    0    0  0.00000000000E+00  0.00000000000E+00  0.45593999997E+02  0.45594000000E+02  0.51100000000E-03 0. -1.
         11   -1    0    0    0    0 -0.00000000000E+00 -0.00000000000E+00 -0.45593999997E+02  0.45594000000E+02  0.51100000000E-03 0.  1.
    9900012    2    1    2    0    0  0.14283867173E+02  0.38056706148E+02 -0.90949097341E+00  0.50528820003E+02  0.29999878880E+02 0.  0.
         12    1    1    2    0    0 -0.14283867173E+02 -0.38056706148E+02  0.90949097341E+00  0.40659179997E+02  0.00000000000E+00 0. -1.
         11    1    3    3    0    0 -0.14992001714E+01  0.67552927108E+00 -0.16013639579E+01  0.22952794464E+01  0.51100000000E-03 0. -1.
        -11    1    3    3    0    0  0.98893350547E+00  0.23943845635E+02 -0.95249425491E+01  0.25787792928E+02  0.51100000000E-03 0.  1.
        -12    1    3    3    0    0  0.14794133839E+02  0.13437331242E+02  0.10216815534E+02  0.22445747628E+02  0.00000000000E+00 0.  1.
</event>
<event>
 7    1  0.4871930E-013  0.5052884E+02  0.7816164E-02  0.1300439E+00
        -11   -1    0    0    0    0  0.00000000000E+00  0.00000000000E+00  0.45593999997E+02  0.45594000000E+02  0.51100000000E-03 0.  1.
         11   -1    0    0    0    0 -0.00000000000E+00 -0.00000000000E+00 -0.45593999997E+02  0.45594000000E+02  0.51100000000E-03 0. -1.
    9900012    2    1    2    0    0  0.21903323381E+02 -0.17766339298E+02  0.29287686398E+02  0.50528844060E+02  0.29999952005E+02 0.  0.
         12    1    1    2    0    0 -0.21903323381E+02  0.17766339298E+02 -0.29287686398E+02  0.40659155940E+02  0.00000000000E+00 0. -1.
         11    1    3    3    0    0  0.44555258561E+01  0.21309590508E+01 -0.41793741368E+01  0.64699200588E+01  0.51100000000E-03 0. -1.
        -11    1    3    3    0    0  0.45393516888E+01 -0.57081394114E+00  0.10169352075E+02  0.11151110447E+02  0.51100000000E-03 0.  1.
        -12    1    3    3    0    0  0.12908445836E+02 -0.19326484408E+02  0.23297708460E+02  0.32907813555E+02  0.00000000000E+00 0.  1.
</event>
<event>
 7    1  0.4871930E-013  0.5052885E+02  0.7816164E-02  0.1300439E+00
        -11   -1    0    0    0    0  0.00000000000E+00  0.00000000000E+00  0.45593999997E+02  0.45594000000E+02  0.51100000000E-03 0.  1.
         11   -1    0    0    0    0 -0.00000000000E+00 -0.00000000000E+00 -0.45593999997E+02  0.45594000000E+02  0.51100000000E-03 0. -1.
    9900012    2    1    2    0    0  0.67392745572E+01  0.33842019421E+02  0.21505035085E+02  0.50528848090E+02  0.29999964254E+02 0.  0.
         12    1    1    2    0    0 -0.67392745572E+01 -0.33842019421E+02 -0.21505035085E+02  0.40659151910E+02  0.00000000000E+00 0. -1.
         11    1    3    3    0    0  0.49577370374E+01  0.38271523200E+01  0.26072393350E+01  0.67840952694E+01  0.51100000000E-03 0. -1.
        -11    1    3    3    0    0  0.34994163232E+01  0.21574387781E+02  0.24986318130E+02  0.33196629598E+02  0.51100000000E-03 0.  1.
         12    1    3    3    0    0 -0.17178788034E+01  0.84404793203E+01 -0.60885223805E+01  0.10548123222E+02  0.00000000000E+00 0. -1.
</event>
<event>
 7    1  0.4871930E-013  0.5052889E+02  0.7816164E-02  0.1300439E+00
        -11   -1    0    0    0    0  0.00000000000E+00  0.00000000000E+00  0.45593999997E+02  0.45594000000E+02  0.51100000000E-03 0. -1.
         11   -1    0    0    0    0 -0.00000000000E+00 -0.00000000000E+00 -0.45593999997E+02  0.45594000000E+02  0.51100000000E-03 0.  1.
    9900012    2    1    2    0    0  0.34375137900E+02 -0.13869327489E+02 -0.16707932082E+02  0.50528888535E+02  0.30000087191E+02 0.  0.
         12    1    1    2    0    0 -0.34375137900E+02  0.13869327489E+02  0.16707932082E+02  0.40659111465E+02  0.00000000000E+00 0. -1.
         11    1    3    3    0    0  0.28418492807E+02 -0.17721354731E+02 -0.57165529123E+01  0.33975522430E+02  0.51100000000E-03 0. -1.
        -11    1    3    3    0    0 -0.15424224284E+01 -0.20173549829E+01 -0.40062731680E+01  0.47433124536E+01  0.51100000000E-03 0.  1.
        -12    1    3    3    0    0  0.74990675216E+01  0.58693822250E+01 -0.69851060017E+01  0.11810053652E+02  0.00000000000E+00 0.  1.
</event>
<event>
 7    1  0.4871930E-013  0.5052898E+02  0.7816164E-02  0.1300438E+00
        -11   -1    0    0    0    0  0.00000000000E+00  0.00000000000E+00  0.45593999997E+02  0.45594000000E+02  0.51100000000E-03 0.  1.
         11   -1    0    0    0    0 -0.00000000000E+00 -0.00000000000E+00 -0.45593999997E+02  0.45594000000E+02  0.51100000000E-03 0. -1.
    9900012    2    1    2    0    0 -0.11997433312E+01 -0.36873423497E+02  0.17089982060E+02  0.50528976017E+02  0.30000353098E+02 0.  0.
         12    1    1    2    0    0  0.11997433312E+01  0.36873423497E+02 -0.17089982060E+02  0.40659023983E+02  0.00000000000E+00 0. -1.
         11    1    3    3    0    0 -0.19468910283E+00 -0.11760119829E+02  0.36704509678E+01  0.12321141701E+02  0.51100000000E-03 0. -1.
        -11    1    3    3    0    0  0.26160269699E+00 -0.25734181057E+01  0.15334665859E+02  0.15551298788E+02  0.51100000000E-03 0.  1.
         12    1    3    3    0    0 -0.12666569254E+01 -0.22539885563E+02 -0.19151347677E+01  0.22656535528E+02  0.00000000000E+00 0. -1.
</event>
<event>
 7    1  0.4871930E-013  0.5052883E+02  0.7816164E-02  0.1300439E+00
        -11   -1    0    0    0    0  0.00000000000E+00  0.00000000000E+00  0.45593999997E+02  0.45594000000E+02  0.51100000000E-03 0.  1.
         11   -1    0    0    0    0 -0.00000000000E+00 -0.00000000000E+00 -0.45593999997E+02  0.45594000000E+02  0.51100000000E-03 0. -1.
    9900012    2    1    2    0    0 -0.42032715916E+00 -0.35324867130E+02  0.20128215199E+02  0.50528831787E+02  0.29999914701E+02 0.  0.
         12    1    1    2    0    0  0.42032715916E+00  0.35324867130E+02 -0.20128215199E+02  0.40659168213E+02  0.00000000000E+00 0. -1.
         11    1    3    3    0    0 -0.18360429947E+01 -0.58454752174E+01  0.92481910127E+00  0.61964445472E+01  0.51100000000E-03 0. -1.
        -11    1    3    3    0    0 -0.30388583085E+01  0.11571042725E+01  0.12153765825E+02  0.12581238973E+02  0.51100000000E-03 0.  1.
        -12    1    3    3    0    0  0.44545741440E+01 -0.30636496185E+02  0.70496302732E+01  0.31751148267E+02  0.00000000000E+00 0.  1.
</event>
<event>
 7    1  0.4871930E-013  0.5052886E+02  0.7816164E-02  0.1300439E+00
        -11   -1    0    0    0    0  0.00000000000E+00  0.00000000000E+00  0.45593999997E+02  0.45594000000E+02  0.51100000000E-03 0.  1.
         11   -1    0    0    0    0 -0.00000000000E+00 -0.00000000000E+00 -0.45593999997E+02  0.45594000000E+02  0.51100000000E-03 0. -1.
    9900012    2    1    2    0    0 -0.39899060825E+02  0.76021901814E+00  0.77880036737E+01  0.50528856023E+02  0.29999988369E+02 0.  0.
         12    1    1    2    0    0  0.39899060825E+02 -0.76021901814E+00 -0.77880036737E+01  0.40659143977E+02  0.00000000000E+00 0. -1.
         11    1    3    3    0    0 -0.46575213415E+01 -0.41583011444E+01  0.13650704489E+01  0.63911963704E+01  0.51100000000E-03 0. -1.
        -11    1    3    3    0    0  0.27650232884E+01  0.48676599524E+01  0.36872044804E-01  0.55982878639E+01  0.51100000000E-03 0.  1.
        -12    1    3    3    0    0 -0.38006562772E+02  0.50860210078E-01  0.63860611800E+01  0.38539371789E+02  0.00000000000E+00 0.  1.
</event>
<event>
 7    1  0.4871930E-013  0.5052886E+02  0.7816164E-02  0.1300439E+00
        -11   -1    0    0    0    0  0.00000000000E+00  0.00000000000E+00  0.45593999997E+02  0.45594000000E+02  0.51100000000E-03 0.  1.
         11   -1    0    0    0    0 -0.00000000000E+00 -0.00000000000E+00 -0.45593999997E+02  0.45594000000E+02  0.51100000000E-03 0. -1.
    9900012    2    1    2    0    0 -0.11752088171E+02 -0.23386063560E+02  0.31115045697E+02  0.50528860635E+02  0.30000002385E+02 0.  0.
         12    1    1    2    0    0  0.11752088171E+02  0.23386063560E+02 -0.31115045697E+02  0.40659139365E+02  0.00000000000E+00 0. -1.
         11    1    3    3    0    0 -0.15602843696E+02 -0.49420133542E+01  0.16595362610E+02  0.23308330867E+02  0.51100000000E-03 0. -1.
        -11    1    3    3    0    0 -0.30280395906E+01 -0.13005641905E+02  0.12345913971E+02  0.18186185339E+02  0.51100000000E-03 0.  1.
         12    1    3    3    0    0  0.68787951157E+01 -0.54384083009E+01  0.21737691162E+01  0.90343444290E+01  0.00000000000E+00 0. -1.
</event>
<event>
 7    1  0.4871930E-013  0.5052886E+02  0.7816164E-02  0.1300439E+00
        -11   -1    0    0    0    0  0.00000000000E+00  0.00000000000E+00  0.45593999997E+02  0.45594000000E+02  0.51100000000E-03 0. -1.
         11   -1    0    0    0    0 -0.00000000000E+00 -0.00000000000E+00 -0.45593999997E+02  0.45594000000E+02  0.51100000000E-03 0.  1.
    9900012    2    1    2    0    0  0.35223953803E+02  0.91832528800E+01  0.18113703225E+02  0.50528864502E+02  0.30000014140E+02 0.  0.
         12    1    1    2    0    0 -0.35223953803E+02 -0.91832528800E+01 -0.18113703225E+02  0.40659135498E+02  0.00000000000E+00 0. -1.
         11    1    3    3    0    0 -0.22862483153E+01  0.50625891912E+00 -0.38022197598E-01  0.23419383854E+01  0.51100000000E-03 0. -1.
        -11    1    3    3    0    0  0.16784829020E+02  0.12565930134E+02  0.17129732033E+02  0.27075095663E+02  0.51100000000E-03 0.  1.
        -12    1    3    3    0    0  0.20725373098E+02 -0.38889361728E+01  0.10219933890E+01  0.21111830454E+02  0.00000000000E+00 0.  1.
</event>
<event>
 7    1  0.4871930E-013  0.5052886E+02  0.7816164E-02  0.1300439E+00
        -11   -1    0    0    0    0  0.00000000000E+00  0.00000000000E+00  0.45593999997E+02  0.45594000000E+02  0.51100000000E-03 0.  1.
         11   -1    0    0    0    0 -0.00000000000E+00 -0.00000000000E+00 -0.45593999997E+02  0.45594000000E+02  0.51100000000E-03 0. -1.
    9900012    2    1    2    0    0 -0.60149349972E+01  0.40075965216E+02  0.33019889955E+01  0.50528861269E+02  0.30000004312E+02 0.  0.
         12    1    1    2    0    0  0.60149349972E+01 -0.40075965216E+02 -0.33019889955E+01  0.40659138731E+02  0.00000000000E+00 0. -1.
         11    1    3    3    0    0  0.84291278132E+01  0.17199915166E+02 -0.11873548090E+01  0.19191067952E+02  0.51100000000E-03 0. -1.
        -11    1    3    3    0    0 -0.38214817960E+01  0.88671289273E+01 -0.55050207556E+01  0.11114627853E+02  0.51100000000E-03 0.  1.
        -12    1    3    3    0    0 -0.10622581014E+02  0.14008921123E+02  0.99943645601E+01  0.20223165464E+02  0.00000000000E+00 0.  1.
</event>
<event>
 7    1  0.4871930E-013  0.5052886E+02  0.7816164E-02  0.1300439E+00
        -11   -1    0    0    0    0  0.00000000000E+00  0.00000000000E+00  0.45593999997E+02  0.45594000000E+02  0.51100000000E-03 0.  1.
         11   -1    0    0    0    0 -0.00000000000E+00 -0.00000000000E+00 -0.45593999997E+02  0.45594000000E+02  0.51100000000E-03 0. -1.
    9900012    2    1    2    0    0  0.28771250596E+02 -0.12468814462E+02  0.25882611624E+02  0.50528858600E+02  0.29999996199E+02 0.  0.
         12    1    1    2    0    0 -0.28771250596E+02  0.12468814462E+02 -0.25882611624E+02  0.40659141400E+02  0.00000000000E+00 0. -1.
         11    1    3    3    0    0  0.12214472613E+02 -0.19281315495E+02  0.11313705516E+02  0.25474740454E+02  0.51100000000E-03 0. -1.
        -11    1    3    3    0    0  0.86217121142E+01 -0.48578205656E+00  0.27637476023E+01  0.90668740510E+01  0.51100000000E-03 0.  1.
        -12    1    3    3    0    0  0.79350658694E+01  0.72982830894E+01  0.11805158506E+02  0.15987244095E+02  0.00000000000E+00 0.  1.
</event>
<event>
 7    1  0.4871930E-013  0.5052886E+02  0.7816164E-02  0.1300439E+00
        -11   -1    0    0    0    0  0.00000000000E+00  0.00000000000E+00  0.45593999997E+02  0.45594000000E+02  0.51100000000E-03 0.  1.
         11   -1    0    0    0    0 -0.00000000000E+00 -0.00000000000E+00 -0.45593999997E+02  0.45594000000E+02  0.51100000000E-03 0. -1.
    9900012    2    1    2    0    0 -0.27428815991E+02 -0.11782835787E+01  0.29990627810E+02  0.50528855207E+02  0.29999985887E+02 0.  0.
         12    1    1    2    0    0  0.27428815991E+02  0.11782835787E+01 -0.29990627810E+02  0.40659144793E+02  0.00000000000E+00 0. -1.
         11    1    3    3    0    0  0.15145592200E+01 -0.33899401252E+00  0.18048512906E+01  0.23803980788E+01  0.51100000000E-03 0.  1.
        -11    1    3    3    0    0 -0.22086354084E+02  0.88439890126E+01  0.27355873422E+02  0.36254199609E+02  0.51100000000E-03 0. -1.
         12    1    3    3    0    0 -0.68570211268E+01 -0.96832785788E+01  0.82990309794E+00  0.11894257519E+02  0.00000000000E+00 0. -1.
</event>
<event>
 7    1  0.4871930E-013  0.5052883E+02  0.7816164E-02  0.1300439E+00
        -11   -1    0    0    0    0  0.00000000000E+00  0.00000000000E+00  0.45593999997E+02  0.45594000000E+02  0.51100000000E-03 0. -1.
         11   -1    0    0    0    0 -0.00000000000E+00 -0.00000000000E+00 -0.45593999997E+02  0.45594000000E+02  0.51100000000E-03 0.  1.
    9900012    2    1    2    0    0 -0.31989443917E+02  0.13831395612E+02 -0.20941247370E+02  0.50528832915E+02  0.29999918128E+02 0.  0.
         12    1    1    2    0    0  0.31989443917E+02 -0.13831395612E+02  0.20941247370E+02  0.40659167085E+02  0.00000000000E+00 0. -1.
         11    1    3    3    0    0 -0.12399706409E+02  0.76523648245E+01 -0.19995765891E+01  0.14707471341E+02  0.51100000000E-03 0.  1.
        -11    1    3    3    0    0 -0.23175944046E+02 -0.74249755642E-02 -0.13367651760E+02  0.26754785579E+02  0.51100000000E-03 0. -1.
         12    1    3    3    0    0  0.35862065382E+01  0.61864557626E+01 -0.55740190208E+01  0.90665759955E+01  0.00000000000E+00 0. -1.
</event>
<event>
 7    1  0.4871930E-013  0.5052887E+02  0.7816164E-02  0.1300439E+00
        -11   -1    0    0    0    0  0.00000000000E+00  0.00000000000E+00  0.45593999997E+02  0.45594000000E+02  0.51100000000E-03 0.  1.
         11   -1    0    0    0    0 -0.00000000000E+00 -0.00000000000E+00 -0.45593999997E+02  0.45594000000E+02  0.51100000000E-03 0. -1.
    9900012    2    1    2    0    0 -0.37937639927E+02 -0.14625312149E+02 -0.23353971489E-01  0.50528870348E+02  0.30000031909E+02 0.  0.
         12    1    1    2    0    0  0.37937639927E+02  0.14625312149E+02  0.23353971489E-01  0.40659129652E+02  0.00000000000E+00 0. -1.
         11    1    3    3    0    0 -0.14641032952E+02  0.41482989871E+00 -0.65676449563E+01  0.16051974654E+02  0.51100000000E-03 0. -1.
        -11    1    3    3    0    0  0.17390816425E+01  0.22338276206E+01 -0.12234175643E+01  0.30840138774E+01  0.51100000000E-03 0.  1.
        -12    1    3    3    0    0 -0.25035688617E+02 -0.17273969669E+02  0.77677085492E+01  0.31392881817E+02  0.00000000000E+00 0.  1.
</event>
<event>
 7    1  0.4871930E-013  0.5052886E+02  0.7816164E-02  0.1300439E+00
        -11   -1    0    0    0    0  0.00000000000E+00  0.00000000000E+00  0.45593999997E+02  0.45594000000E+02  0.51100000000E-03 0. -1.
         11   -1    0    0    0    0 -0.00000000000E+00 -0.00000000000E+00 -0.45593999997E+02  0.45594000000E+02  0.51100000000E-03 0.  1.
    9900012    2    1    2    0    0  0.25501132838E+02 -0.21562018320E+02 -0.23193473515E+02  0.50528860514E+02  0.30000002018E+02 0.  0.
         12    1    1    2    0    0 -0.25501132838E+02  0.21562018320E+02  0.23193473515E+02  0.40659139486E+02  0.00000000000E+00 0. -1.
         11    1    3    3    0    0  0.16174655259E+02 -0.65319982315E+01 -0.16844058036E+02  0.24248892037E+02  0.51100000000E-03 0. -1.
        -11    1    3    3    0    0  0.13978125781E+02 -0.71713813479E+01 -0.11053478163E+01  0.15749238231E+02  0.51100000000E-03 0.  1.
        -12    1    3    3    0    0 -0.46516482029E+01 -0.78586387404E+01 -0.52440676632E+01  0.10530730246E+02  0.00000000000E+00 0.  1.
</event>
<event>
 7    1  0.4871930E-013  0.5052887E+02  0.7816164E-02  0.1300439E+00
        -11   -1    0    0    0    0  0.00000000000E+00  0.00000000000E+00  0.45593999997E+02  0.45594000000E+02  0.51100000000E-03 0.  1.
         11   -1    0    0    0    0 -0.00000000000E+00 -0.00000000000E+00 -0.45593999997E+02  0.45594000000E+02  0.51100000000E-03 0. -1.
    9900012    2    1    2    0    0 -0.25045689013E+02 -0.14809059298E+02  0.28400177505E+02  0.50528869934E+02  0.30000030651E+02 0.  0.
         12    1    1    2    0    0  0.25045689013E+02  0.14809059298E+02 -0.28400177505E+02  0.40659130066E+02  0.00000000000E+00 0. -1.
         11    1    3    3    0    0  0.23576884053E+01  0.27721046763E+01  0.56754418605E+01  0.67419507211E+01  0.51100000000E-03 0. -1.
        -11    1    3    3    0    0 -0.12793200034E+02 -0.48249838840E+00  0.15630183629E+02  0.20203994960E+02  0.51100000000E-03 0.  1.
        -12    1    3    3    0    0 -0.14610177384E+02 -0.17098665586E+02  0.70945520150E+01  0.23582924252E+02  0.00000000000E+00 0.  1.
</event>
<event>
 7    1  0.4871930E-013  0.5052887E+02  0.7816164E-02  0.1300439E+00
        -11   -1    0    0    0    0  0.00000000000E+00  0.00000000000E+00  0.45593999997E+02  0.45594000000E+02  0.51100000000E-03 0.  1.
         11   -1    0    0    0    0 -0.00000000000E+00 -0.00000000000E+00 -0.45593999997E+02  0.45594000000E+02  0.51100000000E-03 0. -1.
    9900012    2    1    2    0    0  0.34431356642E+02 -0.12718174474E+01  0.21587711971E+02  0.50528866364E+02  0.30000019801E+02 0.  0.
         12    1    1    2    0    0 -0.34431356642E+02  0.12718174474E+01 -0.21587711971E+02  0.40659133636E+02  0.00000000000E+00 0. -1.
         11    1    3    3    0    0  0.41547309812E+01 -0.10537878881E+02  0.60683315164E+01  0.12850421335E+02  0.51100000000E-03 0. -1.
        -11    1    3    3    0    0  0.86561036235E+01  0.19314746697E+01 -0.17650389709E+01  0.90429025854E+01  0.51100000000E-03 0.  1.
         12    1    3    3    0    0  0.21620522037E+02  0.73345867638E+01  0.17284419426E+02  0.28635542444E+02  0.00000000000E+00 0. -1.
</event>
<event>
 7    1  0.4871930E-013  0.5052885E+02  0.7816164E-02  0.1300439E+00
        -11   -1    0    0    0    0  0.00000000000E+00  0.00000000000E+00  0.45593999997E+02  0.45594000000E+02  0.51100000000E-03 0.  1.
         11   -1    0    0    0    0 -0.00000000000E+00 -0.00000000000E+00 -0.45593999997E+02  0.45594000000E+02  0.51100000000E-03 0. -1.
    9900012    2    1    2    0    0  0.53579254142E+01  0.39744209578E+02  0.66975254492E+01  0.50528850884E+02  0.29999972746E+02 0.  0.
         12    1    1    2    0    0 -0.53579254142E+01 -0.39744209578E+02 -0.66975254492E+01  0.40659149116E+02  0.00000000000E+00 0. -1.
         11    1    3    3    0    0  0.37561620953E+00 -0.18494605249E+01  0.62587921873E+00  0.19882949548E+01  0.51100000000E-03 0. -1.
        -11    1    3    3    0    0 -0.94125040835E+00  0.16735518898E+02  0.13941447373E+02  0.21802006794E+02  0.51100000000E-03 0.  1.
        -12    1    3    3    0    0  0.59235596130E+01  0.24858151205E+02 -0.78698011427E+01  0.26738549135E+02  0.00000000000E+00 0.  1.
</event>
<event>
 7    1  0.4871930E-013  0.5052886E+02  0.7816164E-02  0.1300439E+00
        -11   -1    0    0    0    0  0.00000000000E+00  0.00000000000E+00  0.45593999997E+02  0.45594000000E+02  0.51100000000E-03 0. -1.
         11   -1    0    0    0    0 -0.00000000000E+00 -0.00000000000E+00 -0.45593999997E+02  0.45594000000E+02  0.51100000000E-03 0.  1.
    9900012    2    1    2    0    0  0.14364772769E+02 -0.33393450056E+02 -0.18212530599E+02  0.50528862353E+02  0.30000007609E+02 0.  0.
         12    1    1    2    0    0 -0.14364772769E+02  0.33393450056E+02  0.18212530599E+02  0.40659137647E+02  0.00000000000E+00 0. -1.
         11    1    3    3    0    0  0.33149776054E+01 -0.17340591894E+01  0.26211812844E+01  0.45680005892E+01  0.51100000000E-03 0. -1.
        -11    1    3    3    0    0  0.11376574547E+02 -0.85446405091E+01 -0.17579558691E+02  0.22615884106E+02  0.51100000000E-03 0.  1.
         12    1    3    3    0    0 -0.32677938351E+00 -0.23114750358E+02 -0.32541531926E+01  0.23344977658E+02  0.00000000000E+00 0. -1.
</event>
<event>
 7    1  0.4871930E-013  0.5052886E+02  0.7816164E-02  0.1300439E+00
        -11   -1    0    0    0    0  0.00000000000E+00  0.00000000000E+00  0.45593999997E+02  0.45594000000E+02  0.51100000000E-03 0.  1.
         11   -1    0    0    0    0 -0.00000000000E+00 -0.00000000000E+00 -0.45593999997E+02  0.45594000000E+02  0.51100000000E-03 0. -1.
    9900012    2    1    2    0    0 -0.27186949764E+02 -0.29963794397E+02 -0.40257253406E+01  0.50528859864E+02  0.30000000042E+02 0.  0.
         12    1    1    2    0    0  0.27186949764E+02  0.29963794397E+02  0.40257253406E+01  0.40659140136E+02  0.00000000000E+00 0. -1.
         11    1    3    3    0    0 -0.33414253424E+01 -0.78056500817E+01 -0.10272484577E+01  0.85526917501E+01  0.51100000000E-03 0. -1.
        -11    1    3    3    0    0 -0.22530881653E+02 -0.13251050264E+02  0.83958034299E+01  0.27453970143E+02  0.51100000000E-03 0.  1.
         12    1    3    3    0    0 -0.13146427683E+01 -0.89070940512E+01 -0.11394280313E+02  0.14522197970E+02  0.00000000000E+00 0. -1.
</event>
<event>
 7    1  0.4871930E-013  0.5052882E+02  0.7816164E-02  0.1300439E+00
        -11   -1    0    0    0    0  0.00000000000E+00  0.00000000000E+00  0.45593999997E+02  0.45594000000E+02  0.51100000000E-03 0. -1.
         11   -1    0    0    0    0 -0.00000000000E+00 -0.00000000000E+00 -0.45593999997E+02  0.45594000000E+02  0.51100000000E-03 0.  1.
    9900012    2    1    2    0    0  0.38302361753E+01  0.34857121166E+02  0.20578612265E+02  0.50528820374E+02  0.29999880007E+02 0.  0.
         12    1    1    2    0    0 -0.38302361753E+01 -0.34857121166E+02 -0.20578612265E+02  0.40659179626E+02  0.00000000000E+00 0. -1.
         11    1    3    3    0    0  0.66443046651E+01  0.85472839270E+01  0.28633789692E+01  0.11198293906E+02  0.51100000000E-03 0. -1.
        -11    1    3    3    0    0 -0.90945521098E+01  0.26183147275E+02  0.10198090669E+02  0.29534202764E+02  0.51100000000E-03 0.  1.
         12    1    3    3    0    0  0.62804836200E+01  0.12668996331E+00  0.75171426272E+01  0.97963237046E+01  0.00000000000E+00 0. -1.
</event>
<event>
 7    1  0.4871930E-013  0.5052885E+02  0.7816164E-02  0.1300439E+00
        -11   -1    0    0    0    0  0.00000000000E+00  0.00000000000E+00  0.45593999997E+02  0.45594000000E+02  0.51100000000E-03 0.  1.
         11   -1    0    0    0    0 -0.00000000000E+00 -0.00000000000E+00 -0.45593999997E+02  0.45594000000E+02  0.51100000000E-03 0. -1.
    9900012    2    1    2    0    0  0.24785144752E+02  0.23998157245E+02  0.21516302806E+02  0.50528852961E+02  0.29999979059E+02 0.  0.
         12    1    1    2    0    0 -0.24785144752E+02 -0.23998157245E+02 -0.21516302806E+02  0.40659147039E+02  0.00000000000E+00 0. -1.
         11    1    3    3    0    0  0.27692021556E+01  0.69116470078E+01 -0.35002615391E+01  0.82274647397E+01  0.51100000000E-03 0. -1.
        -11    1    3    3    0    0  0.24201361148E+02  0.16279000287E+02  0.16582240216E+02  0.33551191076E+02  0.51100000000E-03 0.  1.
         12    1    3    3    0    0 -0.21854185515E+01  0.80750995034E+00  0.84343241294E+01  0.87501971455E+01  0.00000000000E+00 0. -1.
</event>
<event>
 7    1  0.4871930E-013  0.5052888E+02  0.7816164E-02  0.1300439E+00
        -11   -1    0    0    0    0  0.00000000000E+00  0.00000000000E+00  0.45593999997E+02  0.45594000000E+02  0.51100000000E-03 0.  1.
         11   -1    0    0    0    0 -0.00000000000E+00 -0.00000000000E+00 -0.45593999997E+02  0.45594000000E+02  0.51100000000E-03 0. -1.
    9900012    2    1    2    0    0  0.23507897135E+02 -0.33169723941E+02  0.55856193245E+00  0.50528882873E+02  0.30000069982E+02 0.  0.
         12    1    1    2    0    0 -0.23507897135E+02  0.33169723941E+02 -0.55856193245E+00  0.40659117127E+02  0.00000000000E+00 0. -1.
         11    1    3    3    0    0  0.98782099012E+01 -0.12177962039E+01 -0.50997020890E+01  0.11183426134E+02  0.51100000000E-03 0. -1.
        -11    1    3    3    0    0  0.68833834779E+01 -0.21539555118E+02 -0.48026409243E+01  0.23117066485E+02  0.51100000000E-03 0.  1.
        -12    1    3    3    0    0  0.67463037564E+01 -0.10412372620E+02  0.10460904946E+02  0.16228390254E+02  0.00000000000E+00 0.  1.
</event>
<event>
 7    1  0.4871930E-013  0.5052886E+02  0.7816164E-02  0.1300439E+00
        -11   -1    0    0    0    0  0.00000000000E+00  0.00000000000E+00  0.45593999997E+02  0.45594000000E+02  0.51100000000E-03 0.  1.
         11   -1    0    0    0    0 -0.00000000000E+00 -0.00000000000E+00 -0.45593999997E+02  0.45594000000E+02  0.51100000000E-03 0. -1.
    9900012    2    1    2    0    0 -0.96383048294E+01 -0.34928296558E+02  0.18446753748E+02  0.50528861492E+02  0.30000004991E+02 0.  0.
         12    1    1    2    0    0  0.96383048294E+01  0.34928296558E+02 -0.18446753748E+02  0.40659138508E+02  0.00000000000E+00 0. -1.
         11    1    3    3    0    0 -0.13361992573E+01  0.23342634840E+01  0.11689061644E+01  0.29326705152E+01  0.51100000000E-03 0. -1.
        -11    1    3    3    0    0 -0.12342987114E+02 -0.22806465444E+02  0.19468486935E+02  0.32426936037E+02  0.51100000000E-03 0.  1.
         12    1    3    3    0    0  0.40408815423E+01 -0.14456094598E+02 -0.21906393518E+01  0.15169254940E+02  0.00000000000E+00 0. -1.
</event>
<event>
 7    1  0.4871930E-013  0.5052885E+02  0.7816164E-02  0.1300439E+00
        -11   -1    0    0    0    0  0.00000000000E+00  0.00000000000E+00  0.45593999997E+02  0.45594000000E+02  0.51100000000E-03 0.  1.
         11   -1    0    0    0    0 -0.00000000000E+00 -0.00000000000E+00 -0.45593999997E+02  0.45594000000E+02  0.51100000000E-03 0. -1.
    9900012    2    1    2    0    0 -0.23819014432E+02 -0.27545200952E+02  0.18085424002E+02  0.50528854592E+02  0.29999984017E+02 0.  0.
         12    1    1    2    0    0  0.23819014432E+02  0.27545200952E+02 -0.18085424002E+02  0.40659145408E+02  0.00000000000E+00 0. -1.
         11    1    3    3    0    0 -0.22975262346E+02 -0.12946216808E+02  0.11129201979E+02  0.28623877208E+02  0.51100000000E-03 0. -1.
        -11    1    3    3    0    0 -0.62989361900E+01 -0.72124274255E+01 -0.11649139296E+01  0.96463843599E+01  0.51100000000E-03 0.  1.
         12    1    3    3    0    0  0.54551841033E+01 -0.73865567181E+01  0.81211359530E+01  0.12258593024E+02  0.00000000000E+00 0. -1.
</event>
<event>
 7    1  0.4871930E-013  0.5052886E+02  0.7816164E-02  0.1300439E+00
        -11   -1    0    0    0    0  0.00000000000E+00  0.00000000000E+00  0.45593999997E+02  0.45594000000E+02  0.51100000000E-03 0.  1.
         11   -1    0    0    0    0 -0.00000000000E+00 -0.00000000000E+00 -0.45593999997E+02  0.45594000000E+02  0.51100000000E-03 0. -1.
    9900012    2    1    2    0    0  0.21097768127E+02  0.36954216655E+01  0.34560005362E+02  0.50528856725E+02  0.29999990500E+02 0.  0.
         12    1    1    2    0    0 -0.21097768127E+02 -0.36954216655E+01 -0.34560005362E+02  0.40659143275E+02  0.00000000000E+00 0. -1.
         11    1    3    3    0    0  0.46724885308E+01 -0.49804214421E+00  0.15436204813E+02  0.16135569848E+02  0.51100000000E-03 0. -1.
        -11    1    3    3    0    0 -0.28013171965E+01 -0.59463512232E+01  0.25158501238E+01  0.70381796661E+01  0.51100000000E-03 0.  1.
         12    1    3    3    0    0  0.19226596793E+02  0.10139815033E+02  0.16607950426E+02  0.27355107210E+02  0.00000000000E+00 0. -1.
</event>
<event>
 7    1  0.4871930E-013  0.5052888E+02  0.7816164E-02  0.1300439E+00
        -11   -1    0    0    0    0  0.00000000000E+00  0.00000000000E+00  0.45593999997E+02  0.45594000000E+02  0.51100000000E-03 0. -1.
         11   -1    0    0    0    0 -0.00000000000E+00 -0.00000000000E+00 -0.45593999997E+02  0.45594000000E+02  0.51100000000E-03 0.  1.
    9900012    2    1    2    0    0  0.10491609445E+02 -0.36492041499E+02 -0.14540321739E+02  0.50528881493E+02  0.30000065786E+02 0.  0.
         12    1    1    2    0    0 -0.10491609445E+02  0.36492041499E+02  0.14540321739E+02  0.40659118507E+02  0.00000000000E+00 0. -1.
         11    1    3    3    0    0  0.87535298661E+00  0.15298413842E+01 -0.35298676724E+01  0.39454560646E+01  0.51100000000E-03 0. -1.
        -11    1    3    3    0    0  0.13568345685E+02 -0.14479275498E+02 -0.11047947503E+02  0.22711375296E+02  0.51100000000E-03 0.  1.
         12    1    3    3    0    0 -0.39520892264E+01 -0.23542607385E+02  0.37493436674E-01  0.23872050132E+02  0.00000000000E+00 0. -1.
</event>
<event>
 7    1  0.4871930E-013  0.5052885E+02  0.7816164E-02  0.1300439E+00
        -11   -1    0    0    0    0  0.00000000000E+00  0.00000000000E+00  0.45593999997E+02  0.45594000000E+02  0.51100000000E-03 0.  1.
         11   -1    0    0    0    0 -0.00000000000E+00 -0.00000000000E+00 -0.45593999997E+02  0.45594000000E+02  0.51100000000E-03 0. -1.
    9900012    2    1    2    0    0  0.15572101212E+02  0.22171239514E+02  0.30316861666E+02  0.50528852210E+02  0.29999976777E+02 0.  0.
         12    1    1    2    0    0 -0.15572101212E+02 -0.22171239514E+02 -0.30316861666E+02  0.40659147790E+02  0.00000000000E+00 0. -1.
         11    1    3    3    0    0  0.28614940036E+01 -0.14598234554E+01  0.29657064328E+01  0.43720301189E+01  0.51100000000E-03 0. -1.
        -11    1    3    3    0    0  0.17752044677E+02  0.17952805702E+02  0.98889897449E+01  0.27115133067E+02  0.51100000000E-03 0.  1.
        -12    1    3    3    0    0 -0.50414374686E+01  0.56782572673E+01  0.17462165488E+02  0.19041689024E+02  0.00000000000E+00 0.  1.
</event>
<event>
 7    1  0.4871930E-013  0.5052887E+02  0.7816164E-02  0.1300439E+00
        -11   -1    0    0    0    0  0.00000000000E+00  0.00000000000E+00  0.45593999997E+02  0.45594000000E+02  0.51100000000E-03 0.  1.
         11   -1    0    0    0    0 -0.00000000000E+00 -0.00000000000E+00 -0.45593999997E+02  0.45594000000E+02  0.51100000000E-03 0. -1.
    9900012    2    1    2    0    0  0.30817674956E+01 -0.40379164028E+02  0.36319510090E+01  0.50528865151E+02  0.30000016114E+02 0.  0.
         12    1    1    2    0    0 -0.30817674956E+01  0.40379164028E+02 -0.36319510090E+01  0.40659134849E+02  0.00000000000E+00 0. -1.
         11    1    3    3    0    0  0.35060179125E+00 -0.82345506721E+00 -0.35618907756E+01  0.36726102464E+01  0.51100000000E-03 0. -1.
        -11    1    3    3    0    0 -0.98462343149E+01 -0.11290927947E+02  0.51897637923E+01  0.15854558731E+02  0.51100000000E-03 0.  1.
         12    1    3    3    0    0  0.12577400019E+02 -0.28264781014E+02  0.20040779922E+01  0.31001696173E+02  0.00000000000E+00 0. -1.
</event>
<event>
 7    1  0.4871930E-013  0.5052886E+02  0.7816164E-02  0.1300439E+00
        -11   -1    0    0    0    0  0.00000000000E+00  0.00000000000E+00  0.45593999997E+02  0.45594000000E+02  0.51100000000E-03 0.  1.
         11   -1    0    0    0    0 -0.00000000000E+00 -0.00000000000E+00 -0.45593999997E+02  0.45594000000E+02  0.51100000000E-03 0. -1.
    9900012    2    1    2    0    0 -0.11124697971E+02 -0.23503553094E+02  0.31256831570E+02  0.50528862862E+02  0.30000009156E+02 0.  0.
         12    1    1    2    0    0  0.11124697971E+02  0.23503553094E+02 -0.31256831570E+02  0.40659137138E+02  0.00000000000E+00 0. -1.
         11    1    3    3    0    0 -0.10640949100E+00 -0.13726282569E+01  0.10721681756E+02  0.10809712820E+02  0.51100000000E-03 0. -1.
        -11    1    3    3    0    0  0.13054638514E+01  0.34723449935E+01 -0.12495841689E+01  0.39144445937E+01  0.51100000000E-03 0.  1.
         12    1    3    3    0    0 -0.12323752332E+02 -0.25603269830E+02  0.21784733983E+02  0.35804705448E+02  0.00000000000E+00 0. -1.
</event>
<event>
 7    1  0.4871930E-013  0.5052886E+02  0.7816164E-02  0.1300439E+00
        -11   -1    0    0    0    0  0.00000000000E+00  0.00000000000E+00  0.45593999997E+02  0.45594000000E+02  0.51100000000E-03 0.  1.
         11   -1    0    0    0    0 -0.00000000000E+00 -0.00000000000E+00 -0.45593999997E+02  0.45594000000E+02  0.51100000000E-03 0. -1.
    9900012    2    1    2    0    0  0.28343940603E+02  0.27425622235E+02  0.98803703344E+01  0.50528862751E+02  0.30000008819E+02 0.  0.
         12    1    1    2    0    0 -0.28343940603E+02 -0.27425622235E+02 -0.98803703344E+01  0.40659137249E+02  0.00000000000E+00 0. -1.
         11    1    3    3    0    0 -0.17148815015E+00  0.14117128603E+02  0.19548892649E+00  0.14119523518E+02  0.51100000000E-03 0. -1.
        -11    1    3    3    0    0  0.13640190503E+02  0.32032296161E+01 -0.30933761148E+01  0.14348674259E+02  0.51100000000E-03 0.  1.
        -12    1    3    3    0    0  0.14875238249E+02  0.10105264016E+02  0.12778257523E+02  0.22060664974E+02  0.00000000000E+00 0.  1.
</event>
<event>
 7    1  0.5205813E-013  0.5052886E+02  0.7816164E-02  0.1300439E+00
        -11   -1    0    0    0    0  0.00000000000E+00  0.00000000000E+00  0.45593999997E+02  0.45594000000E+02  0.51100000000E-03 0.  1.
         11   -1    0    0    0    0 -0.00000000000E+00 -0.00000000000E+00 -0.45593999997E+02  0.45594000000E+02  0.51100000000E-03 0. -1.
    9900012    2    1    2    0    0 -0.39200637745E+02  0.44797812545E+01  0.98186990198E+01  0.50528864616E+02  0.30000014488E+02 0.  0.
         12    1    1    2    0    0  0.39200637745E+02 -0.44797812545E+01 -0.98186990198E+01  0.40659135384E+02  0.00000000000E+00 0. -1.
         11    1    3    3    0    0 -0.53989900302E+01 -0.37695212439E+01 -0.46540176727E+01  0.80633903858E+01  0.51100000000E-03 0. -1.
        -11    1    3    3    0    0 -0.17066190570E+02 -0.31404627029E+01  0.13866970865E+02  0.22212839706E+02  0.51100000000E-03 0.  1.
        -12    1    3    3    0    0 -0.16735457145E+02  0.11389765201E+02  0.60574582756E+00  0.20252634525E+02  0.00000000000E+00 0.  1.
</event>
<event>
 7    1  0.4871930E-013  0.5052885E+02  0.7816164E-02  0.1300439E+00
        -11   -1    0    0    0    0  0.00000000000E+00  0.00000000000E+00  0.45593999997E+02  0.45594000000E+02  0.51100000000E-03 0.  1.
         11   -1    0    0    0    0 -0.00000000000E+00 -0.00000000000E+00 -0.45593999997E+02  0.45594000000E+02  0.51100000000E-03 0. -1.
    9900012    2    1    2    0    0  0.88434687674E+01 -0.65746278542E+01  0.39137370519E+02  0.50528850446E+02  0.29999971417E+02 0.  0.
         12    1    1    2    0    0 -0.88434687674E+01  0.65746278542E+01 -0.39137370519E+02  0.40659149554E+02  0.00000000000E+00 0. -1.
         11    1    3    3    0    0  0.51823892484E+01  0.86009954253E+01  0.19557517796E+02  0.21984785267E+02  0.51100000000E-03 0. -1.
        -11    1    3    3    0    0  0.82043423805E+01 -0.51323517392E+01  0.79936298578E+01  0.12551907697E+02  0.51100000000E-03 0.  1.
         12    1    3    3    0    0 -0.45432628615E+01 -0.10043271540E+02  0.11586222866E+02  0.15992157483E+02  0.00000000000E+00 0. -1.
</event>
<event>
 7    1  0.4871930E-013  0.5052887E+02  0.7816164E-02  0.1300439E+00
        -11   -1    0    0    0    0  0.00000000000E+00  0.00000000000E+00  0.45593999997E+02  0.45594000000E+02  0.51100000000E-03 0.  1.
         11   -1    0    0    0    0 -0.00000000000E+00 -0.00000000000E+00 -0.45593999997E+02  0.45594000000E+02  0.51100000000E-03 0. -1.
    9900012    2    1    2    0    0  0.64421020124E+01 -0.79875509542E+00  0.40137591484E+02  0.50528868945E+02  0.30000027646E+02 0.  0.
         12    1    1    2    0    0 -0.64421020124E+01  0.79875509542E+00 -0.40137591484E+02  0.40659131055E+02  0.00000000000E+00 0. -1.
         11    1    3    3    0    0  0.12675644621E+02 -0.14997467871E+01  0.24479599528E+02  0.27607462764E+02  0.51100000000E-03 0.  1.
        -11    1    3    3    0    0  0.38157975793E+01  0.13143450907E+01 -0.30639133886E+00  0.40474300609E+01  0.51100000000E-03 0. -1.
         12    1    3    3    0    0 -0.10049340188E+02 -0.61335339899E+00  0.15964383295E+02  0.18873976120E+02  0.00000000000E+00 0. -1.
</event>
<event>
 7    1  0.4871930E-013  0.5052885E+02  0.7816164E-02  0.1300439E+00
        -11   -1    0    0    0    0  0.00000000000E+00  0.00000000000E+00  0.45593999997E+02  0.45594000000E+02  0.51100000000E-03 0.  1.
         11   -1    0    0    0    0 -0.00000000000E+00 -0.00000000000E+00 -0.45593999997E+02  0.45594000000E+02  0.51100000000E-03 0. -1.
    9900012    2    1    2    0    0  0.87265943280E+01 -0.30142280477E+02  0.25854508958E+02  0.50528853989E+02  0.29999982185E+02 0.  0.
         12    1    1    2    0    0 -0.87265943280E+01  0.30142280477E+02 -0.25854508958E+02  0.40659146011E+02  0.00000000000E+00 0. -1.
         11    1    3    3    0    0  0.44096475331E+01  0.11517988122E+01  0.10231379142E+02  0.11200569239E+02  0.51100000000E-03 0. -1.
        -11    1    3    3    0    0  0.31299816205E+01  0.79525682828E+00  0.40842021018E+01  0.52067192585E+01  0.51100000000E-03 0.  1.
        -12    1    3    3    0    0  0.11869651744E+01 -0.32089336117E+02  0.11538927714E+02  0.34121565491E+02  0.00000000000E+00 0.  1.
</event>
<event>
 7    1  0.4871930E-013  0.5052885E+02  0.7816164E-02  0.1300439E+00
        -11   -1    0    0    0    0  0.00000000000E+00  0.00000000000E+00  0.45593999997E+02  0.45594000000E+02  0.51100000000E-03 0.  1.
         11   -1    0    0    0    0 -0.00000000000E+00 -0.00000000000E+00 -0.45593999997E+02  0.45594000000E+02  0.51100000000E-03 0. -1.
    9900012    2    1    2    0    0 -0.13640752458E+02  0.91268457774E+01  0.37199417615E+02  0.50528854505E+02  0.29999983754E+02 0.  0.
         12    1    1    2    0    0  0.13640752458E+02 -0.91268457774E+01 -0.37199417615E+02  0.40659145495E+02  0.00000000000E+00 0. -1.
         11    1    3    3    0    0 -0.12602145549E+01  0.33748900207E+01 -0.39568169340E+00  0.36241671650E+01  0.51100000000E-03 0. -1.
        -11    1    3    3    0    0 -0.17886684367E+02  0.40334989290E+01  0.15316111354E+02  0.23891125100E+02  0.51100000000E-03 0.  1.
        -12    1    3    3    0    0  0.55061464632E+01  0.17184568278E+01  0.22278987954E+02  0.23013562241E+02  0.00000000000E+00 0.  1.
</event>
<event>
 7    1  0.4871930E-013  0.5052887E+02  0.7816164E-02  0.1300439E+00
        -11   -1    0    0    0    0  0.00000000000E+00  0.00000000000E+00  0.45593999997E+02  0.45594000000E+02  0.51100000000E-03 0. -1.
         11   -1    0    0    0    0 -0.00000000000E+00 -0.00000000000E+00 -0.45593999997E+02  0.45594000000E+02  0.51100000000E-03 0.  1.
    9900012    2    1    2    0    0 -0.20925631680E+02  0.15676727926E+02 -0.31137165417E+02  0.50528869047E+02  0.30000027955E+02 0.  0.
         12    1    1    2    0    0  0.20925631680E+02 -0.15676727926E+02  0.31137165417E+02  0.40659130953E+02  0.00000000000E+00 0. -1.
         11    1    3    3    0    0 -0.73530880028E+01  0.11084811158E+02 -0.26126689098E+01  0.13556068039E+02  0.51100000000E-03 0. -1.
        -11    1    3    3    0    0 -0.85075094940E+01  0.11183622821E+02 -0.23127234601E+02  0.27061413817E+02  0.51100000000E-03 0.  1.
        -12    1    3    3    0    0 -0.50650341829E+01 -0.65917060535E+01 -0.53972619060E+01  0.99113871911E+01  0.00000000000E+00 0.  1.
</event>
<event>
 7    1  0.4871930E-013  0.5052876E+02  0.7816164E-02  0.1300439E+00
        -11   -1    0    0    0    0  0.00000000000E+00  0.00000000000E+00  0.45593999997E+02  0.45594000000E+02  0.51100000000E-03 0.  1.
         11   -1    0    0    0    0 -0.00000000000E+00 -0.00000000000E+00 -0.45593999997E+02  0.45594000000E+02  0.51100000000E-03 0. -1.
    9900012    2    1    2    0    0 -0.11923414472E+02  0.55330777605E+01  0.38475850662E+02  0.50528759398E+02  0.29999694664E+02 0.  0.
         12    1    1    2    0    0  0.11923414472E+02 -0.55330777605E+01 -0.38475850662E+02  0.40659240602E+02  0.00000000000E+00 0. -1.
         11    1    3    3    0    0 -0.55612775645E+01 -0.24193373433E+01  0.44397082579E+01  0.75161167504E+01  0.51100000000E-03 0. -1.
        -11    1    3    3    0    0 -0.85774622648E+01  0.62057918123E+01  0.37256421880E+02  0.38731455982E+02  0.51100000000E-03 0.  1.
         12    1    3    3    0    0  0.22153253571E+01  0.17466232915E+01 -0.32202794758E+01  0.42811866653E+01  0.00000000000E+00 0. -1.
</event>
<event>
 7    1  0.4871930E-013  0.5052885E+02  0.7816164E-02  0.1300439E+00
        -11   -1    0    0    0    0  0.00000000000E+00  0.00000000000E+00  0.45593999997E+02  0.45594000000E+02  0.51100000000E-03 0.  1.
         11   -1    0    0    0    0 -0.00000000000E+00 -0.00000000000E+00 -0.45593999997E+02  0.45594000000E+02  0.51100000000E-03 0. -1.
    9900012    2    1    2    0    0  0.29146622295E+02  0.14503172395E+02  0.24357723220E+02  0.50528852429E+02  0.29999977443E+02 0.  0.
         12    1    1    2    0    0 -0.29146622295E+02 -0.14503172395E+02 -0.24357723220E+02  0.40659147571E+02  0.00000000000E+00 0. -1.
         11    1    3    3    0    0  0.18298284196E+01  0.45844694742E+00 -0.39789455105E+01  0.44034592408E+01  0.51100000000E-03 0. -1.
        -11    1    3    3    0    0  0.44139323643E+00  0.70894832171E+01  0.10157161413E+01  0.71754637352E+01  0.51100000000E-03 0.  1.
        -12    1    3    3    0    0  0.26875400639E+02  0.69552422308E+01  0.27320952589E+02  0.38949929453E+02  0.00000000000E+00 0.  1.
</event>
<event>
 7    1  0.4871930E-013  0.5052886E+02  0.7816164E-02  0.1300439E+00
        -11   -1    0    0    0    0  0.00000000000E+00  0.00000000000E+00  0.45593999997E+02  0.45594000000E+02  0.51100000000E-03 0.  1.
         11   -1    0    0    0    0 -0.00000000000E+00 -0.00000000000E+00 -0.45593999997E+02  0.45594000000E+02  0.51100000000E-03 0. -1.
    9900012    2    1    2    0    0 -0.18309882269E+02 -0.25887473212E+02  0.25450983395E+02  0.50528860636E+02  0.30000002391E+02 0.  0.
         12    1    1    2    0    0  0.18309882269E+02  0.25887473212E+02 -0.25450983395E+02  0.40659139364E+02  0.00000000000E+00 0. -1.
         11    1    3    3    0    0  0.19814515049E+01 -0.47056947575E+01  0.40865866911E+01  0.65398703551E+01  0.51100000000E-03 0. -1.
        -11    1    3    3    0    0 -0.17766780856E+02 -0.23256615824E+02  0.25431125803E+02  0.38772036849E+02  0.51100000000E-03 0.  1.
         12    1    3    3    0    0 -0.25245529180E+01  0.20748373695E+01 -0.40667290992E+01  0.52169534320E+01  0.00000000000E+00 0. -1.
</event>
<event>
 7    1  0.4871930E-013  0.5052886E+02  0.7816164E-02  0.1300439E+00
        -11   -1    0    0    0    0  0.00000000000E+00  0.00000000000E+00  0.45593999997E+02  0.45594000000E+02  0.51100000000E-03 0.  1.
         11   -1    0    0    0    0 -0.00000000000E+00 -0.00000000000E+00 -0.45593999997E+02  0.45594000000E+02  0.51100000000E-03 0. -1.
    9900012    2    1    2    0    0 -0.35716015489E+02 -0.49484197404E+01  0.18789490048E+02  0.50528861340E+02  0.30000004528E+02 0.  0.
         12    1    1    2    0    0  0.35716015489E+02  0.49484197404E+01 -0.18789490048E+02  0.40659138660E+02  0.00000000000E+00 0. -1.
         11    1    3    3    0    0  0.15098142104E+01  0.12628227639E+01  0.12542224635E+01  0.23339525557E+01  0.51100000000E-03 0. -1.
        -11    1    3    3    0    0 -0.21312403093E+02  0.83288247672E+01  0.56075009507E+01  0.23559115322E+02  0.51100000000E-03 0.  1.
        -12    1    3    3    0    0 -0.15913426606E+02 -0.14540067272E+02  0.11927766634E+02  0.24635793462E+02  0.00000000000E+00 0.  1.
</event>
<event>
 7    1  0.4871930E-013  0.5052885E+02  0.7816164E-02  0.1300439E+00
        -11   -1    0    0    0    0  0.00000000000E+00  0.00000000000E+00  0.45593999997E+02  0.45594000000E+02  0.51100000000E-03 0.  1.
         11   -1    0    0    0    0 -0.00000000000E+00 -0.00000000000E+00 -0.45593999997E+02  0.45594000000E+02  0.51100000000E-03 0. -1.
    9900012    2    1    2    0    0  0.26073294530E+02  0.19411902846E+02  0.24423913296E+02  0.50528853422E+02  0.29999980461E+02 0.  0.
         12    1    1    2    0    0 -0.26073294530E+02 -0.19411902846E+02 -0.24423913296E+02  0.40659146578E+02  0.00000000000E+00 0. -1.
         11    1    3    3    0    0  0.65014314076E+01  0.59215874855E+01  0.84570396138E+01  0.12200628180E+02  0.51100000000E-03 0. -1.
        -11    1    3    3    0    0  0.11684762614E+02  0.20857175269E+02  0.12590729096E+02  0.27020027702E+02  0.51100000000E-03 0.  1.
         12    1    3    3    0    0  0.78871005084E+01 -0.73668599088E+01  0.33761445863E+01  0.11308197540E+02  0.00000000000E+00 0. -1.
</event>
<event>
 7    1  0.4871930E-013  0.5052886E+02  0.7816164E-02  0.1300439E+00
        -11   -1    0    0    0    0  0.00000000000E+00  0.00000000000E+00  0.45593999997E+02  0.45594000000E+02  0.51100000000E-03 0. -1.
         11   -1    0    0    0    0 -0.00000000000E+00 -0.00000000000E+00 -0.45593999997E+02  0.45594000000E+02  0.51100000000E-03 0.  1.
    9900012    2    1    2    0    0 -0.37328701268E+02  0.14160423837E+02  0.76951986409E+01  0.50528860514E+02  0.30000002020E+02 0.  0.
         12    1    1    2    0    0  0.37328701268E+02 -0.14160423837E+02 -0.76951986409E+01  0.40659139486E+02  0.00000000000E+00 0. -1.
         11    1    3    3    0    0 -0.10354374571E+02  0.12963700377E+02  0.16468516481E+01  0.16672813825E+02  0.51100000000E-03 0.  1.
        -11    1    3    3    0    0 -0.18198254059E+02  0.40050394177E+01 -0.51708511175E+01  0.19337903017E+02  0.51100000000E-03 0. -1.
         12    1    3    3    0    0 -0.87760726378E+01 -0.28083159586E+01  0.11219198110E+02  0.14518143673E+02  0.00000000000E+00 0. -1.
</event>
<event>
 7    1  0.4871930E-013  0.5052886E+02  0.7816164E-02  0.1300439E+00
        -11   -1    0    0    0    0  0.00000000000E+00  0.00000000000E+00  0.45593999997E+02  0.45594000000E+02  0.51100000000E-03 0.  1.
         11   -1    0    0    0    0 -0.00000000000E+00 -0.00000000000E+00 -0.45593999997E+02  0.45594000000E+02  0.51100000000E-03 0. -1.
    9900012    2    1    2    0    0  0.59853099696E+01 -0.16354602763E+02  0.36740556866E+02  0.50528862211E+02  0.30000007176E+02 0.  0.
         12    1    1    2    0    0 -0.59853099696E+01  0.16354602763E+02 -0.36740556866E+02  0.40659137789E+02  0.00000000000E+00 0. -1.
         11    1    3    3    0    0 -0.29706244379E-01  0.27596402741E+01  0.75095085529E+00  0.28601441138E+01  0.51100000000E-03 0. -1.
        -11    1    3    3    0    0  0.56794096618E+01 -0.20032553064E+02  0.12764773881E+02  0.24423315272E+02  0.51100000000E-03 0.  1.
         12    1    3    3    0    0  0.33560655224E+00  0.91831002723E+00  0.23224832130E+02  0.23245402825E+02  0.00000000000E+00 0. -1.
</event>
<event>
 7    1  0.4871930E-013  0.5052885E+02  0.7816164E-02  0.1300439E+00
        -11   -1    0    0    0    0  0.00000000000E+00  0.00000000000E+00  0.45593999997E+02  0.45594000000E+02  0.51100000000E-03 0. -1.
         11   -1    0    0    0    0 -0.00000000000E+00 -0.00000000000E+00 -0.45593999997E+02  0.45594000000E+02  0.51100000000E-03 0.  1.
    9900012    2    1    2    0    0 -0.19320171401E+02 -0.35283812673E+02  0.59118669887E+01  0.50528848128E+02  0.29999964369E+02 0.  0.
         12    1    1    2    0    0  0.19320171401E+02  0.35283812673E+02 -0.59118669887E+01  0.40659151872E+02  0.00000000000E+00 0. -1.
         11    1    3    3    0    0 -0.13134857278E+01 -0.17292467896E+00 -0.13626552898E+01  0.19005202976E+01  0.51100000000E-03 0. -1.
        -11    1    3    3    0    0 -0.20662728016E+02 -0.21305293648E+02 -0.48383012068E+01  0.30071132758E+02  0.51100000000E-03 0.  1.
         12    1    3    3    0    0  0.26560423429E+01 -0.13805594346E+02  0.12112823485E+02  0.18557195072E+02  0.00000000000E+00 0. -1.
</event>
<event>
 7    1  0.4871930E-013  0.5052886E+02  0.7816164E-02  0.1300439E+00
        -11   -1    0    0    0    0  0.00000000000E+00  0.00000000000E+00  0.45593999997E+02  0.45594000000E+02  0.51100000000E-03 0. -1.
         11   -1    0    0    0    0 -0.00000000000E+00 -0.00000000000E+00 -0.45593999997E+02  0.45594000000E+02  0.51100000000E-03 0.  1.
    9900012    2    1    2    0    0 -0.10747271163E+02  0.31001315241E+02 -0.24012085977E+02  0.50528860103E+02  0.30000000770E+02 0.  0.
         12    1    1    2    0    0  0.10747271163E+02 -0.31001315241E+02  0.24012085977E+02  0.40659139897E+02  0.00000000000E+00 0. -1.
         11    1    3    3    0    0 -0.82786676638E+01  0.10076556825E+02 -0.10782498233E+00  0.13041662556E+02  0.51100000000E-03 0. -1.
        -11    1    3    3    0    0 -0.55842913175E+01  0.15396671339E+01  0.88991753063E+00  0.58606175335E+01  0.51100000000E-03 0.  1.
        -12    1    3    3    0    0  0.31156878183E+01  0.19385091282E+02 -0.24794178526E+02  0.31626580014E+02  0.00000000000E+00 0.  1.
</event>
<event>
 7    1  0.4871930E-013  0.5052886E+02  0.7816164E-02  0.1300439E+00
        -11   -1    0    0    0    0  0.00000000000E+00  0.00000000000E+00  0.45593999997E+02  0.45594000000E+02  0.51100000000E-03 0. -1.
         11   -1    0    0    0    0 -0.00000000000E+00 -0.00000000000E+00 -0.45593999997E+02  0.45594000000E+02  0.51100000000E-03 0.  1.
    9900012    2    1    2    0    0 -0.32148211747E+02  0.21153682400E+02 -0.13121730229E+02  0.50528860784E+02  0.30000002838E+02 0.  0.
         12    1    1    2    0    0  0.32148211747E+02 -0.21153682400E+02  0.13121730229E+02  0.40659139216E+02  0.00000000000E+00 0. -1.
         11    1    3    3    0    0 -0.16195691407E+02  0.26228514958E+01  0.26550222041E+01  0.16620135778E+02  0.51100000000E-03 0. -1.
        -11    1    3    3    0    0  0.35251689790E+01  0.24506684168E+01 -0.45887250722E+01  0.62840265809E+01  0.51100000000E-03 0.  1.
         12    1    3    3    0    0 -0.19477689319E+02  0.16080162487E+02 -0.11188027360E+02  0.27624698425E+02  0.00000000000E+00 0. -1.
</event>
<event>
 7    1  0.4871930E-013  0.5052885E+02  0.7816164E-02  0.1300439E+00
        -11   -1    0    0    0    0  0.00000000000E+00  0.00000000000E+00  0.45593999997E+02  0.45594000000E+02  0.51100000000E-03 0.  1.
         11   -1    0    0    0    0 -0.00000000000E+00 -0.00000000000E+00 -0.45593999997E+02  0.45594000000E+02  0.51100000000E-03 0. -1.
    9900012    2    1    2    0    0 -0.29725907844E+01  0.20886095292E+01  0.40496514586E+02  0.50528852452E+02  0.29999977512E+02 0.  0.
         12    1    1    2    0    0  0.29725907844E+01 -0.20886095292E+01 -0.40496514586E+02  0.40659147548E+02  0.00000000000E+00 0. -1.
         11    1    3    3    0    0  0.51950309786E+01  0.33751218233E+01  0.23340855492E+02  0.24149023366E+02  0.51100000000E-03 0.  1.
        -11    1    3    3    0    0 -0.20154719671E+01  0.59339813469E+01 -0.55220777350E+00  0.62911998507E+01  0.51100000000E-03 0. -1.
         12    1    3    3    0    0 -0.61521497960E+01 -0.72204936410E+01  0.17707866867E+02  0.20088629235E+02  0.00000000000E+00 0. -1.
</event>
<event>
 7    1  0.4871930E-013  0.5052887E+02  0.7816164E-02  0.1300439E+00
        -11   -1    0    0    0    0  0.00000000000E+00  0.00000000000E+00  0.45593999997E+02  0.45594000000E+02  0.51100000000E-03 0.  1.
         11   -1    0    0    0    0 -0.00000000000E+00 -0.00000000000E+00 -0.45593999997E+02  0.45594000000E+02  0.51100000000E-03 0. -1.
    9900012    2    1    2    0    0 -0.53928577000E+01  0.38532084963E+02  0.11805086729E+02  0.50528873614E+02  0.30000041838E+02 0.  0.
         12    1    1    2    0    0  0.53928577000E+01 -0.38532084963E+02 -0.11805086729E+02  0.40659126386E+02  0.00000000000E+00 0. -1.
         11    1    3    3    0    0  0.45670730838E+01  0.19550854324E+02 -0.16410125120E+01  0.20144155074E+02  0.51100000000E-03 0.  1.
        -11    1    3    3    0    0 -0.68292889238E+00 -0.29340819823E+01 -0.75801325528E-01  0.30134656216E+01  0.51100000000E-03 0. -1.
        -12    1    3    3    0    0 -0.92770018913E+01  0.21915312622E+02  0.13521900566E+02  0.27371252918E+02  0.00000000000E+00 0.  1.
</event>
<event>
 7    1  0.4871930E-013  0.5052886E+02  0.7816164E-02  0.1300439E+00
        -11   -1    0    0    0    0  0.00000000000E+00  0.00000000000E+00  0.45593999997E+02  0.45594000000E+02  0.51100000000E-03 0.  1.
         11   -1    0    0    0    0 -0.00000000000E+00 -0.00000000000E+00 -0.45593999997E+02  0.45594000000E+02  0.51100000000E-03 0. -1.
    9900012    2    1    2    0    0 -0.38579102547E+02  0.12657986608E+02 -0.21433286980E+01  0.50528860360E+02  0.30000001551E+02 0.  0.
         12    1    1    2    0    0  0.38579102547E+02 -0.12657986608E+02  0.21433286980E+01  0.40659139640E+02  0.00000000000E+00 0. -1.
         11    1    3    3    0    0 -0.46103851958E+01 -0.19990812282E+01 -0.10230519582E+02  0.11398048456E+02  0.51100000000E-03 0. -1.
        -11    1    3    3    0    0 -0.33554898208E+01  0.45353403142E+01  0.32952334307E+01  0.65335432444E+01  0.51100000000E-03 0.  1.
        -12    1    3    3    0    0 -0.30613227531E+02  0.10121727522E+02  0.47919574536E+01  0.32597268660E+02  0.00000000000E+00 0.  1.
</event>
<event>
 7    1  0.4871930E-013  0.5052887E+02  0.7816164E-02  0.1300439E+00
        -11   -1    0    0    0    0  0.00000000000E+00  0.00000000000E+00  0.45593999997E+02  0.45594000000E+02  0.51100000000E-03 0. -1.
         11   -1    0    0    0    0 -0.00000000000E+00 -0.00000000000E+00 -0.45593999997E+02  0.45594000000E+02  0.51100000000E-03 0.  1.
    9900012    2    1    2    0    0 -0.27950055816E+01 -0.13915749000E+02 -0.38101243824E+02  0.50528869324E+02  0.30000028796E+02 0.  0.
         12    1    1    2    0    0  0.27950055816E+01  0.13915749000E+02  0.38101243824E+02  0.40659130676E+02  0.00000000000E+00 0. -1.
         11    1    3    3    0    0  0.47097977420E+01 -0.96328851693E+01 -0.25808082136E+02  0.27946945723E+02  0.51100000000E-03 0. -1.
        -11    1    3    3    0    0  0.54502730249E+01 -0.67307934510E+00 -0.37252684947E+01  0.66359729859E+01  0.51100000000E-03 0.  1.
         12    1    3    3    0    0 -0.12955076349E+02 -0.36097844860E+01 -0.85678931927E+01  0.15945950614E+02  0.00000000000E+00 0. -1.
</event>
<event>
 7    1  0.4871930E-013  0.5052886E+02  0.7816164E-02  0.1300439E+00
        -11   -1    0    0    0    0  0.00000000000E+00  0.00000000000E+00  0.45593999997E+02  0.45594000000E+02  0.51100000000E-03 0.  1.
         11   -1    0    0    0    0 -0.00000000000E+00 -0.00000000000E+00 -0.45593999997E+02  0.45594000000E+02  0.51100000000E-03 0. -1.
    9900012    2    1    2    0    0 -0.30838555983E+02  0.15795806637E+00 -0.26497629443E+02  0.50528857707E+02  0.29999993486E+02 0.  0.
         12    1    1    2    0    0  0.30838555983E+02 -0.15795806637E+00  0.26497629443E+02  0.40659142293E+02  0.00000000000E+00 0. -1.
         11    1    3    3    0    0 -0.45605950749E+01 -0.52685680180E+00  0.26607332258E+01  0.53062328527E+01  0.51100000000E-03 0. -1.
        -11    1    3    3    0    0 -0.19787222120E+02 -0.95743944060E+01 -0.15209757413E+02  0.26730879303E+02  0.51100000000E-03 0.  1.
         12    1    3    3    0    0 -0.64907387882E+01  0.10259209274E+02 -0.13948605256E+02  0.18491745551E+02  0.00000000000E+00 0. -1.
</event>
<event>
 7    1  0.4871930E-013  0.5052886E+02  0.7816164E-02  0.1300439E+00
        -11   -1    0    0    0    0  0.00000000000E+00  0.00000000000E+00  0.45593999997E+02  0.45594000000E+02  0.51100000000E-03 0. -1.
         11   -1    0    0    0    0 -0.00000000000E+00 -0.00000000000E+00 -0.45593999997E+02  0.45594000000E+02  0.51100000000E-03 0.  1.
    9900012    2    1    2    0    0  0.26471245247E+02  0.42581124150E+01 -0.30566435752E+02  0.50528863993E+02  0.30000012592E+02 0.  0.
         12    1    1    2    0    0 -0.26471245247E+02 -0.42581124150E+01  0.30566435752E+02  0.40659136007E+02  0.00000000000E+00 0. -1.
         11    1    3    3    0    0  0.82562065334E+01 -0.38769493022E+01  0.24919458581E+01  0.94554469294E+01  0.51100000000E-03 0. -1.
        -11    1    3    3    0    0 -0.66523573425E+00 -0.24761336623E+01 -0.50950237820E+01  0.57037745481E+01  0.51100000000E-03 0.  1.
         12    1    3    3    0    0  0.18880274448E+02  0.10611195379E+02 -0.27963357829E+02  0.35369642515E+02  0.00000000000E+00 0. -1.
</event>
<event>
 7    1  0.4871930E-013  0.5052888E+02  0.7816164E-02  0.1300439E+00
        -11   -1    0    0    0    0  0.00000000000E+00  0.00000000000E+00  0.45593999997E+02  0.45594000000E+02  0.51100000000E-03 0.  1.
         11   -1    0    0    0    0 -0.00000000000E+00 -0.00000000000E+00 -0.45593999997E+02  0.45594000000E+02  0.51100000000E-03 0. -1.
    9900012    2    1    2    0    0 -0.10612875752E+02 -0.38267283389E+01  0.39062608152E+02  0.50528876335E+02  0.30000050109E+02 0.  0.
         12    1    1    2    0    0  0.10612875752E+02  0.38267283389E+01 -0.39062608152E+02  0.40659123665E+02  0.00000000000E+00 0. -1.
         11    1    3    3    0    0 -0.34130063312E+01 -0.25652655758E+01  0.94580883027E+00  0.43730714945E+01  0.51100000000E-03 0. -1.
        -11    1    3    3    0    0 -0.12505688747E+02 -0.73518639959E+01  0.12025830666E+02  0.18843109051E+02  0.51100000000E-03 0.  1.
         12    1    3    3    0    0  0.53058193257E+01  0.60904012327E+01  0.26090968656E+02  0.27312695790E+02  0.00000000000E+00 0. -1.
</event>
<event>
 7    1  0.4871930E-013  0.5052885E+02  0.7816164E-02  0.1300439E+00
        -11   -1    0    0    0    0  0.00000000000E+00  0.00000000000E+00  0.45593999997E+02  0.45594000000E+02  0.51100000000E-03 0.  1.
         11   -1    0    0    0    0 -0.00000000000E+00 -0.00000000000E+00 -0.45593999997E+02  0.45594000000E+02  0.51100000000E-03 0. -1.
    9900012    2    1    2    0    0  0.24145902309E+01  0.19843307385E+02  0.35405924473E+02  0.50528848733E+02  0.29999966209E+02 0.  0.
         12    1    1    2    0    0 -0.24145902309E+01 -0.19843307385E+02 -0.35405924473E+02  0.40659151267E+02  0.00000000000E+00 0. -1.
         11    1    3    3    0    0  0.11752521937E+02  0.94083238236E+01  0.27235924313E+02  0.31119670668E+02  0.51100000000E-03 0. -1.
        -11    1    3    3    0    0 -0.64565608415E-01  0.19045251272E+01  0.64093044766E+01  0.66865962053E+01  0.51100000000E-03 0.  1.
         12    1    3    3    0    0 -0.92733660982E+01  0.85304584337E+01  0.17606956835E+01  0.12722581859E+02  0.00000000000E+00 0. -1.
</event>
<event>
 7    1  0.4871930E-013  0.5052885E+02  0.7816164E-02  0.1300439E+00
        -11   -1    0    0    0    0  0.00000000000E+00  0.00000000000E+00  0.45593999997E+02  0.45594000000E+02  0.51100000000E-03 0.  1.
         11   -1    0    0    0    0 -0.00000000000E+00 -0.00000000000E+00 -0.45593999997E+02  0.45594000000E+02  0.51100000000E-03 0. -1.
    9900012    2    1    2    0    0  0.24303680476E+02  0.21067440328E+02  0.24872892294E+02  0.50528847307E+02  0.29999961874E+02 0.  0.
         12    1    1    2    0    0 -0.24303680476E+02 -0.21067440328E+02 -0.24872892294E+02  0.40659152693E+02  0.00000000000E+00 0. -1.
         11    1    3    3    0    0  0.15167365780E+02  0.17872215731E+02  0.18378155658E+02  0.29786266726E+02  0.51100000000E-03 0. -1.
        -11    1    3    3    0    0  0.64549157456E+01 -0.54649616546E+01 -0.15778638408E+01  0.86035688949E+01  0.51100000000E-03 0.  1.
         12    1    3    3    0    0  0.26813989506E+01  0.86601862515E+01  0.80726004767E+01  0.12139011685E+02  0.00000000000E+00 0. -1.
</event>
<event>
 7    1  0.4871930E-013  0.5052887E+02  0.7816164E-02  0.1300439E+00
        -11   -1    0    0    0    0  0.00000000000E+00  0.00000000000E+00  0.45593999997E+02  0.45594000000E+02  0.51100000000E-03 0.  1.
         11   -1    0    0    0    0 -0.00000000000E+00 -0.00000000000E+00 -0.45593999997E+02  0.45594000000E+02  0.51100000000E-03 0. -1.
    9900012    2    1    2    0    0  0.26506506175E+02 -0.15330674721E+02  0.26749588360E+02  0.50528868990E+02  0.30000027784E+02 0.  0.
         12    1    1    2    0    0 -0.26506506175E+02  0.15330674721E+02 -0.26749588360E+02  0.40659131010E+02  0.00000000000E+00 0. -1.
         11    1    3    3    0    0  0.11000266116E+02 -0.39727936143E+01 -0.24337631625E+01  0.11946218946E+02  0.51100000000E-03 0. -1.
        -11    1    3    3    0    0 -0.82313348395E+00 -0.28588641612E+01 -0.10759799311E+01  0.31636033408E+01  0.51100000000E-03 0.  1.
        -12    1    3    3    0    0  0.16329373543E+02 -0.84990169459E+01  0.30259331454E+02  0.35419046703E+02  0.00000000000E+00 0.  1.
</event>
<event>
 7    1  0.4871930E-013  0.5052884E+02  0.7816164E-02  0.1300439E+00
        -11   -1    0    0    0    0  0.00000000000E+00  0.00000000000E+00  0.45593999997E+02  0.45594000000E+02  0.51100000000E-03 0.  1.
         11   -1    0    0    0    0 -0.00000000000E+00 -0.00000000000E+00 -0.45593999997E+02  0.45594000000E+02  0.51100000000E-03 0. -1.
    9900012    2    1    2    0    0  0.19298850124E+02  0.28842643866E+02  0.21185452632E+02  0.50528842058E+02  0.29999945920E+02 0.  0.
         12    1    1    2    0    0 -0.19298850124E+02 -0.28842643866E+02 -0.21185452632E+02  0.40659157942E+02  0.00000000000E+00 0. -1.
         11    1    3    3    0    0  0.28363026743E+01  0.44874255340E+01 -0.10594349447E+00  0.53096916171E+01  0.51100000000E-03 0. -1.
        -11    1    3    3    0    0  0.16490798133E+02  0.24164736986E+02  0.59223177025E+01  0.29848865706E+02  0.51100000000E-03 0.  1.
        -12    1    3    3    0    0 -0.28250683304E-01  0.19048134579E+00  0.15369078424E+02  0.15370284736E+02  0.00000000000E+00 0.  1.
</event>
<event>
 7    1  0.4871930E-013  0.5052887E+02  0.7816164E-02  0.1300439E+00
        -11   -1    0    0    0    0  0.00000000000E+00  0.00000000000E+00  0.45593999997E+02  0.45594000000E+02  0.51100000000E-03 0. -1.
         11   -1    0    0    0    0 -0.00000000000E+00 -0.00000000000E+00 -0.45593999997E+02  0.45594000000E+02  0.51100000000E-03 0.  1.
    9900012    2    1    2    0    0  0.55296887374E+01  0.38630221513E+02  0.11414622833E+02  0.50528867126E+02  0.30000022116E+02 0.  0.
         12    1    1    2    0    0 -0.55296887374E+01 -0.38630221513E+02 -0.11414622833E+02  0.40659132874E+02  0.00000000000E+00 0. -1.
         11    1    3    3    0    0  0.20606983227E+01  0.22293432728E+02  0.12159381929E+02  0.25477326970E+02  0.51100000000E-03 0. -1.
        -11    1    3    3    0    0  0.16564018357E+01  0.28693185257E+01  0.81586214011E+01  0.88056663161E+01  0.51100000000E-03 0.  1.
        -12    1    3    3    0    0  0.18125885790E+01  0.13467470259E+02 -0.89033804975E+01  0.16245873840E+02  0.00000000000E+00 0.  1.
</event>
<event>
 7    1  0.4871930E-013  0.5052890E+02  0.7816164E-02  0.1300439E+00
        -11   -1    0    0    0    0  0.00000000000E+00  0.00000000000E+00  0.45593999997E+02  0.45594000000E+02  0.51100000000E-03 0.  1.
         11   -1    0    0    0    0 -0.00000000000E+00 -0.00000000000E+00 -0.45593999997E+02  0.45594000000E+02  0.51100000000E-03 0. -1.
    9900012    2    1    2    0    0 -0.24473796844E+00 -0.58073810398E+01  0.40241483626E+02  0.50528897998E+02  0.30000115953E+02 0.  0.
         12    1    1    2    0    0  0.24473796844E+00  0.58073810398E+01 -0.40241483626E+02  0.40659102002E+02  0.00000000000E+00 0. -1.
         11    1    3    3    0    0 -0.98929427127E+01 -0.62063480101E+01  0.12015245167E+02  0.16755750888E+02  0.51100000000E-03 0. -1.
        -11    1    3    3    0    0  0.25304505084E+01 -0.70970020987E+01  0.16514461134E+02  0.18152081021E+02  0.51100000000E-03 0.  1.
         12    1    3    3    0    0  0.71177542358E+01  0.74959690690E+01  0.11711777325E+02  0.15621066089E+02  0.00000000000E+00 0. -1.
</event>
<event>
 7    1  0.4871930E-013  0.5052886E+02  0.7816164E-02  0.1300439E+00
        -11   -1    0    0    0    0  0.00000000000E+00  0.00000000000E+00  0.45593999997E+02  0.45594000000E+02  0.51100000000E-03 0.  1.
         11   -1    0    0    0    0 -0.00000000000E+00 -0.00000000000E+00 -0.45593999997E+02  0.45594000000E+02  0.51100000000E-03 0. -1.
    9900012    2    1    2    0    0  0.25143156140E+02  0.29221691281E+02  0.12925960371E+02  0.50528855967E+02  0.29999988197E+02 0.  0.
         12    1    1    2    0    0 -0.25143156140E+02 -0.29221691281E+02 -0.12925960371E+02  0.40659144033E+02  0.00000000000E+00 0. -1.
         11    1    3    3    0    0  0.20215153130E+02  0.96186747739E+01  0.35899998561E+01  0.22672878505E+02  0.51100000000E-03 0. -1.
        -11    1    3    3    0    0  0.22016085857E+01  0.95969148868E+01  0.13475529550E+02  0.16689450339E+02  0.51100000000E-03 0.  1.
         12    1    3    3    0    0  0.27263944234E+01  0.10006101620E+02 -0.41395690346E+01  0.11166527123E+02  0.00000000000E+00 0. -1.
</event>
<event>
 7    1  0.4871930E-013  0.5052886E+02  0.7816164E-02  0.1300439E+00
        -11   -1    0    0    0    0  0.00000000000E+00  0.00000000000E+00  0.45593999997E+02  0.45594000000E+02  0.51100000000E-03 0.  1.
         11   -1    0    0    0    0 -0.00000000000E+00 -0.00000000000E+00 -0.45593999997E+02  0.45594000000E+02  0.51100000000E-03 0. -1.
    9900012    2    1    2    0    0 -0.65006244001E+01  0.31864747786E+02  0.24403790651E+02  0.50528864899E+02  0.30000015346E+02 0.  0.
         12    1    1    2    0    0  0.65006244001E+01 -0.31864747786E+02 -0.24403790651E+02  0.40659135101E+02  0.00000000000E+00 0. -1.
         11    1    3    3    0    0  0.60211921906E+01  0.91116840979E+01  0.31131821272E+01  0.11356471534E+02  0.51100000000E-03 0. -1.
        -11    1    3    3    0    0 -0.63214366406E+01  0.16909713887E+02  0.20986095186E+01  0.18174244059E+02  0.51100000000E-03 0.  1.
        -12    1    3    3    0    0 -0.62003799501E+01  0.58433498012E+01  0.19191999005E+02  0.20998149305E+02  0.00000000000E+00 0.  1.
</event>
<event>
 7    1  0.4871930E-013  0.5052888E+02  0.7816164E-02  0.1300439E+00
        -11   -1    0    0    0    0  0.00000000000E+00  0.00000000000E+00  0.45593999997E+02  0.45594000000E+02  0.51100000000E-03 0.  1.
         11   -1    0    0    0    0 -0.00000000000E+00 -0.00000000000E+00 -0.45593999997E+02  0.45594000000E+02  0.51100000000E-03 0. -1.
    9900012    2    1    2    0    0 -0.51893929410E+01 -0.39989013246E+02  0.52070471838E+01  0.50528876548E+02  0.30000050755E+02 0.  0.
         12    1    1    2    0    0  0.51893929410E+01  0.39989013246E+02 -0.52070471838E+01  0.40659123452E+02  0.00000000000E+00 0. -1.
         11    1    3    3    0    0  0.15104422759E+01 -0.26629137893E+02  0.23107825432E+01  0.26771853447E+02  0.51100000000E-03 0. -1.
        -11    1    3    3    0    0 -0.59050940565E+00 -0.38373707904E+01  0.97738866867E+01  0.10516795005E+02  0.51100000000E-03 0.  1.
         12    1    3    3    0    0 -0.61093258112E+01 -0.95225045632E+01 -0.68776220461E+01  0.13240228096E+02  0.00000000000E+00 0. -1.
</event>
<event>
 7    1  0.4871930E-013  0.5052885E+02  0.7816164E-02  0.1300439E+00
        -11   -1    0    0    0    0  0.00000000000E+00  0.00000000000E+00  0.45593999997E+02  0.45594000000E+02  0.51100000000E-03 0. -1.
         11   -1    0    0    0    0 -0.00000000000E+00 -0.00000000000E+00 -0.45593999997E+02  0.45594000000E+02  0.51100000000E-03 0.  1.
    9900012    2    1    2    0    0 -0.65534887167E+01 -0.37664750504E+02 -0.13841408616E+02  0.50528852968E+02  0.29999979081E+02 0.  0.
         12    1    1    2    0    0  0.65534887167E+01  0.37664750504E+02  0.13841408616E+02  0.40659147032E+02  0.00000000000E+00 0. -1.
         11    1    3    3    0    0 -0.65539468407E+00  0.93151281646E+00 -0.57669453555E+01  0.58783430755E+01  0.51100000000E-03 0. -1.
        -11    1    3    3    0    0 -0.11528992270E+02 -0.12241119503E+02 -0.48956956144E+01  0.17513723340E+02  0.51100000000E-03 0.  1.
         12    1    3    3    0    0  0.56308982372E+01 -0.26355143818E+02 -0.31787676459E+01  0.27136786552E+02  0.00000000000E+00 0. -1.
</event>
<event>
 7    1  0.4871930E-013  0.5052883E+02  0.7816164E-02  0.1300439E+00
        -11   -1    0    0    0    0  0.00000000000E+00  0.00000000000E+00  0.45593999997E+02  0.45594000000E+02  0.51100000000E-03 0. -1.
         11   -1    0    0    0    0 -0.00000000000E+00 -0.00000000000E+00 -0.45593999997E+02  0.45594000000E+02  0.51100000000E-03 0.  1.
    9900012    2    1    2    0    0  0.17802183900E+02  0.10101245085E+02 -0.35131398825E+02  0.50528830219E+02  0.29999909933E+02 0.  0.
         12    1    1    2    0    0 -0.17802183900E+02 -0.10101245085E+02  0.35131398825E+02  0.40659169781E+02  0.00000000000E+00 0. -1.
         11    1    3    3    0    0 -0.10529954870E+01  0.50000388360E+01 -0.64846367834E+01  0.82558889485E+01  0.51100000000E-03 0.  1.
        -11    1    3    3    0    0 -0.19222461965E+00  0.11078033405E+02 -0.91637646199E+01  0.14378259863E+02  0.51100000000E-03 0. -1.
        -12    1    3    3    0    0  0.19047404006E+02 -0.59768271562E+01 -0.19482997422E+02  0.27894681407E+02  0.00000000000E+00 0.  1.
</event>
<event>
 7    1  0.4871930E-013  0.5052886E+02  0.7816164E-02  0.1300439E+00
        -11   -1    0    0    0    0  0.00000000000E+00  0.00000000000E+00  0.45593999997E+02  0.45594000000E+02  0.51100000000E-03 0. -1.
         11   -1    0    0    0    0 -0.00000000000E+00 -0.00000000000E+00 -0.45593999997E+02  0.45594000000E+02  0.51100000000E-03 0.  1.
    9900012    2    1    2    0    0 -0.20287161461E+02  0.95295727494E+01 -0.33923212930E+02  0.50528855242E+02  0.29999985994E+02 0.  0.
         12    1    1    2    0    0  0.20287161461E+02 -0.95295727494E+01  0.33923212930E+02  0.40659144758E+02  0.00000000000E+00 0. -1.
         11    1    3    3    0    0 -0.59456129081E+01  0.42961295166E+01  0.33648258599E+01  0.80702599094E+01  0.51100000000E-03 0. -1.
        -11    1    3    3    0    0 -0.93770803613E+01  0.88640695684E+01 -0.17540572636E+02  0.21775515013E+02  0.51100000000E-03 0.  1.
        -12    1    3    3    0    0 -0.49644681919E+01 -0.36306263356E+01 -0.19747466154E+02  0.20683080320E+02  0.00000000000E+00 0.  1.
</event>
<event>
 7    1  0.4871930E-013  0.5052887E+02  0.7816164E-02  0.1300439E+00
        -11   -1    0    0    0    0  0.00000000000E+00  0.00000000000E+00  0.45593999997E+02  0.45594000000E+02  0.51100000000E-03 0.  1.
         11   -1    0    0    0    0 -0.00000000000E+00 -0.00000000000E+00 -0.45593999997E+02  0.45594000000E+02  0.51100000000E-03 0. -1.
    9900012    2    1    2    0    0 -0.85469395599E+01  0.26634887268E+02  0.29507589590E+02  0.50528865244E+02  0.30000016397E+02 0.  0.
         12    1    1    2    0    0  0.85469395599E+01 -0.26634887268E+02 -0.29507589590E+02  0.40659134756E+02  0.00000000000E+00 0. -1.
         11    1    3    3    0    0  0.35024767544E+01  0.10920599115E+02  0.71669129907E+01  0.13523737299E+02  0.51100000000E-03 0. -1.
        -11    1    3    3    0    0 -0.70314057979E+01  0.19268100637E+02  0.91654815771E+01  0.22465672090E+02  0.51100000000E-03 0.  1.
         12    1    3    3    0    0 -0.50180105163E+01 -0.35538124834E+01  0.13175195023E+02  0.14539455856E+02  0.00000000000E+00 0. -1.
</event>
<event>
 7    1  0.4871930E-013  0.5052887E+02  0.7816164E-02  0.1300439E+00
        -11   -1    0    0    0    0  0.00000000000E+00  0.00000000000E+00  0.45593999997E+02  0.45594000000E+02  0.51100000000E-03 0.  1.
         11   -1    0    0    0    0 -0.00000000000E+00 -0.00000000000E+00 -0.45593999997E+02  0.45594000000E+02  0.51100000000E-03 0. -1.
    9900012    2    1    2    0    0  0.30452794565E+01 -0.10868705656E+02  0.39061012066E+02  0.50528866301E+02  0.30000019607E+02 0.  0.
         12    1    1    2    0    0 -0.30452794565E+01  0.10868705656E+02 -0.39061012066E+02  0.40659133699E+02  0.00000000000E+00 0. -1.
         11    1    3    3    0    0  0.14063280578E+02  0.11295193292E+01  0.15312426411E+02  0.20821192986E+02  0.51100000000E-03 0.  1.
        -11    1    3    3    0    0 -0.19397620882E+01 -0.66423089822E+01  0.65021716822E+01  0.94953242399E+01  0.51100000000E-03 0. -1.
        -12    1    3    3    0    0 -0.90782390335E+01 -0.53559160026E+01  0.17246413973E+02  0.20212349074E+02  0.00000000000E+00 0.  1.
</event>
<event>
 7    1  0.4871930E-013  0.5052885E+02  0.7816164E-02  0.1300439E+00
        -11   -1    0    0    0    0  0.00000000000E+00  0.00000000000E+00  0.45593999997E+02  0.45594000000E+02  0.51100000000E-03 0.  1.
         11   -1    0    0    0    0 -0.00000000000E+00 -0.00000000000E+00 -0.45593999997E+02  0.45594000000E+02  0.51100000000E-03 0. -1.
    9900012    2    1    2    0    0 -0.23688428154E+02 -0.30319364266E+02  0.13143856965E+02  0.50528850306E+02  0.29999970990E+02 0.  0.
         12    1    1    2    0    0  0.23688428154E+02  0.30319364266E+02 -0.13143856965E+02  0.40659149694E+02  0.00000000000E+00 0. -1.
         11    1    3    3    0    0  0.21167849926E+01 -0.73165534721E+01 -0.10613070850E+01  0.76901954725E+01  0.51100000000E-03 0. -1.
        -11    1    3    3    0    0 -0.92799170068E+01 -0.13367970063E+02  0.16969132823E+02  0.23511081478E+02  0.51100000000E-03 0.  1.
        -12    1    3    3    0    0 -0.16525296140E+02 -0.96348407310E+01 -0.27639687724E+01  0.19327573355E+02  0.00000000000E+00 0.  1.
</event>
<event>
 7    1  0.4871930E-013  0.5052886E+02  0.7816164E-02  0.1300439E+00
        -11   -1    0    0    0    0  0.00000000000E+00  0.00000000000E+00  0.45593999997E+02  0.45594000000E+02  0.51100000000E-03 0.  1.
         11   -1    0    0    0    0 -0.00000000000E+00 -0.00000000000E+00 -0.45593999997E+02  0.45594000000E+02  0.51100000000E-03 0. -1.
    9900012    2    1    2    0    0  0.29909903309E+02 -0.26756205685E+02 -0.65321226715E+01  0.50528862218E+02  0.30000007197E+02 0.  0.
         12    1    1    2    0    0 -0.29909903309E+02  0.26756205685E+02  0.65321226715E+01  0.40659137782E+02  0.00000000000E+00 0. -1.
         11    1    3    3    0    0  0.63592410193E+01  0.34393408942E+00  0.16209042030E+01  0.65715726957E+01  0.51100000000E-03 0. -1.
        -11    1    3    3    0    0  0.85040777325E+01  0.77403423522E+00  0.47299090801E+01  0.97616856764E+01  0.51100000000E-03 0.  1.
         12    1    3    3    0    0  0.15046584557E+02 -0.27874174010E+02 -0.12882935955E+02  0.34195603846E+02  0.00000000000E+00 0. -1.
</event>
<event>
 7    1  0.4871930E-013  0.5052887E+02  0.7816164E-02  0.1300439E+00
        -11   -1    0    0    0    0  0.00000000000E+00  0.00000000000E+00  0.45593999997E+02  0.45594000000E+02  0.51100000000E-03 0.  1.
         11   -1    0    0    0    0 -0.00000000000E+00 -0.00000000000E+00 -0.45593999997E+02  0.45594000000E+02  0.51100000000E-03 0. -1.
    9900012    2    1    2    0    0 -0.31067290846E+02  0.14370808123E+02  0.21942383446E+02  0.50528869686E+02  0.30000029896E+02 0.  0.
         12    1    1    2    0    0  0.31067290846E+02 -0.14370808123E+02 -0.21942383446E+02  0.40659130314E+02  0.00000000000E+00 0. -1.
         11    1    3    3    0    0 -0.92559704295E+01 -0.68410926118E+00  0.17517907046E+02  0.19824683140E+02  0.51100000000E-03 0. -1.
        -11    1    3    3    0    0 -0.12631094301E+02  0.95840071547E+01  0.99039280984E+01  0.18694532046E+02  0.51100000000E-03 0.  1.
         12    1    3    3    0    0 -0.91802261155E+01  0.54709102298E+01 -0.54794516984E+01  0.12009654499E+02  0.00000000000E+00 0. -1.
</event>
<event>
 7    1  0.4871930E-013  0.5052886E+02  0.7816164E-02  0.1300439E+00
        -11   -1    0    0    0    0  0.00000000000E+00  0.00000000000E+00  0.45593999997E+02  0.45594000000E+02  0.51100000000E-03 0. -1.
         11   -1    0    0    0    0 -0.00000000000E+00 -0.00000000000E+00 -0.45593999997E+02  0.45594000000E+02  0.51100000000E-03 0.  1.
    9900012    2    1    2    0    0  0.23739780604E+02  0.29373567097E+02 -0.15059297522E+02  0.50528855039E+02  0.29999985375E+02 0.  0.
         12    1    1    2    0    0 -0.23739780604E+02 -0.29373567097E+02  0.15059297522E+02  0.40659144961E+02  0.00000000000E+00 0. -1.
         11    1    3    3    0    0  0.11319780625E+02  0.19557540181E+02  0.26289656596E+01  0.22749643339E+02  0.51100000000E-03 0. -1.
        -11    1    3    3    0    0  0.44071116545E+00 -0.13214034603E+01 -0.92871868376E+01  0.93910687919E+01  0.51100000000E-03 0.  1.
         12    1    3    3    0    0  0.11979288813E+02  0.11137430376E+02 -0.84010763444E+01  0.18388142908E+02  0.00000000000E+00 0. -1.
</event>
<event>
 7    1  0.4871930E-013  0.5052884E+02  0.7816164E-02  0.1300439E+00
        -11   -1    0    0    0    0  0.00000000000E+00  0.00000000000E+00  0.45593999997E+02  0.45594000000E+02  0.51100000000E-03 0. -1.
         11   -1    0    0    0    0 -0.00000000000E+00 -0.00000000000E+00 -0.45593999997E+02  0.45594000000E+02  0.51100000000E-03 0.  1.
    9900012    2    1    2    0    0  0.15344691271E+02 -0.28329722652E+02 -0.24801899738E+02  0.50528844003E+02  0.29999951832E+02 0.  0.
         12    1    1    2    0    0 -0.15344691271E+02  0.28329722652E+02  0.24801899738E+02  0.40659155997E+02  0.00000000000E+00 0. -1.
         11    1    3    3    0    0  0.91105280193E+01 -0.31167548027E+02 -0.14560893320E+02  0.35587039570E+02  0.51100000000E-03 0.  1.
        -11    1    3    3    0    0 -0.20583785055E+01  0.12571642318E+01 -0.18561792230E+01  0.30434824702E+01  0.51100000000E-03 0. -1.
        -12    1    3    3    0    0  0.82925417569E+01  0.15806611434E+01 -0.83848271960E+01  0.11898321963E+02  0.00000000000E+00 0.  1.
</event>
<event>
 7    1  0.4871930E-013  0.5052886E+02  0.7816164E-02  0.1300439E+00
        -11   -1    0    0    0    0  0.00000000000E+00  0.00000000000E+00  0.45593999997E+02  0.45594000000E+02  0.51100000000E-03 0.  1.
         11   -1    0    0    0    0 -0.00000000000E+00 -0.00000000000E+00 -0.45593999997E+02  0.45594000000E+02  0.51100000000E-03 0. -1.
    9900012    2    1    2    0    0 -0.10571024884E+02 -0.24790401033E+02  0.30444300212E+02  0.50528856306E+02  0.29999989229E+02 0.  0.
         12    1    1    2    0    0  0.10571024884E+02  0.24790401033E+02 -0.30444300212E+02  0.40659143694E+02  0.00000000000E+00 0. -1.
         11    1    3    3    0    0 -0.66766948613E+01 -0.14100381020E+02  0.96647181208E+01  0.18352268955E+02  0.51100000000E-03 0. -1.
        -11    1    3    3    0    0  0.39449776176E+00 -0.13754832959E+02  0.22717717044E+02  0.26560228277E+02  0.51100000000E-03 0.  1.
         12    1    3    3    0    0 -0.42888277848E+01  0.30648129453E+01 -0.19381349523E+01  0.56163590742E+01  0.00000000000E+00 0. -1.
</event>
<event>
 7    1  0.4871930E-013  0.5052886E+02  0.7816164E-02  0.1300439E+00
        -11   -1    0    0    0    0  0.00000000000E+00  0.00000000000E+00  0.45593999997E+02  0.45594000000E+02  0.51100000000E-03 0.  1.
         11   -1    0    0    0    0 -0.00000000000E+00 -0.00000000000E+00 -0.45593999997E+02  0.45594000000E+02  0.51100000000E-03 0. -1.
    9900012    2    1    2    0    0 -0.12059384056E+02 -0.35693217166E+02  0.15288276291E+02  0.50528857271E+02  0.29999992162E+02 0.  0.
         12    1    1    2    0    0  0.12059384056E+02  0.35693217166E+02 -0.15288276291E+02  0.40659142729E+02  0.00000000000E+00 0. -1.
         11    1    3    3    0    0  0.14407873025E+01 -0.54880679582E+01 -0.30061973476E+01  0.64212133369E+01  0.51100000000E-03 0. -1.
        -11    1    3    3    0    0 -0.12035886210E+02 -0.27880797543E+02  0.53010362906E+01  0.30826975436E+02  0.51100000000E-03 0.  1.
         12    1    3    3    0    0 -0.14642851481E+01 -0.23243516650E+01  0.12993437348E+02  0.13280668499E+02  0.00000000000E+00 0. -1.
</event>
<event>
 7    1  0.4871930E-013  0.5052886E+02  0.7816164E-02  0.1300439E+00
        -11   -1    0    0    0    0  0.00000000000E+00  0.00000000000E+00  0.45593999997E+02  0.45594000000E+02  0.51100000000E-03 0.  1.
         11   -1    0    0    0    0 -0.00000000000E+00 -0.00000000000E+00 -0.45593999997E+02  0.45594000000E+02  0.51100000000E-03 0. -1.
    9900012    2    1    2    0    0  0.23564932798E+02  0.14427906009E+02  0.29827760563E+02  0.50528857980E+02  0.29999994317E+02 0.  0.
         12    1    1    2    0    0 -0.23564932798E+02 -0.14427906009E+02 -0.29827760563E+02  0.40659142020E+02  0.00000000000E+00 0. -1.
         11    1    3    3    0    0  0.15362504688E+00 -0.55997267198E+00  0.13080962309E+02  0.13093843792E+02  0.51100000000E-03 0. -1.
        -11    1    3    3    0    0  0.18351402509E+02  0.13434856526E+02  0.20759283230E+02  0.30793135345E+02  0.51100000000E-03 0.  1.
        -12    1    3    3    0    0  0.50599052424E+01  0.15530221556E+01 -0.40124849765E+01  0.66418788430E+01  0.00000000000E+00 0.  1.
</event>
<event>
 7    1  0.4871930E-013  0.5052887E+02  0.7816164E-02  0.1300439E+00
        -11   -1    0    0    0    0  0.00000000000E+00  0.00000000000E+00  0.45593999997E+02  0.45594000000E+02  0.51100000000E-03 0.  1.
         11   -1    0    0    0    0 -0.00000000000E+00 -0.00000000000E+00 -0.45593999997E+02  0.45594000000E+02  0.51100000000E-03 0. -1.
    9900012    2    1    2    0    0  0.34005253592E+02  0.15997561531E+02  0.15520493595E+02  0.50528868575E+02  0.30000026522E+02 0.  0.
         12    1    1    2    0    0 -0.34005253592E+02 -0.15997561531E+02 -0.15520493595E+02  0.40659131425E+02  0.00000000000E+00 0. -1.
         11    1    3    3    0    0  0.13376683973E+01  0.85230790740E+01 -0.43495549193E+01  0.96618249777E+01  0.51100000000E-03 0. -1.
        -11    1    3    3    0    0  0.81573520878E+01 -0.29274733785E+01  0.76927815817E+01  0.11588415862E+02  0.51100000000E-03 0.  1.
        -12    1    3    3    0    0  0.24510233107E+02  0.10401955835E+02  0.12177266932E+02  0.29278627736E+02  0.00000000000E+00 0.  1.
</event>
<event>
 7    1  0.4871930E-013  0.5052894E+02  0.7816164E-02  0.1300438E+00
        -11   -1    0    0    0    0  0.00000000000E+00  0.00000000000E+00  0.45593999997E+02  0.45594000000E+02  0.51100000000E-03 0.  1.
         11   -1    0    0    0    0 -0.00000000000E+00 -0.00000000000E+00 -0.45593999997E+02  0.45594000000E+02  0.51100000000E-03 0. -1.
    9900012    2    1    2    0    0  0.31419819822E+02  0.45324320688E+01  0.25404936804E+02  0.50528944033E+02  0.30000255882E+02 0.  0.
         12    1    1    2    0    0 -0.31419819822E+02 -0.45324320688E+01 -0.25404936804E+02  0.40659055967E+02  0.00000000000E+00 0. -1.
         11    1    3    3    0    0  0.30279430690E+01  0.22730874196E+01 -0.30601886345E+01  0.48682769422E+01  0.51100000000E-03 0. -1.
        -11    1    3    3    0    0  0.30272666891E+02  0.25126411763E+01  0.18609272190E+02  0.35623766478E+02  0.51100000000E-03 0.  1.
         12    1    3    3    0    0 -0.18807901375E+01 -0.25329652713E+00  0.98558532478E+01  0.10036900613E+02  0.00000000000E+00 0. -1.
</event>
<event>
 7    1  0.4871930E-013  0.5052886E+02  0.7816164E-02  0.1300439E+00
        -11   -1    0    0    0    0  0.00000000000E+00  0.00000000000E+00  0.45593999997E+02  0.45594000000E+02  0.51100000000E-03 0. -1.
         11   -1    0    0    0    0 -0.00000000000E+00 -0.00000000000E+00 -0.45593999997E+02  0.45594000000E+02  0.51100000000E-03 0.  1.
    9900012    2    1    2    0    0 -0.39345925841E+02  0.83067740712E+01  0.60051056809E+01  0.50528859945E+02  0.30000000289E+02 0.  0.
         12    1    1    2    0    0  0.39345925841E+02 -0.83067740712E+01 -0.60051056809E+01  0.40659140055E+02  0.00000000000E+00 0. -1.
         11    1    3    3    0    0 -0.12394728104E+02  0.92253717131E+01 -0.10362727071E+02  0.18604377997E+02  0.51100000000E-03 0. -1.
        -11    1    3    3    0    0 -0.62410789995E+01 -0.99164139525E+00  0.16933670860E+01  0.65423170272E+01  0.51100000000E-03 0.  1.
        -12    1    3    3    0    0 -0.20710118737E+02  0.73043753332E-01  0.14674465666E+02  0.25382164921E+02  0.00000000000E+00 0.  1.
</event>
<event>
 7    1  0.4871930E-013  0.5052885E+02  0.7816164E-02  0.1300439E+00
        -11   -1    0    0    0    0  0.00000000000E+00  0.00000000000E+00  0.45593999997E+02  0.45594000000E+02  0.51100000000E-03 0. -1.
         11   -1    0    0    0    0 -0.00000000000E+00 -0.00000000000E+00 -0.45593999997E+02  0.45594000000E+02  0.51100000000E-03 0.  1.
    9900012    2    1    2    0    0  0.25335521972E+01  0.29553437714E+02 -0.27809019286E+02  0.50528854397E+02  0.29999983426E+02 0.  0.
         12    1    1    2    0    0 -0.25335521972E+01 -0.29553437714E+02  0.27809019286E+02  0.40659145603E+02  0.00000000000E+00 0. -1.
         11    1    3    3    0    0 -0.62156708681E+01 -0.10286710673E+01 -0.60255705994E+01  0.87178110678E+01  0.51100000000E-03 0. -1.
        -11    1    3    3    0    0 -0.41864604383E+01  0.81542236361E+01 -0.24200778841E+01  0.94802210594E+01  0.51100000000E-03 0.  1.
         12    1    3    3    0    0  0.12935683504E+02  0.22427885146E+02 -0.19363370803E+02  0.32330822270E+02  0.00000000000E+00 0. -1.
</event>
<event>
 7    1  0.4871930E-013  0.5052883E+02  0.7816164E-02  0.1300439E+00
        -11   -1    0    0    0    0  0.00000000000E+00  0.00000000000E+00  0.45593999997E+02  0.45594000000E+02  0.51100000000E-03 0.  1.
         11   -1    0    0    0    0 -0.00000000000E+00 -0.00000000000E+00 -0.45593999997E+02  0.45594000000E+02  0.51100000000E-03 0. -1.
    9900012    2    1    2    0    0 -0.10029607545E+02 -0.33141083664E+02  0.21312991875E+02  0.50528830350E+02  0.29999910332E+02 0.  0.
         12    1    1    2    0    0  0.10029607545E+02  0.33141083664E+02 -0.21312991875E+02  0.40659169650E+02  0.00000000000E+00 0. -1.
         11    1    3    3    0    0 -0.42333617122E+01 -0.13934731143E+01  0.68703640208E+01  0.81893235829E+01  0.51100000000E-03 0. -1.
        -11    1    3    3    0    0 -0.38055178235E+01 -0.12662014877E+01 -0.47864904039E+01  0.62446555357E+01  0.51100000000E-03 0.  1.
        -12    1    3    3    0    0 -0.19907280095E+01 -0.30481409062E+02  0.19229118258E+02  0.36094851231E+02  0.00000000000E+00 0.  1.
</event>
<event>
 7    1  0.4871930E-013  0.5052886E+02  0.7816164E-02  0.1300439E+00
        -11   -1    0    0    0    0  0.00000000000E+00  0.00000000000E+00  0.45593999997E+02  0.45594000000E+02  0.51100000000E-03 0.  1.
         11   -1    0    0    0    0 -0.00000000000E+00 -0.00000000000E+00 -0.45593999997E+02  0.45594000000E+02  0.51100000000E-03 0. -1.
    9900012    2    1    2    0    0  0.19734280524E+02  0.10983932018E+02  0.33809419807E+02  0.50528862551E+02  0.30000008211E+02 0.  0.
         12    1    1    2    0    0 -0.19734280524E+02 -0.10983932018E+02 -0.33809419807E+02  0.40659137449E+02  0.00000000000E+00 0. -1.
         11    1    3    3    0    0  0.47929571637E+00  0.86732587048E+01 -0.85854142681E+00  0.87288163337E+01  0.51100000000E-03 0. -1.
        -11    1    3    3    0    0  0.16653281368E+00 -0.30732396719E+01  0.79530170965E+01  0.85277791046E+01  0.51100000000E-03 0.  1.
        -12    1    3    3    0    0  0.19088451994E+02  0.53839129853E+01  0.26714944138E+02  0.33272267113E+02  0.00000000000E+00 0.  1.
</event>
<event>
 7    1  0.4871930E-013  0.5052886E+02  0.7816164E-02  0.1300439E+00
        -11   -1    0    0    0    0  0.00000000000E+00  0.00000000000E+00  0.45593999997E+02  0.45594000000E+02  0.51100000000E-03 0.  1.
         11   -1    0    0    0    0 -0.00000000000E+00 -0.00000000000E+00 -0.45593999997E+02  0.45594000000E+02  0.51100000000E-03 0. -1.
    9900012    2    1    2    0    0  0.13449184408E+02  0.26997906183E+02  0.27265324829E+02  0.50528862804E+02  0.30000008979E+02 0.  0.
         12    1    1    2    0    0 -0.13449184408E+02 -0.26997906183E+02 -0.27265324829E+02  0.40659137196E+02  0.00000000000E+00 0. -1.
         11    1    3    3    0    0 -0.15731563022E+01  0.51954836076E+01  0.10431298335E+02  0.11759245549E+02  0.51100000000E-03 0. -1.
        -11    1    3    3    0    0  0.18240853353E+02  0.24557832810E+02  0.13807637079E+02  0.33562877191E+02  0.51100000000E-03 0.  1.
         12    1    3    3    0    0 -0.32185126434E+01 -0.27554102348E+01  0.30263894148E+01  0.52067400634E+01  0.00000000000E+00 0. -1.
</event>
<event>
 7    1  0.4871930E-013  0.5052885E+02  0.7816164E-02  0.1300439E+00
        -11   -1    0    0    0    0  0.00000000000E+00  0.00000000000E+00  0.45593999997E+02  0.45594000000E+02  0.51100000000E-03 0. -1.
         11   -1    0    0    0    0 -0.00000000000E+00 -0.00000000000E+00 -0.45593999997E+02  0.45594000000E+02  0.51100000000E-03 0.  1.
    9900012    2    1    2    0    0  0.15167836770E+02  0.37382903449E+02  0.50617612525E+01  0.50528853802E+02  0.29999981617E+02 0.  0.
         12    1    1    2    0    0 -0.15167836770E+02 -0.37382903449E+02 -0.50617612525E+01  0.40659146198E+02  0.00000000000E+00 0. -1.
         11    1    3    3    0    0 -0.19625998785E+01 -0.70002860538E+00 -0.18930100855E+01  0.28151955129E+01  0.51100000000E-03 0. -1.
        -11    1    3    3    0    0 -0.41951313018E+01  0.15797293435E+02  0.29621138682E+01  0.16611072372E+02  0.51100000000E-03 0.  1.
         12    1    3    3    0    0  0.21325567950E+02  0.22285638620E+02  0.39926574697E+01  0.31102585917E+02  0.00000000000E+00 0. -1.
</event>
<event>
 7    1  0.4871930E-013  0.5052889E+02  0.7816164E-02  0.1300439E+00
        -11   -1    0    0    0    0  0.00000000000E+00  0.00000000000E+00  0.45593999997E+02  0.45594000000E+02  0.51100000000E-03 0. -1.
         11   -1    0    0    0    0 -0.00000000000E+00 -0.00000000000E+00 -0.45593999997E+02  0.45594000000E+02  0.51100000000E-03 0.  1.
    9900012    2    1    2    0    0  0.20550578959E+02 -0.22422961825E+02 -0.26982360084E+02  0.50528889480E+02  0.30000090065E+02 0.  0.
         12    1    1    2    0    0 -0.20550578959E+02  0.22422961825E+02  0.26982360084E+02  0.40659110520E+02  0.00000000000E+00 0. -1.
         11    1    3    3    0    0 -0.42533777153E+01 -0.48355745918E+01 -0.82162146112E+00  0.64922311811E+01  0.51100000000E-03 0. -1.
        -11    1    3    3    0    0  0.17393058508E+02 -0.18403422549E+02 -0.11974622320E+02  0.28010641295E+02  0.51100000000E-03 0.  1.
        -12    1    3    3    0    0  0.74108981662E+01  0.81603531622E+00 -0.14186116303E+02  0.16026017004E+02  0.00000000000E+00 0.  1.
</event>
<event>
 7    1  0.4871930E-013  0.5052887E+02  0.7816164E-02  0.1300439E+00
        -11   -1    0    0    0    0  0.00000000000E+00  0.00000000000E+00  0.45593999997E+02  0.45594000000E+02  0.51100000000E-03 0.  1.
         11   -1    0    0    0    0 -0.00000000000E+00 -0.00000000000E+00 -0.45593999997E+02  0.45594000000E+02  0.51100000000E-03 0. -1.
    9900012    2    1    2    0    0  0.27343665758E+02 -0.47361702915E+00  0.30087614324E+02  0.50528869342E+02  0.30000028851E+02 0.  0.
         12    1    1    2    0    0 -0.27343665758E+02  0.47361702915E+00 -0.30087614324E+02  0.40659130658E+02  0.00000000000E+00 0. -1.
         11    1    3    3    0    0 -0.95267489522E+00 -0.77883048977E+00  0.13664213422E+02  0.13719507830E+02  0.51100000000E-03 0. -1.
        -11    1    3    3    0    0  0.33051461276E+01  0.25684052751E+01 -0.29387063236E+01  0.51143613189E+01  0.51100000000E-03 0.  1.
        -12    1    3    3    0    0  0.24991194526E+02 -0.22631918145E+01  0.19362107226E+02  0.31695000193E+02  0.00000000000E+00 0.  1.
</event>
<event>
 7    1  0.4871930E-013  0.5052886E+02  0.7816164E-02  0.1300439E+00
        -11   -1    0    0    0    0  0.00000000000E+00  0.00000000000E+00  0.45593999997E+02  0.45594000000E+02  0.51100000000E-03 0. -1.
         11   -1    0    0    0    0 -0.00000000000E+00 -0.00000000000E+00 -0.45593999997E+02  0.45594000000E+02  0.51100000000E-03 0.  1.
    9900012    2    1    2    0    0 -0.20681988278E+02 -0.34868205993E+02 -0.31030858990E+01  0.50528861170E+02  0.30000004012E+02 0.  0.
         12    1    1    2    0    0  0.20681988278E+02  0.34868205993E+02  0.31030858990E+01  0.40659138830E+02  0.00000000000E+00 0. -1.
         11    1    3    3    0    0 -0.19328375468E+02 -0.76311603995E+01 -0.56753644587E+01  0.21541366467E+02  0.51100000000E-03 0. -1.
        -11    1    3    3    0    0 -0.34915431705E+01 -0.33616531002E+01 -0.23647888841E+00  0.48525774392E+01  0.51100000000E-03 0.  1.
        -12    1    3    3    0    0  0.21379303601E+01 -0.23875392493E+02  0.28087574481E+01  0.24134917264E+02  0.00000000000E+00 0.  1.
</event>
<event>
 7    1  0.4871930E-013  0.5052890E+02  0.7816164E-02  0.1300439E+00
        -11   -1    0    0    0    0  0.00000000000E+00  0.00000000000E+00  0.45593999997E+02  0.45594000000E+02  0.51100000000E-03 0.  1.
         11   -1    0    0    0    0 -0.00000000000E+00 -0.00000000000E+00 -0.45593999997E+02  0.45594000000E+02  0.51100000000E-03 0. -1.
    9900012    2    1    2    0    0  0.84639775409E+01  0.37139248343E+02 -0.14219705286E+02  0.50528896447E+02  0.30000111240E+02 0.  0.
         12    1    1    2    0    0 -0.84639775409E+01 -0.37139248343E+02  0.14219705286E+02  0.40659103553E+02  0.00000000000E+00 0. -1.
         11    1    3    3    0    0 -0.16812111915E+01 -0.15494127690E+01 -0.39471585424E+00  0.23201189336E+01  0.51100000000E-03 0. -1.
        -11    1    3    3    0    0  0.11824274764E+02  0.10633881696E+02 -0.12224614827E+02  0.20058268159E+02  0.51100000000E-03 0.  1.
        -12    1    3    3    0    0 -0.16790860319E+01  0.28054779417E+02 -0.16003746044E+01  0.28150509354E+02  0.00000000000E+00 0.  1.
</event>
<event>
 7    1  0.4871930E-013  0.5052887E+02  0.7816164E-02  0.1300439E+00
        -11   -1    0    0    0    0  0.00000000000E+00  0.00000000000E+00  0.45593999997E+02  0.45594000000E+02  0.51100000000E-03 0.  1.
         11   -1    0    0    0    0 -0.00000000000E+00 -0.00000000000E+00 -0.45593999997E+02  0.45594000000E+02  0.51100000000E-03 0. -1.
    9900012    2    1    2    0    0  0.28344008782E+02  0.29055659833E+02 -0.23560553173E+01  0.50528865739E+02  0.30000017901E+02 0.  0.
         12    1    1    2    0    0 -0.28344008782E+02 -0.29055659833E+02  0.23560553173E+01  0.40659134261E+02  0.00000000000E+00 0. -1.
         11    1    3    3    0    0  0.22056015450E+02  0.48938181894E+01  0.36352789740E+01  0.22883018321E+02  0.51100000000E-03 0. -1.
        -11    1    3    3    0    0  0.21070818619E+01  0.11553378631E+02  0.23275693367E+01  0.11972382012E+02  0.51100000000E-03 0.  1.
        -12    1    3    3    0    0  0.41809114699E+01  0.12608463013E+02 -0.83189036280E+01  0.15673465406E+02  0.00000000000E+00 0.  1.
</event>
<event>
 7    1  0.4871930E-013  0.5052886E+02  0.7816164E-02  0.1300439E+00
        -11   -1    0    0    0    0  0.00000000000E+00  0.00000000000E+00  0.45593999997E+02  0.45594000000E+02  0.51100000000E-03 0.  1.
         11   -1    0    0    0    0 -0.00000000000E+00 -0.00000000000E+00 -0.45593999997E+02  0.45594000000E+02  0.51100000000E-03 0. -1.
    9900012    2    1    2    0    0 -0.15790068461E+02 -0.33021258233E+02 -0.17704115593E+02  0.50528862451E+02  0.30000007907E+02 0.  0.
         12    1    1    2    0    0  0.15790068461E+02  0.33021258233E+02  0.17704115593E+02  0.40659137549E+02  0.00000000000E+00 0. -1.
         11    1    3    3    0    0  0.36557521415E+00 -0.71327886463E+01 -0.12794185371E+02  0.14652695952E+02  0.51100000000E-03 0. -1.
        -11    1    3    3    0    0 -0.11359287794E+02 -0.81836154630E+01 -0.95600807276E+01  0.16952879549E+02  0.51100000000E-03 0.  1.
         12    1    3    3    0    0 -0.47963558807E+01 -0.17704854123E+02  0.46501505052E+01  0.18923286950E+02  0.00000000000E+00 0. -1.
</event>
<event>
 7    1  0.4871930E-013  0.5052886E+02  0.7816164E-02  0.1300439E+00
        -11   -1    0    0    0    0  0.00000000000E+00  0.00000000000E+00  0.45593999997E+02  0.45594000000E+02  0.51100000000E-03 0.  1.
         11   -1    0    0    0    0 -0.00000000000E+00 -0.00000000000E+00 -0.45593999997E+02  0.45594000000E+02  0.51100000000E-03 0. -1.
    9900012    2    1    2    0    0 -0.11335403597E+01 -0.17864722372E+02  0.36506606096E+02  0.50528861940E+02  0.30000006351E+02 0.  0.
         12    1    1    2    0    0  0.11335403597E+01  0.17864722372E+02 -0.36506606096E+02  0.40659138060E+02  0.00000000000E+00 0. -1.
         11    1    3    3    0    0  0.14368457664E+01 -0.16000503113E+01 -0.65086834735E+00  0.22468459275E+01  0.51100000000E-03 0. -1.
        -11    1    3    3    0    0  0.60480815863E+01 -0.68008298815E+01  0.33863080543E+02  0.35064780081E+02  0.51100000000E-03 0.  1.
         12    1    3    3    0    0 -0.86184677125E+01 -0.94638421790E+01  0.32943939001E+01  0.13217235931E+02  0.00000000000E+00 0. -1.
</event>
<event>
 7    1  0.4871930E-013  0.5052886E+02  0.7816164E-02  0.1300439E+00
        -11   -1    0    0    0    0  0.00000000000E+00  0.00000000000E+00  0.45593999997E+02  0.45594000000E+02  0.51100000000E-03 0.  1.
         11   -1    0    0    0    0 -0.00000000000E+00 -0.00000000000E+00 -0.45593999997E+02  0.45594000000E+02  0.51100000000E-03 0. -1.
    9900012    2    1    2    0    0 -0.18540438388E+02 -0.37045260734E+01  0.35995752633E+02  0.50528861093E+02  0.30000003778E+02 0.  0.
         12    1    1    2    0    0  0.18540438388E+02  0.37045260734E+01 -0.35995752633E+02  0.40659138907E+02  0.00000000000E+00 0. -1.
         11    1    3    3    0    0 -0.38546872460E+00 -0.26298890524E+01 -0.20270633768E+01  0.33427367172E+01  0.51100000000E-03 0. -1.
        -11    1    3    3    0    0 -0.95777864228E+01  0.95279905260E+01  0.13338369246E+02  0.18984959590E+02  0.51100000000E-03 0.  1.
        -12    1    3    3    0    0 -0.85771832410E+01 -0.10602627547E+02  0.24684446764E+02  0.28201164786E+02  0.00000000000E+00 0.  1.
</event>
<event>
 7    1  0.4871930E-013  0.5052886E+02  0.7816164E-02  0.1300439E+00
        -11   -1    0    0    0    0  0.00000000000E+00  0.00000000000E+00  0.45593999997E+02  0.45594000000E+02  0.51100000000E-03 0.  1.
         11   -1    0    0    0    0 -0.00000000000E+00 -0.00000000000E+00 -0.45593999997E+02  0.45594000000E+02  0.51100000000E-03 0. -1.
    9900012    2    1    2    0    0 -0.17461453959E+02 -0.13540451285E+02  0.34130914835E+02  0.50528861509E+02  0.30000005043E+02 0.  0.
         12    1    1    2    0    0  0.17461453959E+02  0.13540451285E+02 -0.34130914835E+02  0.40659138491E+02  0.00000000000E+00 0. -1.
         11    1    3    3    0    0 -0.17198071574E+01 -0.42378796962E+01  0.23703475952E+02  0.24140673840E+02  0.51100000000E-03 0. -1.
        -11    1    3    3    0    0  0.19893377128E+01  0.12072080189E+00 -0.19598270558E+01  0.27951673290E+01  0.51100000000E-03 0.  1.
         12    1    3    3    0    0 -0.17730984514E+02 -0.94232923910E+01  0.12387265939E+02  0.23593020340E+02  0.00000000000E+00 0. -1.
</event>
<event>
 7    1  0.4871930E-013  0.5052885E+02  0.7816164E-02  0.1300439E+00
        -11   -1    0    0    0    0  0.00000000000E+00  0.00000000000E+00  0.45593999997E+02  0.45594000000E+02  0.51100000000E-03 0.  1.
         11   -1    0    0    0    0 -0.00000000000E+00 -0.00000000000E+00 -0.45593999997E+02  0.45594000000E+02  0.51100000000E-03 0. -1.
    9900012    2    1    2    0    0  0.36079911267E+02 -0.81369515394E+01  0.16887755404E+02  0.50528852690E+02  0.29999978237E+02 0.  0.
         12    1    1    2    0    0 -0.36079911267E+02  0.81369515394E+01 -0.16887755404E+02  0.40659147310E+02  0.00000000000E+00 0. -1.
         11    1    3    3    0    0  0.10242530077E+02  0.10022375709E+01  0.17624300075E+02  0.20409063083E+02  0.51100000000E-03 0. -1.
        -11    1    3    3    0    0  0.18811147023E+02 -0.30156337794E+00 -0.77212195456E+00  0.18829401620E+02  0.51100000000E-03 0.  1.
        -12    1    3    3    0    0  0.70262341671E+01 -0.88376257324E+01  0.35577283359E-01  0.11290387987E+02  0.00000000000E+00 0.  1.
</event>
<event>
 7    1  0.4871930E-013  0.5052883E+02  0.7816164E-02  0.1300439E+00
        -11   -1    0    0    0    0  0.00000000000E+00  0.00000000000E+00  0.45593999997E+02  0.45594000000E+02  0.51100000000E-03 0. -1.
         11   -1    0    0    0    0 -0.00000000000E+00 -0.00000000000E+00 -0.45593999997E+02  0.45594000000E+02  0.51100000000E-03 0.  1.
    9900012    2    1    2    0    0 -0.75252398921E+01  0.39834544633E+02  0.31222106330E+01  0.50528826609E+02  0.29999898961E+02 0.  0.
         12    1    1    2    0    0  0.75252398921E+01 -0.39834544633E+02 -0.31222106330E+01  0.40659173391E+02  0.00000000000E+00 0. -1.
         11    1    3    3    0    0  0.18912392024E+01 -0.62477045022E+00  0.17162572609E+01  0.26291943790E+01  0.51100000000E-03 0. -1.
        -11    1    3    3    0    0 -0.13107325518E+02  0.18501752638E+02  0.89704601720E+01  0.24384133958E+02  0.51100000000E-03 0.  1.
        -12    1    3    3    0    0  0.36908464235E+01  0.21957562446E+02 -0.75645067998E+01  0.23515498273E+02  0.00000000000E+00 0.  1.
</event>
<event>
 7    1  0.4871930E-013  0.5052900E+02  0.7816164E-02  0.1300438E+00
        -11   -1    0    0    0    0  0.00000000000E+00  0.00000000000E+00  0.45593999997E+02  0.45594000000E+02  0.51100000000E-03 0. -1.
         11   -1    0    0    0    0 -0.00000000000E+00 -0.00000000000E+00 -0.45593999997E+02  0.45594000000E+02  0.51100000000E-03 0.  1.
    9900012    2    1    2    0    0  0.17670945186E+02  0.13262799106E+01 -0.36594163616E+02  0.50529001821E+02  0.30000431533E+02 0.  0.
         12    1    1    2    0    0 -0.17670945186E+02 -0.13262799106E+01  0.36594163616E+02  0.40658998179E+02  0.00000000000E+00 0. -1.
         11    1    3    3    0    0  0.14975496373E+02 -0.50750271141E+01 -0.76776501342E+01  0.17577477171E+02  0.51100000000E-03 0. -1.
        -11    1    3    3    0    0  0.78041232134E+01  0.33351386961E+01 -0.23162968823E+02  0.24668818663E+02  0.51100000000E-03 0.  1.
        -12    1    3    3    0    0 -0.51086744003E+01  0.30661683286E+01 -0.57535446579E+01  0.82827059877E+01  0.00000000000E+00 0.  1.
</event>
<event>
 7    1  0.4871930E-013  0.5052886E+02  0.7816164E-02  0.1300439E+00
        -11   -1    0    0    0    0  0.00000000000E+00  0.00000000000E+00  0.45593999997E+02  0.45594000000E+02  0.51100000000E-03 0.  1.
         11   -1    0    0    0    0 -0.00000000000E+00 -0.00000000000E+00 -0.45593999997E+02  0.45594000000E+02  0.51100000000E-03 0. -1.
    9900012    2    1    2    0    0 -0.30520697452E+02  0.26802428751E+02 -0.18117123526E+01  0.50528862509E+02  0.30000008081E+02 0.  0.
         12    1    1    2    0    0  0.30520697452E+02 -0.26802428751E+02  0.18117123526E+01  0.40659137491E+02  0.00000000000E+00 0. -1.
         11    1    3    3    0    0 -0.12723589196E+02  0.11333555140E+02  0.72735071959E+01  0.18526821134E+02  0.51100000000E-03 0.  1.
        -11    1    3    3    0    0  0.11935538736E+01 -0.83923248498E-01  0.40072952106E+01  0.41821082156E+01  0.51100000000E-03 0. -1.
         12    1    3    3    0    0 -0.18990662129E+02  0.15552796859E+02 -0.13092514759E+02  0.27819933159E+02  0.00000000000E+00 0. -1.
</event>
<event>
 7    1  0.4871930E-013  0.5052887E+02  0.7816164E-02  0.1300439E+00
        -11   -1    0    0    0    0  0.00000000000E+00  0.00000000000E+00  0.45593999997E+02  0.45594000000E+02  0.51100000000E-03 0. -1.
         11   -1    0    0    0    0 -0.00000000000E+00 -0.00000000000E+00 -0.45593999997E+02  0.45594000000E+02  0.51100000000E-03 0.  1.
    9900012    2    1    2    0    0  0.88821908965E+01  0.14071977326E+02 -0.37097854728E+02  0.50528872041E+02  0.30000037055E+02 0.  0.
         12    1    1    2    0    0 -0.88821908965E+01 -0.14071977326E+02  0.37097854728E+02  0.40659127959E+02  0.00000000000E+00 0. -1.
         11    1    3    3    0    0  0.14092677485E+02  0.18205197431E+02 -0.29696444725E+02  0.37575412197E+02  0.51100000000E-03 0. -1.
        -11    1    3    3    0    0 -0.20730189292E+01  0.20144717188E+01 -0.47485805974E+01  0.55591835496E+01  0.51100000000E-03 0.  1.
        -12    1    3    3    0    0 -0.31374676593E+01 -0.61476918232E+01 -0.26528294057E+01  0.73942762947E+01  0.00000000000E+00 0.  1.
</event>
<event>
 7    1  0.4871930E-013  0.5052885E+02  0.7816164E-02  0.1300439E+00
        -11   -1    0    0    0    0  0.00000000000E+00  0.00000000000E+00  0.45593999997E+02  0.45594000000E+02  0.51100000000E-03 0.  1.
         11   -1    0    0    0    0 -0.00000000000E+00 -0.00000000000E+00 -0.45593999997E+02  0.45594000000E+02  0.51100000000E-03 0. -1.
    9900012    2    1    2    0    0 -0.96334971249E+01 -0.29257587043E+02  0.26539695983E+02  0.50528854297E+02  0.29999983121E+02 0.  0.
         12    1    1    2    0    0  0.96334971249E+01  0.29257587043E+02 -0.26539695983E+02  0.40659145703E+02  0.00000000000E+00 0. -1.
         11    1    3    3    0    0 -0.87323919205E+01 -0.74486830366E+01  0.59364336468E+00  0.11493039647E+02  0.51100000000E-03 0. -1.
        -11    1    3    3    0    0  0.31727980512E+01  0.29733393157E+00 -0.15311044006E+01  0.35354399849E+01  0.51100000000E-03 0.  1.
        -12    1    3    3    0    0 -0.40739032556E+01 -0.22106237938E+02  0.27477157019E+02  0.35500374665E+02  0.00000000000E+00 0.  1.
</event>
<event>
 7    1  0.4871930E-013  0.5052887E+02  0.7816164E-02  0.1300439E+00
        -11   -1    0    0    0    0  0.00000000000E+00  0.00000000000E+00  0.45593999997E+02  0.45594000000E+02  0.51100000000E-03 0. -1.
         11   -1    0    0    0    0 -0.00000000000E+00 -0.00000000000E+00 -0.45593999997E+02  0.45594000000E+02  0.51100000000E-03 0.  1.
    9900012    2    1    2    0    0  0.93323157146E+01 -0.26426143409E+02 -0.29457291315E+02  0.50528865925E+02  0.30000018466E+02 0.  0.
         12    1    1    2    0    0 -0.93323157146E+01  0.26426143409E+02  0.29457291315E+02  0.40659134075E+02  0.00000000000E+00 0. -1.
         11    1    3    3    0    0  0.71364463825E+01 -0.81611911645E+01 -0.57648640343E+00  0.10856622174E+02  0.51100000000E-03 0. -1.
        -11    1    3    3    0    0  0.51220546822E+01  0.25325761797E+01 -0.95445800542E+01  0.11124225589E+02  0.51100000000E-03 0.  1.
        -12    1    3    3    0    0 -0.29261853500E+01 -0.20797528425E+02 -0.19336224858E+02  0.28548018163E+02  0.00000000000E+00 0.  1.
</event>
<event>
 7    1  0.4871930E-013  0.5052884E+02  0.7816164E-02  0.1300439E+00
        -11   -1    0    0    0    0  0.00000000000E+00  0.00000000000E+00  0.45593999997E+02  0.45594000000E+02  0.51100000000E-03 0.  1.
         11   -1    0    0    0    0 -0.00000000000E+00 -0.00000000000E+00 -0.45593999997E+02  0.45594000000E+02  0.51100000000E-03 0. -1.
    9900012    2    1    2    0    0 -0.33670783678E+02  0.12651049694E+02  0.18957750127E+02  0.50528843322E+02  0.29999949762E+02 0.  0.
         12    1    1    2    0    0  0.33670783678E+02 -0.12651049694E+02 -0.18957750127E+02  0.40659156678E+02  0.00000000000E+00 0. -1.
         11    1    3    3    0    0 -0.11349108361E+02  0.44366389545E+01 -0.12874593252E+01  0.12253308842E+02  0.51100000000E-03 0. -1.
        -11    1    3    3    0    0 -0.15876993907E+02  0.15337300329E+02  0.10009399173E+02  0.24238394934E+02  0.51100000000E-03 0.  1.
         12    1    3    3    0    0 -0.64446814106E+01 -0.71228895889E+01  0.10235810279E+02  0.14037139547E+02  0.00000000000E+00 0. -1.
</event>
<event>
 7    1  0.4871930E-013  0.5052885E+02  0.7816164E-02  0.1300439E+00
        -11   -1    0    0    0    0  0.00000000000E+00  0.00000000000E+00  0.45593999997E+02  0.45594000000E+02  0.51100000000E-03 0.  1.
         11   -1    0    0    0    0 -0.00000000000E+00 -0.00000000000E+00 -0.45593999997E+02  0.45594000000E+02  0.51100000000E-03 0. -1.
    9900012    2    1    2    0    0 -0.62878960981E+00 -0.47523139687E+01  0.40375565538E+02  0.50528853957E+02  0.29999982088E+02 0.  0.
         12    1    1    2    0    0  0.62878960981E+00  0.47523139687E+01 -0.40375565538E+02  0.40659146043E+02  0.00000000000E+00 0. -1.
         11    1    3    3    0    0  0.71305103966E+01 -0.87838610108E+01  0.10194655751E+02  0.15229294105E+02  0.51100000000E-03 0. -1.
        -11    1    3    3    0    0  0.48658756056E+01  0.27705011633E+01  0.10021442106E+02  0.11479622130E+02  0.51100000000E-03 0.  1.
        -12    1    3    3    0    0 -0.12625175612E+02  0.12610458788E+01  0.20159467681E+02  0.23819937723E+02  0.00000000000E+00 0.  1.
</event>
<event>
 7    1  0.4871930E-013  0.5052887E+02  0.7816164E-02  0.1300439E+00
        -11   -1    0    0    0    0  0.00000000000E+00  0.00000000000E+00  0.45593999997E+02  0.45594000000E+02  0.51100000000E-03 0. -1.
         11   -1    0    0    0    0 -0.00000000000E+00 -0.00000000000E+00 -0.45593999997E+02  0.45594000000E+02  0.51100000000E-03 0.  1.
    9900012    2    1    2    0    0 -0.33419380982E+02  0.11891644110E+02 -0.19872066474E+02  0.50528865100E+02  0.30000015959E+02 0.  0.
         12    1    1    2    0    0  0.33419380982E+02 -0.11891644110E+02  0.19872066474E+02  0.40659134900E+02  0.00000000000E+00 0. -1.
         11    1    3    3    0    0  0.12226703611E+01  0.21230751923E+01  0.37557869462E+01  0.44842286885E+01  0.51100000000E-03 0. -1.
        -11    1    3    3    0    0 -0.10416477868E+02  0.94348774465E+01 -0.33433912536E+01  0.14446390170E+02  0.51100000000E-03 0.  1.
         12    1    3    3    0    0 -0.24225573475E+02  0.33369147153E+00 -0.20284462166E+02  0.31598246242E+02  0.00000000000E+00 0. -1.
</event>
<event>
 7    1  0.4871930E-013  0.5052887E+02  0.7816164E-02  0.1300439E+00
        -11   -1    0    0    0    0  0.00000000000E+00  0.00000000000E+00  0.45593999997E+02  0.45594000000E+02  0.51100000000E-03 0.  1.
         11   -1    0    0    0    0 -0.00000000000E+00 -0.00000000000E+00 -0.45593999997E+02  0.45594000000E+02  0.51100000000E-03 0. -1.
    9900012    2    1    2    0    0 -0.66506152270E+01  0.35609043573E+02 -0.18464299396E+02  0.50528867948E+02  0.30000024614E+02 0.  0.
         12    1    1    2    0    0  0.66506152270E+01 -0.35609043573E+02  0.18464299396E+02  0.40659132052E+02  0.00000000000E+00 0. -1.
         11    1    3    3    0    0  0.40111150153E+01  0.21250155596E+01 -0.11381493827E+02  0.12253290855E+02  0.51100000000E-03 0. -1.
        -11    1    3    3    0    0  0.30682805443E+01  0.78109842816E+01 -0.38301406805E+00  0.84007452636E+01  0.51100000000E-03 0.  1.
        -12    1    3    3    0    0 -0.13730010787E+02  0.25673043732E+02 -0.66997915011E+01  0.29874831829E+02  0.00000000000E+00 0.  1.
</event>
<event>
 7    1  0.4871930E-013  0.5052886E+02  0.7816164E-02  0.1300439E+00
        -11   -1    0    0    0    0  0.00000000000E+00  0.00000000000E+00  0.45593999997E+02  0.45594000000E+02  0.51100000000E-03 0.  1.
         11   -1    0    0    0    0 -0.00000000000E+00 -0.00000000000E+00 -0.45593999997E+02  0.45594000000E+02  0.51100000000E-03 0. -1.
    9900012    2    1    2    0    0 -0.10987541325E+02 -0.10821041526E+02  0.37621063667E+02  0.50528862829E+02  0.30000009054E+02 0.  0.
         12    1    1    2    0    0  0.10987541325E+02  0.10821041526E+02 -0.37621063667E+02  0.40659137171E+02  0.00000000000E+00 0. -1.
         11    1    3    3    0    0 -0.39869163089E+00  0.27079970364E+01  0.43873660739E+01  0.51711878996E+01  0.51100000000E-03 0. -1.
        -11    1    3    3    0    0  0.10737177343E+01 -0.14993809334E+02  0.29355031752E+02  0.32980070915E+02  0.51100000000E-03 0.  1.
         12    1    3    3    0    0 -0.11662567428E+02  0.14647707715E+01  0.38786658415E+01  0.12377604014E+02  0.00000000000E+00 0. -1.
</event>
<event>
 7    1  0.4871930E-013  0.5052887E+02  0.7816164E-02  0.1300439E+00
        -11   -1    0    0    0    0  0.00000000000E+00  0.00000000000E+00  0.45593999997E+02  0.45594000000E+02  0.51100000000E-03 0. -1.
         11   -1    0    0    0    0 -0.00000000000E+00 -0.00000000000E+00 -0.45593999997E+02  0.45594000000E+02  0.51100000000E-03 0.  1.
    9900012    2    1    2    0    0  0.31732774613E+02 -0.18700732010E+02 -0.17218562373E+02  0.50528865079E+02  0.30000015893E+02 0.  0.
         12    1    1    2    0    0 -0.31732774613E+02  0.18700732010E+02  0.17218562373E+02  0.40659134921E+02  0.00000000000E+00 0. -1.
         11    1    3    3    0    0  0.13947354451E+02 -0.85424344272E+01 -0.66472042074E+01  0.17654665280E+02  0.51100000000E-03 0. -1.
        -11    1    3    3    0    0  0.69470586506E+01 -0.64772553835E+01 -0.17199035049E+02  0.19647474852E+02  0.51100000000E-03 0.  1.
         12    1    3    3    0    0  0.10838361511E+02 -0.36810421998E+01  0.66276768833E+01  0.13226724946E+02  0.00000000000E+00 0. -1.
</event>
<event>
 7    1  0.4871930E-013  0.5052886E+02  0.7816164E-02  0.1300439E+00
        -11   -1    0    0    0    0  0.00000000000E+00  0.00000000000E+00  0.45593999997E+02  0.45594000000E+02  0.51100000000E-03 0.  1.
         11   -1    0    0    0    0 -0.00000000000E+00 -0.00000000000E+00 -0.45593999997E+02  0.45594000000E+02  0.51100000000E-03 0. -1.
    9900012    2    1    2    0    0 -0.11124724497E+02  0.18673547777E+02  0.34361380802E+02  0.50528863605E+02  0.30000011415E+02 0.  0.
         12    1    1    2    0    0  0.11124724497E+02 -0.18673547777E+02 -0.34361380802E+02  0.40659136395E+02  0.00000000000E+00 0. -1.
         11    1    3    3    0    0 -0.67302557883E+01  0.23589748284E+01  0.10783060041E+02  0.12928089160E+02  0.51100000000E-03 0.  1.
        -11    1    3    3    0    0 -0.45688024539E+01  0.16389137610E+01 -0.40464115070E+01  0.63192911410E+01  0.51100000000E-03 0. -1.
        -12    1    3    3    0    0  0.17433374495E+00  0.14675659188E+02  0.27624732268E+02  0.31281483305E+02  0.00000000000E+00 0.  1.
</event>
<event>
 7    1  0.4871930E-013  0.5052887E+02  0.7816164E-02  0.1300439E+00
        -11   -1    0    0    0    0  0.00000000000E+00  0.00000000000E+00  0.45593999997E+02  0.45594000000E+02  0.51100000000E-03 0.  1.
         11   -1    0    0    0    0 -0.00000000000E+00 -0.00000000000E+00 -0.45593999997E+02  0.45594000000E+02  0.51100000000E-03 0. -1.
    9900012    2    1    2    0    0  0.22985170950E+02 -0.33366219650E+02  0.33973303507E+01  0.50528873708E+02  0.30000042122E+02 0.  0.
         12    1    1    2    0    0 -0.22985170950E+02  0.33366219650E+02 -0.33973303507E+01  0.40659126292E+02  0.00000000000E+00 0. -1.
         11    1    3    3    0    0  0.16608919195E+02 -0.12643437702E+02 -0.89957771762E+01  0.22729644103E+02  0.51100000000E-03 0.  1.
        -11    1    3    3    0    0  0.26931777567E+01 -0.10512927819E+02 -0.60022069990E+00  0.10868998248E+02  0.51100000000E-03 0. -1.
        -12    1    3    3    0    0  0.36830739984E+01 -0.10209854128E+02  0.12993328227E+02  0.16930231357E+02  0.00000000000E+00 0.  1.
</event>
<event>
 7    1  0.4871930E-013  0.5052886E+02  0.7816164E-02  0.1300439E+00
        -11   -1    0    0    0    0  0.00000000000E+00  0.00000000000E+00  0.45593999997E+02  0.45594000000E+02  0.51100000000E-03 0. -1.
         11   -1    0    0    0    0 -0.00000000000E+00 -0.00000000000E+00 -0.45593999997E+02  0.45594000000E+02  0.51100000000E-03 0.  1.
    9900012    2    1    2    0    0 -0.65935021982E+01 -0.27849123595E+02 -0.28881093104E+02  0.50528862096E+02  0.30000006826E+02 0.  0.
         12    1    1    2    0    0  0.65935021982E+01  0.27849123595E+02  0.28881093104E+02  0.40659137904E+02  0.00000000000E+00 0. -1.
         11    1    3    3    0    0  0.27087030485E+01 -0.80122788370E+01 -0.22173645317E+02  0.23731924306E+02  0.51100000000E-03 0. -1.
        -11    1    3    3    0    0 -0.10351059609E+02 -0.82813812781E+01 -0.73845508972E+01  0.15174231549E+02  0.51100000000E-03 0.  1.
         12    1    3    3    0    0  0.10488543624E+01 -0.11555463480E+02  0.67710311064E+00  0.11622706240E+02  0.00000000000E+00 0. -1.
</event>
<event>
 7    1  0.4871930E-013  0.5052885E+02  0.7816164E-02  0.1300439E+00
        -11   -1    0    0    0    0  0.00000000000E+00  0.00000000000E+00  0.45593999997E+02  0.45594000000E+02  0.51100000000E-03 0. -1.
         11   -1    0    0    0    0 -0.00000000000E+00 -0.00000000000E+00 -0.45593999997E+02  0.45594000000E+02  0.51100000000E-03 0.  1.
    9900012    2    1    2    0    0 -0.27492892425E+02 -0.62035688106E+01 -0.29305682859E+02  0.50528850381E+02  0.29999971218E+02 0.  0.
         12    1    1    2    0    0  0.27492892425E+02  0.62035688106E+01  0.29305682859E+02  0.40659149619E+02  0.00000000000E+00 0. -1.
         11    1    3    3    0    0 -0.35387693657E+01  0.51154580823E+01 -0.47023577637E+01  0.77976258448E+01  0.51100000000E-03 0. -1.
        -11    1    3    3    0    0 -0.15001543010E+02 -0.10799755617E+02 -0.27650475829E+02  0.33260033492E+02  0.51100000000E-03 0.  1.
         12    1    3    3    0    0 -0.89525800496E+01 -0.51927127582E+00  0.30471507334E+01  0.94711910441E+01  0.00000000000E+00 0. -1.
</event>
<event>
 7    1  0.4871930E-013  0.5052886E+02  0.7816164E-02  0.1300439E+00
        -11   -1    0    0    0    0  0.00000000000E+00  0.00000000000E+00  0.45593999997E+02  0.45594000000E+02  0.51100000000E-03 0.  1.
         11   -1    0    0    0    0 -0.00000000000E+00 -0.00000000000E+00 -0.45593999997E+02  0.45594000000E+02  0.51100000000E-03 0. -1.
    9900012    2    1    2    0    0 -0.16476356766E+01  0.27041855066E+02  0.30318124813E+02  0.50528864238E+02  0.30000013338E+02 0.  0.
         12    1    1    2    0    0  0.16476356766E+01 -0.27041855066E+02 -0.30318124813E+02  0.40659135762E+02  0.00000000000E+00 0. -1.
         11    1    3    3    0    0  0.11683263009E-01 -0.37291397024E+00 -0.17453751957E+01  0.17848070379E+01  0.51100000000E-03 0. -1.
        -11    1    3    3    0    0 -0.10792296761E+02  0.16983528697E+02  0.94786773856E+01  0.22243184161E+02  0.51100000000E-03 0.  1.
         12    1    3    3    0    0  0.91329778214E+01  0.10431240338E+02  0.22584822623E+02  0.26500873039E+02  0.00000000000E+00 0. -1.
</event>
<event>
 7    1  0.4871930E-013  0.5052888E+02  0.7816164E-02  0.1300439E+00
        -11   -1    0    0    0    0  0.00000000000E+00  0.00000000000E+00  0.45593999997E+02  0.45594000000E+02  0.51100000000E-03 0.  1.
         11   -1    0    0    0    0 -0.00000000000E+00 -0.00000000000E+00 -0.45593999997E+02  0.45594000000E+02  0.51100000000E-03 0. -1.
    9900012    2    1    2    0    0 -0.98661662503E+01 -0.88645136340E+01  0.38434925828E+02  0.50528876032E+02  0.30000049188E+02 0.  0.
         12    1    1    2    0    0  0.98661662503E+01  0.88645136340E+01 -0.38434925828E+02  0.40659123968E+02  0.00000000000E+00 0. -1.
         11    1    3    3    0    0 -0.27508455422E+01 -0.90511990261E+01  0.14678095216E+01  0.95731823371E+01  0.51100000000E-03 0. -1.
        -11    1    3    3    0    0  0.37620971905E+01 -0.23322832903E+01  0.21066567165E+02  0.21526569002E+02  0.51100000000E-03 0.  1.
         12    1    3    3    0    0 -0.10877417899E+02  0.25189686823E+01  0.15900549140E+02  0.19429124693E+02  0.00000000000E+00 0. -1.
</event>
<event>
 7    1  0.4871930E-013  0.5052887E+02  0.7816164E-02  0.1300439E+00
        -11   -1    0    0    0    0  0.00000000000E+00  0.00000000000E+00  0.45593999997E+02  0.45594000000E+02  0.51100000000E-03 0.  1.
         11   -1    0    0    0    0 -0.00000000000E+00 -0.00000000000E+00 -0.45593999997E+02  0.45594000000E+02  0.51100000000E-03 0. -1.
    9900012    2    1    2    0    0 -0.11034735368E+02  0.39106505266E+02  0.14424616501E+01  0.50528870221E+02  0.30000031525E+02 0.  0.
         12    1    1    2    0    0  0.11034735368E+02 -0.39106505266E+02 -0.14424616501E+01  0.40659129779E+02  0.00000000000E+00 0. -1.
         11    1    3    3    0    0  0.28378157939E+01  0.55791397251E+00  0.30913794879E+01  0.42333312982E+01  0.51100000000E-03 0. -1.
        -11    1    3    3    0    0 -0.15090763434E+02  0.13971622831E+02  0.42298022766E+01  0.20995918963E+02  0.51100000000E-03 0.  1.
        -12    1    3    3    0    0  0.12182122718E+01  0.24576968462E+02 -0.58787201144E+01  0.25299619960E+02  0.00000000000E+00 0.  1.
</event>
<event>
 7    1  0.4871930E-013  0.5052886E+02  0.7816164E-02  0.1300439E+00
        -11   -1    0    0    0    0  0.00000000000E+00  0.00000000000E+00  0.45593999997E+02  0.45594000000E+02  0.51100000000E-03 0.  1.
         11   -1    0    0    0    0 -0.00000000000E+00 -0.00000000000E+00 -0.45593999997E+02  0.45594000000E+02  0.51100000000E-03 0. -1.
    9900012    2    1    2    0    0 -0.17393594957E+01  0.34022816763E+02  0.22194333195E+02  0.50528857635E+02  0.29999993266E+02 0.  0.
         12    1    1    2    0    0  0.17393594957E+01 -0.34022816763E+02 -0.22194333195E+02  0.40659142365E+02  0.00000000000E+00 0. -1.
         11    1    3    3    0    0  0.68843712513E+00 -0.27452820784E+01 -0.10281744420E+01  0.30112559356E+01  0.51100000000E-03 0. -1.
        -11    1    3    3    0    0 -0.34292329230E+01  0.35216645464E+01  0.11058294592E+02  0.12101555237E+02  0.51100000000E-03 0.  1.
         12    1    3    3    0    0  0.10014363021E+01  0.33246434295E+02  0.12164213045E+02  0.35416046462E+02  0.00000000000E+00 0. -1.
</event>
<event>
 7    1  0.4871930E-013  0.5052885E+02  0.7816164E-02  0.1300439E+00
        -11   -1    0    0    0    0  0.00000000000E+00  0.00000000000E+00  0.45593999997E+02  0.45594000000E+02  0.51100000000E-03 0.  1.
         11   -1    0    0    0    0 -0.00000000000E+00 -0.00000000000E+00 -0.45593999997E+02  0.45594000000E+02  0.51100000000E-03 0. -1.
    9900012    2    1    2    0    0  0.38161981477E+02 -0.14015556443E+02 -0.62759842218E+00  0.50528849339E+02  0.29999968052E+02 0.  0.
         12    1    1    2    0    0 -0.38161981477E+02  0.14015556443E+02  0.62759842218E+00  0.40659150661E+02  0.00000000000E+00 0. -1.
         11    1    3    3    0    0  0.14277680542E+02 -0.18709749219E+02 -0.40113711630E+01  0.23874630392E+02  0.51100000000E-03 0. -1.
        -11    1    3    3    0    0  0.10717191363E+02 -0.22949637781E+01 -0.12799340695E+01  0.11034640045E+02  0.51100000000E-03 0.  1.
         12    1    3    3    0    0  0.13167109573E+02  0.69891565549E+01  0.46637068103E+01  0.15619578901E+02  0.00000000000E+00 0. -1.
</event>
<event>
 7    1  0.4871930E-013  0.5052886E+02  0.7816164E-02  0.1300439E+00
        -11   -1    0    0    0    0  0.00000000000E+00  0.00000000000E+00  0.45593999997E+02  0.45594000000E+02  0.51100000000E-03 0.  1.
         11   -1    0    0    0    0 -0.00000000000E+00 -0.00000000000E+00 -0.45593999997E+02  0.45594000000E+02  0.51100000000E-03 0. -1.
    9900012    2    1    2    0    0 -0.14639180726E+01 -0.40264128457E+02  0.54609790543E+01  0.50528863404E+02  0.30000010802E+02 0.  0.
         12    1    1    2    0    0  0.14639180726E+01  0.40264128457E+02 -0.54609790543E+01  0.40659136596E+02  0.00000000000E+00 0. -1.
         11    1    3    3    0    0  0.14959032402E+01 -0.12285676523E+02  0.60468107590E+01  0.13774595992E+02  0.51100000000E-03 0. -1.
        -11    1    3    3    0    0 -0.45280801417E+01 -0.29245844683E+02  0.57128927237E+01  0.30140671600E+02  0.51100000000E-03 0.  1.
         12    1    3    3    0    0  0.15682588288E+01  0.12673927484E+01 -0.62987244283E+01  0.66135958114E+01  0.00000000000E+00 0. -1.
</event>
<event>
 7    1  0.4871930E-013  0.5052886E+02  0.7816164E-02  0.1300439E+00
        -11   -1    0    0    0    0  0.00000000000E+00  0.00000000000E+00  0.45593999997E+02  0.45594000000E+02  0.51100000000E-03 0.  1.
         11   -1    0    0    0    0 -0.00000000000E+00 -0.00000000000E+00 -0.45593999997E+02  0.45594000000E+02  0.51100000000E-03 0. -1.
    9900012    2    1    2    0    0 -0.22671626503E+02 -0.21925798525E+02  0.25659744012E+02  0.50528858937E+02  0.29999997224E+02 0.  0.
         12    1    1    2    0    0  0.22671626503E+02  0.21925798525E+02 -0.25659744012E+02  0.40659141063E+02  0.00000000000E+00 0. -1.
         11    1    3    3    0    0  0.28297595929E+01 -0.31516513816E+01  0.26321070626E+01  0.49868260081E+01  0.51100000000E-03 0. -1.
        -11    1    3    3    0    0 -0.95977740205E+01 -0.50286649889E+01  0.21967939624E+02  0.24494797596E+02  0.51100000000E-03 0.  1.
         12    1    3    3    0    0 -0.15903612075E+02 -0.13745482155E+02  0.10596973258E+01  0.21047235332E+02  0.00000000000E+00 0. -1.
</event>
<event>
 7    1  0.4871930E-013  0.5052887E+02  0.7816164E-02  0.1300439E+00
        -11   -1    0    0    0    0  0.00000000000E+00  0.00000000000E+00  0.45593999997E+02  0.45594000000E+02  0.51100000000E-03 0.  1.
         11   -1    0    0    0    0 -0.00000000000E+00 -0.00000000000E+00 -0.45593999997E+02  0.45594000000E+02  0.51100000000E-03 0. -1.
    9900012    2    1    2    0    0 -0.19650333241E+02 -0.17262122577E+02  0.31129547108E+02  0.50528866026E+02  0.30000018774E+02 0.  0.
         12    1    1    2    0    0  0.19650333241E+02  0.17262122577E+02 -0.31129547108E+02  0.40659133974E+02  0.00000000000E+00 0. -1.
         11    1    3    3    0    0 -0.68106412319E+01 -0.11641362906E+01  0.18246294711E+02  0.19510697533E+02  0.51100000000E-03 0.  1.
        -11    1    3    3    0    0 -0.17124418050E+02 -0.10248059359E+02  0.12907225046E+02  0.23766886056E+02  0.51100000000E-03 0. -1.
         12    1    3    3    0    0  0.42847260409E+01 -0.58499269268E+01 -0.23972648258E-01  0.72512824371E+01  0.00000000000E+00 0. -1.
</event>
<event>
 7    1  0.4871930E-013  0.5052884E+02  0.7816164E-02  0.1300439E+00
        -11   -1    0    0    0    0  0.00000000000E+00  0.00000000000E+00  0.45593999997E+02  0.45594000000E+02  0.51100000000E-03 0.  1.
         11   -1    0    0    0    0 -0.00000000000E+00 -0.00000000000E+00 -0.45593999997E+02  0.45594000000E+02  0.51100000000E-03 0. -1.
    9900012    2    1    2    0    0  0.67453987538E+01  0.37506440885E+02  0.14175121767E+02  0.50528836343E+02  0.29999928547E+02 0.  0.
         12    1    1    2    0    0 -0.67453987538E+01 -0.37506440885E+02 -0.14175121767E+02  0.40659163657E+02  0.00000000000E+00 0. -1.
         11    1    3    3    0    0  0.10485321937E+02  0.16027263972E+02 -0.75179022429E+00  0.19167168684E+02  0.51100000000E-03 0. -1.
        -11    1    3    3    0    0  0.61437594743E+01  0.10362552505E+02  0.33256546675E+01  0.12497529921E+02  0.51100000000E-03 0.  1.
        -12    1    3    3    0    0 -0.98836826574E+01  0.11116624408E+02  0.11601257324E+02  0.18864137738E+02  0.00000000000E+00 0.  1.
</event>
<event>
 7    1  0.4871930E-013  0.5052890E+02  0.7816164E-02  0.1300439E+00
        -11   -1    0    0    0    0  0.00000000000E+00  0.00000000000E+00  0.45593999997E+02  0.45594000000E+02  0.51100000000E-03 0.  1.
         11   -1    0    0    0    0 -0.00000000000E+00 -0.00000000000E+00 -0.45593999997E+02  0.45594000000E+02  0.51100000000E-03 0. -1.
    9900012    2    1    2    0    0  0.27478308253E+02  0.41114930142E+01  0.29685017634E+02  0.50528904202E+02  0.30000134811E+02 0.  0.
         12    1    1    2    0    0 -0.27478308253E+02 -0.41114930142E+01 -0.29685017634E+02  0.40659095798E+02  0.00000000000E+00 0. -1.
         11    1    3    3    0    0  0.10185101202E+01  0.23738677207E+01 -0.46991050175E+01  0.53622941962E+01  0.51100000000E-03 0. -1.
        -11    1    3    3    0    0  0.48801636851E+01 -0.39627349213E+01  0.12051441153E+02  0.13592516315E+02  0.51100000000E-03 0.  1.
         12    1    3    3    0    0  0.21579634447E+02  0.57003602149E+01  0.22332681498E+02  0.31574093690E+02  0.00000000000E+00 0. -1.
</event>
<event>
 7    1  0.4871930E-013  0.5052886E+02  0.7816164E-02  0.1300439E+00
        -11   -1    0    0    0    0  0.00000000000E+00  0.00000000000E+00  0.45593999997E+02  0.45594000000E+02  0.51100000000E-03 0.  1.
         11   -1    0    0    0    0 -0.00000000000E+00 -0.00000000000E+00 -0.45593999997E+02  0.45594000000E+02  0.51100000000E-03 0. -1.
    9900012    2    1    2    0    0 -0.22291988426E+02  0.25348478875E+02  0.22664679397E+02  0.50528858083E+02  0.29999994629E+02 0.  0.
         12    1    1    2    0    0  0.22291988426E+02 -0.25348478875E+02 -0.22664679397E+02  0.40659141917E+02  0.00000000000E+00 0. -1.
         11    1    3    3    0    0 -0.18367114752E+02  0.95480279600E+01  0.19210539841E+02  0.28241115125E+02  0.51100000000E-03 0. -1.
        -11    1    3    3    0    0 -0.56480281360E+01  0.42782993108E+01  0.71491796158E+01  0.10065527123E+02  0.51100000000E-03 0.  1.
         12    1    3    3    0    0  0.17231544617E+01  0.11522151604E+02 -0.36950400598E+01  0.12222215836E+02  0.00000000000E+00 0. -1.
</event>
<event>
 7    1  0.4871930E-013  0.5052887E+02  0.7816164E-02  0.1300439E+00
        -11   -1    0    0    0    0  0.00000000000E+00  0.00000000000E+00  0.45593999997E+02  0.45594000000E+02  0.51100000000E-03 0.  1.
         11   -1    0    0    0    0 -0.00000000000E+00 -0.00000000000E+00 -0.45593999997E+02  0.45594000000E+02  0.51100000000E-03 0. -1.
    9900012    2    1    2    0    0  0.20932832874E+02 -0.34338486661E+02  0.59874929395E+01  0.50528865356E+02  0.30000016737E+02 0.  0.
         12    1    1    2    0    0 -0.20932832874E+02  0.34338486661E+02 -0.59874929395E+01  0.40659134644E+02  0.00000000000E+00 0. -1.
         11    1    3    3    0    0  0.31569214719E+00  0.18566188901E+01  0.45232155799E+01  0.48996096455E+01  0.51100000000E-03 0. -1.
        -11    1    3    3    0    0  0.87218165962E+00 -0.19581318466E+02  0.27492674458E+01  0.19792604817E+02  0.51100000000E-03 0.  1.
         12    1    3    3    0    0  0.19744959067E+02 -0.16613787085E+02 -0.12849900861E+01  0.25836650893E+02  0.00000000000E+00 0. -1.
</event>
<event>
 7    1  0.4871930E-013  0.5052886E+02  0.7816164E-02  0.1300439E+00
        -11   -1    0    0    0    0  0.00000000000E+00  0.00000000000E+00  0.45593999997E+02  0.45594000000E+02  0.51100000000E-03 0.  1.
         11   -1    0    0    0    0 -0.00000000000E+00 -0.00000000000E+00 -0.45593999997E+02  0.45594000000E+02  0.51100000000E-03 0. -1.
    9900012    2    1    2    0    0 -0.25324977240E+02  0.10496729535E+02  0.30027152744E+02  0.50528859514E+02  0.29999998979E+02 0.  0.
         12    1    1    2    0    0  0.25324977240E+02 -0.10496729535E+02 -0.30027152744E+02  0.40659140486E+02  0.00000000000E+00 0. -1.
         11    1    3    3    0    0 -0.12258298923E+02  0.61692358931E+01  0.90056445460E+01  0.16414231567E+02  0.51100000000E-03 0. -1.
        -11    1    3    3    0    0 -0.13626165142E+02 -0.69517315935E+01  0.96401342921E+01  0.18081237183E+02  0.51100000000E-03 0.  1.
        -12    1    3    3    0    0  0.55948682458E+00  0.11279225236E+02  0.11381373906E+02  0.16033390765E+02  0.00000000000E+00 0.  1.
</event>
<event>
 7    1  0.4871930E-013  0.5052886E+02  0.7816164E-02  0.1300439E+00
        -11   -1    0    0    0    0  0.00000000000E+00  0.00000000000E+00  0.45593999997E+02  0.45594000000E+02  0.51100000000E-03 0.  1.
         11   -1    0    0    0    0 -0.00000000000E+00 -0.00000000000E+00 -0.45593999997E+02  0.45594000000E+02  0.51100000000E-03 0. -1.
    9900012    2    1    2    0    0  0.53940300240E+01 -0.11367773516E+02  0.38663209374E+02  0.50528860883E+02  0.30000003140E+02 0.  0.
         12    1    1    2    0    0 -0.53940300240E+01  0.11367773516E+02 -0.38663209374E+02  0.40659139117E+02  0.00000000000E+00 0. -1.
         11    1    3    3    0    0 -0.20657052717E+00 -0.33653635788E+01  0.28055440922E+01  0.43862764749E+01  0.51100000000E-03 0. -1.
        -11    1    3    3    0    0  0.77973312719E+01  0.87871854528E+01  0.11203461440E+02  0.16233624107E+02  0.51100000000E-03 0.  1.
        -12    1    3    3    0    0 -0.21967307207E+01 -0.16789595390E+02  0.24654203842E+02  0.29908960301E+02  0.00000000000E+00 0.  1.
</event>
<event>
 7    1  0.4871930E-013  0.5052886E+02  0.7816164E-02  0.1300439E+00
        -11   -1    0    0    0    0  0.00000000000E+00  0.00000000000E+00  0.45593999997E+02  0.45594000000E+02  0.51100000000E-03 0.  1.
         11   -1    0    0    0    0 -0.00000000000E+00 -0.00000000000E+00 -0.45593999997E+02  0.45594000000E+02  0.51100000000E-03 0. -1.
    9900012    2    1    2    0    0  0.28574958377E+02  0.23461374617E+02  0.16917477801E+02  0.50528863262E+02  0.30000010370E+02 0.  0.
         12    1    1    2    0    0 -0.28574958377E+02 -0.23461374617E+02 -0.16917477801E+02  0.40659136738E+02  0.00000000000E+00 0. -1.
         11    1    3    3    0    0  0.36803030961E+01 -0.26343961927E+01 -0.40752635591E+01  0.60903569285E+01  0.51100000000E-03 0. -1.
        -11    1    3    3    0    0  0.44727397587E+01  0.20548756257E+00  0.76545165471E+01  0.88678774190E+01  0.51100000000E-03 0.  1.
        -12    1    3    3    0    0  0.20421915522E+02  0.25890283247E+02  0.13338224813E+02  0.35570628914E+02  0.00000000000E+00 0.  1.
</event>
<event>
 7    1  0.4871930E-013  0.5052888E+02  0.7816164E-02  0.1300439E+00
        -11   -1    0    0    0    0  0.00000000000E+00  0.00000000000E+00  0.45593999997E+02  0.45594000000E+02  0.51100000000E-03 0. -1.
         11   -1    0    0    0    0 -0.00000000000E+00 -0.00000000000E+00 -0.45593999997E+02  0.45594000000E+02  0.51100000000E-03 0.  1.
    9900012    2    1    2    0    0 -0.23718836718E+02 -0.31434386181E+02 -0.10122274205E+02  0.50528876978E+02  0.30000052063E+02 0.  0.
         12    1    1    2    0    0  0.23718836718E+02  0.31434386181E+02  0.10122274205E+02  0.40659123022E+02  0.00000000000E+00 0. -1.
         11    1    3    3    0    0  0.55603291822E+01 -0.67998324886E+01 -0.27488793619E+01  0.92038752977E+01  0.51100000000E-03 0. -1.
        -11    1    3    3    0    0 -0.15763357340E+02 -0.12429297208E+02 -0.10798972417E+02  0.22794487694E+02  0.51100000000E-03 0.  1.
        -12    1    3    3    0    0 -0.13515808560E+02 -0.12205256484E+02  0.34255775741E+01  0.18530513987E+02  0.00000000000E+00 0.  1.
</event>
<event>
 7    1  0.4871930E-013  0.5052886E+02  0.7816164E-02  0.1300439E+00
        -11   -1    0    0    0    0  0.00000000000E+00  0.00000000000E+00  0.45593999997E+02  0.45594000000E+02  0.51100000000E-03 0.  1.
         11   -1    0    0    0    0 -0.00000000000E+00 -0.00000000000E+00 -0.45593999997E+02  0.45594000000E+02  0.51100000000E-03 0. -1.
    9900012    2    1    2    0    0  0.33519151443E+02  0.22983209408E+02 -0.11849336855E+01  0.50528862085E+02  0.30000006794E+02 0.  0.
         12    1    1    2    0    0 -0.33519151443E+02 -0.22983209408E+02  0.11849336855E+01  0.40659137915E+02  0.00000000000E+00 0. -1.
         11    1    3    3    0    0  0.12840502043E+02  0.65262721126E+01  0.14700717719E+01  0.14478668159E+02  0.51100000000E-03 0.  1.
        -11    1    3    3    0    0  0.20831371717E+01 -0.56250339391E+01 -0.38997075312E+01  0.71545919787E+01  0.51100000000E-03 0. -1.
         12    1    3    3    0    0  0.18595512228E+02  0.22081971235E+02  0.12447020738E+01  0.28895601947E+02  0.00000000000E+00 0. -1.
</event>
<event>
 7    1  0.4871930E-013  0.5052886E+02  0.7816164E-02  0.1300439E+00
        -11   -1    0    0    0    0  0.00000000000E+00  0.00000000000E+00  0.45593999997E+02  0.45594000000E+02  0.51100000000E-03 0. -1.
         11   -1    0    0    0    0 -0.00000000000E+00 -0.00000000000E+00 -0.45593999997E+02  0.45594000000E+02  0.51100000000E-03 0.  1.
    9900012    2    1    2    0    0 -0.34908194596E+02 -0.20838721817E+02 -0.57580036030E+00  0.50528856834E+02  0.29999990834E+02 0.  0.
         12    1    1    2    0    0  0.34908194596E+02  0.20838721817E+02  0.57580036030E+00  0.40659143166E+02  0.00000000000E+00 0. -1.
         11    1    3    3    0    0 -0.63368519057E+01 -0.87348545870E+01  0.11290517239E+02  0.15618231543E+02  0.51100000000E-03 0. -1.
        -11    1    3    3    0    0 -0.77653004629E+01 -0.60838841656E+00 -0.73608185601E+01  0.10716887509E+02  0.51100000000E-03 0.  1.
        -12    1    3    3    0    0 -0.20806042227E+02 -0.11495478814E+02 -0.45054990395E+01  0.24193737783E+02  0.00000000000E+00 0.  1.
</event>
<event>
 7    1  0.4871930E-013  0.5052886E+02  0.7816164E-02  0.1300439E+00
        -11   -1    0    0    0    0  0.00000000000E+00  0.00000000000E+00  0.45593999997E+02  0.45594000000E+02  0.51100000000E-03 0.  1.
         11   -1    0    0    0    0 -0.00000000000E+00 -0.00000000000E+00 -0.45593999997E+02  0.45594000000E+02  0.51100000000E-03 0. -1.
    9900012    2    1    2    0    0 -0.31436968861E+02 -0.94988571305E+01  0.23971952368E+02  0.50528858367E+02  0.29999995494E+02 0.  0.
         12    1    1    2    0    0  0.31436968861E+02  0.94988571305E+01 -0.23971952368E+02  0.40659141633E+02  0.00000000000E+00 0. -1.
         11    1    3    3    0    0 -0.68193198275E+01 -0.57848876542E+01  0.13058611326E+02  0.15827045779E+02  0.51100000000E-03 0. -1.
        -11    1    3    3    0    0 -0.25537936565E+02 -0.82491602860E+01  0.51776686983E+01  0.27332089251E+02  0.51100000000E-03 0.  1.
         12    1    3    3    0    0  0.92028753169E+00  0.45351908098E+01  0.57356723442E+01  0.73697233368E+01  0.00000000000E+00 0. -1.
</event>
<event>
 7    1  0.4871930E-013  0.5052883E+02  0.7816164E-02  0.1300439E+00
        -11   -1    0    0    0    0  0.00000000000E+00  0.00000000000E+00  0.45593999997E+02  0.45594000000E+02  0.51100000000E-03 0.  1.
         11   -1    0    0    0    0 -0.00000000000E+00 -0.00000000000E+00 -0.45593999997E+02  0.45594000000E+02  0.51100000000E-03 0. -1.
    9900012    2    1    2    0    0 -0.25394056108E+02  0.25048908961E+01  0.31654949656E+02  0.50528826352E+02  0.29999898181E+02 0.  0.
         12    1    1    2    0    0  0.25394056108E+02 -0.25048908961E+01 -0.31654949656E+02  0.40659173648E+02  0.00000000000E+00 0. -1.
         11    1    3    3    0    0 -0.95500670664E+01 -0.66577670196E+01  0.54527190588E+01  0.12855418626E+02  0.51100000000E-03 0. -1.
        -11    1    3    3    0    0  0.45552731926E+01  0.41664381912E+00  0.67886537377E+01  0.81859590618E+01  0.51100000000E-03 0.  1.
         12    1    3    3    0    0 -0.20399262234E+02  0.87460140966E+01  0.19413576859E+02  0.29487448664E+02  0.00000000000E+00 0. -1.
</event>
<event>
 7    1  0.4871930E-013  0.5052886E+02  0.7816164E-02  0.1300439E+00
        -11   -1    0    0    0    0  0.00000000000E+00  0.00000000000E+00  0.45593999997E+02  0.45594000000E+02  0.51100000000E-03 0. -1.
         11   -1    0    0    0    0 -0.00000000000E+00 -0.00000000000E+00 -0.45593999997E+02  0.45594000000E+02  0.51100000000E-03 0.  1.
    9900012    2    1    2    0    0  0.16245215937E+02  0.37140616269E+02 -0.31358037769E+01  0.50528859785E+02  0.29999999802E+02 0.  0.
         12    1    1    2    0    0 -0.16245215937E+02 -0.37140616269E+02  0.31358037769E+01  0.40659140215E+02  0.00000000000E+00 0. -1.
         11    1    3    3    0    0  0.14967916693E+01 -0.28400968136E+01 -0.15292494180E+01  0.35560004577E+01  0.51100000000E-03 0. -1.
        -11    1    3    3    0    0  0.16063301130E+02  0.19270286417E+02  0.41705271724E+01  0.25431611803E+02  0.51100000000E-03 0.  1.
         12    1    3    3    0    0 -0.13148768622E+01  0.20710426666E+02 -0.57770815313E+01  0.21541247524E+02  0.00000000000E+00 0. -1.
</event>
<event>
 7    1  0.4871930E-013  0.5052887E+02  0.7816164E-02  0.1300439E+00
        -11   -1    0    0    0    0  0.00000000000E+00  0.00000000000E+00  0.45593999997E+02  0.45594000000E+02  0.51100000000E-03 0.  1.
         11   -1    0    0    0    0 -0.00000000000E+00 -0.00000000000E+00 -0.45593999997E+02  0.45594000000E+02  0.51100000000E-03 0. -1.
    9900012    2    1    2    0    0  0.22975973304E+02 -0.92265773462E+00  0.33532349159E+02  0.50528867119E+02  0.30000022093E+02 0.  0.
         12    1    1    2    0    0 -0.22975973304E+02  0.92265773462E+00 -0.33532349159E+02  0.40659132881E+02  0.00000000000E+00 0. -1.
         11    1    3    3    0    0  0.89291092962E+01 -0.21120106958E+01  0.38272277463E+01  0.99416927374E+01  0.51100000000E-03 0. -1.
        -11    1    3    3    0    0  0.34286096486E-01  0.29678301584E+01 -0.34485757474E+01  0.45499303656E+01  0.51100000000E-03 0.  1.
        -12    1    3    3    0    0  0.14012577912E+02 -0.17784771972E+01  0.33153697160E+02  0.36037244016E+02  0.00000000000E+00 0.  1.
</event>
<event>
 7    1  0.4871930E-013  0.5052887E+02  0.7816164E-02  0.1300439E+00
        -11   -1    0    0    0    0  0.00000000000E+00  0.00000000000E+00  0.45593999997E+02  0.45594000000E+02  0.51100000000E-03 0. -1.
         11   -1    0    0    0    0 -0.00000000000E+00 -0.00000000000E+00 -0.45593999997E+02  0.45594000000E+02  0.51100000000E-03 0.  1.
    9900012    2    1    2    0    0  0.27366418020E+01 -0.29398804992E+02  0.27953284456E+02  0.50528867506E+02  0.30000023272E+02 0.  0.
         12    1    1    2    0    0 -0.27366418020E+01  0.29398804992E+02 -0.27953284456E+02  0.40659132494E+02  0.00000000000E+00 0. -1.
         11    1    3    3    0    0 -0.74492450502E+01 -0.36466380190E+01  0.88856441711E+01  0.12154994581E+02  0.51100000000E-03 0. -1.
        -11    1    3    3    0    0 -0.15600438227E+01 -0.17638041115E+02  0.51603317406E+01  0.18443515258E+02  0.51100000000E-03 0.  1.
        -12    1    3    3    0    0  0.11745930675E+02 -0.81141258571E+01  0.13907308544E+02  0.19930357668E+02  0.00000000000E+00 0.  1.
</event>
<event>
 7    1  0.4871930E-013  0.5052886E+02  0.7816164E-02  0.1300439E+00
        -11   -1    0    0    0    0  0.00000000000E+00  0.00000000000E+00  0.45593999997E+02  0.45594000000E+02  0.51100000000E-03 0. -1.
         11   -1    0    0    0    0 -0.00000000000E+00 -0.00000000000E+00 -0.45593999997E+02  0.45594000000E+02  0.51100000000E-03 0.  1.
    9900012    2    1    2    0    0  0.97800130163E+01  0.25861447275E+02 -0.29811121335E+02  0.50528855088E+02  0.29999985525E+02 0.  0.
         12    1    1    2    0    0 -0.97800130163E+01 -0.25861447275E+02  0.29811121335E+02  0.40659144912E+02  0.00000000000E+00 0. -1.
         11    1    3    3    0    0  0.45971973368E+01  0.33034818462E+01 -0.77188580994E+00  0.57134073569E+01  0.51100000000E-03 0.  1.
        -11    1    3    3    0    0  0.29922915185E+01  0.15402411466E+02 -0.91983621250E+00  0.15717321223E+02  0.51100000000E-03 0. -1.
         12    1    3    3    0    0  0.21905241610E+01  0.71555539627E+01 -0.28119399312E+02  0.29098126508E+02  0.00000000000E+00 0. -1.
</event>
<event>
 7    1  0.4871930E-013  0.5052886E+02  0.7816164E-02  0.1300439E+00
        -11   -1    0    0    0    0  0.00000000000E+00  0.00000000000E+00  0.45593999997E+02  0.45594000000E+02  0.51100000000E-03 0.  1.
         11   -1    0    0    0    0 -0.00000000000E+00 -0.00000000000E+00 -0.45593999997E+02  0.45594000000E+02  0.51100000000E-03 0. -1.
    9900012    2    1    2    0    0  0.95012834348E+01  0.36928788022E+02  0.14112258983E+02  0.50528860495E+02  0.30000001961E+02 0.  0.
         12    1    1    2    0    0 -0.95012834348E+01 -0.36928788022E+02 -0.14112258983E+02  0.40659139505E+02  0.00000000000E+00 0. -1.
         11    1    3    3    0    0  0.56405552783E+01 -0.88214933619E+00  0.10490410832E+01  0.58046997126E+01  0.51100000000E-03 0. -1.
        -11    1    3    3    0    0  0.11520398228E+02  0.27793046670E+02  0.79703236028E+01  0.31123930940E+02  0.51100000000E-03 0.  1.
         12    1    3    3    0    0 -0.76596700719E+01  0.10017890688E+02  0.50928942973E+01  0.13600229842E+02  0.00000000000E+00 0. -1.
</event>
<event>
 7    1  0.4871930E-013  0.5052891E+02  0.7816164E-02  0.1300439E+00
        -11   -1    0    0    0    0  0.00000000000E+00  0.00000000000E+00  0.45593999997E+02  0.45594000000E+02  0.51100000000E-03 0.  1.
         11   -1    0    0    0    0 -0.00000000000E+00 -0.00000000000E+00 -0.45593999997E+02  0.45594000000E+02  0.51100000000E-03 0. -1.
    9900012    2    1    2    0    0 -0.73091045538E+01  0.25039221823E+02  0.31189359052E+02  0.50528908065E+02  0.30000146555E+02 0.  0.
         12    1    1    2    0    0  0.73091045538E+01 -0.25039221823E+02 -0.31189359052E+02  0.40659091935E+02  0.00000000000E+00 0. -1.
         11    1    3    3    0    0 -0.42293417521E+01 -0.57218714197E+00  0.20102755228E+02  0.20550802850E+02  0.51100000000E-03 0. -1.
        -11    1    3    3    0    0 -0.95912786653E+00  0.47133570845E+01 -0.20223894089E+01  0.52178271774E+01  0.51100000000E-03 0.  1.
        -12    1    3    3    0    0 -0.21206349352E+01  0.20898051881E+02  0.13108993233E+02  0.24760278038E+02  0.00000000000E+00 0.  1.
</event>
<event>
 7    1  0.4871930E-013  0.5052887E+02  0.7816164E-02  0.1300439E+00
        -11   -1    0    0    0    0  0.00000000000E+00  0.00000000000E+00  0.45593999997E+02  0.45594000000E+02  0.51100000000E-03 0. -1.
         11   -1    0    0    0    0 -0.00000000000E+00 -0.00000000000E+00 -0.45593999997E+02  0.45594000000E+02  0.51100000000E-03 0.  1.
    9900012    2    1    2    0    0 -0.29835278557E+02  0.26898901781E+02 -0.62825100884E+01  0.50528871915E+02  0.30000036674E+02 0.  0.
         12    1    1    2    0    0  0.29835278557E+02 -0.26898901781E+02  0.62825100884E+01  0.40659128085E+02  0.00000000000E+00 0. -1.
         11    1    3    3    0    0 -0.61135807182E+00  0.15058555905E+02 -0.96169613967E-01  0.15071267813E+02  0.51100000000E-03 0. -1.
        -11    1    3    3    0    0 -0.69178577245E+01  0.89510902597E+00 -0.79158683613E+01  0.10550779490E+02  0.51100000000E-03 0.  1.
        -12    1    3    3    0    0 -0.22306062760E+02  0.10945236850E+02  0.17295278868E+01  0.24906824613E+02  0.00000000000E+00 0.  1.
</event>
<event>
 7    1  0.4871930E-013  0.5052886E+02  0.7816164E-02  0.1300439E+00
        -11   -1    0    0    0    0  0.00000000000E+00  0.00000000000E+00  0.45593999997E+02  0.45594000000E+02  0.51100000000E-03 0. -1.
         11   -1    0    0    0    0 -0.00000000000E+00 -0.00000000000E+00 -0.45593999997E+02  0.45594000000E+02  0.51100000000E-03 0.  1.
    9900012    2    1    2    0    0  0.38903584154E+02  0.90375790356E+01 -0.76156986203E+01  0.50528861294E+02  0.30000004389E+02 0.  0.
         12    1    1    2    0    0 -0.38903584154E+02 -0.90375790356E+01  0.76156986203E+01  0.40659138706E+02  0.00000000000E+00 0. -1.
         11    1    3    3    0    0  0.11562267189E+02 -0.88824798218E+00  0.91567044219E+01  0.14775663882E+02  0.51100000000E-03 0. -1.
        -11    1    3    3    0    0  0.61425404388E+01 -0.67172634635E+00  0.82543445455E+00  0.62340485742E+01  0.51100000000E-03 0.  1.
         12    1    3    3    0    0  0.21198776526E+02  0.10597553364E+02 -0.17597837497E+02  0.29519148837E+02  0.00000000000E+00 0. -1.
</event>
<event>
 7    1  0.4871930E-013  0.5052889E+02  0.7816164E-02  0.1300439E+00
        -11   -1    0    0    0    0  0.00000000000E+00  0.00000000000E+00  0.45593999997E+02  0.45594000000E+02  0.51100000000E-03 0.  1.
         11   -1    0    0    0    0 -0.00000000000E+00 -0.00000000000E+00 -0.45593999997E+02  0.45594000000E+02  0.51100000000E-03 0. -1.
    9900012    2    1    2    0    0  0.53841361850E+01  0.22299416168E+02  0.33569483796E+02  0.50528891226E+02  0.30000095371E+02 0.  0.
         12    1    1    2    0    0 -0.53841361850E+01 -0.22299416168E+02 -0.33569483796E+02  0.40659108774E+02  0.00000000000E+00 0. -1.
         11    1    3    3    0    0 -0.42362792293E+00  0.23778268208E+02  0.18985643719E+02  0.30430908092E+02  0.51100000000E-03 0. -1.
        -11    1    3    3    0    0  0.40245862663E+01  0.47717371226E+01  0.11070767742E+02  0.12709392922E+02  0.51100000000E-03 0.  1.
         12    1    3    3    0    0  0.17831778417E+01 -0.62505891626E+01  0.35130723347E+01  0.73885902121E+01  0.00000000000E+00 0. -1.
</event>
<event>
 7    1  0.4871930E-013  0.5052885E+02  0.7816164E-02  0.1300439E+00
        -11   -1    0    0    0    0  0.00000000000E+00  0.00000000000E+00  0.45593999997E+02  0.45594000000E+02  0.51100000000E-03 0.  1.
         11   -1    0    0    0    0 -0.00000000000E+00 -0.00000000000E+00 -0.45593999997E+02  0.45594000000E+02  0.51100000000E-03 0. -1.
    9900012    2    1    2    0    0  0.35802164688E+02  0.50663219546E+01  0.18593105525E+02  0.50528853581E+02  0.29999980944E+02 0.  0.
         12    1    1    2    0    0 -0.35802164688E+02 -0.50663219546E+01 -0.18593105525E+02  0.40659146419E+02  0.00000000000E+00 0. -1.
         11    1    3    3    0    0  0.89191747268E+01 -0.26277200676E+01  0.12529632171E+02  0.15602829011E+02  0.51100000000E-03 0. -1.
        -11    1    3    3    0    0  0.26485703547E+02  0.59860406033E+01  0.11294398659E+02  0.29408988690E+02  0.51100000000E-03 0.  1.
        -12    1    3    3    0    0  0.39728641444E+00  0.17080014189E+01 -0.52309253051E+01  0.55170358789E+01  0.00000000000E+00 0.  1.
</event>
<event>
 7    1  0.4871930E-013  0.5052886E+02  0.7816164E-02  0.1300439E+00
        -11   -1    0    0    0    0  0.00000000000E+00  0.00000000000E+00  0.45593999997E+02  0.45594000000E+02  0.51100000000E-03 0. -1.
         11   -1    0    0    0    0 -0.00000000000E+00 -0.00000000000E+00 -0.45593999997E+02  0.45594000000E+02  0.51100000000E-03 0.  1.
    9900012    2    1    2    0    0  0.61115320753E+01  0.40195832910E+02  0.33131743707E+00  0.50528861065E+02  0.30000003694E+02 0.  0.
         12    1    1    2    0    0 -0.61115320753E+01 -0.40195832910E+02 -0.33131743707E+00  0.40659138935E+02  0.00000000000E+00 0. -1.
         11    1    3    3    0    0  0.10372600555E+02  0.20653570565E+02 -0.36160221951E+01  0.23393085221E+02  0.51100000000E-03 0.  1.
        -11    1    3    3    0    0  0.28126589106E+01  0.15145591711E+02 -0.36846307288E+01  0.15839081485E+02  0.51100000000E-03 0. -1.
         12    1    3    3    0    0 -0.70737273902E+01  0.43966706337E+01  0.76319703609E+01  0.11296694359E+02  0.00000000000E+00 0. -1.
</event>
<event>
 7    1  0.4871930E-013  0.5052886E+02  0.7816164E-02  0.1300439E+00
        -11   -1    0    0    0    0  0.00000000000E+00  0.00000000000E+00  0.45593999997E+02  0.45594000000E+02  0.51100000000E-03 0.  1.
         11   -1    0    0    0    0 -0.00000000000E+00 -0.00000000000E+00 -0.45593999997E+02  0.45594000000E+02  0.51100000000E-03 0. -1.
    9900012    2    1    2    0    0 -0.14897853019E+02  0.10240552573E+01  0.37817600094E+02  0.50528860922E+02  0.30000003257E+02 0.  0.
         12    1    1    2    0    0  0.14897853019E+02 -0.10240552573E+01 -0.37817600094E+02  0.40659139078E+02  0.00000000000E+00 0. -1.
         11    1    3    3    0    0 -0.34169086513E+01  0.75805976757E+00  0.25125698685E+02  0.25368300180E+02  0.51100000000E-03 0. -1.
        -11    1    3    3    0    0 -0.15489756199E+02 -0.74075932792E+00  0.47688048503E+01  0.16224141625E+02  0.51100000000E-03 0.  1.
         12    1    3    3    0    0  0.40088118315E+01  0.10067548177E+01  0.79230965586E+01  0.89364191173E+01  0.00000000000E+00 0. -1.
</event>
<event>
 7    1  0.4871930E-013  0.5052887E+02  0.7816164E-02  0.1300439E+00
        -11   -1    0    0    0    0  0.00000000000E+00  0.00000000000E+00  0.45593999997E+02  0.45594000000E+02  0.51100000000E-03 0.  1.
         11   -1    0    0    0    0 -0.00000000000E+00 -0.00000000000E+00 -0.45593999997E+02  0.45594000000E+02  0.51100000000E-03 0. -1.
    9900012    2    1    2    0    0 -0.26378742704E+02  0.91085839576E+01  0.29569593844E+02  0.50528865129E+02  0.30000016046E+02 0.  0.
         12    1    1    2    0    0  0.26378742704E+02 -0.91085839576E+01 -0.29569593844E+02  0.40659134871E+02  0.00000000000E+00 0. -1.
         11    1    3    3    0    0  0.36427688073E+00  0.23696257147E+01  0.21518891876E+01  0.32215603378E+01  0.51100000000E-03 0. -1.
        -11    1    3    3    0    0 -0.29263966738E+02  0.11519221656E+02  0.27681294515E+02  0.41896614220E+02  0.51100000000E-03 0.  1.
        -12    1    3    3    0    0  0.25209471533E+01 -0.47802634128E+01 -0.26358985841E+00  0.54106905713E+01  0.00000000000E+00 0.  1.
</event>
<event>
 7    1  0.4871930E-013  0.5052885E+02  0.7816164E-02  0.1300439E+00
        -11   -1    0    0    0    0  0.00000000000E+00  0.00000000000E+00  0.45593999997E+02  0.45594000000E+02  0.51100000000E-03 0. -1.
         11   -1    0    0    0    0 -0.00000000000E+00 -0.00000000000E+00 -0.45593999997E+02  0.45594000000E+02  0.51100000000E-03 0.  1.
    9900012    2    1    2    0    0  0.11118969957E+02 -0.17516198147E+02 -0.34967383884E+02  0.50528848188E+02  0.29999964551E+02 0.  0.
         12    1    1    2    0    0 -0.11118969957E+02  0.17516198147E+02  0.34967383884E+02  0.40659151812E+02  0.00000000000E+00 0. -1.
         11    1    3    3    0    0 -0.44648570425E+01 -0.35863566707E+00  0.49301938583E-01  0.44795087782E+01  0.51100000000E-03 0. -1.
        -11    1    3    3    0    0  0.90687477337E+01 -0.82389467032E+01 -0.36342725455E+01  0.12780076895E+02  0.51100000000E-03 0.  1.
         12    1    3    3    0    0  0.65150792659E+01 -0.89186157770E+01 -0.31382413277E+02  0.33269262515E+02  0.00000000000E+00 0. -1.
</event>
<event>
 7    1  0.4871930E-013  0.5052886E+02  0.7816164E-02  0.1300439E+00
        -11   -1    0    0    0    0  0.00000000000E+00  0.00000000000E+00  0.45593999997E+02  0.45594000000E+02  0.51100000000E-03 0. -1.
         11   -1    0    0    0    0 -0.00000000000E+00 -0.00000000000E+00 -0.45593999997E+02  0.45594000000E+02  0.51100000000E-03 0.  1.
    9900012    2    1    2    0    0  0.24469136646E+02  0.22450689073E+02 -0.23460475604E+02  0.50528855842E+02  0.29999987817E+02 0.  0.
         12    1    1    2    0    0 -0.24469136646E+02 -0.22450689073E+02  0.23460475604E+02  0.40659144158E+02  0.00000000000E+00 0. -1.
         11    1    3    3    0    0 -0.11193970450E+01  0.86757279990E+01  0.27038044891E+01  0.91559742810E+01  0.51100000000E-03 0. -1.
        -11    1    3    3    0    0  0.12633143206E+02  0.13859940237E+02 -0.12468309796E+02  0.22520057728E+02  0.51100000000E-03 0.  1.
        -12    1    3    3    0    0  0.12955390485E+02 -0.84979163129E-01 -0.13695970297E+02  0.18852823833E+02  0.00000000000E+00 0.  1.
</event>
<event>
 7    1  0.4871930E-013  0.5052885E+02  0.7816164E-02  0.1300439E+00
        -11   -1    0    0    0    0  0.00000000000E+00  0.00000000000E+00  0.45593999997E+02  0.45594000000E+02  0.51100000000E-03 0. -1.
         11   -1    0    0    0    0 -0.00000000000E+00 -0.00000000000E+00 -0.45593999997E+02  0.45594000000E+02  0.51100000000E-03 0.  1.
    9900012    2    1    2    0    0 -0.35644224101E+02 -0.19506558480E+02 -0.14662716286E+01  0.50528849886E+02  0.29999969715E+02 0.  0.
         12    1    1    2    0    0  0.35644224101E+02  0.19506558480E+02  0.14662716286E+01  0.40659150114E+02  0.00000000000E+00 0. -1.
         11    1    3    3    0    0  0.99402880166E+00 -0.57192957624E+01  0.12743553242E+01  0.59432666968E+01  0.51100000000E-03 0.  1.
        -11    1    3    3    0    0 -0.25739884141E+02 -0.16164442944E+02  0.52759618925E+01  0.30849094402E+02  0.51100000000E-03 0. -1.
        -12    1    3    3    0    0 -0.10898368761E+02  0.23771802267E+01 -0.80165888452E+01  0.13736488787E+02  0.00000000000E+00 0.  1.
</event>
<event>
 7    1  0.4871930E-013  0.5052886E+02  0.7816164E-02  0.1300439E+00
        -11   -1    0    0    0    0  0.00000000000E+00  0.00000000000E+00  0.45593999997E+02  0.45594000000E+02  0.51100000000E-03 0. -1.
         11   -1    0    0    0    0 -0.00000000000E+00 -0.00000000000E+00 -0.45593999997E+02  0.45594000000E+02  0.51100000000E-03 0.  1.
    9900012    2    1    2    0    0 -0.36902435236E+02  0.16336655856E+02 -0.49487029035E+01  0.50528859437E+02  0.29999998745E+02 0.  0.
         12    1    1    2    0    0  0.36902435236E+02 -0.16336655856E+02  0.49487029035E+01  0.40659140563E+02  0.00000000000E+00 0. -1.
         11    1    3    3    0    0 -0.44781196948E+01  0.46004843878E+01  0.66889823808E+00  0.64548770490E+01  0.51100000000E-03 0. -1.
        -11    1    3    3    0    0 -0.34304059315E+02  0.16206647794E+02 -0.19429838744E+01  0.37989460444E+02  0.51100000000E-03 0.  1.
        -12    1    3    3    0    0  0.18797437739E+01 -0.44704763255E+01 -0.36746172672E+01  0.60845219445E+01  0.00000000000E+00 0.  1.
</event>
<event>
 7    1  0.4871930E-013  0.5052885E+02  0.7816164E-02  0.1300439E+00
        -11   -1    0    0    0    0  0.00000000000E+00  0.00000000000E+00  0.45593999997E+02  0.45594000000E+02  0.51100000000E-03 0.  1.
         11   -1    0    0    0    0 -0.00000000000E+00 -0.00000000000E+00 -0.45593999997E+02  0.45594000000E+02  0.51100000000E-03 0. -1.
    9900012    2    1    2    0    0 -0.15269589895E+02  0.24727739868E+02  0.28434920307E+02  0.50528853582E+02  0.29999980949E+02 0.  0.
         12    1    1    2    0    0  0.15269589895E+02 -0.24727739868E+02 -0.28434920307E+02  0.40659146418E+02  0.00000000000E+00 0. -1.
         11    1    3    3    0    0  0.29540263489E+00  0.16951573988E+02  0.12866211211E+02  0.21283385881E+02  0.51100000000E-03 0.  1.
        -11    1    3    3    0    0 -0.47360081578E+01 -0.29495116673E+01  0.12513028006E+02  0.13700557013E+02  0.51100000000E-03 0. -1.
         12    1    3    3    0    0 -0.10828984372E+02  0.10725677547E+02  0.30556810910E+01  0.15544910688E+02  0.00000000000E+00 0. -1.
</event>
<event>
 7    1  0.4871930E-013  0.5052887E+02  0.7816164E-02  0.1300439E+00
        -11   -1    0    0    0    0  0.00000000000E+00  0.00000000000E+00  0.45593999997E+02  0.45594000000E+02  0.51100000000E-03 0. -1.
         11   -1    0    0    0    0 -0.00000000000E+00 -0.00000000000E+00 -0.45593999997E+02  0.45594000000E+02  0.51100000000E-03 0.  1.
    9900012    2    1    2    0    0  0.78736839184E+01  0.36870276030E+02 -0.15223428814E+02  0.50528868949E+02  0.30000027658E+02 0.  0.
         12    1    1    2    0    0 -0.78736839184E+01 -0.36870276030E+02  0.15223428814E+02  0.40659131051E+02  0.00000000000E+00 0. -1.
         11    1    3    3    0    0 -0.15757464550E+01  0.44043307570E+01 -0.69944947290E+01  0.84145150236E+01  0.51100000000E-03 0. -1.
        -11    1    3    3    0    0  0.27274274163E+00 -0.18232346350E+01  0.41345435163E+01  0.45269220765E+01  0.51100000000E-03 0.  1.
        -12    1    3    3    0    0  0.91766876318E+01  0.34289179908E+02 -0.12363477601E+02  0.37587431849E+02  0.00000000000E+00 0.  1.
</event>
<event>
 7    1  0.4871930E-013  0.5052886E+02  0.7816164E-02  0.1300439E+00
        -11   -1    0    0    0    0  0.00000000000E+00  0.00000000000E+00  0.45593999997E+02  0.45594000000E+02  0.51100000000E-03 0. -1.
         11   -1    0    0    0    0 -0.00000000000E+00 -0.00000000000E+00 -0.45593999997E+02  0.45594000000E+02  0.51100000000E-03 0.  1.
    9900012    2    1    2    0    0  0.18604568042E+02  0.35036259068E+02 -0.89160785965E+01  0.50528857620E+02  0.29999993223E+02 0.  0.
         12    1    1    2    0    0 -0.18604568042E+02 -0.35036259068E+02  0.89160785965E+01  0.40659142380E+02  0.00000000000E+00 0. -1.
         11    1    3    3    0    0  0.65098800339E+01  0.91636112107E+01 -0.35589756748E+00  0.11246198105E+02  0.51100000000E-03 0. -1.
        -11    1    3    3    0    0 -0.59222327353E+01  0.17060765734E+02 -0.61701261096E+01  0.19084365970E+02  0.51100000000E-03 0.  1.
         12    1    3    3    0    0  0.18016920744E+02  0.88118821235E+01 -0.23900549194E+01  0.20198293546E+02  0.00000000000E+00 0. -1.
</event>
<event>
 7    1  0.4871930E-013  0.5052886E+02  0.7816164E-02  0.1300439E+00
        -11   -1    0    0    0    0  0.00000000000E+00  0.00000000000E+00  0.45593999997E+02  0.45594000000E+02  0.51100000000E-03 0. -1.
         11   -1    0    0    0    0 -0.00000000000E+00 -0.00000000000E+00 -0.45593999997E+02  0.45594000000E+02  0.51100000000E-03 0.  1.
    9900012    2    1    2    0    0 -0.19004307572E+02 -0.30142766999E+02 -0.19580992466E+02  0.50528863578E+02  0.30000011331E+02 0.  0.
         12    1    1    2    0    0  0.19004307572E+02  0.30142766999E+02  0.19580992466E+02  0.40659136422E+02  0.00000000000E+00 0. -1.
         11    1    3    3    0    0 -0.67364389485E+01 -0.68327491288E+01  0.17471609024E+01  0.97528786440E+01  0.51100000000E-03 0. -1.
        -11    1    3    3    0    0 -0.88786466540E+01 -0.27545906161E+02 -0.15566004040E+02  0.32861950561E+02  0.51100000000E-03 0.  1.
         12    1    3    3    0    0 -0.33892219697E+01  0.42358882910E+01 -0.57621493284E+01  0.79140343730E+01  0.00000000000E+00 0. -1.
</event>
<event>
 7    1  0.4871930E-013  0.5052885E+02  0.7816164E-02  0.1300439E+00
        -11   -1    0    0    0    0  0.00000000000E+00  0.00000000000E+00  0.45593999997E+02  0.45594000000E+02  0.51100000000E-03 0.  1.
         11   -1    0    0    0    0 -0.00000000000E+00 -0.00000000000E+00 -0.45593999997E+02  0.45594000000E+02  0.51100000000E-03 0. -1.
    9900012    2    1    2    0    0 -0.28978057174E+02 -0.95830563085E+01  0.26862688392E+02  0.50528846130E+02  0.29999958297E+02 0.  0.
         12    1    1    2    0    0  0.28978057174E+02  0.95830563085E+01 -0.26862688392E+02  0.40659153870E+02  0.00000000000E+00 0. -1.
         11    1    3    3    0    0 -0.17311991366E+02 -0.46211725584E+01  0.56728016815E+01  0.18794705639E+02  0.51100000000E-03 0. -1.
        -11    1    3    3    0    0 -0.52309663075E+01  0.67142093789E+01  0.26810720108E+01  0.89236631201E+01  0.51100000000E-03 0.  1.
        -12    1    3    3    0    0 -0.64350995008E+01 -0.11676093129E+02  0.18508814699E+02  0.22810477371E+02  0.00000000000E+00 0.  1.
</event>
<event>
 7    1  0.4871930E-013  0.5052886E+02  0.7816164E-02  0.1300439E+00
        -11   -1    0    0    0    0  0.00000000000E+00  0.00000000000E+00  0.45593999997E+02  0.45594000000E+02  0.51100000000E-03 0.  1.
         11   -1    0    0    0    0 -0.00000000000E+00 -0.00000000000E+00 -0.45593999997E+02  0.45594000000E+02  0.51100000000E-03 0. -1.
    9900012    2    1    2    0    0  0.68790208459E+01 -0.14258113945E+02  0.37450644859E+02  0.50528861526E+02  0.30000005095E+02 0.  0.
         12    1    1    2    0    0 -0.68790208459E+01  0.14258113945E+02 -0.37450644859E+02  0.40659138474E+02  0.00000000000E+00 0. -1.
         11    1    3    3    0    0  0.97393190928E+01 -0.37351716995E+01  0.49778670125E+01  0.11557897917E+02  0.51100000000E-03 0. -1.
        -11    1    3    3    0    0  0.57684646545E+01 -0.11303401676E+02  0.16691210828E+02  0.20967560494E+02  0.51100000000E-03 0.  1.
         12    1    3    3    0    0 -0.86287629013E+01  0.78045943124E+00  0.15781567019E+02  0.18003403114E+02  0.00000000000E+00 0. -1.
</event>
<event>
 7    1  0.4871930E-013  0.5052885E+02  0.7816164E-02  0.1300439E+00
        -11   -1    0    0    0    0  0.00000000000E+00  0.00000000000E+00  0.45593999997E+02  0.45594000000E+02  0.51100000000E-03 0.  1.
         11   -1    0    0    0    0 -0.00000000000E+00 -0.00000000000E+00 -0.45593999997E+02  0.45594000000E+02  0.51100000000E-03 0. -1.
    9900012    2    1    2    0    0  0.13615090262E+02  0.18503313625E+02  0.33547322837E+02  0.50528853827E+02  0.29999981694E+02 0.  0.
         12    1    1    2    0    0 -0.13615090262E+02 -0.18503313625E+02 -0.33547322837E+02  0.40659146173E+02  0.00000000000E+00 0. -1.
         11    1    3    3    0    0  0.12458354278E+02  0.90216414121E+01  0.80986471954E+01  0.17383575344E+02  0.51100000000E-03 0. -1.
        -11    1    3    3    0    0 -0.47752996300E+01  0.12951145817E+02  0.20343298705E+02  0.24584252419E+02  0.51100000000E-03 0.  1.
         12    1    3    3    0    0  0.59320356137E+01 -0.34694736041E+01  0.51053769366E+01  0.85610260644E+01  0.00000000000E+00 0. -1.
</event>
<event>
 7    1  0.4871930E-013  0.5052885E+02  0.7816164E-02  0.1300439E+00
        -11   -1    0    0    0    0  0.00000000000E+00  0.00000000000E+00  0.45593999997E+02  0.45594000000E+02  0.51100000000E-03 0.  1.
         11   -1    0    0    0    0 -0.00000000000E+00 -0.00000000000E+00 -0.45593999997E+02  0.45594000000E+02  0.51100000000E-03 0. -1.
    9900012    2    1    2    0    0 -0.13350083138E+02 -0.35303819520E+02  0.15118933818E+02  0.50528849096E+02  0.29999967311E+02 0.  0.
         12    1    1    2    0    0  0.13350083138E+02  0.35303819520E+02 -0.15118933818E+02  0.40659150904E+02  0.00000000000E+00 0. -1.
         11    1    3    3    0    0  0.40433938513E+01  0.11313640712E+01 -0.78288421765E+00  0.42710568315E+01  0.51100000000E-03 0. -1.
        -11    1    3    3    0    0 -0.41434255465E+01 -0.97929931551E+01 -0.29478347394E+01  0.11034510415E+02  0.51100000000E-03 0.  1.
        -12    1    3    3    0    0 -0.13250051442E+02 -0.26642190436E+02  0.18849652775E+02  0.35223281849E+02  0.00000000000E+00 0.  1.
</event>
<event>
 7    1  0.4871930E-013  0.5052887E+02  0.7816164E-02  0.1300439E+00
        -11   -1    0    0    0    0  0.00000000000E+00  0.00000000000E+00  0.45593999997E+02  0.45594000000E+02  0.51100000000E-03 0.  1.
         11   -1    0    0    0    0 -0.00000000000E+00 -0.00000000000E+00 -0.45593999997E+02  0.45594000000E+02  0.51100000000E-03 0. -1.
    9900012    2    1    2    0    0  0.22361830134E+02  0.89759274057E+01  0.32749751264E+02  0.50528869075E+02  0.30000028042E+02 0.  0.
         12    1    1    2    0    0 -0.22361830134E+02 -0.89759274057E+01 -0.32749751264E+02  0.40659130925E+02  0.00000000000E+00 0. -1.
         11    1    3    3    0    0  0.81150873852E+01  0.10927959631E+02  0.11134815415E+02  0.17585762979E+02  0.51100000000E-03 0. -1.
        -11    1    3    3    0    0  0.18286576077E+02 -0.48346304182E+00  0.22018195616E+02  0.28625749590E+02  0.51100000000E-03 0.  1.
         12    1    3    3    0    0 -0.40398333282E+01 -0.14685691834E+01 -0.40325976760E+00  0.43173565067E+01  0.00000000000E+00 0. -1.
</event>
<event>
 7    1  0.4871930E-013  0.5052886E+02  0.7816164E-02  0.1300439E+00
        -11   -1    0    0    0    0  0.00000000000E+00  0.00000000000E+00  0.45593999997E+02  0.45594000000E+02  0.51100000000E-03 0.  1.
         11   -1    0    0    0    0 -0.00000000000E+00 -0.00000000000E+00 -0.45593999997E+02  0.45594000000E+02  0.51100000000E-03 0. -1.
    9900012    2    1    2    0    0 -0.83043655490E+01 -0.39215826044E+02  0.68060272733E+01  0.50528861953E+02  0.30000006392E+02 0.  0.
         12    1    1    2    0    0  0.83043655490E+01  0.39215826044E+02 -0.68060272733E+01  0.40659138047E+02  0.00000000000E+00 0. -1.
         11    1    3    3    0    0  0.43257622216E+01 -0.99072536795E+01 -0.11763607623E+01  0.10874268673E+02  0.51100000000E-03 0. -1.
        -11    1    3    3    0    0 -0.25103607669E+01 -0.75977384345E+01  0.12920303224E+02  0.15197426630E+02  0.51100000000E-03 0.  1.
         12    1    3    3    0    0 -0.10119767004E+02 -0.21710833930E+02 -0.49379151885E+01  0.24457166650E+02  0.00000000000E+00 0. -1.
</event>
<event>
 7    1  0.4871930E-013  0.5052886E+02  0.7816164E-02  0.1300439E+00
        -11   -1    0    0    0    0  0.00000000000E+00  0.00000000000E+00  0.45593999997E+02  0.45594000000E+02  0.51100000000E-03 0. -1.
         11   -1    0    0    0    0 -0.00000000000E+00 -0.00000000000E+00 -0.45593999997E+02  0.45594000000E+02  0.51100000000E-03 0.  1.
    9900012    2    1    2    0    0 -0.28523226294E+02  0.28181765281E+02  0.67364410354E+01  0.50528856252E+02  0.29999989063E+02 0.  0.
         12    1    1    2    0    0  0.28523226294E+02 -0.28181765281E+02 -0.67364410354E+01  0.40659143748E+02  0.00000000000E+00 0. -1.
         11    1    3    3    0    0 -0.24554247261E+02  0.30003404667E+02  0.68369003490E+01  0.39368242999E+02  0.51100000000E-03 0. -1.
        -11    1    3    3    0    0 -0.53287124228E+01  0.62113155726E+00  0.36456587717E+01  0.64862784890E+01  0.51100000000E-03 0.  1.
         12    1    3    3    0    0  0.13597333906E+01 -0.24427709435E+01 -0.37461180853E+01  0.46743347639E+01  0.00000000000E+00 0. -1.
</event>
<event>
 7    1  0.4871930E-013  0.5052886E+02  0.7816164E-02  0.1300439E+00
        -11   -1    0    0    0    0  0.00000000000E+00  0.00000000000E+00  0.45593999997E+02  0.45594000000E+02  0.51100000000E-03 0. -1.
         11   -1    0    0    0    0 -0.00000000000E+00 -0.00000000000E+00 -0.45593999997E+02  0.45594000000E+02  0.51100000000E-03 0.  1.
    9900012    2    1    2    0    0 -0.19423819119E+02  0.16539344893E+02 -0.31659605388E+02  0.50528864594E+02  0.30000014419E+02 0.  0.
         12    1    1    2    0    0  0.19423819119E+02 -0.16539344893E+02  0.31659605388E+02  0.40659135406E+02  0.00000000000E+00 0. -1.
         11    1    3    3    0    0 -0.15106829009E+02  0.37251459480E+01 -0.15058098109E+02  0.21652697614E+02  0.51100000000E-03 0. -1.
        -11    1    3    3    0    0 -0.10762807102E+02  0.36887388342E+01 -0.12678714359E+02  0.17035099323E+02  0.51100000000E-03 0.  1.
         12    1    3    3    0    0  0.64458169924E+01  0.91254601112E+01 -0.39227929205E+01  0.11841067656E+02  0.00000000000E+00 0. -1.
</event>
<event>
 7    1  0.4871930E-013  0.5052886E+02  0.7816164E-02  0.1300439E+00
        -11   -1    0    0    0    0  0.00000000000E+00  0.00000000000E+00  0.45593999997E+02  0.45594000000E+02  0.51100000000E-03 0. -1.
         11   -1    0    0    0    0 -0.00000000000E+00 -0.00000000000E+00 -0.45593999997E+02  0.45594000000E+02  0.51100000000E-03 0.  1.
    9900012    2    1    2    0    0  0.28854194621E+02  0.10175697916E+02 -0.26777906283E+02  0.50528860311E+02  0.30000001403E+02 0.  0.
         12    1    1    2    0    0 -0.28854194621E+02 -0.10175697916E+02  0.26777906283E+02  0.40659139689E+02  0.00000000000E+00 0. -1.
         11    1    3    3    0    0 -0.20212163910E+01  0.49301338222E+01 -0.61504975176E+00  0.53637507084E+01  0.51100000000E-03 0. -1.
        -11    1    3    3    0    0  0.24137573019E+02 -0.73819582414E+00 -0.89833341338E+01  0.25765629368E+02  0.51100000000E-03 0.  1.
        -12    1    3    3    0    0  0.67378379933E+01  0.59837599178E+01 -0.17179522397E+02  0.19399480235E+02  0.00000000000E+00 0.  1.
</event>
<event>
 7    1  0.4871930E-013  0.5052886E+02  0.7816164E-02  0.1300439E+00
        -11   -1    0    0    0    0  0.00000000000E+00  0.00000000000E+00  0.45593999997E+02  0.45594000000E+02  0.51100000000E-03 0.  1.
         11   -1    0    0    0    0 -0.00000000000E+00 -0.00000000000E+00 -0.45593999997E+02  0.45594000000E+02  0.51100000000E-03 0. -1.
    9900012    2    1    2    0    0 -0.28533635016E+01  0.31972590408E+02  0.24955507113E+02  0.50528861348E+02  0.30000004553E+02 0.  0.
         12    1    1    2    0    0  0.28533635016E+01 -0.31972590408E+02 -0.24955507113E+02  0.40659138652E+02  0.00000000000E+00 0. -1.
         11    1    3    3    0    0  0.54924322003E+00 -0.65934385207E+00  0.90047491547E+00  0.12438881640E+01  0.51100000000E-03 0. -1.
        -11    1    3    3    0    0 -0.10882340856E+02  0.31504835500E+02  0.12758401200E+02  0.35689729669E+02  0.51100000000E-03 0.  1.
        -12    1    3    3    0    0  0.74797341345E+01  0.11270987598E+01  0.11296630997E+02  0.13595243515E+02  0.00000000000E+00 0.  1.
</event>
<event>
 7    1  0.4871930E-013  0.5052887E+02  0.7816164E-02  0.1300439E+00
        -11   -1    0    0    0    0  0.00000000000E+00  0.00000000000E+00  0.45593999997E+02  0.45594000000E+02  0.51100000000E-03 0. -1.
         11   -1    0    0    0    0 -0.00000000000E+00 -0.00000000000E+00 -0.45593999997E+02  0.45594000000E+02  0.51100000000E-03 0.  1.
    9900012    2    1    2    0    0  0.38990815989E+02 -0.96385245797E+01 -0.63229842590E+01  0.50528867969E+02  0.30000024678E+02 0.  0.
         12    1    1    2    0    0 -0.38990815989E+02  0.96385245797E+01  0.63229842590E+01  0.40659132031E+02  0.00000000000E+00 0. -1.
         11    1    3    3    0    0 -0.34136316740E+01 -0.11247747089E+01  0.20869150599E+01  0.41561056387E+01  0.51100000000E-03 0. -1.
        -11    1    3    3    0    0  0.63197880874E+01  0.14330009289E+01 -0.60541072393E+01  0.88682257446E+01  0.51100000000E-03 0.  1.
         12    1    3    3    0    0  0.36084659576E+02 -0.99467507998E+01 -0.23557920797E+01  0.37504536586E+02  0.00000000000E+00 0. -1.
</event>
<event>
 7    1  0.4871930E-013  0.5052884E+02  0.7816164E-02  0.1300439E+00
        -11   -1    0    0    0    0  0.00000000000E+00  0.00000000000E+00  0.45593999997E+02  0.45594000000E+02  0.51100000000E-03 0.  1.
         11   -1    0    0    0    0 -0.00000000000E+00 -0.00000000000E+00 -0.45593999997E+02  0.45594000000E+02  0.51100000000E-03 0. -1.
    9900012    2    1    2    0    0 -0.30741698110E+02 -0.19602504691E+01  0.26538133483E+02  0.50528842196E+02  0.29999946338E+02 0.  0.
         12    1    1    2    0    0  0.30741698110E+02  0.19602504691E+01 -0.26538133483E+02  0.40659157804E+02  0.00000000000E+00 0. -1.
         11    1    3    3    0    0 -0.10238672755E+02 -0.15636309240E+01  0.17436937501E+02  0.20281078649E+02  0.51100000000E-03 0. -1.
        -11    1    3    3    0    0 -0.23513312221E+02  0.20954966040E+01  0.10832718177E+02  0.25973346742E+02  0.51100000000E-03 0.  1.
         12    1    3    3    0    0  0.30102868663E+01 -0.24921161491E+01 -0.17315221946E+01  0.42744168057E+01  0.00000000000E+00 0. -1.
</event>
<event>
 7    1  0.4871930E-013  0.5052888E+02  0.7816164E-02  0.1300439E+00
        -11   -1    0    0    0    0  0.00000000000E+00  0.00000000000E+00  0.45593999997E+02  0.45594000000E+02  0.51100000000E-03 0.  1.
         11   -1    0    0    0    0 -0.00000000000E+00 -0.00000000000E+00 -0.45593999997E+02  0.45594000000E+02  0.51100000000E-03 0. -1.
    9900012    2    1    2    0    0 -0.31915969849E+02  0.23299637508E+02  0.95740325268E+01  0.50528876323E+02  0.30000050070E+02 0.  0.
         12    1    1    2    0    0  0.31915969849E+02 -0.23299637508E+02 -0.95740325268E+01  0.40659123677E+02  0.00000000000E+00 0. -1.
         11    1    3    3    0    0 -0.40098232244E+00  0.38933119420E+00  0.50115037648E+01  0.50425723443E+01  0.51100000000E-03 0. -1.
        -11    1    3    3    0    0 -0.25206162295E+02  0.50711595975E+01  0.63393470185E+01  0.26481212174E+02  0.51100000000E-03 0.  1.
        -12    1    3    3    0    0 -0.63088252309E+01  0.17839146717E+02 -0.17768182565E+01  0.19005091804E+02  0.00000000000E+00 0.  1.
</event>
<event>
 7    1  0.4871930E-013  0.5052892E+02  0.7816164E-02  0.1300439E+00
        -11   -1    0    0    0    0  0.00000000000E+00  0.00000000000E+00  0.45593999997E+02  0.45594000000E+02  0.51100000000E-03 0. -1.
         11   -1    0    0    0    0 -0.00000000000E+00 -0.00000000000E+00 -0.45593999997E+02  0.45594000000E+02  0.51100000000E-03 0.  1.
    9900012    2    1    2    0    0 -0.38712802833E+02 -0.80050638785E+01 -0.95078138711E+01  0.50528921364E+02  0.30000186979E+02 0.  0.
         12    1    1    2    0    0  0.38712802833E+02  0.80050638785E+01  0.95078138711E+01  0.40659078636E+02  0.00000000000E+00 0. -1.
         11    1    3    3    0    0 -0.16001795748E+00  0.12112810987E+01  0.43664644571E+01  0.45341834725E+01  0.51100000000E-03 0. -1.
        -11    1    3    3    0    0 -0.11473388009E+02  0.53819336864E+01 -0.12249823725E+01  0.12732023590E+02  0.51100000000E-03 0.  1.
        -12    1    3    3    0    0 -0.27079396866E+02 -0.14598278664E+02 -0.12649295956E+02  0.33262714302E+02  0.00000000000E+00 0.  1.
</event>
<event>
 7    1  0.4871930E-013  0.5052886E+02  0.7816164E-02  0.1300439E+00
        -11   -1    0    0    0    0  0.00000000000E+00  0.00000000000E+00  0.45593999997E+02  0.45594000000E+02  0.51100000000E-03 0.  1.
         11   -1    0    0    0    0 -0.00000000000E+00 -0.00000000000E+00 -0.45593999997E+02  0.45594000000E+02  0.51100000000E-03 0. -1.
    9900012    2    1    2    0    0 -0.81554039824E+01 -0.25891110831E+02  0.30270540771E+02  0.50528857452E+02  0.29999992710E+02 0.  0.
         12    1    1    2    0    0  0.81554039824E+01  0.25891110831E+02 -0.30270540771E+02  0.40659142548E+02  0.00000000000E+00 0. -1.
         11    1    3    3    0    0  0.63531512757E+01  0.28249871336E+01  0.55678281452E+01  0.89075133428E+01  0.51100000000E-03 0. -1.
        -11    1    3    3    0    0 -0.29616960772E+00 -0.99179119994E+01  0.77735825613E+01  0.12604811818E+02  0.51100000000E-03 0.  1.
        -12    1    3    3    0    0 -0.14212385650E+02 -0.18798185965E+02  0.16929130064E+02  0.29016532291E+02  0.00000000000E+00 0.  1.
</event>
<event>
 7    1  0.4871930E-013  0.5052886E+02  0.7816164E-02  0.1300439E+00
        -11   -1    0    0    0    0  0.00000000000E+00  0.00000000000E+00  0.45593999997E+02  0.45594000000E+02  0.51100000000E-03 0.  1.
         11   -1    0    0    0    0 -0.00000000000E+00 -0.00000000000E+00 -0.45593999997E+02  0.45594000000E+02  0.51100000000E-03 0. -1.
    9900012    2    1    2    0    0 -0.27927243911E+02  0.17240018639E+01  0.29500218079E+02  0.50528855867E+02  0.29999987895E+02 0.  0.
         12    1    1    2    0    0  0.27927243911E+02 -0.17240018639E+01 -0.29500218079E+02  0.40659144133E+02  0.00000000000E+00 0. -1.
         11    1    3    3    0    0 -0.15394291728E+02 -0.48944032579E+01  0.86884209371E+01  0.18341975348E+02  0.51100000000E-03 0. -1.
        -11    1    3    3    0    0 -0.84554879051E+01  0.36543459362E+01  0.24346073297E+02  0.26030382348E+02  0.51100000000E-03 0.  1.
         12    1    3    3    0    0 -0.40774642782E+01  0.29640591856E+01 -0.35342761547E+01  0.61564981713E+01  0.00000000000E+00 0. -1.
</event>
<event>
 7    1  0.4871930E-013  0.5052886E+02  0.7816164E-02  0.1300439E+00
        -11   -1    0    0    0    0  0.00000000000E+00  0.00000000000E+00  0.45593999997E+02  0.45594000000E+02  0.51100000000E-03 0.  1.
         11   -1    0    0    0    0 -0.00000000000E+00 -0.00000000000E+00 -0.45593999997E+02  0.45594000000E+02  0.51100000000E-03 0. -1.
    9900012    2    1    2    0    0  0.34302936071E+02  0.31641666124E+01  0.21597733887E+02  0.50528862251E+02  0.30000007299E+02 0.  0.
         12    1    1    2    0    0 -0.34302936071E+02 -0.31641666124E+01 -0.21597733887E+02  0.40659137749E+02  0.00000000000E+00 0. -1.
         11    1    3    3    0    0  0.11873144717E+02 -0.69249339572E+01  0.19121848465E+02  0.23549338945E+02  0.51100000000E-03 0. -1.
        -11    1    3    3    0    0  0.62676544372E+01  0.40005772089E+01 -0.41095455924E+01  0.84956739218E+01  0.51100000000E-03 0.  1.
        -12    1    3    3    0    0  0.16162136917E+02  0.60885233606E+01  0.65854310143E+01  0.18483849384E+02  0.00000000000E+00 0.  1.
</event>
<event>
 7    1  0.4871930E-013  0.5052886E+02  0.7816164E-02  0.1300439E+00
        -11   -1    0    0    0    0  0.00000000000E+00  0.00000000000E+00  0.45593999997E+02  0.45594000000E+02  0.51100000000E-03 0. -1.
         11   -1    0    0    0    0 -0.00000000000E+00 -0.00000000000E+00 -0.45593999997E+02  0.45594000000E+02  0.51100000000E-03 0.  1.
    9900012    2    1    2    0    0  0.32242858992E+02 -0.24477946271E+02  0.37939690703E+01  0.50528855753E+02  0.29999987546E+02 0.  0.
         12    1    1    2    0    0 -0.32242858992E+02  0.24477946271E+02 -0.37939690703E+01  0.40659144247E+02  0.00000000000E+00 0. -1.
         11    1    3    3    0    0 -0.85197834253E+00 -0.31993505081E+01  0.10847974748E+01  0.34840345280E+01  0.51100000000E-03 0. -1.
        -11    1    3    3    0    0  0.32483485677E+02 -0.22116232382E+02 -0.46871292381E+01  0.39576176637E+02  0.51100000000E-03 0.  1.
         12    1    3    3    0    0  0.61135165768E+00  0.83763661866E+00  0.73963008336E+01  0.74686445875E+01  0.00000000000E+00 0. -1.
</event>
<event>
 7    1  0.4871930E-013  0.5052886E+02  0.7816164E-02  0.1300439E+00
        -11   -1    0    0    0    0  0.00000000000E+00  0.00000000000E+00  0.45593999997E+02  0.45594000000E+02  0.51100000000E-03 0.  1.
         11   -1    0    0    0    0 -0.00000000000E+00 -0.00000000000E+00 -0.45593999997E+02  0.45594000000E+02  0.51100000000E-03 0. -1.
    9900012    2    1    2    0    0  0.32611782160E+02  0.20012551868E+02  0.13752643928E+02  0.50528858557E+02  0.29999996068E+02 0.  0.
         12    1    1    2    0    0 -0.32611782160E+02 -0.20012551868E+02 -0.13752643928E+02  0.40659141443E+02  0.00000000000E+00 0. -1.
         11    1    3    3    0    0  0.14265218936E+02 -0.33955533611E+01  0.13631029020E+02  0.20020769374E+02  0.51100000000E-03 0. -1.
        -11    1    3    3    0    0  0.46646309455E+00  0.40403308383E+01  0.77698060435E+00  0.41407197710E+01  0.51100000000E-03 0.  1.
        -12    1    3    3    0    0  0.17880100130E+02  0.19367774390E+02 -0.65536569661E+00  0.26367369412E+02  0.00000000000E+00 0.  1.
</event>
<event>
 7    1  0.4871930E-013  0.5052886E+02  0.7816164E-02  0.1300439E+00
        -11   -1    0    0    0    0  0.00000000000E+00  0.00000000000E+00  0.45593999997E+02  0.45594000000E+02  0.51100000000E-03 0. -1.
         11   -1    0    0    0    0 -0.00000000000E+00 -0.00000000000E+00 -0.45593999997E+02  0.45594000000E+02  0.51100000000E-03 0.  1.
    9900012    2    1    2    0    0 -0.29883886934E+02 -0.22368595834E+02 -0.16117223420E+02  0.50528859962E+02  0.30000000341E+02 0.  0.
         12    1    1    2    0    0  0.29883886934E+02  0.22368595834E+02  0.16117223420E+02  0.40659140038E+02  0.00000000000E+00 0. -1.
         11    1    3    3    0    0 -0.42498161724E+01  0.22839402803E+01 -0.14441092655E+01  0.50361465958E+01  0.51100000000E-03 0. -1.
        -11    1    3    3    0    0 -0.50689054750E+01 -0.12518886430E+02 -0.16758981790E+02  0.21523935306E+02  0.51100000000E-03 0.  1.
         12    1    3    3    0    0 -0.20565165286E+02 -0.12133649684E+02  0.20858676355E+01  0.23968778060E+02  0.00000000000E+00 0. -1.
</event>
<event>
 7    1  0.4871930E-013  0.5052886E+02  0.7816164E-02  0.1300439E+00
        -11   -1    0    0    0    0  0.00000000000E+00  0.00000000000E+00  0.45593999997E+02  0.45594000000E+02  0.51100000000E-03 0. -1.
         11   -1    0    0    0    0 -0.00000000000E+00 -0.00000000000E+00 -0.45593999997E+02  0.45594000000E+02  0.51100000000E-03 0.  1.
    9900012    2    1    2    0    0  0.82563641733E+01  0.37191650311E+02 -0.14204906262E+02  0.50528858787E+02  0.29999996770E+02 0.  0.
         12    1    1    2    0    0 -0.82563641733E+01 -0.37191650311E+02  0.14204906262E+02  0.40659141213E+02  0.00000000000E+00 0. -1.
         11    1    3    3    0    0  0.10032273631E+02  0.14298354317E+02  0.11810715083E+00  0.17467209278E+02  0.51100000000E-03 0. -1.
        -11    1    3    3    0    0  0.76082406229E+01  0.77158232578E+01 -0.98997269375E+01  0.14677324266E+02  0.51100000000E-03 0.  1.
        -12    1    3    3    0    0 -0.93841500809E+01  0.15177472736E+02 -0.44232864756E+01  0.18384325243E+02  0.00000000000E+00 0.  1.
</event>
<event>
 7    1  0.4871930E-013  0.5052886E+02  0.7816164E-02  0.1300439E+00
        -11   -1    0    0    0    0  0.00000000000E+00  0.00000000000E+00  0.45593999997E+02  0.45594000000E+02  0.51100000000E-03 0. -1.
         11   -1    0    0    0    0 -0.00000000000E+00 -0.00000000000E+00 -0.45593999997E+02  0.45594000000E+02  0.51100000000E-03 0.  1.
    9900012    2    1    2    0    0  0.17319577643E+02 -0.12197388843E+02 -0.34704781802E+02  0.50528856573E+02  0.29999990038E+02 0.  0.
         12    1    1    2    0    0 -0.17319577643E+02  0.12197388843E+02  0.34704781802E+02  0.40659143427E+02  0.00000000000E+00 0. -1.
         11    1    3    3    0    0  0.13078428395E+02 -0.15773273231E+02 -0.19442994261E+02  0.28246618625E+02  0.51100000000E-03 0. -1.
        -11    1    3    3    0    0  0.23136645099E+00 -0.28591469900E+01  0.19539879111E+01  0.34707810307E+01  0.51100000000E-03 0.  1.
        -12    1    3    3    0    0  0.40097827976E+01  0.64350313773E+01 -0.17215775452E+02  0.18811456917E+02  0.00000000000E+00 0.  1.
</event>
<event>
 7    1  0.4871930E-013  0.5052892E+02  0.7816164E-02  0.1300439E+00
        -11   -1    0    0    0    0  0.00000000000E+00  0.00000000000E+00  0.45593999997E+02  0.45594000000E+02  0.51100000000E-03 0.  1.
         11   -1    0    0    0    0 -0.00000000000E+00 -0.00000000000E+00 -0.45593999997E+02  0.45594000000E+02  0.51100000000E-03 0. -1.
    9900012    2    1    2    0    0 -0.10363646252E+02 -0.21319945675E+02  0.33033557819E+02  0.50528915045E+02  0.30000167770E+02 0.  0.
         12    1    1    2    0    0  0.10363646252E+02  0.21319945675E+02 -0.33033557819E+02  0.40659084955E+02  0.00000000000E+00 0. -1.
         11    1    3    3    0    0 -0.72280829361E+01 -0.12810202949E+02  0.10025802072E+02  0.17800651392E+02  0.51100000000E-03 0. -1.
        -11    1    3    3    0    0 -0.12015434470E+02 -0.43236470003E+01  0.16841287390E+02  0.21135125978E+02  0.51100000000E-03 0.  1.
        -12    1    3    3    0    0  0.88798711546E+01 -0.41860957255E+01  0.61664683563E+01  0.11593137674E+02  0.00000000000E+00 0.  1.
</event>
<event>
 7    1  0.4871930E-013  0.5052886E+02  0.7816164E-02  0.1300439E+00
        -11   -1    0    0    0    0  0.00000000000E+00  0.00000000000E+00  0.45593999997E+02  0.45594000000E+02  0.51100000000E-03 0. -1.
         11   -1    0    0    0    0 -0.00000000000E+00 -0.00000000000E+00 -0.45593999997E+02  0.45594000000E+02  0.51100000000E-03 0.  1.
    9900012    2    1    2    0    0  0.37904392679E+02  0.11116206529E+02 -0.96360202523E+01  0.50528856892E+02  0.29999991009E+02 0.  0.
         12    1    1    2    0    0 -0.37904392679E+02 -0.11116206529E+02  0.96360202523E+01  0.40659143108E+02  0.00000000000E+00 0. -1.
         11    1    3    3    0    0 -0.16952729350E+01  0.37532806423E+01 -0.23462481958E+01  0.47398256046E+01  0.51100000000E-03 0. -1.
        -11    1    3    3    0    0  0.35381172132E+02 -0.37903323049E+00 -0.18547959499E+01  0.35431783414E+02  0.51100000000E-03 0.  1.
         12    1    3    3    0    0  0.42184934818E+01  0.77419591174E+01 -0.54349761066E+01  0.10357247873E+02  0.00000000000E+00 0. -1.
</event>
<event>
 7    1  0.4871930E-013  0.5052886E+02  0.7816164E-02  0.1300439E+00
        -11   -1    0    0    0    0  0.00000000000E+00  0.00000000000E+00  0.45593999997E+02  0.45594000000E+02  0.51100000000E-03 0. -1.
         11   -1    0    0    0    0 -0.00000000000E+00 -0.00000000000E+00 -0.45593999997E+02  0.45594000000E+02  0.51100000000E-03 0.  1.
    9900012    2    1    2    0    0  0.26844765911E+02  0.11986241884E+02 -0.28086554846E+02  0.50528855709E+02  0.29999987414E+02 0.  0.
         12    1    1    2    0    0 -0.26844765911E+02 -0.11986241884E+02  0.28086554846E+02  0.40659144291E+02  0.00000000000E+00 0. -1.
         11    1    3    3    0    0  0.12915603695E+02  0.61864972400E+01 -0.60695262836E+01  0.15553929294E+02  0.51100000000E-03 0. -1.
        -11    1    3    3    0    0  0.64123927110E+01 -0.66682683960E+01 -0.17391872043E+02  0.19699284178E+02  0.51100000000E-03 0.  1.
         12    1    3    3    0    0  0.75167695050E+01  0.12468013040E+02 -0.46251565194E+01  0.15275642238E+02  0.00000000000E+00 0. -1.
</event>
<event>
 7    1  0.4871930E-013  0.5052886E+02  0.7816164E-02  0.1300439E+00
        -11   -1    0    0    0    0  0.00000000000E+00  0.00000000000E+00  0.45593999997E+02  0.45594000000E+02  0.51100000000E-03 0.  1.
         11   -1    0    0    0    0 -0.00000000000E+00 -0.00000000000E+00 -0.45593999997E+02  0.45594000000E+02  0.51100000000E-03 0. -1.
    9900012    2    1    2    0    0 -0.77468646139E+01 -0.34407336374E+02  0.20230849339E+02  0.50528856223E+02  0.29999988976E+02 0.  0.
         12    1    1    2    0    0  0.77468646139E+01  0.34407336374E+02 -0.20230849339E+02  0.40659143777E+02  0.00000000000E+00 0. -1.
         11    1    3    3    0    0  0.84445551598E+01 -0.20759052098E+02  0.12870099747E+02  0.25843533497E+02  0.51100000000E-03 0. -1.
        -11    1    3    3    0    0 -0.27598314117E+01 -0.48669561251E+01  0.65544107445E+01  0.86176697438E+01  0.51100000000E-03 0.  1.
         12    1    3    3    0    0 -0.13431588362E+02 -0.87813281516E+01  0.80633884698E+00  0.16067652982E+02  0.00000000000E+00 0. -1.
</event>
<event>
 7    1  0.4871930E-013  0.5052886E+02  0.7816164E-02  0.1300439E+00
        -11   -1    0    0    0    0  0.00000000000E+00  0.00000000000E+00  0.45593999997E+02  0.45594000000E+02  0.51100000000E-03 0.  1.
         11   -1    0    0    0    0 -0.00000000000E+00 -0.00000000000E+00 -0.45593999997E+02  0.45594000000E+02  0.51100000000E-03 0. -1.
    9900012    2    1    2    0    0 -0.15204532475E+02  0.17763616027E+02  0.33263215992E+02  0.50528863262E+02  0.30000010372E+02 0.  0.
         12    1    1    2    0    0  0.15204532475E+02 -0.17763616027E+02 -0.33263215992E+02  0.40659136738E+02  0.00000000000E+00 0. -1.
         11    1    3    3    0    0 -0.10322498637E+02  0.11369852797E+02  0.18369929470E+02  0.23943304695E+02  0.51100000000E-03 0. -1.
        -11    1    3    3    0    0 -0.57772820506E+01 -0.98934432724E+00  0.17693180790E+02  0.18638788502E+02  0.51100000000E-03 0.  1.
         12    1    3    3    0    0  0.89524821220E+00  0.73831075569E+01 -0.27998942680E+01  0.79467700653E+01  0.00000000000E+00 0. -1.
</event>
<event>
 7    1  0.4871930E-013  0.5052889E+02  0.7816164E-02  0.1300439E+00
        -11   -1    0    0    0    0  0.00000000000E+00  0.00000000000E+00  0.45593999997E+02  0.45594000000E+02  0.51100000000E-03 0.  1.
         11   -1    0    0    0    0 -0.00000000000E+00 -0.00000000000E+00 -0.45593999997E+02  0.45594000000E+02  0.51100000000E-03 0. -1.
    9900012    2    1    2    0    0 -0.11754905864E+02 -0.17509529361E+02  0.34762073033E+02  0.50528890912E+02  0.30000094415E+02 0.  0.
         12    1    1    2    0    0  0.11754905864E+02  0.17509529361E+02 -0.34762073033E+02  0.40659109088E+02  0.00000000000E+00 0. -1.
         11    1    3    3    0    0 -0.74523371875E+00  0.51552140460E+01 -0.14127276989E+01  0.53969810976E+01  0.51100000000E-03 0. -1.
        -11    1    3    3    0    0 -0.20253993873E+01 -0.21838971423E+01  0.11279478614E+02  0.11666117069E+02  0.51100000000E-03 0.  1.
        -12    1    3    3    0    0 -0.89842727581E+01 -0.20480846264E+02  0.24895322118E+02  0.33465792745E+02  0.00000000000E+00 0.  1.
</event>
<event>
 7    1  0.4871930E-013  0.5052886E+02  0.7816164E-02  0.1300439E+00
        -11   -1    0    0    0    0  0.00000000000E+00  0.00000000000E+00  0.45593999997E+02  0.45594000000E+02  0.51100000000E-03 0.  1.
         11   -1    0    0    0    0 -0.00000000000E+00 -0.00000000000E+00 -0.45593999997E+02  0.45594000000E+02  0.51100000000E-03 0. -1.
    9900012    2    1    2    0    0  0.74320131109E+01  0.19605589504E+02  0.34836068746E+02  0.50528860260E+02  0.30000001247E+02 0.  0.
         12    1    1    2    0    0 -0.74320131109E+01 -0.19605589504E+02 -0.34836068746E+02  0.40659139740E+02  0.00000000000E+00 0. -1.
         11    1    3    3    0    0 -0.45719915709E+00 -0.10440382282E+01  0.31347950493E+01  0.33355639933E+01  0.51100000000E-03 0. -1.
        -11    1    3    3    0    0 -0.20363980481E+01  0.15327243589E+02  0.22029916729E+01  0.15618082008E+02  0.51100000000E-03 0.  1.
        -12    1    3    3    0    0  0.99256103161E+01  0.53223841439E+01  0.29498282024E+02  0.31575214259E+02  0.00000000000E+00 0.  1.
</event>
<event>
 7    1  0.4871930E-013  0.5052886E+02  0.7816164E-02  0.1300439E+00
        -11   -1    0    0    0    0  0.00000000000E+00  0.00000000000E+00  0.45593999997E+02  0.45594000000E+02  0.51100000000E-03 0. -1.
         11   -1    0    0    0    0 -0.00000000000E+00 -0.00000000000E+00 -0.45593999997E+02  0.45594000000E+02  0.51100000000E-03 0.  1.
    9900012    2    1    2    0    0  0.13239901906E+02 -0.14655808887E+02 -0.35539802031E+02  0.50528864926E+02  0.30000015428E+02 0.  0.
         12    1    1    2    0    0 -0.13239901906E+02  0.14655808887E+02  0.35539802031E+02  0.40659135074E+02  0.00000000000E+00 0. -1.
         11    1    3    3    0    0 -0.43775024384E+01 -0.54017709067E+01  0.92486924731E+00  0.70140601589E+01  0.51100000000E-03 0. -1.
        -11    1    3    3    0    0  0.16792908978E+01 -0.52492696978E+01 -0.17862401730E+02  0.18693320896E+02  0.51100000000E-03 0.  1.
        -12    1    3    3    0    0  0.15938113447E+02 -0.40047682828E+01 -0.18602269547E+02  0.24821483871E+02  0.00000000000E+00 0.  1.
</event>
<event>
 7    1  0.4871930E-013  0.5052888E+02  0.7816164E-02  0.1300439E+00
        -11   -1    0    0    0    0  0.00000000000E+00  0.00000000000E+00  0.45593999997E+02  0.45594000000E+02  0.51100000000E-03 0.  1.
         11   -1    0    0    0    0 -0.00000000000E+00 -0.00000000000E+00 -0.45593999997E+02  0.45594000000E+02  0.51100000000E-03 0. -1.
    9900012    2    1    2    0    0  0.51938037783E+01 -0.28266519006E+02  0.28760956127E+02  0.50528876894E+02  0.30000051807E+02 0.  0.
         12    1    1    2    0    0 -0.51938037783E+01  0.28266519006E+02 -0.28760956127E+02  0.40659123106E+02  0.00000000000E+00 0. -1.
         11    1    3    3    0    0  0.27416068552E+01 -0.28373129443E+00 -0.18212484006E+01  0.33036128092E+01  0.51100000000E-03 0. -1.
        -11    1    3    3    0    0  0.87623113167E+00  0.16184414501E+01 -0.23053666566E+01  0.29498897278E+01  0.51100000000E-03 0.  1.
        -12    1    3    3    0    0  0.15759657915E+01 -0.29601229161E+02  0.32887571185E+02  0.44275374357E+02  0.00000000000E+00 0.  1.
</event>
<event>
 7    1  0.4871930E-013  0.5052886E+02  0.7816164E-02  0.1300439E+00
        -11   -1    0    0    0    0  0.00000000000E+00  0.00000000000E+00  0.45593999997E+02  0.45594000000E+02  0.51100000000E-03 0.  1.
         11   -1    0    0    0    0 -0.00000000000E+00 -0.00000000000E+00 -0.45593999997E+02  0.45594000000E+02  0.51100000000E-03 0. -1.
    9900012    2    1    2    0    0  0.90684517795E+01 -0.25002152546E+01  0.39556011004E+02  0.50528857110E+02  0.29999991671E+02 0.  0.
         12    1    1    2    0    0 -0.90684517795E+01  0.25002152546E+01 -0.39556011004E+02  0.40659142890E+02  0.00000000000E+00 0. -1.
         11    1    3    3    0    0 -0.20228449344E+01 -0.92051570906E+00  0.29834519783E+01  0.37202468691E+01  0.51100000000E-03 0. -1.
        -11    1    3    3    0    0  0.16208812367E+02 -0.26131541127E+01  0.38000901020E+02  0.41395925541E+02  0.51100000000E-03 0.  1.
        -12    1    3    3    0    0 -0.51175156534E+01  0.10334545672E+01 -0.14283419943E+01  0.54126846996E+01  0.00000000000E+00 0.  1.
</event>
<event>
 7    1  0.4871930E-013  0.5052886E+02  0.7816164E-02  0.1300439E+00
        -11   -1    0    0    0    0  0.00000000000E+00  0.00000000000E+00  0.45593999997E+02  0.45594000000E+02  0.51100000000E-03 0.  1.
         11   -1    0    0    0    0 -0.00000000000E+00 -0.00000000000E+00 -0.45593999997E+02  0.45594000000E+02  0.51100000000E-03 0. -1.
    9900012    2    1    2    0    0 -0.30156843328E+01 -0.28383681614E+02  0.28955793038E+02  0.50528859768E+02  0.29999999751E+02 0.  0.
         12    1    1    2    0    0  0.30156843328E+01  0.28383681614E+02 -0.28955793038E+02  0.40659140232E+02  0.00000000000E+00 0. -1.
         11    1    3    3    0    0 -0.54087281572E+01  0.13970104130E+01 -0.10066605558E+00  0.55871381125E+01  0.51100000000E-03 0. -1.
        -11    1    3    3    0    0  0.53512554096E+01 -0.15593960687E+01  0.73024501342E+01  0.91865896165E+01  0.51100000000E-03 0.  1.
        -12    1    3    3    0    0 -0.29582115851E+01 -0.28221295958E+02  0.21754008959E+02  0.35755132039E+02  0.00000000000E+00 0.  1.
</event>
<event>
 7    1  0.4871930E-013  0.5052884E+02  0.7816164E-02  0.1300439E+00
        -11   -1    0    0    0    0  0.00000000000E+00  0.00000000000E+00  0.45593999997E+02  0.45594000000E+02  0.51100000000E-03 0.  1.
         11   -1    0    0    0    0 -0.00000000000E+00 -0.00000000000E+00 -0.45593999997E+02  0.45594000000E+02  0.51100000000E-03 0. -1.
    9900012    2    1    2    0    0  0.29192053398E+02  0.24339337488E+02  0.14442588630E+02  0.50528835015E+02  0.29999924513E+02 0.  0.
         12    1    1    2    0    0 -0.29192053398E+02 -0.24339337488E+02 -0.14442588630E+02  0.40659164985E+02  0.00000000000E+00 0. -1.
         11    1    3    3    0    0  0.21247464709E+02  0.23935438281E+02  0.49562505543E+01  0.32387102095E+02  0.51100000000E-03 0. -1.
        -11    1    3    3    0    0  0.62320534742E+01  0.61528614140E+01  0.82197762394E+01  0.12010866570E+02  0.51100000000E-03 0.  1.
        -12    1    3    3    0    0  0.17125352144E+01 -0.57489622072E+01  0.12665618359E+01  0.61308663502E+01  0.00000000000E+00 0.  1.
</event>
<event>
 7    1  0.4871930E-013  0.5052887E+02  0.7816164E-02  0.1300439E+00
        -11   -1    0    0    0    0  0.00000000000E+00  0.00000000000E+00  0.45593999997E+02  0.45594000000E+02  0.51100000000E-03 0.  1.
         11   -1    0    0    0    0 -0.00000000000E+00 -0.00000000000E+00 -0.45593999997E+02  0.45594000000E+02  0.51100000000E-03 0. -1.
    9900012    2    1    2    0    0 -0.33248193088E+01 -0.30741315597E+02  0.26402315477E+02  0.50528866086E+02  0.30000018956E+02 0.  0.
         12    1    1    2    0    0  0.33248193088E+01  0.30741315597E+02 -0.26402315477E+02  0.40659133914E+02  0.00000000000E+00 0. -1.
         11    1    3    3    0    0  0.38838993438E+01 -0.15898360389E+01 -0.27952797537E+01  0.50424043775E+01  0.51100000000E-03 0. -1.
        -11    1    3    3    0    0 -0.58773611844E+01 -0.13697039201E+02  0.32486706216E+01  0.15254708074E+02  0.51100000000E-03 0.  1.
         12    1    3    3    0    0 -0.13313574683E+01 -0.15454440357E+02  0.25948924609E+02  0.30231753635E+02  0.00000000000E+00 0. -1.
</event>
<event>
 7    1  0.4871930E-013  0.5052886E+02  0.7816164E-02  0.1300439E+00
        -11   -1    0    0    0    0  0.00000000000E+00  0.00000000000E+00  0.45593999997E+02  0.45594000000E+02  0.51100000000E-03 0.  1.
         11   -1    0    0    0    0 -0.00000000000E+00 -0.00000000000E+00 -0.45593999997E+02  0.45594000000E+02  0.51100000000E-03 0. -1.
    9900012    2    1    2    0    0  0.40315802677E+02 -0.30618795139E+01 -0.42925960468E+01  0.50528862866E+02  0.30000009168E+02 0.  0.
         12    1    1    2    0    0 -0.40315802677E+02  0.30618795139E+01  0.42925960468E+01  0.40659137134E+02  0.00000000000E+00 0. -1.
         11    1    3    3    0    0  0.68644761604E+00 -0.53258313972E+01  0.59367311709E+00  0.54026047822E+01  0.51100000000E-03 0. -1.
        -11    1    3    3    0    0  0.13468000114E+02  0.37357722509E+01  0.78089570526E+01  0.16010085318E+02  0.51100000000E-03 0.  1.
        -12    1    3    3    0    0  0.26161354947E+02 -0.14718203676E+01 -0.12695226216E+02  0.29116172766E+02  0.00000000000E+00 0.  1.
</event>
<event>
 7    1  0.4871930E-013  0.5052885E+02  0.7816164E-02  0.1300439E+00
        -11   -1    0    0    0    0  0.00000000000E+00  0.00000000000E+00  0.45593999997E+02  0.45594000000E+02  0.51100000000E-03 0.  1.
         11   -1    0    0    0    0 -0.00000000000E+00 -0.00000000000E+00 -0.45593999997E+02  0.45594000000E+02  0.51100000000E-03 0. -1.
    9900012    2    1    2    0    0 -0.15608141272E+02 -0.15751119993E+02  0.34080114722E+02  0.50528854971E+02  0.29999985171E+02 0.  0.
         12    1    1    2    0    0  0.15608141272E+02  0.15751119993E+02 -0.34080114722E+02  0.40659145029E+02  0.00000000000E+00 0. -1.
         11    1    3    3    0    0 -0.74571449632E+01  0.65663833230E+01  0.87008791499E+01  0.13207259337E+02  0.51100000000E-03 0. -1.
        -11    1    3    3    0    0 -0.33683759157E+01 -0.44177069907E+01  0.15196421382E+02  0.16180028258E+02  0.51100000000E-03 0.  1.
         12    1    3    3    0    0 -0.47826203933E+01 -0.17899796325E+02  0.10182814190E+02  0.21141567376E+02  0.00000000000E+00 0. -1.
</event>
<event>
 7    1  0.4871930E-013  0.5052886E+02  0.7816164E-02  0.1300439E+00
        -11   -1    0    0    0    0  0.00000000000E+00  0.00000000000E+00  0.45593999997E+02  0.45594000000E+02  0.51100000000E-03 0.  1.
         11   -1    0    0    0    0 -0.00000000000E+00 -0.00000000000E+00 -0.45593999997E+02  0.45594000000E+02  0.51100000000E-03 0. -1.
    9900012    2    1    2    0    0 -0.39533915511E+02 -0.62861909504E+01  0.71217343054E+01  0.50528858693E+02  0.29999996483E+02 0.  0.
         12    1    1    2    0    0  0.39533915511E+02  0.62861909504E+01 -0.71217343054E+01  0.40659141307E+02  0.00000000000E+00 0. -1.
         11    1    3    3    0    0 -0.10031841672E+02 -0.78711276754E+01  0.51218035440E+01  0.13741374386E+02  0.51100000000E-03 0. -1.
        -11    1    3    3    0    0 -0.28424777645E+02 -0.60063942810E+01  0.11803656090E+01  0.29076416899E+02  0.51100000000E-03 0.  1.
        -12    1    3    3    0    0 -0.10772961939E+01  0.75913310060E+01  0.81956515240E+00  0.77110674081E+01  0.00000000000E+00 0.  1.
</event>
<event>
 7    1  0.4871930E-013  0.5052886E+02  0.7816164E-02  0.1300439E+00
        -11   -1    0    0    0    0  0.00000000000E+00  0.00000000000E+00  0.45593999997E+02  0.45594000000E+02  0.51100000000E-03 0. -1.
         11   -1    0    0    0    0 -0.00000000000E+00 -0.00000000000E+00 -0.45593999997E+02  0.45594000000E+02  0.51100000000E-03 0.  1.
    9900012    2    1    2    0    0  0.35618868145E+02 -0.16387474298E+02 -0.10766260747E+02  0.50528862623E+02  0.30000008428E+02 0.  0.
         12    1    1    2    0    0 -0.35618868145E+02  0.16387474298E+02  0.10766260747E+02  0.40659137377E+02  0.00000000000E+00 0. -1.
         11    1    3    3    0    0 -0.93261890070E-01 -0.92720631130E+01  0.39219287984E+00  0.92808225749E+01  0.51100000000E-03 0. -1.
        -11    1    3    3    0    0  0.12891754444E+02 -0.10510744705E+02 -0.49976484122E+01  0.17368061976E+02  0.51100000000E-03 0.  1.
        -12    1    3    3    0    0  0.22820375591E+02  0.33953335192E+01 -0.61608052143E+01  0.23879978072E+02  0.00000000000E+00 0.  1.
</event>
<event>
 7    1  0.4871930E-013  0.5052886E+02  0.7816164E-02  0.1300439E+00
        -11   -1    0    0    0    0  0.00000000000E+00  0.00000000000E+00  0.45593999997E+02  0.45594000000E+02  0.51100000000E-03 0. -1.
         11   -1    0    0    0    0 -0.00000000000E+00 -0.00000000000E+00 -0.45593999997E+02  0.45594000000E+02  0.51100000000E-03 0.  1.
    9900012    2    1    2    0    0 -0.81686277428E+01 -0.11404556959E+02 -0.38162485546E+02  0.50528859556E+02  0.29999999105E+02 0.  0.
         12    1    1    2    0    0  0.81686277428E+01  0.11404556959E+02  0.38162485546E+02  0.40659140444E+02  0.00000000000E+00 0. -1.
         11    1    3    3    0    0  0.22677293329E+01 -0.13749267829E+02 -0.20175431471E+02  0.24520052966E+02  0.51100000000E-03 0. -1.
        -11    1    3    3    0    0 -0.52126245395E+01 -0.22653019688E+01 -0.18171221071E+02  0.19039336203E+02  0.51100000000E-03 0.  1.
         12    1    3    3    0    0 -0.52237325361E+01  0.46100128390E+01  0.18416699550E+00  0.69694703864E+01  0.00000000000E+00 0. -1.
</event>
<event>
 7    1  0.4871930E-013  0.5052886E+02  0.7816164E-02  0.1300439E+00
        -11   -1    0    0    0    0  0.00000000000E+00  0.00000000000E+00  0.45593999997E+02  0.45594000000E+02  0.51100000000E-03 0. -1.
         11   -1    0    0    0    0 -0.00000000000E+00 -0.00000000000E+00 -0.45593999997E+02  0.45594000000E+02  0.51100000000E-03 0.  1.
    9900012    2    1    2    0    0 -0.10969335115E+02 -0.31614594608E+01 -0.39023645638E+02  0.50528855178E+02  0.29999985798E+02 0.  0.
         12    1    1    2    0    0  0.10969335115E+02  0.31614594608E+01  0.39023645638E+02  0.40659144822E+02  0.00000000000E+00 0. -1.
         11    1    3    3    0    0  0.49770222234E+01 -0.31526984714E+01 -0.75414352841E+01  0.95699270775E+01  0.51100000000E-03 0. -1.
        -11    1    3    3    0    0 -0.50092175811E+01 -0.96394437314E+01 -0.18440512359E+02  0.21402421184E+02  0.51100000000E-03 0.  1.
         12    1    3    3    0    0 -0.10937139757E+02  0.96306827420E+01 -0.13041697995E+02  0.19556506916E+02  0.00000000000E+00 0. -1.
</event>
<event>
 7    1  0.4871930E-013  0.5052886E+02  0.7816164E-02  0.1300439E+00
        -11   -1    0    0    0    0  0.00000000000E+00  0.00000000000E+00  0.45593999997E+02  0.45594000000E+02  0.51100000000E-03 0.  1.
         11   -1    0    0    0    0 -0.00000000000E+00 -0.00000000000E+00 -0.45593999997E+02  0.45594000000E+02  0.51100000000E-03 0. -1.
    9900012    2    1    2    0    0  0.24253985605E+02 -0.24985187073E+02 -0.20991674189E+02  0.50528858642E+02  0.29999996327E+02 0.  0.
         12    1    1    2    0    0 -0.24253985605E+02  0.24985187073E+02  0.20991674189E+02  0.40659141358E+02  0.00000000000E+00 0. -1.
         11    1    3    3    0    0  0.20900656503E+01  0.21806078795E+01  0.25920300486E+01  0.39802066756E+01  0.51100000000E-03 0. -1.
        -11    1    3    3    0    0  0.27476739087E+01  0.30961921972E+01 -0.30637402746E+01  0.51500119186E+01  0.51100000000E-03 0.  1.
        -12    1    3    3    0    0  0.19416246046E+02 -0.30261987149E+02 -0.20519963963E+02  0.41398640047E+02  0.00000000000E+00 0.  1.
</event>
<event>
 7    1  0.4871930E-013  0.5052875E+02  0.7816164E-02  0.1300439E+00
        -11   -1    0    0    0    0  0.00000000000E+00  0.00000000000E+00  0.45593999997E+02  0.45594000000E+02  0.51100000000E-03 0.  1.
         11   -1    0    0    0    0 -0.00000000000E+00 -0.00000000000E+00 -0.45593999997E+02  0.45594000000E+02  0.51100000000E-03 0. -1.
    9900012    2    1    2    0    0 -0.23562667751E+02  0.20062830316E+02  0.26371542253E+02  0.50528748745E+02  0.29999662283E+02 0.  0.
         12    1    1    2    0    0  0.23562667751E+02 -0.20062830316E+02 -0.26371542253E+02  0.40659251255E+02  0.00000000000E+00 0. -1.
         11    1    3    3    0    0 -0.94176365241E+01  0.18132202665E+01  0.82366330146E+01  0.12642063483E+02  0.51100000000E-03 0. -1.
        -11    1    3    3    0    0 -0.19087040620E+02  0.72410368889E+01  0.15244723953E+02  0.25478409360E+02  0.51100000000E-03 0.  1.
         12    1    3    3    0    0  0.49420093930E+01  0.11008573160E+02  0.28901852850E+01  0.12408275902E+02  0.00000000000E+00 0. -1.
</event>
<event>
 7    1  0.4871930E-013  0.5052890E+02  0.7816164E-02  0.1300439E+00
        -11   -1    0    0    0    0  0.00000000000E+00  0.00000000000E+00  0.45593999997E+02  0.45594000000E+02  0.51100000000E-03 0.  1.
         11   -1    0    0    0    0 -0.00000000000E+00 -0.00000000000E+00 -0.45593999997E+02  0.45594000000E+02  0.51100000000E-03 0. -1.
    9900012    2    1    2    0    0 -0.16355113705E+02 -0.37219404311E+02  0.62365851628E+00  0.50528895835E+02  0.30000109380E+02 0.  0.
         12    1    1    2    0    0  0.16355113705E+02  0.37219404311E+02 -0.62365851628E+00  0.40659104165E+02  0.00000000000E+00 0. -1.
         11    1    3    3    0    0 -0.65385622416E+01  0.32574273397E+01 -0.20666700699E+01  0.75917556928E+01  0.51100000000E-03 0. -1.
        -11    1    3    3    0    0 -0.84938152601E+01 -0.19061210889E+02  0.46873159923E+01  0.21387977691E+02  0.51100000000E-03 0.  1.
        -12    1    3    3    0    0 -0.13227362038E+01 -0.21415620761E+02 -0.19969874062E+01  0.21549162451E+02  0.00000000000E+00 0.  1.
</event>
<event>
 7    1  0.4871930E-013  0.5052886E+02  0.7816164E-02  0.1300439E+00
        -11   -1    0    0    0    0  0.00000000000E+00  0.00000000000E+00  0.45593999997E+02  0.45594000000E+02  0.51100000000E-03 0. -1.
         11   -1    0    0    0    0 -0.00000000000E+00 -0.00000000000E+00 -0.45593999997E+02  0.45594000000E+02  0.51100000000E-03 0.  1.
    9900012    2    1    2    0    0  0.35017183522E+01  0.40155851901E+01 -0.40308540278E+02  0.50528863570E+02  0.30000011308E+02 0.  0.
         12    1    1    2    0    0 -0.35017183522E+01 -0.40155851901E+01  0.40308540278E+02  0.40659136430E+02  0.00000000000E+00 0. -1.
         11    1    3    3    0    0  0.40129966677E+01 -0.70679735467E+01 -0.11972760898E+02  0.14470915523E+02  0.51100000000E-03 0. -1.
        -11    1    3    3    0    0 -0.95634804403E+01  0.79083110547E+01 -0.13026323112E+02  0.17991293338E+02  0.51100000000E-03 0.  1.
         12    1    3    3    0    0  0.90522021248E+01  0.31752476820E+01 -0.15309456268E+02  0.18066654709E+02  0.00000000000E+00 0. -1.
</event>
<event>
 7    1  0.4871930E-013  0.5052886E+02  0.7816164E-02  0.1300439E+00
        -11   -1    0    0    0    0  0.00000000000E+00  0.00000000000E+00  0.45593999997E+02  0.45594000000E+02  0.51100000000E-03 0.  1.
         11   -1    0    0    0    0 -0.00000000000E+00 -0.00000000000E+00 -0.45593999997E+02  0.45594000000E+02  0.51100000000E-03 0. -1.
    9900012    2    1    2    0    0 -0.20437390939E+01  0.38320246363E+02  0.13436797426E+02  0.50528859873E+02  0.30000000071E+02 0.  0.
         12    1    1    2    0    0  0.20437390939E+01 -0.38320246363E+02 -0.13436797426E+02  0.40659140127E+02  0.00000000000E+00 0. -1.
         11    1    3    3    0    0 -0.34383893841E+01  0.14473597407E+02 -0.11644159938E+01  0.14921910344E+02  0.51100000000E-03 0. -1.
        -11    1    3    3    0    0 -0.10251184281E+02  0.12868177362E+02  0.80020124230E+01  0.18295053180E+02  0.51100000000E-03 0.  1.
        -12    1    3    3    0    0  0.11645834571E+02  0.10978471594E+02  0.65992009968E+01  0.17311896349E+02  0.00000000000E+00 0.  1.
</event>
<event>
 7    1  0.4871930E-013  0.5052886E+02  0.7816164E-02  0.1300439E+00
        -11   -1    0    0    0    0  0.00000000000E+00  0.00000000000E+00  0.45593999997E+02  0.45594000000E+02  0.51100000000E-03 0. -1.
         11   -1    0    0    0    0 -0.00000000000E+00 -0.00000000000E+00 -0.45593999997E+02  0.45594000000E+02  0.51100000000E-03 0.  1.
    9900012    2    1    2    0    0 -0.26230632705E+02  0.92303058336E+00 -0.31052655087E+02  0.50528862460E+02  0.30000007934E+02 0.  0.
         12    1    1    2    0    0  0.26230632705E+02 -0.92303058336E+00  0.31052655087E+02  0.40659137540E+02  0.00000000000E+00 0. -1.
         11    1    3    3    0    0  0.46989695904E+01 -0.12868234493E+01 -0.70767528772E+01  0.85916623157E+01  0.51100000000E-03 0. -1.
        -11    1    3    3    0    0 -0.52441731153E+01  0.35149138039E+01 -0.12016573918E+02  0.13574020027E+02  0.51100000000E-03 0.  1.
        -12    1    3    3    0    0 -0.25685429180E+02 -0.13050597712E+01 -0.11959328291E+02  0.28363180117E+02  0.00000000000E+00 0.  1.
</event>
<event>
 7    1  0.4871930E-013  0.5052885E+02  0.7816164E-02  0.1300439E+00
        -11   -1    0    0    0    0  0.00000000000E+00  0.00000000000E+00  0.45593999997E+02  0.45594000000E+02  0.51100000000E-03 0. -1.
         11   -1    0    0    0    0 -0.00000000000E+00 -0.00000000000E+00 -0.45593999997E+02  0.45594000000E+02  0.51100000000E-03 0.  1.
    9900012    2    1    2    0    0  0.28874767276E+02 -0.10236038690E+02 -0.26732706483E+02  0.50528852576E+02  0.29999977890E+02 0.  0.
         12    1    1    2    0    0 -0.28874767276E+02  0.10236038690E+02  0.26732706483E+02  0.40659147424E+02  0.00000000000E+00 0. -1.
         11    1    3    3    0    0  0.17183200072E+02 -0.54399689391E+01 -0.16190659975E+02  0.24227940430E+02  0.51100000000E-03 0.  1.
        -11    1    3    3    0    0 -0.45838907459E+01 -0.57748696323E+00  0.22840825503E+01  0.51538896884E+01  0.51100000000E-03 0. -1.
         12    1    3    3    0    0  0.16275457949E+02 -0.42185827877E+01 -0.12826129059E+02  0.21147022458E+02  0.00000000000E+00 0. -1.
</event>
<event>
 7    1  0.4871930E-013  0.5052889E+02  0.7816164E-02  0.1300439E+00
        -11   -1    0    0    0    0  0.00000000000E+00  0.00000000000E+00  0.45593999997E+02  0.45594000000E+02  0.51100000000E-03 0.  1.
         11   -1    0    0    0    0 -0.00000000000E+00 -0.00000000000E+00 -0.45593999997E+02  0.45594000000E+02  0.51100000000E-03 0. -1.
    9900012    2    1    2    0    0  0.11197214071E+02  0.37202595309E+02  0.11989699787E+02  0.50528885380E+02  0.30000077602E+02 0.  0.
         12    1    1    2    0    0 -0.11197214071E+02 -0.37202595309E+02 -0.11989699787E+02  0.40659114620E+02  0.00000000000E+00 0. -1.
         11    1    3    3    0    0  0.95937461618E+01  0.46126766255E+01  0.33307779278E+01  0.11153960415E+02  0.51100000000E-03 0. -1.
        -11    1    3    3    0    0  0.46497606125E+01  0.25274325286E+02 -0.23552914562E+01  0.25806185122E+02  0.51100000000E-03 0.  1.
        -12    1    3    3    0    0 -0.30462927035E+01  0.73155933973E+01  0.11014213316E+02  0.13568739844E+02  0.00000000000E+00 0.  1.
</event>
<event>
 7    1  0.4871930E-013  0.5052886E+02  0.7816164E-02  0.1300439E+00
        -11   -1    0    0    0    0  0.00000000000E+00  0.00000000000E+00  0.45593999997E+02  0.45594000000E+02  0.51100000000E-03 0.  1.
         11   -1    0    0    0    0 -0.00000000000E+00 -0.00000000000E+00 -0.45593999997E+02  0.45594000000E+02  0.51100000000E-03 0. -1.
    9900012    2    1    2    0    0 -0.42896645095E+00  0.39068008901E+02  0.11254894039E+02  0.50528856237E+02  0.29999989018E+02 0.  0.
         12    1    1    2    0    0  0.42896645095E+00 -0.39068008901E+02 -0.11254894039E+02  0.40659143763E+02  0.00000000000E+00 0. -1.
         11    1    3    3    0    0 -0.32299423015E+01  0.21201790954E+02  0.42677318574E+01  0.21866915704E+02  0.51100000000E-03 0.  1.
        -11    1    3    3    0    0 -0.66880713847E+01  0.80077094164E+01  0.10216858640E+02  0.14602667896E+02  0.51100000000E-03 0. -1.
        -12    1    3    3    0    0  0.94890472352E+01  0.98585085305E+01 -0.32296964580E+01  0.14059272637E+02  0.00000000000E+00 0.  1.
</event>
<event>
 7    1  0.4871930E-013  0.5052885E+02  0.7816164E-02  0.1300439E+00
        -11   -1    0    0    0    0  0.00000000000E+00  0.00000000000E+00  0.45593999997E+02  0.45594000000E+02  0.51100000000E-03 0.  1.
         11   -1    0    0    0    0 -0.00000000000E+00 -0.00000000000E+00 -0.45593999997E+02  0.45594000000E+02  0.51100000000E-03 0. -1.
    9900012    2    1    2    0    0  0.24250601048E+02  0.68477701243E+00  0.32628296815E+02  0.50528851905E+02  0.29999975851E+02 0.  0.
         12    1    1    2    0    0 -0.24250601048E+02 -0.68477701243E+00 -0.32628296815E+02  0.40659148095E+02  0.00000000000E+00 0. -1.
         11    1    3    3    0    0  0.20820497955E+02 -0.92277373762E+00  0.21939892808E+02  0.30260593899E+02  0.51100000000E-03 0. -1.
        -11    1    3    3    0    0  0.22716807281E+01 -0.70580283145E+01  0.14615487343E+01  0.75572760954E+01  0.51100000000E-03 0.  1.
        -12    1    3    3    0    0  0.11584223646E+01  0.86655790645E+01  0.92268552730E+01  0.12710981910E+02  0.00000000000E+00 0.  1.
</event>
<event>
 7    1  0.4871930E-013  0.5052886E+02  0.7816164E-02  0.1300439E+00
        -11   -1    0    0    0    0  0.00000000000E+00  0.00000000000E+00  0.45593999997E+02  0.45594000000E+02  0.51100000000E-03 0.  1.
         11   -1    0    0    0    0 -0.00000000000E+00 -0.00000000000E+00 -0.45593999997E+02  0.45594000000E+02  0.51100000000E-03 0. -1.
    9900012    2    1    2    0    0 -0.34738987997E+02 -0.19189784971E+02  0.88385839781E+01  0.50528859563E+02  0.29999999128E+02 0.  0.
         12    1    1    2    0    0  0.34738987997E+02  0.19189784971E+02 -0.88385839781E+01  0.40659140437E+02  0.00000000000E+00 0. -1.
         11    1    3    3    0    0 -0.67461432544E+00  0.89490094346E-01  0.69842121218E+01  0.70172880936E+01  0.51100000000E-03 0. -1.
        -11    1    3    3    0    0 -0.13317096234E+02  0.84680003095E+00 -0.41797597354E+01  0.13983294108E+02  0.51100000000E-03 0.  1.
         12    1    3    3    0    0 -0.20747277438E+02 -0.20126075097E+02  0.60341315917E+01  0.29528277361E+02  0.00000000000E+00 0. -1.
</event>
<event>
 7    1  0.4871930E-013  0.5052880E+02  0.7816164E-02  0.1300439E+00
        -11   -1    0    0    0    0  0.00000000000E+00  0.00000000000E+00  0.45593999997E+02  0.45594000000E+02  0.51100000000E-03 0.  1.
         11   -1    0    0    0    0 -0.00000000000E+00 -0.00000000000E+00 -0.45593999997E+02  0.45594000000E+02  0.51100000000E-03 0. -1.
    9900012    2    1    2    0    0  0.17216623197E+02  0.26302710715E+02  0.25786163251E+02  0.50528795378E+02  0.29999804030E+02 0.  0.
         12    1    1    2    0    0 -0.17216623197E+02 -0.26302710715E+02 -0.25786163251E+02  0.40659204622E+02  0.00000000000E+00 0. -1.
         11    1    3    3    0    0  0.16362217520E+02  0.12862837705E+02  0.77140353417E+01  0.22196420827E+02  0.51100000000E-03 0. -1.
        -11    1    3    3    0    0  0.42770014807E+01 -0.11048221175E+01  0.10894229804E+02  0.11755748247E+02  0.51100000000E-03 0.  1.
         12    1    3    3    0    0 -0.34225958039E+01  0.14544695128E+02  0.71778981057E+01  0.16576626304E+02  0.00000000000E+00 0. -1.
</event>
<event>
 7    1  0.4871930E-013  0.5052886E+02  0.7816164E-02  0.1300439E+00
        -11   -1    0    0    0    0  0.00000000000E+00  0.00000000000E+00  0.45593999997E+02  0.45594000000E+02  0.51100000000E-03 0.  1.
         11   -1    0    0    0    0 -0.00000000000E+00 -0.00000000000E+00 -0.45593999997E+02  0.45594000000E+02  0.51100000000E-03 0. -1.
    9900012    2    1    2    0    0  0.39743262405E+02 -0.43167851677E+01  0.74164977628E+01  0.50528856135E+02  0.29999988707E+02 0.  0.
         12    1    1    2    0    0 -0.39743262405E+02  0.43167851677E+01 -0.74164977628E+01  0.40659143865E+02  0.00000000000E+00 0. -1.
         11    1    3    3    0    0  0.19136850836E+02  0.91004446668E+01 -0.47785925871E+01  0.21722617255E+02  0.51100000000E-03 0. -1.
        -11    1    3    3    0    0  0.44233312745E+01 -0.36749155025E+01 -0.90142875591E+00  0.58209481683E+01  0.51100000000E-03 0.  1.
        -12    1    3    3    0    0  0.16183080295E+02 -0.97423143319E+01  0.13096519106E+02  0.22985290711E+02  0.00000000000E+00 0.  1.
</event>
<event>
 7    1  0.4871930E-013  0.5052891E+02  0.7816164E-02  0.1300439E+00
        -11   -1    0    0    0    0  0.00000000000E+00  0.00000000000E+00  0.45593999997E+02  0.45594000000E+02  0.51100000000E-03 0.  1.
         11   -1    0    0    0    0 -0.00000000000E+00 -0.00000000000E+00 -0.45593999997E+02  0.45594000000E+02  0.51100000000E-03 0. -1.
    9900012    2    1    2    0    0 -0.68492903884E+00 -0.31983072695E+01  0.40527318888E+02  0.50528906633E+02  0.30000142200E+02 0.  0.
         12    1    1    2    0    0  0.68492903884E+00  0.31983072695E+01 -0.40527318888E+02  0.40659093367E+02  0.00000000000E+00 0. -1.
         11    1    3    3    0    0  0.18002419005E+01  0.16053000427E+01  0.12538401989E+02  0.12768296043E+02  0.51100000000E-03 0. -1.
        -11    1    3    3    0    0 -0.11606175137E+02 -0.16860087147E+01  0.25088854900E+02  0.27694702872E+02  0.51100000000E-03 0.  1.
         12    1    3    3    0    0  0.91210041979E+01 -0.31175985975E+01  0.29000619991E+01  0.10065907718E+02  0.00000000000E+00 0. -1.
</event>
<event>
 7    1  0.4871930E-013  0.5052886E+02  0.7816164E-02  0.1300439E+00
        -11   -1    0    0    0    0  0.00000000000E+00  0.00000000000E+00  0.45593999997E+02  0.45594000000E+02  0.51100000000E-03 0. -1.
         11   -1    0    0    0    0 -0.00000000000E+00 -0.00000000000E+00 -0.45593999997E+02  0.45594000000E+02  0.51100000000E-03 0.  1.
    9900012    2    1    2    0    0 -0.31247835122E+02 -0.19766348994E+02  0.16912426882E+02  0.50528856682E+02  0.29999990371E+02 0.  0.
         12    1    1    2    0    0  0.31247835122E+02  0.19766348994E+02 -0.16912426882E+02  0.40659143318E+02  0.00000000000E+00 0. -1.
         11    1    3    3    0    0  0.36368849865E+01 -0.45272563324E+01  0.15401524643E+01  0.60079157933E+01  0.51100000000E-03 0.  1.
        -11    1    3    3    0    0 -0.82817073917E+01 -0.90430255309E+00  0.11284277033E+02  0.14026380462E+02  0.51100000000E-03 0. -1.
        -12    1    3    3    0    0 -0.26603012716E+02 -0.14334790108E+02  0.40879973838E+01  0.30494560427E+02  0.00000000000E+00 0.  1.
</event>
<event>
 7    1  0.4871930E-013  0.5052890E+02  0.7816164E-02  0.1300439E+00
        -11   -1    0    0    0    0  0.00000000000E+00  0.00000000000E+00  0.45593999997E+02  0.45594000000E+02  0.51100000000E-03 0. -1.
         11   -1    0    0    0    0 -0.00000000000E+00 -0.00000000000E+00 -0.45593999997E+02  0.45594000000E+02  0.51100000000E-03 0.  1.
    9900012    2    1    2    0    0 -0.21760521160E+02  0.31916472340E+02 -0.12687829677E+02  0.50528898809E+02  0.30000118419E+02 0.  0.
         12    1    1    2    0    0  0.21760521160E+02 -0.31916472340E+02  0.12687829677E+02  0.40659101191E+02  0.00000000000E+00 0. -1.
         11    1    3    3    0    0 -0.40354316395E+01  0.13259419585E+02 -0.82610678106E+01  0.16135121874E+02  0.51100000000E-03 0. -1.
        -11    1    3    3    0    0 -0.10947401292E+02  0.60065641943E+01 -0.12714578976E+02  0.17820912639E+02  0.51100000000E-03 0.  1.
         12    1    3    3    0    0 -0.67776882281E+01  0.12650488560E+02  0.82878171100E+01  0.16572864296E+02  0.00000000000E+00 0. -1.
</event>
<event>
 7    1  0.4871930E-013  0.5052888E+02  0.7816164E-02  0.1300439E+00
        -11   -1    0    0    0    0  0.00000000000E+00  0.00000000000E+00  0.45593999997E+02  0.45594000000E+02  0.51100000000E-03 0. -1.
         11   -1    0    0    0    0 -0.00000000000E+00 -0.00000000000E+00 -0.45593999997E+02  0.45594000000E+02  0.51100000000E-03 0.  1.
    9900012    2    1    2    0    0 -0.16642863627E+02  0.13890585987E+02  0.34398121511E+02  0.50528879839E+02  0.30000060759E+02 0.  0.
         12    1    1    2    0    0  0.16642863627E+02 -0.13890585987E+02 -0.34398121511E+02  0.40659120161E+02  0.00000000000E+00 0. -1.
         11    1    3    3    0    0 -0.56336858420E+01  0.46601974907E+01  0.63233924786E+01  0.96664962379E+01  0.51100000000E-03 0.  1.
        -11    1    3    3    0    0 -0.12563050728E+02 -0.61966208733E+01  0.15562303050E+02  0.20938329215E+02  0.51100000000E-03 0. -1.
         12    1    3    3    0    0  0.15538729428E+01  0.15427009370E+02  0.12512425982E+02  0.19924054386E+02  0.00000000000E+00 0. -1.
</event>
<event>
 7    1  0.4871930E-013  0.5052885E+02  0.7816164E-02  0.1300439E+00
        -11   -1    0    0    0    0  0.00000000000E+00  0.00000000000E+00  0.45593999997E+02  0.45594000000E+02  0.51100000000E-03 0.  1.
         11   -1    0    0    0    0 -0.00000000000E+00 -0.00000000000E+00 -0.45593999997E+02  0.45594000000E+02  0.51100000000E-03 0. -1.
    9900012    2    1    2    0    0 -0.27633231456E+02 -0.25458089717E+01  0.29716821595E+02  0.50528854538E+02  0.29999983853E+02 0.  0.
         12    1    1    2    0    0  0.27633231456E+02  0.25458089717E+01 -0.29716821595E+02  0.40659145462E+02  0.00000000000E+00 0. -1.
         11    1    3    3    0    0 -0.20691046050E+02  0.99202312353E+01  0.12041816655E+02  0.25914006310E+02  0.51100000000E-03 0.  1.
        -11    1    3    3    0    0 -0.48326731278E+01 -0.72687784464E+01  0.35609771784E+01  0.94271113492E+01  0.51100000000E-03 0. -1.
        -12    1    3    3    0    0 -0.21095122786E+01 -0.51972617605E+01  0.14114027761E+02  0.15187736879E+02  0.00000000000E+00 0.  1.
</event>
<event>
 7    1  0.4871930E-013  0.5052886E+02  0.7816164E-02  0.1300439E+00
        -11   -1    0    0    0    0  0.00000000000E+00  0.00000000000E+00  0.45593999997E+02  0.45594000000E+02  0.51100000000E-03 0.  1.
         11   -1    0    0    0    0 -0.00000000000E+00 -0.00000000000E+00 -0.45593999997E+02  0.45594000000E+02  0.51100000000E-03 0. -1.
    9900012    2    1    2    0    0  0.30029949487E+02  0.40391666474E+01  0.27111861112E+02  0.50528859006E+02  0.29999997436E+02 0.  0.
         12    1    1    2    0    0 -0.30029949487E+02 -0.40391666474E+01 -0.27111861112E+02  0.40659140994E+02  0.00000000000E+00 0. -1.
         11    1    3    3    0    0 -0.48406879156E+01  0.53173185552E+00 -0.12046847974E+01  0.50165988463E+01  0.51100000000E-03 0. -1.
        -11    1    3    3    0    0  0.12352293139E+02  0.35350798654E+01  0.76827322905E+01  0.14969980332E+02  0.51100000000E-03 0.  1.
        -12    1    3    3    0    0  0.22518344264E+02 -0.27645073498E-01  0.20633813619E+02  0.30542279828E+02  0.00000000000E+00 0.  1.
</event>
<event>
 7    1  0.4871930E-013  0.5052886E+02  0.7816164E-02  0.1300439E+00
        -11   -1    0    0    0    0  0.00000000000E+00  0.00000000000E+00  0.45593999997E+02  0.45594000000E+02  0.51100000000E-03 0.  1.
         11   -1    0    0    0    0 -0.00000000000E+00 -0.00000000000E+00 -0.45593999997E+02  0.45594000000E+02  0.51100000000E-03 0. -1.
    9900012    2    1    2    0    0  0.15035291476E+00  0.22809787787E+02  0.33657940409E+02  0.50528856164E+02  0.29999988796E+02 0.  0.
         12    1    1    2    0    0 -0.15035291476E+00 -0.22809787787E+02 -0.33657940409E+02  0.40659143836E+02  0.00000000000E+00 0. -1.
         11    1    3    3    0    0 -0.44630214163E+01  0.14483889667E+01 -0.41033720587E-01  0.46923421432E+01  0.51100000000E-03 0. -1.
        -11    1    3    3    0    0 -0.31962538368E+01  0.22737823854E+02  0.22804406540E+02  0.32361483744E+02  0.51100000000E-03 0.  1.
        -12    1    3    3    0    0  0.78096281679E+01 -0.13764250338E+01  0.10894567590E+02  0.13475030277E+02  0.00000000000E+00 0.  1.
</event>
<event>
 7    1  0.4871930E-013  0.5052886E+02  0.7816164E-02  0.1300439E+00
        -11   -1    0    0    0    0  0.00000000000E+00  0.00000000000E+00  0.45593999997E+02  0.45594000000E+02  0.51100000000E-03 0.  1.
         11   -1    0    0    0    0 -0.00000000000E+00 -0.00000000000E+00 -0.45593999997E+02  0.45594000000E+02  0.51100000000E-03 0. -1.
    9900012    2    1    2    0    0 -0.16937043160E+02 -0.27609391270E+02  0.24576892283E+02  0.50528861401E+02  0.30000004715E+02 0.  0.
         12    1    1    2    0    0  0.16937043160E+02  0.27609391270E+02 -0.24576892283E+02  0.40659138599E+02  0.00000000000E+00 0. -1.
         11    1    3    3    0    0 -0.81759967283E+01 -0.10740670400E+02  0.13498490838E+02  0.19089740132E+02  0.51100000000E-03 0. -1.
        -11    1    3    3    0    0  0.30078025942E+01 -0.11704064126E+02 -0.29235243041E+01  0.12432979857E+02  0.51100000000E-03 0.  1.
         12    1    3    3    0    0 -0.11768849026E+02 -0.51646567443E+01  0.14001925749E+02  0.19006141412E+02  0.00000000000E+00 0. -1.
</event>
<event>
 7    1  0.4871930E-013  0.5052887E+02  0.7816164E-02  0.1300439E+00
        -11   -1    0    0    0    0  0.00000000000E+00  0.00000000000E+00  0.45593999997E+02  0.45594000000E+02  0.51100000000E-03 0.  1.
         11   -1    0    0    0    0 -0.00000000000E+00 -0.00000000000E+00 -0.45593999997E+02  0.45594000000E+02  0.51100000000E-03 0. -1.
    9900012    2    1    2    0    0 -0.24237054425E+02  0.22099033419E+02  0.24028374888E+02  0.50528869599E+02  0.30000029632E+02 0.  0.
         12    1    1    2    0    0  0.24237054425E+02 -0.22099033419E+02 -0.24028374888E+02  0.40659130401E+02  0.00000000000E+00 0. -1.
         11    1    3    3    0    0 -0.78839353843E+01  0.19210158847E+01  0.39669495674E+01  0.90323545271E+01  0.51100000000E-03 0. -1.
        -11    1    3    3    0    0 -0.69003488582E+01  0.72899805289E+01  0.23136706090E+02  0.25220344951E+02  0.51100000000E-03 0.  1.
         12    1    3    3    0    0 -0.94527701827E+01  0.12888037005E+02 -0.30752807700E+01  0.16276170120E+02  0.00000000000E+00 0. -1.
</event>
<event>
 7    1  0.4871930E-013  0.5052885E+02  0.7816164E-02  0.1300439E+00
        -11   -1    0    0    0    0  0.00000000000E+00  0.00000000000E+00  0.45593999997E+02  0.45594000000E+02  0.51100000000E-03 0.  1.
         11   -1    0    0    0    0 -0.00000000000E+00 -0.00000000000E+00 -0.45593999997E+02  0.45594000000E+02  0.51100000000E-03 0. -1.
    9900012    2    1    2    0    0 -0.21114273125E+02 -0.15492639862E+02  0.31101956000E+02  0.50528854823E+02  0.29999984720E+02 0.  0.
         12    1    1    2    0    0  0.21114273125E+02  0.15492639862E+02 -0.31101956000E+02  0.40659145177E+02  0.00000000000E+00 0. -1.
         11    1    3    3    0    0 -0.89589123239E+01  0.13021376194E+01 -0.39092519874E+00  0.90614841599E+01  0.51100000000E-03 0. -1.
        -11    1    3    3    0    0 -0.13488695464E+02 -0.40319700334E+01  0.17919974260E+02  0.22788750852E+02  0.51100000000E-03 0.  1.
         12    1    3    3    0    0  0.13333346624E+01 -0.12762807448E+02  0.13572906939E+02  0.18678619811E+02  0.00000000000E+00 0. -1.
</event>
<event>
 7    1  0.4871930E-013  0.5052887E+02  0.7816164E-02  0.1300439E+00
        -11   -1    0    0    0    0  0.00000000000E+00  0.00000000000E+00  0.45593999997E+02  0.45594000000E+02  0.51100000000E-03 0. -1.
         11   -1    0    0    0    0 -0.00000000000E+00 -0.00000000000E+00 -0.45593999997E+02  0.45594000000E+02  0.51100000000E-03 0.  1.
    9900012    2    1    2    0    0 -0.28600971480E+02 -0.85331599361E+01 -0.27610409933E+02  0.50528866650E+02  0.30000020670E+02 0.  0.
         12    1    1    2    0    0  0.28600971480E+02  0.85331599361E+01  0.27610409933E+02  0.40659133350E+02  0.00000000000E+00 0. -1.
         11    1    3    3    0    0  0.33682290026E+01  0.29180082746E+01 -0.65786025176E+01  0.79459266451E+01  0.51100000000E-03 0. -1.
        -11    1    3    3    0    0 -0.11896099539E+02  0.13632188132E+01 -0.20925352107E+01  0.12155420751E+02  0.51100000000E-03 0.  1.
        -12    1    3    3    0    0 -0.20073100944E+02 -0.12814387024E+02 -0.18939272205E+02  0.30427519254E+02  0.00000000000E+00 0.  1.
</event>
<event>
 7    1  0.4871930E-013  0.5052887E+02  0.7816164E-02  0.1300439E+00
        -11   -1    0    0    0    0  0.00000000000E+00  0.00000000000E+00  0.45593999997E+02  0.45594000000E+02  0.51100000000E-03 0. -1.
         11   -1    0    0    0    0 -0.00000000000E+00 -0.00000000000E+00 -0.45593999997E+02  0.45594000000E+02  0.51100000000E-03 0.  1.
    9900012    2    1    2    0    0 -0.58462991751E+01 -0.45417558592E-01 -0.40236599442E+02  0.50528865584E+02  0.30000017430E+02 0.  0.
         12    1    1    2    0    0  0.58462991751E+01  0.45417558592E-01  0.40236599442E+02  0.40659134416E+02  0.00000000000E+00 0. -1.
         11    1    3    3    0    0 -0.13458395649E+02  0.57943595077E+00 -0.11998679609E+02  0.18039747007E+02  0.51100000000E-03 0. -1.
        -11    1    3    3    0    0  0.21271873999E+01  0.31636149459E+01 -0.36448643980E+00  0.38296522539E+01  0.51100000000E-03 0.  1.
        -12    1    3    3    0    0  0.54849090741E+01 -0.37884684552E+01 -0.27873433393E+02  0.28659466323E+02  0.00000000000E+00 0.  1.
</event>
<event>
 7    1  0.4871930E-013  0.5052887E+02  0.7816164E-02  0.1300439E+00
        -11   -1    0    0    0    0  0.00000000000E+00  0.00000000000E+00  0.45593999997E+02  0.45594000000E+02  0.51100000000E-03 0.  1.
         11   -1    0    0    0    0 -0.00000000000E+00 -0.00000000000E+00 -0.45593999997E+02  0.45594000000E+02  0.51100000000E-03 0. -1.
    9900012    2    1    2    0    0  0.47571748668E+01  0.24151958276E+02  0.32360736001E+02  0.50528867744E+02  0.30000023994E+02 0.  0.
         12    1    1    2    0    0 -0.47571748668E+01 -0.24151958276E+02 -0.32360736001E+02  0.40659132256E+02  0.00000000000E+00 0. -1.
         11    1    3    3    0    0  0.65105786128E+01  0.21059510167E+01 -0.35458476462E+01  0.77068605378E+01  0.51100000000E-03 0. -1.
        -11    1    3    3    0    0 -0.24036255719E+01  0.38958496865E+01  0.38649037990E+01  0.59910384998E+01  0.51100000000E-03 0.  1.
        -12    1    3    3    0    0  0.65022182582E+00  0.18150157573E+02  0.32041679848E+02  0.36830968706E+02  0.00000000000E+00 0.  1.
</event>
<event>
 7    1  0.4871930E-013  0.5052884E+02  0.7816164E-02  0.1300439E+00
        -11   -1    0    0    0    0  0.00000000000E+00  0.00000000000E+00  0.45593999997E+02  0.45594000000E+02  0.51100000000E-03 0.  1.
         11   -1    0    0    0    0 -0.00000000000E+00 -0.00000000000E+00 -0.45593999997E+02  0.45594000000E+02  0.51100000000E-03 0. -1.
    9900012    2    1    2    0    0  0.50899709803E+01 -0.79739853566E+01  0.39543333698E+02  0.50528837601E+02  0.29999932372E+02 0.  0.
         12    1    1    2    0    0 -0.50899709803E+01  0.79739853566E+01 -0.39543333698E+02  0.40659162399E+02  0.00000000000E+00 0. -1.
         11    1    3    3    0    0 -0.22390444113E+01 -0.42966291236E+01 -0.10313394826E+01  0.49535848727E+01  0.51100000000E-03 0. -1.
        -11    1    3    3    0    0  0.73875299501E+01 -0.67275655432E+01  0.78445486516E+01  0.12703254729E+02  0.51100000000E-03 0.  1.
        -12    1    3    3    0    0 -0.58514558459E-01  0.30502093102E+01  0.32730124529E+02  0.32871997999E+02  0.00000000000E+00 0.  1.
</event>
<event>
 7    1  0.4871930E-013  0.5052886E+02  0.7816164E-02  0.1300439E+00
        -11   -1    0    0    0    0  0.00000000000E+00  0.00000000000E+00  0.45593999997E+02  0.45594000000E+02  0.51100000000E-03 0.  1.
         11   -1    0    0    0    0 -0.00000000000E+00 -0.00000000000E+00 -0.45593999997E+02  0.45594000000E+02  0.51100000000E-03 0. -1.
    9900012    2    1    2    0    0 -0.18290491071E+02 -0.22128451738E+02  0.28791582425E+02  0.50528860087E+02  0.30000000720E+02 0.  0.
         12    1    1    2    0    0  0.18290491071E+02  0.22128451738E+02 -0.28791582425E+02  0.40659139913E+02  0.00000000000E+00 0. -1.
         11    1    3    3    0    0  0.27958981563E+01 -0.61454674894E+01  0.12841907809E+02  0.14508563457E+02  0.51100000000E-03 0. -1.
        -11    1    3    3    0    0 -0.37534874574E+01 -0.14100537658E+02  0.49628717574E+01  0.15412460111E+02  0.51100000000E-03 0.  1.
         12    1    3    3    0    0 -0.17332901770E+02 -0.18824465909E+01  0.10986802859E+02  0.20607836519E+02  0.00000000000E+00 0. -1.
</event>
<event>
 7    1  0.4871930E-013  0.5052886E+02  0.7816164E-02  0.1300439E+00
        -11   -1    0    0    0    0  0.00000000000E+00  0.00000000000E+00  0.45593999997E+02  0.45594000000E+02  0.51100000000E-03 0.  1.
         11   -1    0    0    0    0 -0.00000000000E+00 -0.00000000000E+00 -0.45593999997E+02  0.45594000000E+02  0.51100000000E-03 0. -1.
    9900012    2    1    2    0    0 -0.24740764440E+02 -0.29249294909E+02  0.13621263008E+02  0.50528862236E+02  0.30000007254E+02 0.  0.
         12    1    1    2    0    0  0.24740764440E+02  0.29249294909E+02 -0.13621263008E+02  0.40659137764E+02  0.00000000000E+00 0. -1.
         11    1    3    3    0    0 -0.10591339975E+02 -0.15035591720E+02 -0.21516804502E+01  0.18516890394E+02  0.51100000000E-03 0. -1.
        -11    1    3    3    0    0 -0.89811769292E+01 -0.13320607675E+01 -0.21622855364E+01  0.93333490197E+01  0.51100000000E-03 0.  1.
        -12    1    3    3    0    0 -0.51682475356E+01 -0.12881642422E+02  0.17935228994E+02  0.22678622823E+02  0.00000000000E+00 0.  1.
</event>
<event>
 7    1  0.4871930E-013  0.5052886E+02  0.7816164E-02  0.1300439E+00
        -11   -1    0    0    0    0  0.00000000000E+00  0.00000000000E+00  0.45593999997E+02  0.45594000000E+02  0.51100000000E-03 0.  1.
         11   -1    0    0    0    0 -0.00000000000E+00 -0.00000000000E+00 -0.45593999997E+02  0.45594000000E+02  0.51100000000E-03 0. -1.
    9900012    2    1    2    0    0 -0.39366923146E+02  0.10612513216E+01  0.10113597647E+02  0.50528858965E+02  0.29999997309E+02 0.  0.
         12    1    1    2    0    0  0.39366923146E+02 -0.10612513216E+01 -0.10113597647E+02  0.40659141035E+02  0.00000000000E+00 0. -1.
         11    1    3    3    0    0  0.22525859040E+01  0.62113522085E+01 -0.22806274560E+00  0.66111309464E+01  0.51100000000E-03 0. -1.
        -11    1    3    3    0    0 -0.83497446707E+01  0.21205556220E+01  0.25246800709E+01  0.89771377361E+01  0.51100000000E-03 0.  1.
         12    1    3    3    0    0 -0.33269764379E+02 -0.72706565089E+01  0.78169803218E+01  0.34940590282E+02  0.00000000000E+00 0. -1.
</event>
<event>
 7    1  0.4871930E-013  0.5052886E+02  0.7816164E-02  0.1300439E+00
        -11   -1    0    0    0    0  0.00000000000E+00  0.00000000000E+00  0.45593999997E+02  0.45594000000E+02  0.51100000000E-03 0.  1.
         11   -1    0    0    0    0 -0.00000000000E+00 -0.00000000000E+00 -0.45593999997E+02  0.45594000000E+02  0.51100000000E-03 0. -1.
    9900012    2    1    2    0    0 -0.15539033973E+02  0.65235565554E+01  0.37001994407E+02  0.50528856415E+02  0.29999989559E+02 0.  0.
         12    1    1    2    0    0  0.15539033973E+02 -0.65235565554E+01 -0.37001994407E+02  0.40659143585E+02  0.00000000000E+00 0. -1.
         11    1    3    3    0    0 -0.77579905004E+00  0.83112067412E+01  0.76813302201E+01  0.11343758454E+02  0.51100000000E-03 0. -1.
        -11    1    3    3    0    0 -0.63913228923E+01  0.97722021218E+01  0.12040947085E+02  0.16772875412E+02  0.51100000000E-03 0.  1.
        -12    1    3    3    0    0 -0.83719120308E+01 -0.11559852308E+02  0.17279717103E+02  0.22412222549E+02  0.00000000000E+00 0.  1.
</event>
<event>
 7    1  0.4871930E-013  0.5052886E+02  0.7816164E-02  0.1300439E+00
        -11   -1    0    0    0    0  0.00000000000E+00  0.00000000000E+00  0.45593999997E+02  0.45594000000E+02  0.51100000000E-03 0.  1.
         11   -1    0    0    0    0 -0.00000000000E+00 -0.00000000000E+00 -0.45593999997E+02  0.45594000000E+02  0.51100000000E-03 0. -1.
    9900012    2    1    2    0    0  0.31270229027E+02  0.25273738853E+02  0.60478820037E+01  0.50528856186E+02  0.29999988863E+02 0.  0.
         12    1    1    2    0    0 -0.31270229027E+02 -0.25273738853E+02 -0.60478820037E+01  0.40659143814E+02  0.00000000000E+00 0. -1.
         11    1    3    3    0    0  0.13116907473E+02  0.42097893376E+01  0.90969129544E+01  0.16508464904E+02  0.51100000000E-03 0.  1.
        -11    1    3    3    0    0  0.17502912058E+02  0.18155754922E+02  0.47582719931E+01  0.25663680951E+02  0.51100000000E-03 0. -1.
         12    1    3    3    0    0  0.65040949491E+00  0.29081945929E+01 -0.78073029438E+01  0.83567103311E+01  0.00000000000E+00 0. -1.
</event>
<event>
 7    1  0.4871930E-013  0.5052885E+02  0.7816164E-02  0.1300439E+00
        -11   -1    0    0    0    0  0.00000000000E+00  0.00000000000E+00  0.45593999997E+02  0.45594000000E+02  0.51100000000E-03 0.  1.
         11   -1    0    0    0    0 -0.00000000000E+00 -0.00000000000E+00 -0.45593999997E+02  0.45594000000E+02  0.51100000000E-03 0. -1.
    9900012    2    1    2    0    0 -0.25105238016E+02 -0.27428474491E+02  0.16449078919E+02  0.50528851140E+02  0.29999973525E+02 0.  0.
         12    1    1    2    0    0  0.25105238016E+02  0.27428474491E+02 -0.16449078919E+02  0.40659148860E+02  0.00000000000E+00 0. -1.
         11    1    3    3    0    0 -0.22194886428E+01 -0.26833164516E+00 -0.50270925696E+01  0.55017989487E+01  0.51100000000E-03 0. -1.
        -11    1    3    3    0    0 -0.55741148143E+01 -0.90336570669E+01  0.16270604085E+02  0.19427050047E+02  0.51100000000E-03 0.  1.
        -12    1    3    3    0    0 -0.17311634559E+02 -0.18126485779E+02  0.52055674032E+01  0.25600002144E+02  0.00000000000E+00 0.  1.
</event>
<event>
 7    1  0.4871930E-013  0.5052886E+02  0.7816164E-02  0.1300439E+00
        -11   -1    0    0    0    0  0.00000000000E+00  0.00000000000E+00  0.45593999997E+02  0.45594000000E+02  0.51100000000E-03 0.  1.
         11   -1    0    0    0    0 -0.00000000000E+00 -0.00000000000E+00 -0.45593999997E+02  0.45594000000E+02  0.51100000000E-03 0. -1.
    9900012    2    1    2    0    0  0.29362015343E+02  0.27256561258E+01  0.27993008268E+02  0.50528860090E+02  0.30000000730E+02 0.  0.
         12    1    1    2    0    0 -0.29362015343E+02 -0.27256561258E+01 -0.27993008268E+02  0.40659139910E+02  0.00000000000E+00 0. -1.
         11    1    3    3    0    0 -0.95393028129E+00  0.46234087927E+00  0.96492588873E+01  0.97073137070E+01  0.51100000000E-03 0. -1.
        -11    1    3    3    0    0  0.13188671673E+02 -0.33616997141E+01  0.18284698827E+02  0.22794128563E+02  0.51100000000E-03 0.  1.
         12    1    3    3    0    0  0.17127273951E+02  0.56250149606E+01  0.59050553670E-01  0.18027417820E+02  0.00000000000E+00 0. -1.
</event>
<event>
 7    1  0.4871930E-013  0.5052893E+02  0.7816164E-02  0.1300439E+00
        -11   -1    0    0    0    0  0.00000000000E+00  0.00000000000E+00  0.45593999997E+02  0.45594000000E+02  0.51100000000E-03 0. -1.
         11   -1    0    0    0    0 -0.00000000000E+00 -0.00000000000E+00 -0.45593999997E+02  0.45594000000E+02  0.51100000000E-03 0.  1.
    9900012    2    1    2    0    0 -0.22426389613E+02 -0.32220419484E+02 -0.10585925200E+02  0.50528927272E+02  0.30000204934E+02 0.  0.
         12    1    1    2    0    0  0.22426389613E+02  0.32220419484E+02  0.10585925200E+02  0.40659072728E+02  0.00000000000E+00 0. -1.
         11    1    3    3    0    0  0.25090303662E+01 -0.67969291633E+01 -0.71143117322E+01  0.10154157331E+02  0.51100000000E-03 0. -1.
        -11    1    3    3    0    0 -0.11318263252E+02 -0.12737408105E+02 -0.11018815661E+02  0.20291844350E+02  0.51100000000E-03 0.  1.
         12    1    3    3    0    0 -0.13617156727E+02 -0.12686082216E+02  0.75472021937E+01  0.20082925590E+02  0.00000000000E+00 0. -1.
</event>
<event>
 7    1  0.4871930E-013  0.5052887E+02  0.7816164E-02  0.1300439E+00
        -11   -1    0    0    0    0  0.00000000000E+00  0.00000000000E+00  0.45593999997E+02  0.45594000000E+02  0.51100000000E-03 0.  1.
         11   -1    0    0    0    0 -0.00000000000E+00 -0.00000000000E+00 -0.45593999997E+02  0.45594000000E+02  0.51100000000E-03 0. -1.
    9900012    2    1    2    0    0 -0.22882740146E+00 -0.38550640642E+02 -0.12921333098E+02  0.50528866894E+02  0.30000021412E+02 0.  0.
         12    1    1    2    0    0  0.22882740146E+00  0.38550640642E+02  0.12921333098E+02  0.40659133106E+02  0.00000000000E+00 0. -1.
         11    1    3    3    0    0 -0.90383812713E+01 -0.61060637065E+01 -0.21959475304E+01  0.11126479039E+02  0.51100000000E-03 0. -1.
        -11    1    3    3    0    0  0.21806044439E+00 -0.31609642552E+01 -0.81874013995E+01  0.87791108501E+01  0.51100000000E-03 0.  1.
        -12    1    3    3    0    0  0.85914934254E+01 -0.29283612680E+02 -0.25379841683E+01  0.30623277005E+02  0.00000000000E+00 0.  1.
</event>
<event>
 7    1  0.4871930E-013  0.5052886E+02  0.7816164E-02  0.1300439E+00
        -11   -1    0    0    0    0  0.00000000000E+00  0.00000000000E+00  0.45593999997E+02  0.45594000000E+02  0.51100000000E-03 0.  1.
         11   -1    0    0    0    0 -0.00000000000E+00 -0.00000000000E+00 -0.45593999997E+02  0.45594000000E+02  0.51100000000E-03 0. -1.
    9900012    2    1    2    0    0  0.33132869450E+02 -0.19700816700E+01  0.23483980198E+02  0.50528860982E+02  0.30000003440E+02 0.  0.
         12    1    1    2    0    0 -0.33132869450E+02  0.19700816700E+01 -0.23483980198E+02  0.40659139018E+02  0.00000000000E+00 0. -1.
         11    1    3    3    0    0  0.15602186263E+02 -0.63494805658E+01  0.77241439019E+01  0.18531230907E+02  0.51100000000E-03 0. -1.
        -11    1    3    3    0    0  0.20766865797E+02  0.37631286708E+01  0.18223432079E+02  0.27883997731E+02  0.51100000000E-03 0.  1.
        -12    1    3    3    0    0 -0.32361826109E+01  0.61627022504E+00 -0.24635957828E+01  0.41136323441E+01  0.00000000000E+00 0.  1.
</event>
<event>
 7    1  0.4871930E-013  0.5052885E+02  0.7816164E-02  0.1300439E+00
        -11   -1    0    0    0    0  0.00000000000E+00  0.00000000000E+00  0.45593999997E+02  0.45594000000E+02  0.51100000000E-03 0. -1.
         11   -1    0    0    0    0 -0.00000000000E+00 -0.00000000000E+00 -0.45593999997E+02  0.45594000000E+02  0.51100000000E-03 0.  1.
    9900012    2    1    2    0    0  0.24223722392E+02 -0.11720103295E+02 -0.30479783309E+02  0.50528846808E+02  0.29999960357E+02 0.  0.
         12    1    1    2    0    0 -0.24223722392E+02  0.11720103295E+02  0.30479783309E+02  0.40659153192E+02  0.00000000000E+00 0. -1.
         11    1    3    3    0    0 -0.30608278091E+01  0.28884486798E+01 -0.36058996921E+01  0.55420497565E+01  0.51100000000E-03 0. -1.
        -11    1    3    3    0    0  0.78398661350E+01 -0.13342861438E+00 -0.17170058760E+02  0.18875704551E+02  0.51100000000E-03 0.  1.
         12    1    3    3    0    0  0.19444684066E+02 -0.14475123361E+02 -0.97038248570E+01  0.26111092501E+02  0.00000000000E+00 0. -1.
</event>
<event>
 7    1  0.4871930E-013  0.5052886E+02  0.7816164E-02  0.1300439E+00
        -11   -1    0    0    0    0  0.00000000000E+00  0.00000000000E+00  0.45593999997E+02  0.45594000000E+02  0.51100000000E-03 0. -1.
         11   -1    0    0    0    0 -0.00000000000E+00 -0.00000000000E+00 -0.45593999997E+02  0.45594000000E+02  0.51100000000E-03 0.  1.
    9900012    2    1    2    0    0  0.16949522582E+02  0.26597111459E+02 -0.25660733382E+02  0.50528857222E+02  0.29999992012E+02 0.  0.
         12    1    1    2    0    0 -0.16949522582E+02 -0.26597111459E+02  0.25660733382E+02  0.40659142778E+02  0.00000000000E+00 0. -1.
         11    1    3    3    0    0  0.98720873823E+01  0.26224329482E+02 -0.16245665066E+02  0.32389739112E+02  0.51100000000E-03 0.  1.
        -11    1    3    3    0    0  0.72784216989E+01  0.47839769165E+01 -0.11727659165E+01  0.87884718649E+01  0.51100000000E-03 0. -1.
        -12    1    3    3    0    0 -0.20098649929E+00 -0.44111949388E+01 -0.82423023993E+01  0.93506462452E+01  0.00000000000E+00 0.  1.
</event>
<event>
 7    1  0.4871930E-013  0.5052885E+02  0.7816164E-02  0.1300439E+00
        -11   -1    0    0    0    0  0.00000000000E+00  0.00000000000E+00  0.45593999997E+02  0.45594000000E+02  0.51100000000E-03 0.  1.
         11   -1    0    0    0    0 -0.00000000000E+00 -0.00000000000E+00 -0.45593999997E+02  0.45594000000E+02  0.51100000000E-03 0. -1.
    9900012    2    1    2    0    0 -0.31900159172E+02 -0.16735976531E+02  0.18853467729E+02  0.50528852062E+02  0.29999976328E+02 0.  0.
         12    1    1    2    0    0  0.31900159172E+02  0.16735976531E+02 -0.18853467729E+02  0.40659147938E+02  0.00000000000E+00 0. -1.
         11    1    3    3    0    0 -0.45864289420E+01 -0.55069081566E+01 -0.44960709186E+01  0.84602613347E+01  0.51100000000E-03 0. -1.
        -11    1    3    3    0    0  0.14614815324E-01 -0.68999972932E+01  0.74591916697E+01  0.10161186784E+02  0.51100000000E-03 0.  1.
        -12    1    3    3    0    0 -0.27328345045E+02 -0.43290710815E+01  0.15890346978E+02  0.31907403943E+02  0.00000000000E+00 0.  1.
</event>
<event>
 7    1  0.4871930E-013  0.5052886E+02  0.7816164E-02  0.1300439E+00
        -11   -1    0    0    0    0  0.00000000000E+00  0.00000000000E+00  0.45593999997E+02  0.45594000000E+02  0.51100000000E-03 0.  1.
         11   -1    0    0    0    0 -0.00000000000E+00 -0.00000000000E+00 -0.45593999997E+02  0.45594000000E+02  0.51100000000E-03 0. -1.
    9900012    2    1    2    0    0  0.36202300387E+01  0.11754957019E+01  0.40480586127E+02  0.50528859467E+02  0.29999998837E+02 0.  0.
         12    1    1    2    0    0 -0.36202300387E+01 -0.11754957019E+01 -0.40480586127E+02  0.40659140533E+02  0.00000000000E+00 0. -1.
         11    1    3    3    0    0 -0.19011958850E+01 -0.73599646185E+01  0.12470240927E+02  0.14604469659E+02  0.51100000000E-03 0. -1.
        -11    1    3    3    0    0 -0.70307968955E+01  0.65633048688E+01  0.99157635689E+01  0.13814175444E+02  0.51100000000E-03 0.  1.
        -12    1    3    3    0    0  0.12552222819E+02  0.19721554516E+01  0.18094581631E+02  0.22110214364E+02  0.00000000000E+00 0.  1.
</event>
<event>
 7    1  0.4871930E-013  0.5052886E+02  0.7816164E-02  0.1300439E+00
        -11   -1    0    0    0    0  0.00000000000E+00  0.00000000000E+00  0.45593999997E+02  0.45594000000E+02  0.51100000000E-03 0.  1.
         11   -1    0    0    0    0 -0.00000000000E+00 -0.00000000000E+00 -0.45593999997E+02  0.45594000000E+02  0.51100000000E-03 0. -1.
    9900012    2    1    2    0    0  0.26080279458E+02  0.47461172126E+01  0.30829517530E+02  0.50528858883E+02  0.29999997062E+02 0.  0.
         12    1    1    2    0    0 -0.26080279458E+02 -0.47461172126E+01 -0.30829517530E+02  0.40659141117E+02  0.00000000000E+00 0. -1.
         11    1    3    3    0    0  0.17588465536E+01 -0.24610266439E+01 -0.17486023990E+01  0.34939667932E+01  0.51100000000E-03 0. -1.
        -11    1    3    3    0    0  0.16049433410E+02  0.12287366965E+02  0.10197404640E+02  0.22639583949E+02  0.51100000000E-03 0.  1.
        -12    1    3    3    0    0  0.82719994945E+01 -0.50802231088E+01  0.22380715289E+02  0.24395308141E+02  0.00000000000E+00 0.  1.
</event>
<event>
 7    1  0.4871930E-013  0.5052889E+02  0.7816164E-02  0.1300439E+00
        -11   -1    0    0    0    0  0.00000000000E+00  0.00000000000E+00  0.45593999997E+02  0.45594000000E+02  0.51100000000E-03 0.  1.
         11   -1    0    0    0    0 -0.00000000000E+00 -0.00000000000E+00 -0.45593999997E+02  0.45594000000E+02  0.51100000000E-03 0. -1.
    9900012    2    1    2    0    0  0.16166566103E+02 -0.35838656401E+01  0.37134366586E+02  0.50528891128E+02  0.30000095074E+02 0.  0.
         12    1    1    2    0    0 -0.16166566103E+02  0.35838656401E+01 -0.37134366586E+02  0.40659108872E+02  0.00000000000E+00 0. -1.
         11    1    3    3    0    0 -0.36626587425E+01  0.13968903990E+01  0.92820335494E-01  0.39210952203E+01  0.51100000000E-03 0. -1.
        -11    1    3    3    0    0  0.31317767673E+00  0.83521357477E+00  0.20094603509E+02  0.20114391674E+02  0.51100000000E-03 0.  1.
         12    1    3    3    0    0  0.19516047168E+02 -0.58159696140E+01  0.16946942742E+02  0.26493404234E+02  0.00000000000E+00 0. -1.
</event>
<event>
 7    1  0.4871930E-013  0.5052878E+02  0.7816164E-02  0.1300439E+00
        -11   -1    0    0    0    0  0.00000000000E+00  0.00000000000E+00  0.45593999997E+02  0.45594000000E+02  0.51100000000E-03 0.  1.
         11   -1    0    0    0    0 -0.00000000000E+00 -0.00000000000E+00 -0.45593999997E+02  0.45594000000E+02  0.51100000000E-03 0. -1.
    9900012    2    1    2    0    0 -0.81851827029E+01  0.92718185508E+01  0.38732522923E+02  0.50528780048E+02  0.29999757432E+02 0.  0.
         12    1    1    2    0    0  0.81851827029E+01 -0.92718185508E+01 -0.38732522923E+02  0.40659219952E+02  0.00000000000E+00 0. -1.
         11    1    3    3    0    0 -0.82943144004E+01  0.66443714945E+01  0.28045618779E+02  0.29991666457E+02  0.51100000000E-03 0.  1.
        -11    1    3    3    0    0 -0.77754519233E+01  0.49235689314E+01  0.68512193975E+01  0.11473377494E+02  0.51100000000E-03 0. -1.
        -12    1    3    3    0    0  0.78845836208E+01 -0.22961218750E+01  0.38356847467E+01  0.90637360958E+01  0.00000000000E+00 0.  1.
</event>
<event>
 7    1  0.4871930E-013  0.5052886E+02  0.7816164E-02  0.1300439E+00
        -11   -1    0    0    0    0  0.00000000000E+00  0.00000000000E+00  0.45593999997E+02  0.45594000000E+02  0.51100000000E-03 0.  1.
         11   -1    0    0    0    0 -0.00000000000E+00 -0.00000000000E+00 -0.45593999997E+02  0.45594000000E+02  0.51100000000E-03 0. -1.
    9900012    2    1    2    0    0 -0.19232370897E+02 -0.34616267304E+02  0.92193181466E+01  0.50528857369E+02  0.29999992459E+02 0.  0.
         12    1    1    2    0    0  0.19232370897E+02  0.34616267304E+02 -0.92193181466E+01  0.40659142631E+02  0.00000000000E+00 0. -1.
         11    1    3    3    0    0 -0.21560711284E+01  0.34115596245E+01  0.15332852712E+01  0.43172150475E+01  0.51100000000E-03 0. -1.
        -11    1    3    3    0    0 -0.54558380669E+01  0.20322449351E+00  0.21681101431E+01  0.58743655879E+01  0.51100000000E-03 0.  1.
         12    1    3    3    0    0 -0.11620461702E+02 -0.38231051422E+02  0.55179227323E+01  0.40337276734E+02  0.00000000000E+00 0. -1.
</event>
<event>
 7    1  0.4871930E-013  0.5052885E+02  0.7816164E-02  0.1300439E+00
        -11   -1    0    0    0    0  0.00000000000E+00  0.00000000000E+00  0.45593999997E+02  0.45594000000E+02  0.51100000000E-03 0.  1.
         11   -1    0    0    0    0 -0.00000000000E+00 -0.00000000000E+00 -0.45593999997E+02  0.45594000000E+02  0.51100000000E-03 0. -1.
    9900012    2    1    2    0    0 -0.32456896374E+02 -0.22420366181E+02  0.98510666300E+01  0.50528850284E+02  0.29999970922E+02 0.  0.
         12    1    1    2    0    0  0.32456896374E+02  0.22420366181E+02 -0.98510666300E+01  0.40659149716E+02  0.00000000000E+00 0. -1.
         11    1    3    3    0    0 -0.21485676830E+02 -0.19087101383E+02  0.27279517686E+01  0.28868555024E+02  0.51100000000E-03 0. -1.
        -11    1    3    3    0    0 -0.12989013848E+02 -0.65294681301E+01  0.93387826530E+01  0.17278926370E+02  0.51100000000E-03 0.  1.
         12    1    3    3    0    0  0.20177943037E+01  0.31962033316E+01 -0.22156677916E+01  0.43813688902E+01  0.00000000000E+00 0. -1.
</event>
<event>
 7    1  0.4871930E-013  0.5052887E+02  0.7816164E-02  0.1300439E+00
        -11   -1    0    0    0    0  0.00000000000E+00  0.00000000000E+00  0.45593999997E+02  0.45594000000E+02  0.51100000000E-03 0. -1.
         11   -1    0    0    0    0 -0.00000000000E+00 -0.00000000000E+00 -0.45593999997E+02  0.45594000000E+02  0.51100000000E-03 0.  1.
    9900012    2    1    2    0    0 -0.16778401396E+02 -0.28310352753E+01 -0.36927433334E+02  0.50528870069E+02  0.30000031062E+02 0.  0.
         12    1    1    2    0    0  0.16778401396E+02  0.28310352753E+01  0.36927433334E+02  0.40659129931E+02  0.00000000000E+00 0. -1.
         11    1    3    3    0    0 -0.10367858871E+02 -0.70530565786E+01 -0.13545086752E+02  0.18458263192E+02  0.51100000000E-03 0. -1.
        -11    1    3    3    0    0 -0.91575502214E+01  0.42089970868E+01 -0.17072017497E+01  0.10222080053E+02  0.51100000000E-03 0.  1.
        -12    1    3    3    0    0  0.27470076964E+01  0.13024216543E-01 -0.21675144832E+02  0.21848526824E+02  0.00000000000E+00 0.  1.
</event>
<event>
 7    1  0.4871930E-013  0.5052886E+02  0.7816164E-02  0.1300439E+00
        -11   -1    0    0    0    0  0.00000000000E+00  0.00000000000E+00  0.45593999997E+02  0.45594000000E+02  0.51100000000E-03 0.  1.
         11   -1    0    0    0    0 -0.00000000000E+00 -0.00000000000E+00 -0.45593999997E+02  0.45594000000E+02  0.51100000000E-03 0. -1.
    9900012    2    1    2    0    0 -0.17941553923E+02 -0.34346053169E+02  0.12313208205E+02  0.50528858079E+02  0.29999994617E+02 0.  0.
         12    1    1    2    0    0  0.17941553923E+02  0.34346053169E+02 -0.12313208205E+02  0.40659141921E+02  0.00000000000E+00 0. -1.
         11    1    3    3    0    0  0.12848392642E+01 -0.13521530211E+02  0.95207664125E+01  0.16586970324E+02  0.51100000000E-03 0. -1.
        -11    1    3    3    0    0 -0.93444708613E+01 -0.21366511361E+02 -0.10035046056E+01  0.23342107128E+02  0.51100000000E-03 0.  1.
         12    1    3    3    0    0 -0.98819223262E+01  0.54198840324E+00  0.37959463979E+01  0.10599780627E+02  0.00000000000E+00 0. -1.
</event>
<event>
 7    1  0.4871930E-013  0.5052888E+02  0.7816164E-02  0.1300439E+00
        -11   -1    0    0    0    0  0.00000000000E+00  0.00000000000E+00  0.45593999997E+02  0.45594000000E+02  0.51100000000E-03 0.  1.
         11   -1    0    0    0    0 -0.00000000000E+00 -0.00000000000E+00 -0.45593999997E+02  0.45594000000E+02  0.51100000000E-03 0. -1.
    9900012    2    1    2    0    0  0.85158304281E+00 -0.12003627551E+02  0.38837504586E+02  0.50528880106E+02  0.30000061570E+02 0.  0.
         12    1    1    2    0    0 -0.85158304281E+00  0.12003627551E+02 -0.38837504586E+02  0.40659119894E+02  0.00000000000E+00 0. -1.
         11    1    3    3    0    0  0.34498792634E+01 -0.34906038288E+01  0.49191752998E+01  0.69486882152E+01  0.51100000000E-03 0. -1.
        -11    1    3    3    0    0 -0.76297138595E+01 -0.71156899332E+01  0.12619495976E+01  0.10508953033E+02  0.51100000000E-03 0.  1.
        -12    1    3    3    0    0  0.50314176390E+01 -0.13973337892E+01  0.32656379689E+02  0.33071238858E+02  0.00000000000E+00 0.  1.
</event>
<event>
 7    1  0.4871930E-013  0.5052886E+02  0.7816164E-02  0.1300439E+00
        -11   -1    0    0    0    0  0.00000000000E+00  0.00000000000E+00  0.45593999997E+02  0.45594000000E+02  0.51100000000E-03 0.  1.
         11   -1    0    0    0    0 -0.00000000000E+00 -0.00000000000E+00 -0.45593999997E+02  0.45594000000E+02  0.51100000000E-03 0. -1.
    9900012    2    1    2    0    0 -0.76432418975E+01 -0.16355500857E+02  0.36431359018E+02  0.50528862344E+02  0.30000007582E+02 0.  0.
         12    1    1    2    0    0  0.76432418975E+01  0.16355500857E+02 -0.36431359018E+02  0.40659137656E+02  0.00000000000E+00 0. -1.
         11    1    3    3    0    0 -0.23094247779E+01 -0.69934753756E+01 -0.96784861615E+00  0.74282482348E+01  0.51100000000E-03 0. -1.
        -11    1    3    3    0    0  0.39885873458E+01 -0.11069600268E+02  0.23449611389E+02  0.26236027779E+02  0.51100000000E-03 0.  1.
         12    1    3    3    0    0 -0.93224044654E+01  0.17075747866E+01  0.13949596246E+02  0.16864586330E+02  0.00000000000E+00 0. -1.
</event>
<event>
 7    1  0.4871930E-013  0.5052885E+02  0.7816164E-02  0.1300439E+00
        -11   -1    0    0    0    0  0.00000000000E+00  0.00000000000E+00  0.45593999997E+02  0.45594000000E+02  0.51100000000E-03 0.  1.
         11   -1    0    0    0    0 -0.00000000000E+00 -0.00000000000E+00 -0.45593999997E+02  0.45594000000E+02  0.51100000000E-03 0. -1.
    9900012    2    1    2    0    0  0.34411357541E+02  0.11683164584E+02  0.18235358407E+02  0.50528853935E+02  0.29999982020E+02 0.  0.
         12    1    1    2    0    0 -0.34411357541E+02 -0.11683164584E+02 -0.18235358407E+02  0.40659146065E+02  0.00000000000E+00 0. -1.
         11    1    3    3    0    0  0.20065144364E+02  0.18420712188E+02  0.20751330997E+02  0.34242523188E+02  0.51100000000E-03 0. -1.
        -11    1    3    3    0    0  0.29348488128E+01 -0.15599812599E+01  0.59114722076E+00  0.33758457286E+01  0.51100000000E-03 0.  1.
         12    1    3    3    0    0  0.11411364365E+02 -0.51775663431E+01 -0.31071198112E+01  0.12910485019E+02  0.00000000000E+00 0. -1.
</event>
<event>
 7    1  0.4871930E-013  0.5052886E+02  0.7816164E-02  0.1300439E+00
        -11   -1    0    0    0    0  0.00000000000E+00  0.00000000000E+00  0.45593999997E+02  0.45594000000E+02  0.51100000000E-03 0. -1.
         11   -1    0    0    0    0 -0.00000000000E+00 -0.00000000000E+00 -0.45593999997E+02  0.45594000000E+02  0.51100000000E-03 0.  1.
    9900012    2    1    2    0    0 -0.34002662762E+01  0.42140085697E+01 -0.40296976355E+02  0.50528856104E+02  0.29999988615E+02 0.  0.
         12    1    1    2    0    0  0.34002662762E+01 -0.42140085697E+01  0.40296976355E+02  0.40659143896E+02  0.00000000000E+00 0. -1.
         11    1    3    3    0    0 -0.50603128721E+01  0.20492121169E+01 -0.49700123612E+01  0.73828896643E+01  0.51100000000E-03 0. -1.
        -11    1    3    3    0    0  0.84016569378E+00  0.98979831951E+01 -0.33788861345E+02  0.35218789033E+02  0.51100000000E-03 0.  1.
        -12    1    3    3    0    0  0.81988090209E+00 -0.77331867423E+01 -0.15381026490E+01  0.79271774072E+01  0.00000000000E+00 0.  1.
</event>
<event>
 7    1  0.4871930E-013  0.5052886E+02  0.7816164E-02  0.1300439E+00
        -11   -1    0    0    0    0  0.00000000000E+00  0.00000000000E+00  0.45593999997E+02  0.45594000000E+02  0.51100000000E-03 0. -1.
         11   -1    0    0    0    0 -0.00000000000E+00 -0.00000000000E+00 -0.45593999997E+02  0.45594000000E+02  0.51100000000E-03 0.  1.
    9900012    2    1    2    0    0 -0.96806850551E+01  0.27684745635E+02 -0.28160343688E+02  0.50528858830E+02  0.29999996901E+02 0.  0.
         12    1    1    2    0    0  0.96806850551E+01 -0.27684745635E+02  0.28160343688E+02  0.40659141170E+02  0.00000000000E+00 0. -1.
         11    1    3    3    0    0 -0.11115876717E+01  0.68048640861E+01 -0.14182980366E+02  0.15770184992E+02  0.51100000000E-03 0. -1.
        -11    1    3    3    0    0 -0.12148253126E+02  0.19319041905E+02 -0.18064949421E+02  0.29105804095E+02  0.51100000000E-03 0.  1.
         12    1    3    3    0    0  0.35791557426E+01  0.15608396434E+01  0.40875860984E+01  0.56528697432E+01  0.00000000000E+00 0. -1.
</event>
<event>
 7    1  0.4871930E-013  0.5052886E+02  0.7816164E-02  0.1300439E+00
        -11   -1    0    0    0    0  0.00000000000E+00  0.00000000000E+00  0.45593999997E+02  0.45594000000E+02  0.51100000000E-03 0.  1.
         11   -1    0    0    0    0 -0.00000000000E+00 -0.00000000000E+00 -0.45593999997E+02  0.45594000000E+02  0.51100000000E-03 0. -1.
    9900012    2    1    2    0    0  0.32345000590E+02  0.24583484392E+02  0.16183937642E+01  0.50528856300E+02  0.29999989209E+02 0.  0.
         12    1    1    2    0    0 -0.32345000590E+02 -0.24583484392E+02 -0.16183937642E+01  0.40659143700E+02  0.00000000000E+00 0. -1.
         11    1    3    3    0    0 -0.73755995416E-01 -0.99781327405E+00  0.41822479704E+01  0.43002639016E+01  0.51100000000E-03 0. -1.
        -11    1    3    3    0    0  0.24864752174E+02  0.75243077046E+01 -0.51538387290E+01  0.26484583460E+02  0.51100000000E-03 0.  1.
         12    1    3    3    0    0  0.75540044113E+01  0.18056989962E+02  0.25899845228E+01  0.19744008938E+02  0.00000000000E+00 0. -1.
</event>
<event>
 7    1  0.4871930E-013  0.5052892E+02  0.7816164E-02  0.1300439E+00
        -11   -1    0    0    0    0  0.00000000000E+00  0.00000000000E+00  0.45593999997E+02  0.45594000000E+02  0.51100000000E-03 0. -1.
         11   -1    0    0    0    0 -0.00000000000E+00 -0.00000000000E+00 -0.45593999997E+02  0.45594000000E+02  0.51100000000E-03 0.  1.
    9900012    2    1    2    0    0  0.47043530085E+01  0.17007874407E+02 -0.36630065851E+02  0.50528924097E+02  0.30000195284E+02 0.  0.
         12    1    1    2    0    0 -0.47043530085E+01 -0.17007874407E+02  0.36630065851E+02  0.40659075903E+02  0.00000000000E+00 0. -1.
         11    1    3    3    0    0  0.60241708484E+00 -0.12760068575E+01  0.10926727154E+01  0.17846662905E+01  0.51100000000E-03 0. -1.
        -11    1    3    3    0    0  0.39909254192E+01 -0.51232310506E+01 -0.37837162057E+01  0.75160821368E+01  0.51100000000E-03 0.  1.
        -12    1    3    3    0    0  0.11101050450E+00  0.23407112315E+02 -0.33939022360E+02  0.41228175670E+02  0.00000000000E+00 0.  1.
</event>
<event>
 7    1  0.4871930E-013  0.5052886E+02  0.7816164E-02  0.1300439E+00
        -11   -1    0    0    0    0  0.00000000000E+00  0.00000000000E+00  0.45593999997E+02  0.45594000000E+02  0.51100000000E-03 0.  1.
         11   -1    0    0    0    0 -0.00000000000E+00 -0.00000000000E+00 -0.45593999997E+02  0.45594000000E+02  0.51100000000E-03 0. -1.
    9900012    2    1    2    0    0  0.25203084599E+02  0.16718520868E+02  0.27174642728E+02  0.50528860551E+02  0.30000002131E+02 0.  0.
         12    1    1    2    0    0 -0.25203084599E+02 -0.16718520868E+02 -0.27174642728E+02  0.40659139449E+02  0.00000000000E+00 0. -1.
         11    1    3    3    0    0 -0.17205934937E+01 -0.17156731586E+01  0.52468398649E+01  0.57821540266E+01  0.51100000000E-03 0. -1.
        -11    1    3    3    0    0  0.15101279945E+02  0.12170823748E+02  0.39905770163E+00  0.19399403444E+02  0.51100000000E-03 0.  1.
         12    1    3    3    0    0  0.11822398148E+02  0.62633702785E+01  0.21528745162E+02  0.25347303080E+02  0.00000000000E+00 0. -1.
</event>
<event>
 7    1  0.4871930E-013  0.5052886E+02  0.7816164E-02  0.1300439E+00
        -11   -1    0    0    0    0  0.00000000000E+00  0.00000000000E+00  0.45593999997E+02  0.45594000000E+02  0.51100000000E-03 0. -1.
         11   -1    0    0    0    0 -0.00000000000E+00 -0.00000000000E+00 -0.45593999997E+02  0.45594000000E+02  0.51100000000E-03 0.  1.
    9900012    2    1    2    0    0  0.66789980419E+01  0.34244859162E+02 -0.20876939048E+02  0.50528856159E+02  0.29999988781E+02 0.  0.
         12    1    1    2    0    0 -0.66789980419E+01 -0.34244859162E+02  0.20876939048E+02  0.40659143841E+02  0.00000000000E+00 0. -1.
         11    1    3    3    0    0 -0.68500854019E+01  0.45846032590E+01 -0.10268719717E+02  0.13167720453E+02  0.51100000000E-03 0. -1.
        -11    1    3    3    0    0  0.98019004493E+00  0.73079568262E+01 -0.90589584494E+01  0.11680399563E+02  0.51100000000E-03 0.  1.
        -12    1    3    3    0    0  0.12548893399E+02  0.22352299077E+02 -0.15492608822E+01  0.25680736143E+02  0.00000000000E+00 0.  1.
</event>
<event>
 7    1  0.4871930E-013  0.5052886E+02  0.7816164E-02  0.1300439E+00
        -11   -1    0    0    0    0  0.00000000000E+00  0.00000000000E+00  0.45593999997E+02  0.45594000000E+02  0.51100000000E-03 0.  1.
         11   -1    0    0    0    0 -0.00000000000E+00 -0.00000000000E+00 -0.45593999997E+02  0.45594000000E+02  0.51100000000E-03 0. -1.
    9900012    2    1    2    0    0  0.11433982066E+02 -0.11652103603E+02  0.37237859586E+02  0.50528860182E+02  0.30000001008E+02 0.  0.
         12    1    1    2    0    0 -0.11433982066E+02  0.11652103603E+02 -0.37237859586E+02  0.40659139818E+02  0.00000000000E+00 0. -1.
         11    1    3    3    0    0 -0.12001106820E+01 -0.39110911796E+01 -0.25580511954E+01  0.48249897455E+01  0.51100000000E-03 0. -1.
        -11    1    3    3    0    0  0.43922232126E+00 -0.10047937259E+02  0.18356841574E+02  0.20931497612E+02  0.51100000000E-03 0.  1.
         12    1    3    3    0    0  0.12194870427E+02  0.23069248364E+01  0.21439069207E+02  0.24772372825E+02  0.00000000000E+00 0. -1.
</event>
<event>
 7    1  0.4871930E-013  0.5052887E+02  0.7816164E-02  0.1300439E+00
        -11   -1    0    0    0    0  0.00000000000E+00  0.00000000000E+00  0.45593999997E+02  0.45594000000E+02  0.51100000000E-03 0.  1.
         11   -1    0    0    0    0 -0.00000000000E+00 -0.00000000000E+00 -0.45593999997E+02  0.45594000000E+02  0.51100000000E-03 0. -1.
    9900012    2    1    2    0    0 -0.23748643297E+02 -0.59040895881E+01  0.32470120288E+02  0.50528867645E+02  0.30000023695E+02 0.  0.
         12    1    1    2    0    0  0.23748643297E+02  0.59040895881E+01 -0.32470120288E+02  0.40659132355E+02  0.00000000000E+00 0. -1.
         11    1    3    3    0    0  0.20067219345E+01 -0.12261789055E+01  0.30221997190E+01  0.38293784134E+01  0.51100000000E-03 0. -1.
        -11    1    3    3    0    0 -0.13752380402E+02  0.77466591223E+01  0.46082534901E+01  0.16443074371E+02  0.51100000000E-03 0.  1.
        -12    1    3    3    0    0 -0.12002984829E+02 -0.12424569805E+02  0.24839667079E+02  0.30256414861E+02  0.00000000000E+00 0.  1.
</event>
<event>
 7    1  0.4871930E-013  0.5052887E+02  0.7816164E-02  0.1300439E+00
        -11   -1    0    0    0    0  0.00000000000E+00  0.00000000000E+00  0.45593999997E+02  0.45594000000E+02  0.51100000000E-03 0.  1.
         11   -1    0    0    0    0 -0.00000000000E+00 -0.00000000000E+00 -0.45593999997E+02  0.45594000000E+02  0.51100000000E-03 0. -1.
    9900012    2    1    2    0    0  0.11053193582E+01 -0.46712117109E+01  0.40374781258E+02  0.50528869275E+02  0.30000028647E+02 0.  0.
         12    1    1    2    0    0 -0.11053193582E+01  0.46712117109E+01 -0.40374781258E+02  0.40659130725E+02  0.00000000000E+00 0. -1.
         11    1    3    3    0    0 -0.10899198198E+01 -0.72323655103E+01  0.94563610007E+01  0.11954823283E+02  0.51100000000E-03 0. -1.
        -11    1    3    3    0    0 -0.53225929975E+01  0.72599882353E+01  0.33334453586E+01  0.95994418386E+01  0.51100000000E-03 0.  1.
         12    1    3    3    0    0  0.75178321755E+01 -0.46988344359E+01  0.27584974899E+02  0.28974604153E+02  0.00000000000E+00 0. -1.
</event>
<event>
 7    1  0.4871930E-013  0.5052886E+02  0.7816164E-02  0.1300439E+00
        -11   -1    0    0    0    0  0.00000000000E+00  0.00000000000E+00  0.45593999997E+02  0.45594000000E+02  0.51100000000E-03 0. -1.
         11   -1    0    0    0    0 -0.00000000000E+00 -0.00000000000E+00 -0.45593999997E+02  0.45594000000E+02  0.51100000000E-03 0.  1.
    9900012    2    1    2    0    0 -0.35525322631E+02  0.19391343191E+02 -0.38849600285E+01  0.50528860152E+02  0.30000000917E+02 0.  0.
         12    1    1    2    0    0  0.35525322631E+02 -0.19391343191E+02  0.38849600285E+01  0.40659139848E+02  0.00000000000E+00 0. -1.
         11    1    3    3    0    0 -0.17312022729E+02 -0.40067426337E+01 -0.22533531519E+01  0.17911943451E+02  0.51100000000E-03 0. -1.
        -11    1    3    3    0    0 -0.17677628398E+02  0.20801406187E+02  0.28116678381E+01  0.27442713449E+02  0.51100000000E-03 0.  1.
        -12    1    3    3    0    0 -0.53567150344E+00  0.25966796380E+01 -0.44432747147E+01  0.51742032520E+01  0.00000000000E+00 0.  1.
</event>
<event>
 7    1  0.4871930E-013  0.5052885E+02  0.7816164E-02  0.1300439E+00
        -11   -1    0    0    0    0  0.00000000000E+00  0.00000000000E+00  0.45593999997E+02  0.45594000000E+02  0.51100000000E-03 0. -1.
         11   -1    0    0    0    0 -0.00000000000E+00 -0.00000000000E+00 -0.45593999997E+02  0.45594000000E+02  0.51100000000E-03 0.  1.
    9900012    2    1    2    0    0 -0.27135688795E+02  0.29495167383E+02  0.68451485023E+01  0.50528848959E+02  0.29999966897E+02 0.  0.
         12    1    1    2    0    0  0.27135688795E+02 -0.29495167383E+02 -0.68451485023E+01  0.40659151041E+02  0.00000000000E+00 0. -1.
         11    1    3    3    0    0 -0.22210784586E+01 -0.10585090812E+01  0.41761933653E+01  0.48470838945E+01  0.51100000000E-03 0. -1.
        -11    1    3    3    0    0 -0.81951954159E+01  0.26997162819E+02 -0.86461398633E+00  0.28226859298E+02  0.51100000000E-03 0.  1.
         12    1    3    3    0    0 -0.16719414921E+02  0.35565136447E+01  0.35335691234E+01  0.17454905767E+02  0.00000000000E+00 0. -1.
</event>
<event>
 7    1  0.4871930E-013  0.5052886E+02  0.7816164E-02  0.1300439E+00
        -11   -1    0    0    0    0  0.00000000000E+00  0.00000000000E+00  0.45593999997E+02  0.45594000000E+02  0.51100000000E-03 0.  1.
         11   -1    0    0    0    0 -0.00000000000E+00 -0.00000000000E+00 -0.45593999997E+02  0.45594000000E+02  0.51100000000E-03 0. -1.
    9900012    2    1    2    0    0 -0.17807680110E+02  0.31859397486E+02  0.17917346934E+02  0.50528855884E+02  0.29999987946E+02 0.  0.
         12    1    1    2    0    0  0.17807680110E+02 -0.31859397486E+02 -0.17917346934E+02  0.40659144116E+02  0.00000000000E+00 0. -1.
         11    1    3    3    0    0 -0.15498987916E+02  0.21392868956E+02  0.17219227329E+02  0.31533716220E+02  0.51100000000E-03 0. -1.
        -11    1    3    3    0    0 -0.74691783604E+01  0.10013508841E+02 -0.27248374230E+01  0.12786075392E+02  0.51100000000E-03 0.  1.
         12    1    3    3    0    0  0.51604861666E+01  0.45301968836E+00  0.34229570280E+01  0.62090642716E+01  0.00000000000E+00 0. -1.
</event>
<event>
 7    1  0.4871930E-013  0.5052886E+02  0.7816164E-02  0.1300439E+00
        -11   -1    0    0    0    0  0.00000000000E+00  0.00000000000E+00  0.45593999997E+02  0.45594000000E+02  0.51100000000E-03 0. -1.
         11   -1    0    0    0    0 -0.00000000000E+00 -0.00000000000E+00 -0.45593999997E+02  0.45594000000E+02  0.51100000000E-03 0.  1.
    9900012    2    1    2    0    0  0.38133704925E+02  0.12503649705E+02  0.65302868013E+01  0.50528863843E+02  0.30000012139E+02 0.  0.
         12    1    1    2    0    0 -0.38133704925E+02 -0.12503649705E+02 -0.65302868013E+01  0.40659136157E+02  0.00000000000E+00 0. -1.
         11    1    3    3    0    0  0.27459577146E+02  0.16153706357E+02 -0.52124255782E+00  0.31862867105E+02  0.51100000000E-03 0. -1.
        -11    1    3    3    0    0 -0.53894598883E+00  0.33771786488E+01  0.36518264517E+01  0.50031625098E+01  0.51100000000E-03 0.  1.
        -12    1    3    3    0    0  0.11213073768E+02 -0.70272353003E+01  0.33997029074E+01  0.13662834228E+02  0.00000000000E+00 0.  1.
</event>
<event>
 7    1  0.4871930E-013  0.5052890E+02  0.7816164E-02  0.1300439E+00
        -11   -1    0    0    0    0  0.00000000000E+00  0.00000000000E+00  0.45593999997E+02  0.45594000000E+02  0.51100000000E-03 0.  1.
         11   -1    0    0    0    0 -0.00000000000E+00 -0.00000000000E+00 -0.45593999997E+02  0.45594000000E+02  0.51100000000E-03 0. -1.
    9900012    2    1    2    0    0 -0.30997540344E+02 -0.28322158731E+00  0.26310353043E+02  0.50528900169E+02  0.30000122554E+02 0.  0.
         12    1    1    2    0    0  0.30997540344E+02  0.28322158731E+00 -0.26310353043E+02  0.40659099831E+02  0.00000000000E+00 0. -1.
         11    1    3    3    0    0 -0.69606065476E+01  0.56667219293E+01  0.39983499431E+01  0.98259138742E+01  0.51100000000E-03 0. -1.
        -11    1    3    3    0    0  0.40006845440E+01  0.25487657902E+01  0.29664785749E+01  0.55947903688E+01  0.51100000000E-03 0.  1.
        -12    1    3    3    0    0 -0.28037618340E+02 -0.84987093068E+01  0.19345524525E+02  0.35108195926E+02  0.00000000000E+00 0.  1.
</event>
<event>
 7    1  0.4871930E-013  0.5052886E+02  0.7816164E-02  0.1300439E+00
        -11   -1    0    0    0    0  0.00000000000E+00  0.00000000000E+00  0.45593999997E+02  0.45594000000E+02  0.51100000000E-03 0.  1.
         11   -1    0    0    0    0 -0.00000000000E+00 -0.00000000000E+00 -0.45593999997E+02  0.45594000000E+02  0.51100000000E-03 0. -1.
    9900012    2    1    2    0    0 -0.46731503107E+01 -0.13597918862E+02  0.38031878766E+02  0.50528861622E+02  0.30000005385E+02 0.  0.
         12    1    1    2    0    0  0.46731503107E+01  0.13597918862E+02 -0.38031878766E+02  0.40659138378E+02  0.00000000000E+00 0. -1.
         11    1    3    3    0    0  0.51352049799E+00  0.30615313059E+01  0.53880248699E+01  0.62183188643E+01  0.51100000000E-03 0. -1.
        -11    1    3    3    0    0  0.53748101108E+01 -0.91534024454E+01  0.28953873405E+02  0.30838290249E+02  0.51100000000E-03 0.  1.
        -12    1    3    3    0    0 -0.10561480920E+02 -0.75060477229E+01  0.36899804912E+01  0.13472252509E+02  0.00000000000E+00 0.  1.
</event>
<event>
 7    1  0.4871930E-013  0.5052886E+02  0.7816164E-02  0.1300439E+00
        -11   -1    0    0    0    0  0.00000000000E+00  0.00000000000E+00  0.45593999997E+02  0.45594000000E+02  0.51100000000E-03 0.  1.
         11   -1    0    0    0    0 -0.00000000000E+00 -0.00000000000E+00 -0.45593999997E+02  0.45594000000E+02  0.51100000000E-03 0. -1.
    9900012    2    1    2    0    0 -0.28785776385E+02 -0.16103719821E+02  0.23774251435E+02  0.50528859018E+02  0.29999997470E+02 0.  0.
         12    1    1    2    0    0  0.28785776385E+02  0.16103719821E+02 -0.23774251435E+02  0.40659140982E+02  0.00000000000E+00 0. -1.
         11    1    3    3    0    0 -0.16074814324E+01  0.44855614870E+01 -0.84077391969E+00  0.48385079781E+01  0.51100000000E-03 0. -1.
        -11    1    3    3    0    0 -0.14977204912E+02 -0.83198446665E+00  0.12344242072E+02  0.19426507090E+02  0.51100000000E-03 0.  1.
        -12    1    3    3    0    0 -0.12201090041E+02 -0.19757296841E+02  0.12270783283E+02  0.26263843949E+02  0.00000000000E+00 0.  1.
</event>
<event>
 7    1  0.4871930E-013  0.5052888E+02  0.7816164E-02  0.1300439E+00
        -11   -1    0    0    0    0  0.00000000000E+00  0.00000000000E+00  0.45593999997E+02  0.45594000000E+02  0.51100000000E-03 0.  1.
         11   -1    0    0    0    0 -0.00000000000E+00 -0.00000000000E+00 -0.45593999997E+02  0.45594000000E+02  0.51100000000E-03 0. -1.
    9900012    2    1    2    0    0  0.19706960867E+02  0.29069170641E+02  0.20488598968E+02  0.50528884466E+02  0.30000074823E+02 0.  0.
         12    1    1    2    0    0 -0.19706960867E+02 -0.29069170641E+02 -0.20488598968E+02  0.40659115534E+02  0.00000000000E+00 0. -1.
         11    1    3    3    0    0 -0.47430872866E+01  0.27639401192E+01 -0.12559951045E+01  0.56314976653E+01  0.51100000000E-03 0. -1.
        -11    1    3    3    0    0  0.10754754321E+02  0.10561954638E+02  0.18364825103E+02  0.23758923115E+02  0.51100000000E-03 0.  1.
        -12    1    3    3    0    0  0.13695293833E+02  0.15743275884E+02  0.33797689694E+01  0.21138463686E+02  0.00000000000E+00 0.  1.
</event>
<event>
 7    1  0.4871930E-013  0.5052887E+02  0.7816164E-02  0.1300439E+00
        -11   -1    0    0    0    0  0.00000000000E+00  0.00000000000E+00  0.45593999997E+02  0.45594000000E+02  0.51100000000E-03 0. -1.
         11   -1    0    0    0    0 -0.00000000000E+00 -0.00000000000E+00 -0.45593999997E+02  0.45594000000E+02  0.51100000000E-03 0.  1.
    9900012    2    1    2    0    0  0.36317618696E+02 -0.98800944682E+01  0.15381129444E+02  0.50528870183E+02  0.30000031409E+02 0.  0.
         12    1    1    2    0    0 -0.36317618696E+02  0.98800944682E+01 -0.15381129444E+02  0.40659129817E+02  0.00000000000E+00 0. -1.
         11    1    3    3    0    0  0.14976042130E+02 -0.25074530477E+01  0.12874119390E+02  0.19907589231E+02  0.51100000000E-03 0. -1.
        -11    1    3    3    0    0  0.22277637462E+02 -0.12180008769E+02  0.69565206954E+00  0.25399403075E+02  0.51100000000E-03 0.  1.
        -12    1    3    3    0    0 -0.93606089512E+00  0.48073673485E+01  0.18113579850E+01  0.52218778780E+01  0.00000000000E+00 0.  1.
</event>
<event>
 7    1  0.4871930E-013  0.5052884E+02  0.7816164E-02  0.1300439E+00
        -11   -1    0    0    0    0  0.00000000000E+00  0.00000000000E+00  0.45593999997E+02  0.45594000000E+02  0.51100000000E-03 0. -1.
         11   -1    0    0    0    0 -0.00000000000E+00 -0.00000000000E+00 -0.45593999997E+02  0.45594000000E+02  0.51100000000E-03 0.  1.
    9900012    2    1    2    0    0  0.31023203497E+02 -0.68263507401E+01 -0.25379696496E+02  0.50528840960E+02  0.29999942581E+02 0.  0.
         12    1    1    2    0    0 -0.31023203497E+02  0.68263507401E+01  0.25379696496E+02  0.40659159040E+02  0.00000000000E+00 0. -1.
         11    1    3    3    0    0  0.83374946774E+01  0.55288055822E+01 -0.19334620300E+02  0.21769452246E+02  0.51100000000E-03 0. -1.
        -11    1    3    3    0    0  0.41096820974E+01 -0.62240598678E+01 -0.53619319743E+01  0.91857891843E+01  0.51100000000E-03 0.  1.
        -12    1    3    3    0    0  0.18576026722E+02 -0.61310964546E+01 -0.68314422106E+00  0.19573599530E+02  0.00000000000E+00 0.  1.
</event>
<event>
 7    1  0.4871930E-013  0.5052886E+02  0.7816164E-02  0.1300439E+00
        -11   -1    0    0    0    0  0.00000000000E+00  0.00000000000E+00  0.45593999997E+02  0.45594000000E+02  0.51100000000E-03 0.  1.
         11   -1    0    0    0    0 -0.00000000000E+00 -0.00000000000E+00 -0.45593999997E+02  0.45594000000E+02  0.51100000000E-03 0. -1.
    9900012    2    1    2    0    0 -0.69635243247E+01 -0.25113312244E+02  0.31208917412E+02  0.50528860205E+02  0.30000001079E+02 0.  0.
         12    1    1    2    0    0  0.69635243247E+01  0.25113312244E+02 -0.31208917412E+02  0.40659139795E+02  0.00000000000E+00 0. -1.
         11    1    3    3    0    0 -0.30282450091E+01 -0.14783908725E+02  0.61903623062E+01  0.16311186676E+02  0.51100000000E-03 0. -1.
        -11    1    3    3    0    0 -0.57293083585E+00 -0.14415129197E+02  0.25071730666E+02  0.28926041526E+02  0.51100000000E-03 0.  1.
         12    1    3    3    0    0 -0.33623484797E+01  0.40857256785E+01 -0.53175560528E-01  0.52916320033E+01  0.00000000000E+00 0. -1.
</event>
<event>
 7    1  0.4871930E-013  0.5052886E+02  0.7816164E-02  0.1300439E+00
        -11   -1    0    0    0    0  0.00000000000E+00  0.00000000000E+00  0.45593999997E+02  0.45594000000E+02  0.51100000000E-03 0.  1.
         11   -1    0    0    0    0 -0.00000000000E+00 -0.00000000000E+00 -0.45593999997E+02  0.45594000000E+02  0.51100000000E-03 0. -1.
    9900012    2    1    2    0    0  0.28356801210E+01  0.27926784831E+02  0.29414602957E+02  0.50528864989E+02  0.30000015619E+02 0.  0.
         12    1    1    2    0    0 -0.28356801210E+01 -0.27926784831E+02 -0.29414602957E+02  0.40659135011E+02  0.00000000000E+00 0. -1.
         11    1    3    3    0    0 -0.67430359516E+01  0.14692423374E+02  0.23936087460E+01  0.16342129651E+02  0.51100000000E-03 0. -1.
        -11    1    3    3    0    0  0.97544666333E+00  0.11480590128E+02  0.11065885712E+02  0.15975270662E+02  0.51100000000E-03 0.  1.
         12    1    3    3    0    0  0.86032694093E+01  0.17537713290E+01  0.15955108499E+02  0.18211464675E+02  0.00000000000E+00 0. -1.
</event>
<event>
 7    1  0.4871930E-013  0.5052886E+02  0.7816164E-02  0.1300439E+00
        -11   -1    0    0    0    0  0.00000000000E+00  0.00000000000E+00  0.45593999997E+02  0.45594000000E+02  0.51100000000E-03 0.  1.
         11   -1    0    0    0    0 -0.00000000000E+00 -0.00000000000E+00 -0.45593999997E+02  0.45594000000E+02  0.51100000000E-03 0. -1.
    9900012    2    1    2    0    0  0.34282439468E+02 -0.79945255970E+01  0.20346199722E+02  0.50528856643E+02  0.29999990252E+02 0.  0.
         12    1    1    2    0    0 -0.34282439468E+02  0.79945255970E+01 -0.20346199722E+02  0.40659143357E+02  0.00000000000E+00 0. -1.
         11    1    3    3    0    0  0.26805230150E+01 -0.14847113838E+01  0.87546148258E+01  0.92753896164E+01  0.51100000000E-03 0. -1.
        -11    1    3    3    0    0  0.30325423030E+02  0.19592889192E+01  0.58618360615E+01  0.30948848400E+02  0.51100000000E-03 0.  1.
         12    1    3    3    0    0  0.12764934232E+01 -0.84691031323E+01  0.57297488348E+01  0.10304618626E+02  0.00000000000E+00 0. -1.
</event>
<event>
 7    1  0.4871930E-013  0.5052886E+02  0.7816164E-02  0.1300439E+00
        -11   -1    0    0    0    0  0.00000000000E+00  0.00000000000E+00  0.45593999997E+02  0.45594000000E+02  0.51100000000E-03 0.  1.
         11   -1    0    0    0    0 -0.00000000000E+00 -0.00000000000E+00 -0.45593999997E+02  0.45594000000E+02  0.51100000000E-03 0. -1.
    9900012    2    1    2    0    0  0.19056012232E+02  0.34513884232E+02 -0.99411311239E+01  0.50528857178E+02  0.29999991880E+02 0.  0.
         12    1    1    2    0    0 -0.19056012232E+02 -0.34513884232E+02  0.99411311239E+01  0.40659142822E+02  0.00000000000E+00 0. -1.
         11    1    3    3    0    0  0.13502175134E+02  0.29932839046E+01 -0.73467604227E+01  0.15660248109E+02  0.51100000000E-03 0. -1.
        -11    1    3    3    0    0  0.33327762317E+01  0.96323358393E+01 -0.70865094177E+01  0.12414020586E+02  0.51100000000E-03 0.  1.
         12    1    3    3    0    0  0.22210608660E+01  0.21888264488E+02  0.44921387165E+01  0.22454588483E+02  0.00000000000E+00 0. -1.
</event>
<event>
 7    1  0.4871930E-013  0.5052886E+02  0.7816164E-02  0.1300439E+00
        -11   -1    0    0    0    0  0.00000000000E+00  0.00000000000E+00  0.45593999997E+02  0.45594000000E+02  0.51100000000E-03 0. -1.
         11   -1    0    0    0    0 -0.00000000000E+00 -0.00000000000E+00 -0.45593999997E+02  0.45594000000E+02  0.51100000000E-03 0.  1.
    9900012    2    1    2    0    0 -0.12717557080E+02  0.36096653753E+01 -0.38449963486E+02  0.50528860385E+02  0.30000001625E+02 0.  0.
         12    1    1    2    0    0  0.12717557080E+02 -0.36096653753E+01  0.38449963486E+02  0.40659139615E+02  0.00000000000E+00 0. -1.
         11    1    3    3    0    0 -0.11250421000E+02  0.42367886282E+01 -0.47191440958E+01  0.12914823723E+02  0.51100000000E-03 0. -1.
        -11    1    3    3    0    0 -0.30588123719E+00 -0.72240547252E+01 -0.70258808822E+01  0.10081841718E+02  0.51100000000E-03 0.  1.
        -12    1    3    3    0    0 -0.11612548427E+01  0.65969314723E+01 -0.26704938508E+02  0.27532194943E+02  0.00000000000E+00 0.  1.
</event>
<event>
 7    1  0.4871930E-013  0.5052886E+02  0.7816164E-02  0.1300439E+00
        -11   -1    0    0    0    0  0.00000000000E+00  0.00000000000E+00  0.45593999997E+02  0.45594000000E+02  0.51100000000E-03 0.  1.
         11   -1    0    0    0    0 -0.00000000000E+00 -0.00000000000E+00 -0.45593999997E+02  0.45594000000E+02  0.51100000000E-03 0. -1.
    9900012    2    1    2    0    0 -0.18491865466E+02 -0.32253197904E+02  0.16460485709E+02  0.50528862611E+02  0.30000008392E+02 0.  0.
         12    1    1    2    0    0  0.18491865466E+02  0.32253197904E+02 -0.16460485709E+02  0.40659137389E+02  0.00000000000E+00 0. -1.
         11    1    3    3    0    0  0.45524332870E+01 -0.17493245150E+02  0.23300855766E+01  0.18225464981E+02  0.51100000000E-03 0. -1.
        -11    1    3    3    0    0 -0.53269078396E+01 -0.87031986549E+01  0.35943162463E+01  0.10818536107E+02  0.51100000000E-03 0.  1.
         12    1    3    3    0    0 -0.17717390914E+02 -0.60567540986E+01  0.10536083887E+02  0.21484861523E+02  0.00000000000E+00 0. -1.
</event>
<event>
 7    1  0.4871930E-013  0.5052886E+02  0.7816164E-02  0.1300439E+00
        -11   -1    0    0    0    0  0.00000000000E+00  0.00000000000E+00  0.45593999997E+02  0.45594000000E+02  0.51100000000E-03 0.  1.
         11   -1    0    0    0    0 -0.00000000000E+00 -0.00000000000E+00 -0.45593999997E+02  0.45594000000E+02  0.51100000000E-03 0. -1.
    9900012    2    1    2    0    0 -0.46618849190E+01 -0.30023706497E+02  0.27018686502E+02  0.50528861506E+02  0.30000005033E+02 0.  0.
         12    1    1    2    0    0  0.46618849190E+01  0.30023706497E+02 -0.27018686502E+02  0.40659138494E+02  0.00000000000E+00 0. -1.
         11    1    3    3    0    0  0.16307421390E+00  0.65984015803E+00 -0.91112936984E+00  0.11367230195E+01  0.51100000000E-03 0. -1.
        -11    1    3    3    0    0  0.62451015727E+01 -0.22222125203E+02  0.26862608354E+02  0.35417846772E+02  0.51100000000E-03 0.  1.
        -12    1    3    3    0    0 -0.11070060706E+02 -0.84614214522E+01  0.10672075180E+01  0.13974291714E+02  0.00000000000E+00 0.  1.
</event>
<event>
 7    1  0.4871930E-013  0.5052886E+02  0.7816164E-02  0.1300439E+00
        -11   -1    0    0    0    0  0.00000000000E+00  0.00000000000E+00  0.45593999997E+02  0.45594000000E+02  0.51100000000E-03 0.  1.
         11   -1    0    0    0    0 -0.00000000000E+00 -0.00000000000E+00 -0.45593999997E+02  0.45594000000E+02  0.51100000000E-03 0. -1.
    9900012    2    1    2    0    0 -0.10315143378E+02 -0.13365671479E+02  0.36988137049E+02  0.50528860322E+02  0.30000001435E+02 0.  0.
         12    1    1    2    0    0  0.10315143378E+02  0.13365671479E+02 -0.36988137049E+02  0.40659139678E+02  0.00000000000E+00 0. -1.
         11    1    3    3    0    0  0.43429229087E+01 -0.12133981421E+02  0.18455141708E+02  0.22509703246E+02  0.51100000000E-03 0. -1.
        -11    1    3    3    0    0 -0.84323709122E+01 -0.80848501596E+01  0.91684045367E+01  0.14850229739E+02  0.51100000000E-03 0.  1.
         12    1    3    3    0    0 -0.62256953743E+01  0.68531601012E+01  0.93645908043E+01  0.13168927337E+02  0.00000000000E+00 0. -1.
</event>
<event>
 7    1  0.4871930E-013  0.5052886E+02  0.7816164E-02  0.1300439E+00
        -11   -1    0    0    0    0  0.00000000000E+00  0.00000000000E+00  0.45593999997E+02  0.45594000000E+02  0.51100000000E-03 0.  1.
         11   -1    0    0    0    0 -0.00000000000E+00 -0.00000000000E+00 -0.45593999997E+02  0.45594000000E+02  0.51100000000E-03 0. -1.
    9900012    2    1    2    0    0  0.83467214272E+01 -0.11427274169E+02  0.38117124949E+02  0.50528861201E+02  0.30000004107E+02 0.  0.
         12    1    1    2    0    0 -0.83467214272E+01  0.11427274169E+02 -0.38117124949E+02  0.40659138799E+02  0.00000000000E+00 0. -1.
         11    1    3    3    0    0  0.45943249096E-01  0.22094155018E+01  0.41882604270E+01  0.47355203840E+01  0.51100000000E-03 0. -1.
        -11    1    3    3    0    0  0.80262499316E+01  0.65285867723E+01  0.14303877710E+02  0.17653443035E+02  0.51100000000E-03 0.  1.
        -12    1    3    3    0    0  0.27452824654E+00 -0.20165276443E+02  0.19624986812E+02  0.28139897782E+02  0.00000000000E+00 0.  1.
</event>
<event>
 7    1  0.4871930E-013  0.5052885E+02  0.7816164E-02  0.1300439E+00
        -11   -1    0    0    0    0  0.00000000000E+00  0.00000000000E+00  0.45593999997E+02  0.45594000000E+02  0.51100000000E-03 0. -1.
         11   -1    0    0    0    0 -0.00000000000E+00 -0.00000000000E+00 -0.45593999997E+02  0.45594000000E+02  0.51100000000E-03 0.  1.
    9900012    2    1    2    0    0  0.35668100699E+02 -0.18361877838E+02 -0.66177489099E+01  0.50528848929E+02  0.29999966805E+02 0.  0.
         12    1    1    2    0    0 -0.35668100699E+02  0.18361877838E+02  0.66177489099E+01  0.40659151071E+02  0.00000000000E+00 0. -1.
         11    1    3    3    0    0  0.18315165432E+02 -0.79844007033E+01 -0.94648308182E+01  0.22108345982E+02  0.51100000000E-03 0. -1.
        -11    1    3    3    0    0 -0.10101585700E+01 -0.39439157478E+01 -0.58341454588E+01  0.71142213389E+01  0.51100000000E-03 0.  1.
         12    1    3    3    0    0  0.18363093837E+02 -0.64335613864E+01  0.86812273671E+01  0.21306281608E+02  0.00000000000E+00 0. -1.
</event>
<event>
 7    1  0.4871930E-013  0.5052887E+02  0.7816164E-02  0.1300439E+00
        -11   -1    0    0    0    0  0.00000000000E+00  0.00000000000E+00  0.45593999997E+02  0.45594000000E+02  0.51100000000E-03 0.  1.
         11   -1    0    0    0    0 -0.00000000000E+00 -0.00000000000E+00 -0.45593999997E+02  0.45594000000E+02  0.51100000000E-03 0. -1.
    9900012    2    1    2    0    0 -0.17628240571E+02 -0.17109136425E+02  0.32398875022E+02  0.50528874118E+02  0.30000043368E+02 0.  0.
         12    1    1    2    0    0  0.17628240571E+02  0.17109136425E+02 -0.32398875022E+02  0.40659125882E+02  0.00000000000E+00 0. -1.
         11    1    3    3    0    0 -0.11157247435E+01  0.45305964772E+01  0.21419185100E+01  0.51340979059E+01  0.51100000000E-03 0. -1.
        -11    1    3    3    0    0 -0.14108238473E+01 -0.54259338895E+01 -0.22613248444E+01  0.60452272757E+01  0.51100000000E-03 0.  1.
        -12    1    3    3    0    0 -0.15101691980E+02 -0.16213799012E+02  0.32518281357E+02  0.39349548936E+02  0.00000000000E+00 0.  1.
</event>
<event>
 7    1  0.4871930E-013  0.5052886E+02  0.7816164E-02  0.1300439E+00
        -11   -1    0    0    0    0  0.00000000000E+00  0.00000000000E+00  0.45593999997E+02  0.45594000000E+02  0.51100000000E-03 0.  1.
         11   -1    0    0    0    0 -0.00000000000E+00 -0.00000000000E+00 -0.45593999997E+02  0.45594000000E+02  0.51100000000E-03 0. -1.
    9900012    2    1    2    0    0  0.19650060759E+02 -0.34501803709E+02 -0.87559339144E+01  0.50528859260E+02  0.29999998206E+02 0.  0.
         12    1    1    2    0    0 -0.19650060759E+02  0.34501803709E+02  0.87559339144E+01  0.40659140740E+02  0.00000000000E+00 0. -1.
         11    1    3    3    0    0  0.21883929035E+01  0.11209120476E+01  0.15629290019E+01  0.29134609393E+01  0.51100000000E-03 0. -1.
        -11    1    3    3    0    0  0.23599751891E+02 -0.29873976489E+02 -0.82412887678E+01  0.38952812497E+02  0.51100000000E-03 0.  1.
         12    1    3    3    0    0 -0.61380840360E+01 -0.57487392676E+01 -0.20775741485E+01  0.86625858231E+01  0.00000000000E+00 0. -1.
</event>
<event>
 7    1  0.4871930E-013  0.5052886E+02  0.7816164E-02  0.1300439E+00
        -11   -1    0    0    0    0  0.00000000000E+00  0.00000000000E+00  0.45593999997E+02  0.45594000000E+02  0.51100000000E-03 0. -1.
         11   -1    0    0    0    0 -0.00000000000E+00 -0.00000000000E+00 -0.45593999997E+02  0.45594000000E+02  0.51100000000E-03 0.  1.
    9900012    2    1    2    0    0 -0.38602663114E+02  0.96559935623E+01 -0.83523413285E+01  0.50528863058E+02  0.30000009751E+02 0.  0.
         12    1    1    2    0    0  0.38602663114E+02 -0.96559935623E+01  0.83523413285E+01  0.40659136942E+02  0.00000000000E+00 0. -1.
         11    1    3    3    0    0 -0.39424997519E+01  0.25375553408E+01 -0.91251603452E+01  0.10259193096E+02  0.51100000000E-03 0. -1.
        -11    1    3    3    0    0 -0.25335884495E+02  0.83483494919E+00 -0.73557119634E+01  0.26395274033E+02  0.51100000000E-03 0.  1.
         12    1    3    3    0    0 -0.93242788673E+01  0.62836032723E+01  0.81285309801E+01  0.13874395928E+02  0.00000000000E+00 0. -1.
</event>
<event>
 7    1  0.4871930E-013  0.5052883E+02  0.7816164E-02  0.1300439E+00
        -11   -1    0    0    0    0  0.00000000000E+00  0.00000000000E+00  0.45593999997E+02  0.45594000000E+02  0.51100000000E-03 0.  1.
         11   -1    0    0    0    0 -0.00000000000E+00 -0.00000000000E+00 -0.45593999997E+02  0.45594000000E+02  0.51100000000E-03 0. -1.
    9900012    2    1    2    0    0  0.12200281885E+02 -0.38052583882E+02  0.75047960693E+01  0.50528831511E+02  0.29999913861E+02 0.  0.
         12    1    1    2    0    0 -0.12200281885E+02  0.38052583882E+02 -0.75047960693E+01  0.40659168489E+02  0.00000000000E+00 0. -1.
         11    1    3    3    0    0  0.73728966070E+01 -0.22213683583E+02  0.70841275630E+01  0.24453879167E+02  0.51100000000E-03 0. -1.
        -11    1    3    3    0    0  0.81165295104E+01 -0.51043665395E+01  0.80346324312E+01  0.12509513485E+02  0.51100000000E-03 0.  1.
         12    1    3    3    0    0 -0.32891442323E+01 -0.10734533759E+02 -0.76139639249E+01  0.13565438860E+02  0.00000000000E+00 0. -1.
</event>
<event>
 7    1  0.4871930E-013  0.5052887E+02  0.7816164E-02  0.1300439E+00
        -11   -1    0    0    0    0  0.00000000000E+00  0.00000000000E+00  0.45593999997E+02  0.45594000000E+02  0.51100000000E-03 0.  1.
         11   -1    0    0    0    0 -0.00000000000E+00 -0.00000000000E+00 -0.45593999997E+02  0.45594000000E+02  0.51100000000E-03 0. -1.
    9900012    2    1    2    0    0  0.64128809698E+01 -0.32848472697E+02  0.23087181179E+02  0.50528866516E+02  0.30000020263E+02 0.  0.
         12    1    1    2    0    0 -0.64128809698E+01  0.32848472697E+02 -0.23087181179E+02  0.40659133484E+02  0.00000000000E+00 0. -1.
         11    1    3    3    0    0  0.19459969381E+01  0.30526230570E+01 -0.34935012185E+01  0.50309007778E+01  0.51100000000E-03 0. -1.
        -11    1    3    3    0    0 -0.16740060692E+01 -0.10864886783E+02  0.98967822460E+01  0.14791699031E+02  0.51100000000E-03 0.  1.
        -12    1    3    3    0    0  0.61408901009E+01 -0.25036208971E+02  0.16683900151E+02  0.30706266708E+02  0.00000000000E+00 0.  1.
</event>
<event>
 7    1  0.4871930E-013  0.5052885E+02  0.7816164E-02  0.1300439E+00
        -11   -1    0    0    0    0  0.00000000000E+00  0.00000000000E+00  0.45593999997E+02  0.45594000000E+02  0.51100000000E-03 0.  1.
         11   -1    0    0    0    0 -0.00000000000E+00 -0.00000000000E+00 -0.45593999997E+02  0.45594000000E+02  0.51100000000E-03 0. -1.
    9900012    2    1    2    0    0  0.12987921296E+02 -0.11237340750E+01  0.38512565395E+02  0.50528848864E+02  0.29999966606E+02 0.  0.
         12    1    1    2    0    0 -0.12987921296E+02  0.11237340750E+01 -0.38512565395E+02  0.40659151136E+02  0.00000000000E+00 0. -1.
         11    1    3    3    0    0 -0.88213929304E+00  0.30735180107E+01  0.68479926331E+01  0.75577566816E+01  0.51100000000E-03 0. -1.
        -11    1    3    3    0    0  0.64126861351E+01  0.38202857230E+01  0.31125738276E+02  0.32008260027E+02  0.51100000000E-03 0.  1.
         12    1    3    3    0    0  0.74573744541E+01 -0.80175378087E+01  0.53883448574E+00  0.10962832155E+02  0.00000000000E+00 0. -1.
</event>
<event>
 7    1  0.4871930E-013  0.5052886E+02  0.7816164E-02  0.1300439E+00
        -11   -1    0    0    0    0  0.00000000000E+00  0.00000000000E+00  0.45593999997E+02  0.45594000000E+02  0.51100000000E-03 0. -1.
         11   -1    0    0    0    0 -0.00000000000E+00 -0.00000000000E+00 -0.45593999997E+02  0.45594000000E+02  0.51100000000E-03 0.  1.
    9900012    2    1    2    0    0 -0.72946141080E+01 -0.35876010083E+02 -0.17688025351E+02  0.50528859143E+02  0.29999997850E+02 0.  0.
         12    1    1    2    0    0  0.72946141080E+01  0.35876010083E+02  0.17688025351E+02  0.40659140857E+02  0.00000000000E+00 0. -1.
         11    1    3    3    0    0 -0.10292356813E+02 -0.69419092109E+01 -0.12522787563E+01  0.12477616543E+02  0.51100000000E-03 0.  1.
        -11    1    3    3    0    0  0.16831394395E+01  0.23874963918E+01 -0.85520986209E+00  0.30437610883E+01  0.51100000000E-03 0. -1.
        -12    1    3    3    0    0  0.13146032650E+01 -0.31321597264E+02 -0.15580536733E+02  0.35007481511E+02  0.00000000000E+00 0.  1.
</event>
<event>
 7    1  0.4871930E-013  0.5052886E+02  0.7816164E-02  0.1300439E+00
        -11   -1    0    0    0    0  0.00000000000E+00  0.00000000000E+00  0.45593999997E+02  0.45594000000E+02  0.51100000000E-03 0.  1.
         11   -1    0    0    0    0 -0.00000000000E+00 -0.00000000000E+00 -0.45593999997E+02  0.45594000000E+02  0.51100000000E-03 0. -1.
    9900012    2    1    2    0    0  0.62800638110E+01 -0.19578759433E+02  0.35077035529E+02  0.50528862725E+02  0.30000008740E+02 0.  0.
         12    1    1    2    0    0 -0.62800638110E+01  0.19578759433E+02 -0.35077035529E+02  0.40659137275E+02  0.00000000000E+00 0. -1.
         11    1    3    3    0    0 -0.62981344822E+01  0.40296783468E+00  0.47173683837E+00  0.63286188807E+01  0.51100000000E-03 0. -1.
        -11    1    3    3    0    0  0.26221228246E+01 -0.36292511486E+01  0.18943017519E+02  0.19464966093E+02  0.51100000000E-03 0.  1.
         12    1    3    3    0    0  0.99560754686E+01 -0.16352476119E+02  0.15662281172E+02  0.24735277752E+02  0.00000000000E+00 0. -1.
</event>
<event>
 7    1  0.4871930E-013  0.5052885E+02  0.7816164E-02  0.1300439E+00
        -11   -1    0    0    0    0  0.00000000000E+00  0.00000000000E+00  0.45593999997E+02  0.45594000000E+02  0.51100000000E-03 0.  1.
         11   -1    0    0    0    0 -0.00000000000E+00 -0.00000000000E+00 -0.45593999997E+02  0.45594000000E+02  0.51100000000E-03 0. -1.
    9900012    2    1    2    0    0 -0.23285528930E+02  0.80355594698E+00  0.33321236043E+02  0.50528851815E+02  0.29999975577E+02 0.  0.
         12    1    1    2    0    0  0.23285528930E+02 -0.80355594698E+00 -0.33321236043E+02  0.40659148185E+02  0.00000000000E+00 0. -1.
         11    1    3    3    0    0 -0.17326427567E+02 -0.22383634391E+01  0.19895115185E+02  0.26476989474E+02  0.51100000000E-03 0. -1.
        -11    1    3    3    0    0  0.53494448489E+01 -0.54471735687E+00  0.10554948063E+02  0.11845683014E+02  0.51100000000E-03 0.  1.
         12    1    3    3    0    0 -0.11308546212E+02  0.35866367430E+01  0.28711727947E+01  0.12206179327E+02  0.00000000000E+00 0. -1.
</event>
<event>
 7    1  0.4871930E-013  0.5052886E+02  0.7816164E-02  0.1300439E+00
        -11   -1    0    0    0    0  0.00000000000E+00  0.00000000000E+00  0.45593999997E+02  0.45594000000E+02  0.51100000000E-03 0. -1.
         11   -1    0    0    0    0 -0.00000000000E+00 -0.00000000000E+00 -0.45593999997E+02  0.45594000000E+02  0.51100000000E-03 0.  1.
    9900012    2    1    2    0    0 -0.29218649776E+02  0.19707908180E+02  0.20273984516E+02  0.50528860957E+02  0.30000003365E+02 0.  0.
         12    1    1    2    0    0  0.29218649776E+02 -0.19707908180E+02 -0.20273984516E+02  0.40659139043E+02  0.00000000000E+00 0. -1.
         11    1    3    3    0    0  0.13914334248E+01  0.11960245608E+01 -0.24833055969E+01  0.30876153702E+01  0.51100000000E-03 0. -1.
        -11    1    3    3    0    0  0.22957732188E+01  0.54475353888E+01  0.13355148276E+01  0.60605128991E+01  0.51100000000E-03 0.  1.
        -12    1    3    3    0    0 -0.32905856420E+02  0.13064348230E+02  0.21421775285E+02  0.41380732688E+02  0.00000000000E+00 0.  1.
</event>
<event>
 7    1  0.4871930E-013  0.5052886E+02  0.7816164E-02  0.1300439E+00
        -11   -1    0    0    0    0  0.00000000000E+00  0.00000000000E+00  0.45593999997E+02  0.45594000000E+02  0.51100000000E-03 0.  1.
         11   -1    0    0    0    0 -0.00000000000E+00 -0.00000000000E+00 -0.45593999997E+02  0.45594000000E+02  0.51100000000E-03 0. -1.
    9900012    2    1    2    0    0  0.40388641231E+01  0.33868641710E+02  0.22130702660E+02  0.50528864312E+02  0.30000013563E+02 0.  0.
         12    1    1    2    0    0 -0.40388641231E+01 -0.33868641710E+02 -0.22130702660E+02  0.40659135688E+02  0.00000000000E+00 0. -1.
         11    1    3    3    0    0  0.27193504797E+01  0.36132465263E+02  0.21072119335E+02  0.41916394484E+02  0.51100000000E-03 0.  1.
        -11    1    3    3    0    0  0.53867687978E+00  0.47293810618E+00  0.42652193924E+01  0.43250364114E+01  0.51100000000E-03 0. -1.
        -12    1    3    3    0    0  0.78083676368E+00 -0.27367616598E+01 -0.32066360670E+01  0.42874334164E+01  0.00000000000E+00 0.  1.
</event>
<event>
 7    1  0.4871930E-013  0.5052891E+02  0.7816164E-02  0.1300439E+00
        -11   -1    0    0    0    0  0.00000000000E+00  0.00000000000E+00  0.45593999997E+02  0.45594000000E+02  0.51100000000E-03 0.  1.
         11   -1    0    0    0    0 -0.00000000000E+00 -0.00000000000E+00 -0.45593999997E+02  0.45594000000E+02  0.51100000000E-03 0. -1.
    9900012    2    1    2    0    0  0.61725955652E+01  0.43783191989E+01  0.39948600383E+02  0.50528913837E+02  0.30000164099E+02 0.  0.
         12    1    1    2    0    0 -0.61725955652E+01 -0.43783191989E+01 -0.39948600383E+02  0.40659086163E+02  0.00000000000E+00 0. -1.
         11    1    3    3    0    0 -0.23828236377E+01  0.71799310646E+01  0.11576952449E+02  0.13829500600E+02  0.51100000000E-03 0. -1.
        -11    1    3    3    0    0  0.67874471540E+00 -0.76722172389E+01  0.95531444581E+00  0.77612007899E+01  0.51100000000E-03 0.  1.
        -12    1    3    3    0    0  0.78766744876E+01  0.48706053732E+01  0.27416333489E+02  0.28938212447E+02  0.00000000000E+00 0.  1.
</event>
<event>
 7    1  0.4871930E-013  0.5052885E+02  0.7816164E-02  0.1300439E+00
        -11   -1    0    0    0    0  0.00000000000E+00  0.00000000000E+00  0.45593999997E+02  0.45594000000E+02  0.51100000000E-03 0. -1.
         11   -1    0    0    0    0 -0.00000000000E+00 -0.00000000000E+00 -0.45593999997E+02  0.45594000000E+02  0.51100000000E-03 0.  1.
    9900012    2    1    2    0    0  0.31499280603E+01 -0.13548744031E+02 -0.38205701193E+02  0.50528854470E+02  0.29999983647E+02 0.  0.
         12    1    1    2    0    0 -0.31499280603E+01  0.13548744031E+02  0.38205701193E+02  0.40659145530E+02  0.00000000000E+00 0. -1.
         11    1    3    3    0    0  0.24624601392E+01 -0.70532541472E+00  0.34596134384E+01  0.43046625050E+01  0.51100000000E-03 0. -1.
        -11    1    3    3    0    0  0.78456609150E+01 -0.60026920614E+01 -0.17262911837E+02  0.19889565921E+02  0.51100000000E-03 0.  1.
         12    1    3    3    0    0 -0.71581929939E+01 -0.68407265552E+01 -0.24402402794E+02  0.26334626044E+02  0.00000000000E+00 0. -1.
</event>
<event>
 7    1  0.4871930E-013  0.5052887E+02  0.7816164E-02  0.1300439E+00
        -11   -1    0    0    0    0  0.00000000000E+00  0.00000000000E+00  0.45593999997E+02  0.45594000000E+02  0.51100000000E-03 0.  1.
         11   -1    0    0    0    0 -0.00000000000E+00 -0.00000000000E+00 -0.45593999997E+02  0.45594000000E+02  0.51100000000E-03 0. -1.
    9900012    2    1    2    0    0  0.13165719071E+02 -0.47544626341E+01  0.38173602553E+02  0.50528868117E+02  0.30000025128E+02 0.  0.
         12    1    1    2    0    0 -0.13165719071E+02  0.47544626341E+01 -0.38173602553E+02  0.40659131883E+02  0.00000000000E+00 0. -1.
         11    1    3    3    0    0  0.50047104878E+01  0.97350042172E+01  0.11609094745E+02  0.15955830133E+02  0.51100000000E-03 0. -1.
        -11    1    3    3    0    0  0.25053823619E+01  0.29050487318E+01  0.45298646127E+01  0.59359853929E+01  0.51100000000E-03 0.  1.
         12    1    3    3    0    0  0.56556262218E+01 -0.17394515583E+02  0.22034643196E+02  0.28637052591E+02  0.00000000000E+00 0. -1.
</event>
<event>
 7    1  0.4871930E-013  0.5052886E+02  0.7816164E-02  0.1300439E+00
        -11   -1    0    0    0    0  0.00000000000E+00  0.00000000000E+00  0.45593999997E+02  0.45594000000E+02  0.51100000000E-03 0.  1.
         11   -1    0    0    0    0 -0.00000000000E+00 -0.00000000000E+00 -0.45593999997E+02  0.45594000000E+02  0.51100000000E-03 0. -1.
    9900012    2    1    2    0    0  0.19182071551E+02  0.35171983494E+02 -0.69386852938E+01  0.50528860246E+02  0.30000001204E+02 0.  0.
         12    1    1    2    0    0 -0.19182071551E+02 -0.35171983494E+02  0.69386852938E+01  0.40659139754E+02  0.00000000000E+00 0. -1.
         11    1    3    3    0    0  0.18926107553E+02  0.74584400640E+01 -0.86579298649E+01  0.22108496672E+02  0.51100000000E-03 0. -1.
        -11    1    3    3    0    0 -0.14188531081E+01  0.41637289594E+01  0.19458023500E+01  0.48099823322E+01  0.51100000000E-03 0.  1.
        -12    1    3    3    0    0  0.16748171066E+01  0.23549814471E+02 -0.22655777885E+00  0.23610381242E+02  0.00000000000E+00 0.  1.
</event>
<event>
 7    1  0.4871930E-013  0.5052886E+02  0.7816164E-02  0.1300439E+00
        -11   -1    0    0    0    0  0.00000000000E+00  0.00000000000E+00  0.45593999997E+02  0.45594000000E+02  0.51100000000E-03 0.  1.
         11   -1    0    0    0    0 -0.00000000000E+00 -0.00000000000E+00 -0.45593999997E+02  0.45594000000E+02  0.51100000000E-03 0. -1.
    9900012    2    1    2    0    0  0.36518699589E+02  0.43169504264E+01 -0.17346888604E+02  0.50528855581E+02  0.29999987024E+02 0.  0.
         12    1    1    2    0    0 -0.36518699589E+02 -0.43169504264E+01  0.17346888604E+02  0.40659144419E+02  0.00000000000E+00 0. -1.
         11    1    3    3    0    0 -0.16396354514E+01  0.55575145668E+01 -0.24478746706E+01  0.62901878539E+01  0.51100000000E-03 0. -1.
        -11    1    3    3    0    0  0.25979975634E+02  0.44298762727E+01 -0.34342104108E+01  0.26577748948E+02  0.51100000000E-03 0.  1.
         12    1    3    3    0    0  0.12178359406E+02 -0.56704404131E+01 -0.11464803523E+02  0.17660918779E+02  0.00000000000E+00 0. -1.
</event>
<event>
 7    1  0.4871930E-013  0.5052885E+02  0.7816164E-02  0.1300439E+00
        -11   -1    0    0    0    0  0.00000000000E+00  0.00000000000E+00  0.45593999997E+02  0.45594000000E+02  0.51100000000E-03 0.  1.
         11   -1    0    0    0    0 -0.00000000000E+00 -0.00000000000E+00 -0.45593999997E+02  0.45594000000E+02  0.51100000000E-03 0. -1.
    9900012    2    1    2    0    0 -0.91951368635E+00 -0.24851737087E+02  0.32166937509E+02  0.50528853300E+02  0.29999980090E+02 0.  0.
         12    1    1    2    0    0  0.91951368635E+00  0.24851737087E+02 -0.32166937509E+02  0.40659146700E+02  0.00000000000E+00 0. -1.
         11    1    3    3    0    0  0.51070984876E+01 -0.14841230460E+02  0.90250820334E+01  0.18105156241E+02  0.51100000000E-03 0.  1.
        -11    1    3    3    0    0 -0.99574554797E+01 -0.89741146346E+01  0.57894692275E+01  0.14601493324E+02  0.51100000000E-03 0. -1.
         12    1    3    3    0    0  0.39308433057E+01 -0.10363919926E+01  0.17352386248E+02  0.17822203735E+02  0.00000000000E+00 0. -1.
</event>
<event>
 7    1  0.4871930E-013  0.5052886E+02  0.7816164E-02  0.1300439E+00
        -11   -1    0    0    0    0  0.00000000000E+00  0.00000000000E+00  0.45593999997E+02  0.45594000000E+02  0.51100000000E-03 0.  1.
         11   -1    0    0    0    0 -0.00000000000E+00 -0.00000000000E+00 -0.45593999997E+02  0.45594000000E+02  0.51100000000E-03 0. -1.
    9900012    2    1    2    0    0 -0.35591525874E+02  0.18305229207E+02 -0.71643334691E+01  0.50528858292E+02  0.29999995265E+02 0.  0.
         12    1    1    2    0    0  0.35591525874E+02 -0.18305229207E+02  0.71643334691E+01  0.40659141708E+02  0.00000000000E+00 0. -1.
         11    1    3    3    0    0  0.16666977006E+00  0.12575483663E+02 -0.25846071701E+01  0.12839422209E+02  0.51100000000E-03 0. -1.
        -11    1    3    3    0    0 -0.93377860294E+01  0.57457252165E+01 -0.19818821418E+01  0.11141609546E+02  0.51100000000E-03 0.  1.
         12    1    3    3    0    0 -0.26420409615E+02 -0.15979673343E-01 -0.25978441572E+01  0.26547826537E+02  0.00000000000E+00 0. -1.
</event>
<event>
 7    1  0.4871930E-013  0.5052886E+02  0.7816164E-02  0.1300439E+00
        -11   -1    0    0    0    0  0.00000000000E+00  0.00000000000E+00  0.45593999997E+02  0.45594000000E+02  0.51100000000E-03 0. -1.
         11   -1    0    0    0    0 -0.00000000000E+00 -0.00000000000E+00 -0.45593999997E+02  0.45594000000E+02  0.51100000000E-03 0.  1.
    9900012    2    1    2    0    0  0.33233778112E+02  0.12307868462E+01 -0.23391599967E+02  0.50528858434E+02  0.29999995696E+02 0.  0.
         12    1    1    2    0    0 -0.33233778112E+02 -0.12307868462E+01  0.23391599967E+02  0.40659141566E+02  0.00000000000E+00 0. -1.
         11    1    3    3    0    0 -0.30252203680E+00 -0.49148029077E+01 -0.31684517772E+01  0.58554157948E+01  0.51100000000E-03 0. -1.
        -11    1    3    3    0    0  0.31634178921E+02 -0.48894473134E+00 -0.20613185036E+02  0.37760610966E+02  0.51100000000E-03 0.  1.
         12    1    3    3    0    0  0.19021212276E+01  0.66345344852E+01  0.39003684572E+00  0.69128316732E+01  0.00000000000E+00 0. -1.
</event>
<event>
 7    1  0.4871930E-013  0.5052884E+02  0.7816164E-02  0.1300439E+00
        -11   -1    0    0    0    0  0.00000000000E+00  0.00000000000E+00  0.45593999997E+02  0.45594000000E+02  0.51100000000E-03 0. -1.
         11   -1    0    0    0    0 -0.00000000000E+00 -0.00000000000E+00 -0.45593999997E+02  0.45594000000E+02  0.51100000000E-03 0.  1.
    9900012    2    1    2    0    0 -0.28159021308E+02 -0.16590878378E+02 -0.24186344075E+02  0.50528844007E+02  0.29999951843E+02 0.  0.
         12    1    1    2    0    0  0.28159021308E+02  0.16590878378E+02  0.24186344075E+02  0.40659155993E+02  0.00000000000E+00 0. -1.
         11    1    3    3    0    0 -0.11893729703E+01 -0.13731785008E+01  0.62200666916E+01  0.64799272501E+01  0.51100000000E-03 0. -1.
        -11    1    3    3    0    0 -0.45666617966E+01 -0.66143014227E+00 -0.77470837319E+01  0.90171612167E+01  0.51100000000E-03 0.  1.
        -12    1    3    3    0    0 -0.22402986541E+02 -0.14556269735E+02 -0.22659327035E+02  0.35031755540E+02  0.00000000000E+00 0.  1.
</event>
<event>
 7    1  0.4871930E-013  0.5052898E+02  0.7816164E-02  0.1300438E+00
        -11   -1    0    0    0    0  0.00000000000E+00  0.00000000000E+00  0.45593999997E+02  0.45594000000E+02  0.51100000000E-03 0.  1.
         11   -1    0    0    0    0 -0.00000000000E+00 -0.00000000000E+00 -0.45593999997E+02  0.45594000000E+02  0.51100000000E-03 0. -1.
    9900012    2    1    2    0    0  0.26406969991E+02  0.27107779047E+02  0.14865937880E+02  0.50528980607E+02  0.30000367051E+02 0.  0.
         12    1    1    2    0    0 -0.26406969991E+02 -0.27107779047E+02 -0.14865937880E+02  0.40659019393E+02  0.00000000000E+00 0. -1.
         11    1    3    3    0    0 -0.68426474231E+00 -0.16431197280E+01 -0.31021574652E+01  0.35765125301E+01  0.51100000000E-03 0. -1.
        -11    1    3    3    0    0  0.97226360687E+01  0.19641002005E+02  0.16213836750E+02  0.27261458404E+02  0.51100000000E-03 0.  1.
         12    1    3    3    0    0  0.17368598664E+02  0.91098967702E+01  0.17542585944E+01  0.19691009673E+02  0.00000000000E+00 0. -1.
</event>
<event>
 7    1  0.4871930E-013  0.5052882E+02  0.7816164E-02  0.1300439E+00
        -11   -1    0    0    0    0  0.00000000000E+00  0.00000000000E+00  0.45593999997E+02  0.45594000000E+02  0.51100000000E-03 0.  1.
         11   -1    0    0    0    0 -0.00000000000E+00 -0.00000000000E+00 -0.45593999997E+02  0.45594000000E+02  0.51100000000E-03 0. -1.
    9900012    2    1    2    0    0  0.21120065661E+01  0.35465948437E+02  0.19770552315E+02  0.50528821342E+02  0.29999882951E+02 0.  0.
         12    1    1    2    0    0 -0.21120065661E+01 -0.35465948437E+02 -0.19770552315E+02  0.40659178658E+02  0.00000000000E+00 0. -1.
         11    1    3    3    0    0 -0.52995402673E+01  0.16094346701E+02  0.10190408964E+02  0.19772646709E+02  0.51100000000E-03 0. -1.
        -11    1    3    3    0    0 -0.11158722089E+01  0.16410206840E+02 -0.14397651711E+01  0.16510995831E+02  0.51100000000E-03 0.  1.
        -12    1    3    3    0    0  0.85274190423E+01  0.29613948964E+01  0.11019908522E+02  0.14245178802E+02  0.00000000000E+00 0.  1.
</event>
<event>
 7    1  0.4871930E-013  0.5052887E+02  0.7816164E-02  0.1300439E+00
        -11   -1    0    0    0    0  0.00000000000E+00  0.00000000000E+00  0.45593999997E+02  0.45594000000E+02  0.51100000000E-03 0.  1.
         11   -1    0    0    0    0 -0.00000000000E+00 -0.00000000000E+00 -0.45593999997E+02  0.45594000000E+02  0.51100000000E-03 0. -1.
    9900012    2    1    2    0    0 -0.37175758557E+02  0.10314531627E+02  0.12835032687E+02  0.50528872475E+02  0.30000038376E+02 0.  0.
         12    1    1    2    0    0  0.37175758557E+02 -0.10314531627E+02 -0.12835032687E+02  0.40659127525E+02  0.00000000000E+00 0. -1.
         11    1    3    3    0    0 -0.80291168171E+01  0.19841848912E+01  0.13940493811E+02  0.16209289760E+02  0.51100000000E-03 0. -1.
        -11    1    3    3    0    0 -0.70062953498E+01 -0.36117700837E+01 -0.42715207168E+01  0.89654306735E+01  0.51100000000E-03 0.  1.
        -12    1    3    3    0    0 -0.22140346390E+02  0.11942116820E+02  0.31660595920E+01  0.25354152042E+02  0.00000000000E+00 0.  1.
</event>
<event>
 7    1  0.4871930E-013  0.5052886E+02  0.7816164E-02  0.1300439E+00
        -11   -1    0    0    0    0  0.00000000000E+00  0.00000000000E+00  0.45593999997E+02  0.45594000000E+02  0.51100000000E-03 0.  1.
         11   -1    0    0    0    0 -0.00000000000E+00 -0.00000000000E+00 -0.45593999997E+02  0.45594000000E+02  0.51100000000E-03 0. -1.
    9900012    2    1    2    0    0 -0.19205394189E+02 -0.27825051889E+02  0.22585062138E+02  0.50528859448E+02  0.29999998780E+02 0.  0.
         12    1    1    2    0    0  0.19205394189E+02  0.27825051889E+02 -0.22585062138E+02  0.40659140552E+02  0.00000000000E+00 0. -1.
         11    1    3    3    0    0 -0.19251107351E+02 -0.12227868161E+02  0.71075043898E+01  0.23888124935E+02  0.51100000000E-03 0. -1.
        -11    1    3    3    0    0 -0.54987722585E+01 -0.13583587545E+02  0.14583876520E+02  0.20674617325E+02  0.51100000000E-03 0.  1.
         12    1    3    3    0    0  0.55444854203E+01 -0.20135961831E+01  0.89368122870E+00  0.59661171882E+01  0.00000000000E+00 0. -1.
</event>
<event>
 7    1  0.4871930E-013  0.5052888E+02  0.7816164E-02  0.1300439E+00
        -11   -1    0    0    0    0  0.00000000000E+00  0.00000000000E+00  0.45593999997E+02  0.45594000000E+02  0.51100000000E-03 0.  1.
         11   -1    0    0    0    0 -0.00000000000E+00 -0.00000000000E+00 -0.45593999997E+02  0.45594000000E+02  0.51100000000E-03 0. -1.
    9900012    2    1    2    0    0 -0.80373113898E+01 -0.28756928907E+02  0.27597179661E+02  0.50528884665E+02  0.30000075429E+02 0.  0.
         12    1    1    2    0    0  0.80373113898E+01  0.28756928907E+02 -0.27597179661E+02  0.40659115335E+02  0.00000000000E+00 0. -1.
         11    1    3    3    0    0 -0.71376062154E+01 -0.23931226407E+02  0.21643048003E+02  0.33046490691E+02  0.51100000000E-03 0. -1.
        -11    1    3    3    0    0 -0.45651988812E+01 -0.90371135998E+01  0.12884900516E+01  0.10206403378E+02  0.51100000000E-03 0.  1.
        -12    1    3    3    0    0  0.36654937068E+01  0.42114110996E+01  0.46656416063E+01  0.72759905967E+01  0.00000000000E+00 0.  1.
</event>
<event>
 7    1  0.4871930E-013  0.5052885E+02  0.7816164E-02  0.1300439E+00
        -11   -1    0    0    0    0  0.00000000000E+00  0.00000000000E+00  0.45593999997E+02  0.45594000000E+02  0.51100000000E-03 0. -1.
         11   -1    0    0    0    0 -0.00000000000E+00 -0.00000000000E+00 -0.45593999997E+02  0.45594000000E+02  0.51100000000E-03 0.  1.
    9900012    2    1    2    0    0  0.40239376074E+02  0.47117407724E+01  0.34290288775E+01  0.50528854326E+02  0.29999983209E+02 0.  0.
         12    1    1    2    0    0 -0.40239376074E+02 -0.47117407724E+01 -0.34290288775E+01  0.40659145674E+02  0.00000000000E+00 0. -1.
         11    1    3    3    0    0  0.13193390707E+02  0.84205743216E+01  0.50853910393E+01  0.16456999500E+02  0.51100000000E-03 0.  1.
        -11    1    3    3    0    0  0.17791447464E+02 -0.33135939291E+01  0.87824173949E+01  0.20115823700E+02  0.51100000000E-03 0. -1.
        -12    1    3    3    0    0  0.92545379028E+01 -0.39523962004E+00 -0.10438779557E+02  0.13956031126E+02  0.00000000000E+00 0.  1.
</event>
<event>
 7    1  0.4871930E-013  0.5052887E+02  0.7816164E-02  0.1300439E+00
        -11   -1    0    0    0    0  0.00000000000E+00  0.00000000000E+00  0.45593999997E+02  0.45594000000E+02  0.51100000000E-03 0.  1.
         11   -1    0    0    0    0 -0.00000000000E+00 -0.00000000000E+00 -0.45593999997E+02  0.45594000000E+02  0.51100000000E-03 0. -1.
    9900012    2    1    2    0    0  0.31352886046E+02 -0.19363023597E+02  0.17182401453E+02  0.50528867374E+02  0.30000022869E+02 0.  0.
         12    1    1    2    0    0 -0.31352886046E+02  0.19363023597E+02 -0.17182401453E+02  0.40659132626E+02  0.00000000000E+00 0. -1.
         11    1    3    3    0    0  0.66108914481E+01  0.62511715269E+01  0.90586166741E+00  0.91433919756E+01  0.51100000000E-03 0. -1.
        -11    1    3    3    0    0  0.10908913093E+02 -0.26468594179E+01  0.53092443525E+01  0.12417661837E+02  0.51100000000E-03 0.  1.
         12    1    3    3    0    0  0.13833081505E+02 -0.22967335706E+02  0.10967295433E+02  0.28967813561E+02  0.00000000000E+00 0. -1.
</event>
<event>
 7    1  0.4871930E-013  0.5052887E+02  0.7816164E-02  0.1300439E+00
        -11   -1    0    0    0    0  0.00000000000E+00  0.00000000000E+00  0.45593999997E+02  0.45594000000E+02  0.51100000000E-03 0.  1.
         11   -1    0    0    0    0 -0.00000000000E+00 -0.00000000000E+00 -0.45593999997E+02  0.45594000000E+02  0.51100000000E-03 0. -1.
    9900012    2    1    2    0    0 -0.12125531372E+02 -0.22437096408E+02  0.31665650894E+02  0.50528865076E+02  0.30000015884E+02 0.  0.
         12    1    1    2    0    0  0.12125531372E+02  0.22437096408E+02 -0.31665650894E+02  0.40659134924E+02  0.00000000000E+00 0. -1.
         11    1    3    3    0    0  0.20685119836E+01 -0.74396071017E+01  0.17163378567E+02  0.18820416036E+02  0.51100000000E-03 0. -1.
        -11    1    3    3    0    0 -0.26262482695E+01 -0.16262135381E+02  0.72568625154E+01  0.18000452243E+02  0.51100000000E-03 0.  1.
        -12    1    3    3    0    0 -0.11567795086E+02  0.12646460750E+01  0.72454098110E+01  0.13707996797E+02  0.00000000000E+00 0.  1.
</event>
<event>
 7    1  0.4871930E-013  0.5052886E+02  0.7816164E-02  0.1300439E+00
        -11   -1    0    0    0    0  0.00000000000E+00  0.00000000000E+00  0.45593999997E+02  0.45594000000E+02  0.51100000000E-03 0.  1.
         11   -1    0    0    0    0 -0.00000000000E+00 -0.00000000000E+00 -0.45593999997E+02  0.45594000000E+02  0.51100000000E-03 0. -1.
    9900012    2    1    2    0    0  0.15712184366E+02 -0.32837080354E+02  0.18111290126E+02  0.50528863096E+02  0.30000009867E+02 0.  0.
         12    1    1    2    0    0 -0.15712184366E+02  0.32837080354E+02 -0.18111290126E+02  0.40659136904E+02  0.00000000000E+00 0. -1.
         11    1    3    3    0    0  0.43590075245E+01 -0.13152858757E+02  0.51349758687E+01  0.14777233081E+02  0.51100000000E-03 0. -1.
        -11    1    3    3    0    0 -0.61904520336E+01 -0.42062818078E+01 -0.22769912277E+01  0.78229912654E+01  0.51100000000E-03 0.  1.
         12    1    3    3    0    0  0.17543628875E+02 -0.15477939789E+02  0.15253305485E+02  0.27928638750E+02  0.00000000000E+00 0. -1.
</event>
<event>
 7    1  0.4871930E-013  0.5052879E+02  0.7816164E-02  0.1300439E+00
        -11   -1    0    0    0    0  0.00000000000E+00  0.00000000000E+00  0.45593999997E+02  0.45594000000E+02  0.51100000000E-03 0. -1.
         11   -1    0    0    0    0 -0.00000000000E+00 -0.00000000000E+00 -0.45593999997E+02  0.45594000000E+02  0.51100000000E-03 0.  1.
    9900012    2    1    2    0    0 -0.24134817152E+02  0.21358491498E+01 -0.32651488782E+02  0.50528794767E+02  0.29999802172E+02 0.  0.
         12    1    1    2    0    0  0.24134817152E+02 -0.21358491498E+01  0.32651488782E+02  0.40659205233E+02  0.00000000000E+00 0. -1.
         11    1    3    3    0    0 -0.13513937085E+02  0.49417679594E+01 -0.51152080506E+01  0.15271310349E+02  0.51100000000E-03 0. -1.
        -11    1    3    3    0    0  0.37729153218E+01 -0.22850205217E+01 -0.26805882279E+00  0.44190569813E+01  0.51100000000E-03 0.  1.
        -12    1    3    3    0    0 -0.14393795388E+02 -0.52089828786E+00 -0.27268221908E+02  0.30838427437E+02  0.00000000000E+00 0.  1.
</event>
<event>
 7    1  0.4871930E-013  0.5052889E+02  0.7816164E-02  0.1300439E+00
        -11   -1    0    0    0    0  0.00000000000E+00  0.00000000000E+00  0.45593999997E+02  0.45594000000E+02  0.51100000000E-03 0. -1.
         11   -1    0    0    0    0 -0.00000000000E+00 -0.00000000000E+00 -0.45593999997E+02  0.45594000000E+02  0.51100000000E-03 0.  1.
    9900012    2    1    2    0    0  0.15483216494E+02  0.29981293875E+02 -0.22683811574E+02  0.50528889300E+02  0.30000089516E+02 0.  0.
         12    1    1    2    0    0 -0.15483216494E+02 -0.29981293875E+02  0.22683811574E+02  0.40659110700E+02  0.00000000000E+00 0. -1.
         11    1    3    3    0    0 -0.19293879947E+01  0.90979074552E+01 -0.24879557500E+00  0.93035669287E+01  0.51100000000E-03 0. -1.
        -11    1    3    3    0    0 -0.20475398051E+00 -0.31292130795E+01 -0.70237468367E+01  0.76920035477E+01  0.51100000000E-03 0.  1.
         12    1    3    3    0    0  0.17617358469E+02  0.24012599499E+02 -0.15411269162E+02  0.33533318824E+02  0.00000000000E+00 0. -1.
</event>
<event>
 7    1  0.4871930E-013  0.5052885E+02  0.7816164E-02  0.1300439E+00
        -11   -1    0    0    0    0  0.00000000000E+00  0.00000000000E+00  0.45593999997E+02  0.45594000000E+02  0.51100000000E-03 0. -1.
         11   -1    0    0    0    0 -0.00000000000E+00 -0.00000000000E+00 -0.45593999997E+02  0.45594000000E+02  0.51100000000E-03 0.  1.
    9900012    2    1    2    0    0  0.40622680356E+02 -0.10207674928E+01  0.13864967583E+01  0.50528849752E+02  0.29999969307E+02 0.  0.
         12    1    1    2    0    0 -0.40622680356E+02  0.10207674928E+01 -0.13864967583E+01  0.40659150248E+02  0.00000000000E+00 0. -1.
         11    1    3    3    0    0  0.94126372321E+01 -0.10284515998E+02 -0.55753089533E+01  0.15015095043E+02  0.51100000000E-03 0. -1.
        -11    1    3    3    0    0  0.20733521122E+02  0.16811122411E+01 -0.51950810217E-01  0.20801628196E+02  0.51100000000E-03 0.  1.
        -12    1    3    3    0    0  0.10476522002E+02  0.75826362641E+01  0.70137565218E+01  0.14712126513E+02  0.00000000000E+00 0.  1.
</event>
<event>
 7    1  0.4871930E-013  0.5052882E+02  0.7816164E-02  0.1300439E+00
        -11   -1    0    0    0    0  0.00000000000E+00  0.00000000000E+00  0.45593999997E+02  0.45594000000E+02  0.51100000000E-03 0. -1.
         11   -1    0    0    0    0 -0.00000000000E+00 -0.00000000000E+00 -0.45593999997E+02  0.45594000000E+02  0.51100000000E-03 0.  1.
    9900012    2    1    2    0    0  0.14188689554E+02 -0.81850184306E+01 -0.37213646297E+02  0.50528820118E+02  0.29999879231E+02 0.  0.
         12    1    1    2    0    0 -0.14188689554E+02  0.81850184306E+01  0.37213646297E+02  0.40659179882E+02  0.00000000000E+00 0. -1.
         11    1    3    3    0    0 -0.22329485676E+00 -0.11483116193E+02 -0.62224685194E+01  0.13062577572E+02  0.51100000000E-03 0. -1.
        -11    1    3    3    0    0  0.82194755945E+01 -0.36783560863E+01 -0.24497768280E+02  0.26100397191E+02  0.51100000000E-03 0.  1.
        -12    1    3    3    0    0  0.61925088163E+01  0.69764538486E+01 -0.64934094970E+01  0.11365845355E+02  0.00000000000E+00 0.  1.
</event>
<event>
 7    1  0.4871930E-013  0.5052886E+02  0.7816164E-02  0.1300439E+00
        -11   -1    0    0    0    0  0.00000000000E+00  0.00000000000E+00  0.45593999997E+02  0.45594000000E+02  0.51100000000E-03 0.  1.
         11   -1    0    0    0    0 -0.00000000000E+00 -0.00000000000E+00 -0.45593999997E+02  0.45594000000E+02  0.51100000000E-03 0. -1.
    9900012    2    1    2    0    0 -0.54674918011E+01 -0.54635285460E+01  0.39917693399E+02  0.50528857645E+02  0.29999993298E+02 0.  0.
         12    1    1    2    0    0  0.54674918011E+01  0.54635285460E+01 -0.39917693399E+02  0.40659142355E+02  0.00000000000E+00 0. -1.
         11    1    3    3    0    0 -0.55030958685E+01  0.10592828471E+01  0.28059615602E+01  0.62673411289E+01  0.51100000000E-03 0. -1.
        -11    1    3    3    0    0 -0.64916159825E+01 -0.12728138104E+02  0.16875979194E+02  0.22112106451E+02  0.51100000000E-03 0.  1.
        -12    1    3    3    0    0  0.65272200498E+01  0.62053267112E+01  0.20235752644E+02  0.22149410065E+02  0.00000000000E+00 0.  1.
</event>
<event>
 7    1  0.4871930E-013  0.5052885E+02  0.7816164E-02  0.1300439E+00
        -11   -1    0    0    0    0  0.00000000000E+00  0.00000000000E+00  0.45593999997E+02  0.45594000000E+02  0.51100000000E-03 0. -1.
         11   -1    0    0    0    0 -0.00000000000E+00 -0.00000000000E+00 -0.45593999997E+02  0.45594000000E+02  0.51100000000E-03 0.  1.
    9900012    2    1    2    0    0  0.20796089645E+02 -0.34844566751E+02 -0.25583692428E+01  0.50528850602E+02  0.29999971889E+02 0.  0.
         12    1    1    2    0    0 -0.20796089645E+02  0.34844566751E+02  0.25583692428E+01  0.40659149398E+02  0.00000000000E+00 0. -1.
         11    1    3    3    0    0  0.16229986688E+02 -0.24806026098E+02  0.73439175999E+01  0.30539884162E+02  0.51100000000E-03 0.  1.
        -11    1    3    3    0    0  0.82610144986E+01 -0.32212824216E+01 -0.23687732934E+01  0.91778051931E+01  0.51100000000E-03 0. -1.
        -12    1    3    3    0    0 -0.36949115413E+01 -0.68172582316E+01 -0.75335135493E+01  0.10811161246E+02  0.00000000000E+00 0.  1.
</event>
<event>
 7    1  0.4871930E-013  0.5052884E+02  0.7816164E-02  0.1300439E+00
        -11   -1    0    0    0    0  0.00000000000E+00  0.00000000000E+00  0.45593999997E+02  0.45594000000E+02  0.51100000000E-03 0. -1.
         11   -1    0    0    0    0 -0.00000000000E+00 -0.00000000000E+00 -0.45593999997E+02  0.45594000000E+02  0.51100000000E-03 0.  1.
    9900012    2    1    2    0    0 -0.38429482514E+01 -0.40320457435E+02  0.35580246332E+01  0.50528842626E+02  0.29999947646E+02 0.  0.
         12    1    1    2    0    0  0.38429482514E+01  0.40320457435E+02 -0.35580246332E+01  0.40659157374E+02  0.00000000000E+00 0. -1.
         11    1    3    3    0    0  0.29642246711E+01 -0.39683751550E+01 -0.44535084149E+01  0.66609583946E+01  0.51100000000E-03 0. -1.
        -11    1    3    3    0    0 -0.29311955037E+01 -0.37226518441E+02  0.29854291818E+01  0.37460891206E+02  0.51100000000E-03 0.  1.
         12    1    3    3    0    0 -0.38759774188E+01  0.87443616027E+00  0.50261038664E+01  0.64069930252E+01  0.00000000000E+00 0. -1.
</event>
<event>
 7    1  0.4871930E-013  0.5052886E+02  0.7816164E-02  0.1300439E+00
        -11   -1    0    0    0    0  0.00000000000E+00  0.00000000000E+00  0.45593999997E+02  0.45594000000E+02  0.51100000000E-03 0.  1.
         11   -1    0    0    0    0 -0.00000000000E+00 -0.00000000000E+00 -0.45593999997E+02  0.45594000000E+02  0.51100000000E-03 0. -1.
    9900012    2    1    2    0    0  0.36979658571E+02 -0.15616878705E+02  0.64640096921E+01  0.50528862407E+02  0.30000007772E+02 0.  0.
         12    1    1    2    0    0 -0.36979658571E+02  0.15616878705E+02 -0.64640096921E+01  0.40659137593E+02  0.00000000000E+00 0. -1.
         11    1    3    3    0    0  0.92957004258E+01 -0.27339331478E+01 -0.74980505905E+01  0.12251742724E+02  0.51100000000E-03 0. -1.
        -11    1    3    3    0    0  0.64299309164E+01  0.47722006138E+01  0.33110998853E+01  0.86649462202E+01  0.51100000000E-03 0.  1.
        -12    1    3    3    0    0  0.21254027229E+02 -0.17655146171E+02  0.10650960397E+02  0.29612173462E+02  0.00000000000E+00 0.  1.
</event>
<event>
 7    1  0.4871930E-013  0.5052886E+02  0.7816164E-02  0.1300439E+00
        -11   -1    0    0    0    0  0.00000000000E+00  0.00000000000E+00  0.45593999997E+02  0.45594000000E+02  0.51100000000E-03 0.  1.
         11   -1    0    0    0    0 -0.00000000000E+00 -0.00000000000E+00 -0.45593999997E+02  0.45594000000E+02  0.51100000000E-03 0. -1.
    9900012    2    1    2    0    0  0.42291225174E+01  0.39252117982E+02  0.97237700946E+01  0.50528856524E+02  0.29999989890E+02 0.  0.
         12    1    1    2    0    0 -0.42291225174E+01 -0.39252117982E+02 -0.97237700946E+01  0.40659143476E+02  0.00000000000E+00 0. -1.
         11    1    3    3    0    0  0.68726657374E+01  0.33153853641E+02  0.48519025899E+01  0.34204568475E+02  0.51100000000E-03 0. -1.
        -11    1    3    3    0    0  0.57608349485E+01  0.32679446975E+01  0.29490063085E+01  0.72500565735E+01  0.51100000000E-03 0.  1.
        -12    1    3    3    0    0 -0.84043781685E+01  0.28303196442E+01  0.19228611962E+01  0.90742314753E+01  0.00000000000E+00 0.  1.
</event>
<event>
 7    1  0.4871930E-013  0.5052887E+02  0.7816164E-02  0.1300439E+00
        -11   -1    0    0    0    0  0.00000000000E+00  0.00000000000E+00  0.45593999997E+02  0.45594000000E+02  0.51100000000E-03 0.  1.
         11   -1    0    0    0    0 -0.00000000000E+00 -0.00000000000E+00 -0.45593999997E+02  0.45594000000E+02  0.51100000000E-03 0. -1.
    9900012    2    1    2    0    0  0.28143129322E+02  0.17675866612E+02  0.23424196494E+02  0.50528868555E+02  0.30000026459E+02 0.  0.
         12    1    1    2    0    0 -0.28143129322E+02 -0.17675866612E+02 -0.23424196494E+02  0.40659131445E+02  0.00000000000E+00 0. -1.
         11    1    3    3    0    0  0.32411715885E+00 -0.43506081421E+00 -0.31176673712E+01  0.31645189118E+01  0.51100000000E-03 0. -1.
        -11    1    3    3    0    0  0.29693874730E+01  0.13601061497E+02  0.82749758106E+01  0.16195102987E+02  0.51100000000E-03 0.  1.
        -12    1    3    3    0    0  0.24849624690E+02  0.45098659286E+01  0.18266888054E+02  0.31169246656E+02  0.00000000000E+00 0.  1.
</event>
<event>
 7    1  0.4871930E-013  0.5052890E+02  0.7816164E-02  0.1300439E+00
        -11   -1    0    0    0    0  0.00000000000E+00  0.00000000000E+00  0.45593999997E+02  0.45594000000E+02  0.51100000000E-03 0. -1.
         11   -1    0    0    0    0 -0.00000000000E+00 -0.00000000000E+00 -0.45593999997E+02  0.45594000000E+02  0.51100000000E-03 0.  1.
    9900012    2    1    2    0    0  0.10707699372E+02 -0.37664569992E+02 -0.10949335239E+02  0.50528897690E+02  0.30000115017E+02 0.  0.
         12    1    1    2    0    0 -0.10707699372E+02  0.37664569992E+02  0.10949335239E+02  0.40659102310E+02  0.00000000000E+00 0. -1.
         11    1    3    3    0    0  0.25525493670E+01 -0.17586058564E+01 -0.66919579430E+01  0.73749918103E+01  0.51100000000E-03 0. -1.
        -11    1    3    3    0    0  0.20329443716E+01 -0.33229868227E+02 -0.95449498059E+01  0.34633265400E+02  0.51100000000E-03 0.  1.
         12    1    3    3    0    0  0.61222056337E+01 -0.26760959085E+01  0.52875725100E+01  0.85206404795E+01  0.00000000000E+00 0. -1.
</event>
<event>
 7    1  0.4871930E-013  0.5052886E+02  0.7816164E-02  0.1300439E+00
        -11   -1    0    0    0    0  0.00000000000E+00  0.00000000000E+00  0.45593999997E+02  0.45594000000E+02  0.51100000000E-03 0. -1.
         11   -1    0    0    0    0 -0.00000000000E+00 -0.00000000000E+00 -0.45593999997E+02  0.45594000000E+02  0.51100000000E-03 0.  1.
    9900012    2    1    2    0    0 -0.36417850557E+02 -0.75447079474E+01 -0.16431160821E+02  0.50528861997E+02  0.30000006526E+02 0.  0.
         12    1    1    2    0    0  0.36417850557E+02  0.75447079474E+01  0.16431160821E+02  0.40659138003E+02  0.00000000000E+00 0. -1.
         11    1    3    3    0    0 -0.94760857993E+01  0.68263546812E+01  0.18158448604E+01  0.11819162962E+02  0.51100000000E-03 0. -1.
        -11    1    3    3    0    0 -0.21576954494E+02 -0.11052851462E+02 -0.60633543086E+01  0.24989893085E+02  0.51100000000E-03 0.  1.
        -12    1    3    3    0    0 -0.53648102637E+01 -0.33182111665E+01 -0.12183651373E+02  0.13719805950E+02  0.00000000000E+00 0.  1.
</event>
<event>
 7    1  0.4871930E-013  0.5052887E+02  0.7816164E-02  0.1300439E+00
        -11   -1    0    0    0    0  0.00000000000E+00  0.00000000000E+00  0.45593999997E+02  0.45594000000E+02  0.51100000000E-03 0. -1.
         11   -1    0    0    0    0 -0.00000000000E+00 -0.00000000000E+00 -0.45593999997E+02  0.45594000000E+02  0.51100000000E-03 0.  1.
    9900012    2    1    2    0    0  0.25702108652E+02 -0.24814080774E+01 -0.31407156564E+02  0.50528865004E+02  0.30000015665E+02 0.  0.
         12    1    1    2    0    0 -0.25702108652E+02  0.24814080774E+01  0.31407156564E+02  0.40659134996E+02  0.00000000000E+00 0. -1.
         11    1    3    3    0    0  0.45009697727E+01 -0.16248541486E+01  0.31913540914E+01  0.57518363239E+01  0.51100000000E-03 0. -1.
        -11    1    3    3    0    0 -0.73739446229E+00 -0.58277169180E+01 -0.83341370608E+01  0.10196267743E+02  0.51100000000E-03 0.  1.
         12    1    3    3    0    0  0.21938533342E+02  0.49711629892E+01 -0.26264373595E+02  0.34580760937E+02  0.00000000000E+00 0. -1.
</event>
<event>
 7    1  0.4871930E-013  0.5052886E+02  0.7816164E-02  0.1300439E+00
        -11   -1    0    0    0    0  0.00000000000E+00  0.00000000000E+00  0.45593999997E+02  0.45594000000E+02  0.51100000000E-03 0.  1.
         11   -1    0    0    0    0 -0.00000000000E+00 -0.00000000000E+00 -0.45593999997E+02  0.45594000000E+02  0.51100000000E-03 0. -1.
    9900012    2    1    2    0    0 -0.40421777534E+02  0.27719792872E+01  0.34002509037E+01  0.50528859892E+02  0.30000000126E+02 0.  0.
         12    1    1    2    0    0  0.40421777534E+02 -0.27719792872E+01 -0.34002509037E+01  0.40659140108E+02  0.00000000000E+00 0. -1.
         11    1    3    3    0    0 -0.20417051928E+02  0.73383863116E+01 -0.22998020808E+01  0.21817355774E+02  0.51100000000E-03 0. -1.
        -11    1    3    3    0    0  0.16950683769E+00  0.51371528541E+01 -0.12143386260E+01  0.52814477726E+01  0.51100000000E-03 0.  1.
        -12    1    3    3    0    0 -0.20174232443E+02 -0.97035598785E+01  0.69143916105E+01  0.23430056345E+02  0.00000000000E+00 0.  1.
</event>
<event>
 7    1  0.4871930E-013  0.5052886E+02  0.7816164E-02  0.1300439E+00
        -11   -1    0    0    0    0  0.00000000000E+00  0.00000000000E+00  0.45593999997E+02  0.45594000000E+02  0.51100000000E-03 0. -1.
         11   -1    0    0    0    0 -0.00000000000E+00 -0.00000000000E+00 -0.45593999997E+02  0.45594000000E+02  0.51100000000E-03 0.  1.
    9900012    2    1    2    0    0  0.33232202077E+02  0.21052738695E+02  0.10274653415E+02  0.50528861246E+02  0.30000004244E+02 0.  0.
         12    1    1    2    0    0 -0.33232202077E+02 -0.21052738695E+02 -0.10274653415E+02  0.40659138754E+02  0.00000000000E+00 0. -1.
         11    1    3    3    0    0  0.11204373529E+02  0.38134486182E+00 -0.63829447430E+00  0.11229017329E+02  0.51100000000E-03 0. -1.
        -11    1    3    3    0    0  0.22721413895E+02  0.19556161391E+02  0.17351975719E+01  0.30028603175E+02  0.51100000000E-03 0.  1.
         12    1    3    3    0    0 -0.69358534676E+00  0.11152324420E+01  0.91777503169E+01  0.92712407429E+01  0.00000000000E+00 0. -1.
</event>
<event>
 7    1  0.4871930E-013  0.5052882E+02  0.7816164E-02  0.1300439E+00
        -11   -1    0    0    0    0  0.00000000000E+00  0.00000000000E+00  0.45593999997E+02  0.45594000000E+02  0.51100000000E-03 0.  1.
         11   -1    0    0    0    0 -0.00000000000E+00 -0.00000000000E+00 -0.45593999997E+02  0.45594000000E+02  0.51100000000E-03 0. -1.
    9900012    2    1    2    0    0  0.34081853443E+02 -0.20950962793E+02  0.72562451151E+01  0.50528823063E+02  0.29999888181E+02 0.  0.
         12    1    1    2    0    0 -0.34081853443E+02  0.20950962793E+02 -0.72562451151E+01  0.40659176937E+02  0.00000000000E+00 0. -1.
         11    1    3    3    0    0  0.21378769552E+02 -0.40282979465E+01 -0.34824368141E+01  0.22031939051E+02  0.51100000000E-03 0. -1.
        -11    1    3    3    0    0  0.37759641777E+01  0.26517536093E+01  0.35223648490E+01  0.58048907885E+01  0.51100000000E-03 0.  1.
        -12    1    3    3    0    0  0.89271197129E+01 -0.19574418456E+02  0.72163170802E+01  0.22691993224E+02  0.00000000000E+00 0.  1.
</event>
<event>
 7    1  0.4871930E-013  0.5052887E+02  0.7816164E-02  0.1300439E+00
        -11   -1    0    0    0    0  0.00000000000E+00  0.00000000000E+00  0.45593999997E+02  0.45594000000E+02  0.51100000000E-03 0.  1.
         11   -1    0    0    0    0 -0.00000000000E+00 -0.00000000000E+00 -0.45593999997E+02  0.45594000000E+02  0.51100000000E-03 0. -1.
    9900012    2    1    2    0    0  0.22268111003E+02 -0.13452996190E+02  0.31246011736E+02  0.50528866665E+02  0.30000020714E+02 0.  0.
         12    1    1    2    0    0 -0.22268111003E+02  0.13452996190E+02 -0.31246011736E+02  0.40659133335E+02  0.00000000000E+00 0. -1.
         11    1    3    3    0    0 -0.10326892505E+00  0.24456319565E+01  0.32825509557E+01  0.40947431147E+01  0.51100000000E-03 0. -1.
        -11    1    3    3    0    0  0.22163864398E+02 -0.39983551712E+01  0.25954575559E+02  0.34363697733E+02  0.51100000000E-03 0.  1.
         12    1    3    3    0    0  0.20751553010E+00 -0.11900272975E+02  0.20088852214E+01  0.12070425817E+02  0.00000000000E+00 0. -1.
</event>
<event>
 7    1  0.4871930E-013  0.5052886E+02  0.7816164E-02  0.1300439E+00
        -11   -1    0    0    0    0  0.00000000000E+00  0.00000000000E+00  0.45593999997E+02  0.45594000000E+02  0.51100000000E-03 0. -1.
         11   -1    0    0    0    0 -0.00000000000E+00 -0.00000000000E+00 -0.45593999997E+02  0.45594000000E+02  0.51100000000E-03 0.  1.
    9900012    2    1    2    0    0 -0.34995873123E+01  0.28942331603E+02 -0.28341835380E+02  0.50528864462E+02  0.30000014017E+02 0.  0.
         12    1    1    2    0    0  0.34995873123E+01 -0.28942331603E+02  0.28341835380E+02  0.40659135538E+02  0.00000000000E+00 0. -1.
         11    1    3    3    0    0 -0.86068072930E+01  0.74973902068E+01 -0.19795102014E+02  0.22850252859E+02  0.51100000000E-03 0.  1.
        -11    1    3    3    0    0  0.67929246540E+01  0.12458733436E+02 -0.11289305153E+02  0.18133181609E+02  0.51100000000E-03 0. -1.
         12    1    3    3    0    0 -0.16857046732E+01  0.89862079606E+01  0.27425717865E+01  0.95454299935E+01  0.00000000000E+00 0. -1.
</event>
<event>
 7    1  0.4871930E-013  0.5052886E+02  0.7816164E-02  0.1300439E+00
        -11   -1    0    0    0    0  0.00000000000E+00  0.00000000000E+00  0.45593999997E+02  0.45594000000E+02  0.51100000000E-03 0.  1.
         11   -1    0    0    0    0 -0.00000000000E+00 -0.00000000000E+00 -0.45593999997E+02  0.45594000000E+02  0.51100000000E-03 0. -1.
    9900012    2    1    2    0    0  0.70611998634E+01  0.19354369936E+02  0.35053014262E+02  0.50528856035E+02  0.29999988403E+02 0.  0.
         12    1    1    2    0    0 -0.70611998634E+01 -0.19354369936E+02 -0.35053014262E+02  0.40659143965E+02  0.00000000000E+00 0. -1.
         11    1    3    3    0    0  0.22208507257E+01  0.46944141154E+01  0.42360713116E+00  0.52104841517E+01  0.51100000000E-03 0. -1.
        -11    1    3    3    0    0 -0.71498880610E+01  0.15640549232E+02  0.20797544989E+02  0.26986766339E+02  0.51100000000E-03 0.  1.
         12    1    3    3    0    0  0.11990237199E+02 -0.98059341230E+00  0.13831862142E+02  0.18331605544E+02  0.00000000000E+00 0. -1.
</event>
<event>
 7    1  0.4871930E-013  0.5052885E+02  0.7816164E-02  0.1300439E+00
        -11   -1    0    0    0    0  0.00000000000E+00  0.00000000000E+00  0.45593999997E+02  0.45594000000E+02  0.51100000000E-03 0.  1.
         11   -1    0    0    0    0 -0.00000000000E+00 -0.00000000000E+00 -0.45593999997E+02  0.45594000000E+02  0.51100000000E-03 0. -1.
    9900012    2    1    2    0    0 -0.17760220563E+02  0.26089169159E+02  0.25633893854E+02  0.50528847329E+02  0.29999961941E+02 0.  0.
         12    1    1    2    0    0  0.17760220563E+02 -0.26089169159E+02 -0.25633893854E+02  0.40659152671E+02  0.00000000000E+00 0. -1.
         11    1    3    3    0    0 -0.11660698327E+02  0.78527051593E+01  0.79510100728E+01  0.16151019325E+02  0.51100000000E-03 0. -1.
        -11    1    3    3    0    0 -0.55821093313E+01  0.23427671070E+02  0.15925827919E+02  0.28872958136E+02  0.51100000000E-03 0.  1.
         12    1    3    3    0    0 -0.51741290447E+00 -0.51912070708E+01  0.17570558616E+01  0.55048698683E+01  0.00000000000E+00 0. -1.
</event>
<event>
 7    1  0.4871930E-013  0.5052886E+02  0.7816164E-02  0.1300439E+00
        -11   -1    0    0    0    0  0.00000000000E+00  0.00000000000E+00  0.45593999997E+02  0.45594000000E+02  0.51100000000E-03 0.  1.
         11   -1    0    0    0    0 -0.00000000000E+00 -0.00000000000E+00 -0.45593999997E+02  0.45594000000E+02  0.51100000000E-03 0. -1.
    9900012    2    1    2    0    0 -0.20350997620E+02 -0.19184895006E+02  0.29511734379E+02  0.50528858757E+02  0.29999996679E+02 0.  0.
         12    1    1    2    0    0  0.20350997620E+02  0.19184895006E+02 -0.29511734379E+02  0.40659141243E+02  0.00000000000E+00 0. -1.
         11    1    3    3    0    0 -0.93337091144E+01  0.14551952497E+01  0.73165906216E+00  0.94747582709E+01  0.51100000000E-03 0. -1.
        -11    1    3    3    0    0 -0.12698593842E+02 -0.88411828851E+01  0.23219112659E+02  0.27902472889E+02  0.51100000000E-03 0.  1.
         12    1    3    3    0    0  0.16813053370E+01 -0.11798907371E+02  0.55609626582E+01  0.13151627598E+02  0.00000000000E+00 0. -1.
</event>
<event>
 7    1  0.4871930E-013  0.5052886E+02  0.7816164E-02  0.1300439E+00
        -11   -1    0    0    0    0  0.00000000000E+00  0.00000000000E+00  0.45593999997E+02  0.45594000000E+02  0.51100000000E-03 0.  1.
         11   -1    0    0    0    0 -0.00000000000E+00 -0.00000000000E+00 -0.45593999997E+02  0.45594000000E+02  0.51100000000E-03 0. -1.
    9900012    2    1    2    0    0 -0.11816760117E+02  0.22608998118E+02  0.31660119118E+02  0.50528858862E+02  0.29999996996E+02 0.  0.
         12    1    1    2    0    0  0.11816760117E+02 -0.22608998118E+02 -0.31660119118E+02  0.40659141138E+02  0.00000000000E+00 0. -1.
         11    1    3    3    0    0  0.22707346179E+01  0.55877059351E+01  0.75219535010E+01  0.96414977080E+01  0.51100000000E-03 0. -1.
        -11    1    3    3    0    0 -0.11347035218E+02  0.22838921620E+02  0.14606294136E+02  0.29389034990E+02  0.51100000000E-03 0.  1.
        -12    1    3    3    0    0 -0.27404595169E+01 -0.58176294372E+01  0.95318714812E+01  0.11498326164E+02  0.00000000000E+00 0.  1.
</event>
<event>
 7    1  0.4871930E-013  0.5052886E+02  0.7816164E-02  0.1300439E+00
        -11   -1    0    0    0    0  0.00000000000E+00  0.00000000000E+00  0.45593999997E+02  0.45594000000E+02  0.51100000000E-03 0.  1.
         11   -1    0    0    0    0 -0.00000000000E+00 -0.00000000000E+00 -0.45593999997E+02  0.45594000000E+02  0.51100000000E-03 0. -1.
    9900012    2    1    2    0    0  0.97284425584E+01  0.29922596200E+01  0.39364566173E+02  0.50528864714E+02  0.30000014783E+02 0.  0.
         12    1    1    2    0    0 -0.97284425584E+01 -0.29922596200E+01 -0.39364566173E+02  0.40659135286E+02  0.00000000000E+00 0. -1.
         11    1    3    3    0    0 -0.22559011631E+01 -0.23583525695E+01 -0.15920394174E+00  0.32674551345E+01  0.51100000000E-03 0. -1.
        -11    1    3    3    0    0  0.12278910705E+02 -0.27389449232E+01  0.36521587446E+02  0.38627707895E+02  0.51100000000E-03 0.  1.
         12    1    3    3    0    0 -0.29456698317E+00  0.80895571127E+01  0.30021826684E+01  0.86337016836E+01  0.00000000000E+00 0. -1.
</event>
<event>
 7    1  0.4871930E-013  0.5052886E+02  0.7816164E-02  0.1300439E+00
        -11   -1    0    0    0    0  0.00000000000E+00  0.00000000000E+00  0.45593999997E+02  0.45594000000E+02  0.51100000000E-03 0. -1.
         11   -1    0    0    0    0 -0.00000000000E+00 -0.00000000000E+00 -0.45593999997E+02  0.45594000000E+02  0.51100000000E-03 0.  1.
    9900012    2    1    2    0    0 -0.14009768556E+02 -0.16009177133E+02 -0.34649647077E+02  0.50528863142E+02  0.30000010008E+02 0.  0.
         12    1    1    2    0    0  0.14009768556E+02  0.16009177133E+02  0.34649647077E+02  0.40659136858E+02  0.00000000000E+00 0. -1.
         11    1    3    3    0    0 -0.13124696290E+02 -0.19886817084E+01 -0.70034444281E+01  0.15008688876E+02  0.51100000000E-03 0. -1.
        -11    1    3    3    0    0  0.71425794414E+01 -0.30356569561E+01 -0.54407302315E+01  0.94780377687E+01  0.51100000000E-03 0.  1.
         12    1    3    3    0    0 -0.80276517071E+01 -0.10984838468E+02 -0.22205472417E+02  0.26042136498E+02  0.00000000000E+00 0. -1.
</event>
<event>
 7    1  0.4871930E-013  0.5052886E+02  0.7816164E-02  0.1300439E+00
        -11   -1    0    0    0    0  0.00000000000E+00  0.00000000000E+00  0.45593999997E+02  0.45594000000E+02  0.51100000000E-03 0.  1.
         11   -1    0    0    0    0 -0.00000000000E+00 -0.00000000000E+00 -0.45593999997E+02  0.45594000000E+02  0.51100000000E-03 0. -1.
    9900012    2    1    2    0    0  0.35954389647E+02  0.46874261409E+00  0.18979660498E+02  0.50528863670E+02  0.30000011610E+02 0.  0.
         12    1    1    2    0    0 -0.35954389647E+02 -0.46874261409E+00 -0.18979660498E+02  0.40659136330E+02  0.00000000000E+00 0. -1.
         11    1    3    3    0    0  0.35397780568E+02 -0.87991443737E+01  0.10932337063E+02  0.38078127643E+02  0.51100000000E-03 0.  1.
        -11    1    3    3    0    0  0.75261115192E+00  0.11355756375E+01  0.10364841916E+01  0.17117988535E+01  0.51100000000E-03 0. -1.
        -12    1    3    3    0    0 -0.19600207359E+00  0.81323113503E+01  0.70108392435E+01  0.10738937173E+02  0.00000000000E+00 0.  1.
</event>
<event>
 7    1  0.4871930E-013  0.5052878E+02  0.7816164E-02  0.1300439E+00
        -11   -1    0    0    0    0  0.00000000000E+00  0.00000000000E+00  0.45593999997E+02  0.45594000000E+02  0.51100000000E-03 0.  1.
         11   -1    0    0    0    0 -0.00000000000E+00 -0.00000000000E+00 -0.45593999997E+02  0.45594000000E+02  0.51100000000E-03 0. -1.
    9900012    2    1    2    0    0  0.32983088985E+02  0.23594269665E+02  0.29322713542E+01  0.50528782899E+02  0.29999766098E+02 0.  0.
         12    1    1    2    0    0 -0.32983088985E+02 -0.23594269665E+02 -0.29322713542E+01  0.40659217101E+02  0.00000000000E+00 0. -1.
         11    1    3    3    0    0  0.11130830559E+02  0.33214094670E+00 -0.46482231599E+01  0.12066966700E+02  0.51100000000E-03 0. -1.
        -11    1    3    3    0    0  0.65620635980E+01  0.18395211005E+02 -0.22249534945E+01  0.19656929691E+02  0.51100000000E-03 0.  1.
         12    1    3    3    0    0  0.15290194828E+02  0.48669177134E+01  0.98054480086E+01  0.18804886507E+02  0.00000000000E+00 0. -1.
</event>
<event>
 7    1  0.4871930E-013  0.5052888E+02  0.7816164E-02  0.1300439E+00
        -11   -1    0    0    0    0  0.00000000000E+00  0.00000000000E+00  0.45593999997E+02  0.45594000000E+02  0.51100000000E-03 0.  1.
         11   -1    0    0    0    0 -0.00000000000E+00 -0.00000000000E+00 -0.45593999997E+02  0.45594000000E+02  0.51100000000E-03 0. -1.
    9900012    2    1    2    0    0  0.25498885365E+02  0.31141484413E+02  0.57601421014E+01  0.50528875030E+02  0.30000046142E+02 0.  0.
         12    1    1    2    0    0 -0.25498885365E+02 -0.31141484413E+02 -0.57601421014E+01  0.40659124970E+02  0.00000000000E+00 0. -1.
         11    1    3    3    0    0 -0.35548357875E+00  0.14878274872E+02 -0.58833647470E+01  0.16003231322E+02  0.51100000000E-03 0. -1.
        -11    1    3    3    0    0  0.74591872071E+01  0.71569325005E+00  0.64490225630E+01  0.98864342864E+01  0.51100000000E-03 0.  1.
        -12    1    3    3    0    0  0.18395181737E+02  0.15547516290E+02  0.51944842853E+01  0.24639209421E+02  0.00000000000E+00 0.  1.
</event>
<event>
 7    1  0.4871930E-013  0.5052886E+02  0.7816164E-02  0.1300439E+00
        -11   -1    0    0    0    0  0.00000000000E+00  0.00000000000E+00  0.45593999997E+02  0.45594000000E+02  0.51100000000E-03 0. -1.
         11   -1    0    0    0    0 -0.00000000000E+00 -0.00000000000E+00 -0.45593999997E+02  0.45594000000E+02  0.51100000000E-03 0.  1.
    9900012    2    1    2    0    0  0.32782268790E+02 -0.11239970287E+02 -0.21263864988E+02  0.50528855477E+02  0.29999986708E+02 0.  0.
         12    1    1    2    0    0 -0.32782268790E+02  0.11239970287E+02  0.21263864988E+02  0.40659144523E+02  0.00000000000E+00 0. -1.
         11    1    3    3    0    0 -0.30517920114E+01 -0.26480183212E+01 -0.58981159988E+01  0.71493501877E+01  0.51100000000E-03 0. -1.
        -11    1    3    3    0    0  0.13905682284E+02  0.32447220635E+01 -0.11126610837E+02  0.18102422215E+02  0.51100000000E-03 0.  1.
        -12    1    3    3    0    0  0.21928378518E+02 -0.11836674029E+02 -0.42391381524E+01  0.25277083075E+02  0.00000000000E+00 0.  1.
</event>
<event>
 7    1  0.4871930E-013  0.5052886E+02  0.7816164E-02  0.1300439E+00
        -11   -1    0    0    0    0  0.00000000000E+00  0.00000000000E+00  0.45593999997E+02  0.45594000000E+02  0.51100000000E-03 0.  1.
         11   -1    0    0    0    0 -0.00000000000E+00 -0.00000000000E+00 -0.45593999997E+02  0.45594000000E+02  0.51100000000E-03 0. -1.
    9900012    2    1    2    0    0  0.20799982860E+02  0.11002753362E+02  0.33158190561E+02  0.50528862407E+02  0.30000007773E+02 0.  0.
         12    1    1    2    0    0 -0.20799982860E+02 -0.11002753362E+02 -0.33158190561E+02  0.40659137593E+02  0.00000000000E+00 0. -1.
         11    1    3    3    0    0 -0.40644623091E+01  0.11186254458E+01  0.24260927964E+01  0.48638568305E+01  0.51100000000E-03 0. -1.
        -11    1    3    3    0    0  0.70475216952E+01  0.37655982054E+00  0.22969855693E+02  0.24029640658E+02  0.51100000000E-03 0.  1.
         12    1    3    3    0    0  0.17816923474E+02  0.95075680956E+01  0.77622420711E+01  0.21635364918E+02  0.00000000000E+00 0. -1.
</event>
<event>
 7    1  0.4871930E-013  0.5052886E+02  0.7816164E-02  0.1300439E+00
        -11   -1    0    0    0    0  0.00000000000E+00  0.00000000000E+00  0.45593999997E+02  0.45594000000E+02  0.51100000000E-03 0. -1.
         11   -1    0    0    0    0 -0.00000000000E+00 -0.00000000000E+00 -0.45593999997E+02  0.45594000000E+02  0.51100000000E-03 0.  1.
    9900012    2    1    2    0    0 -0.37895899820E+02 -0.14186738337E+02 -0.39752574148E+01  0.50528862782E+02  0.30000008913E+02 0.  0.
         12    1    1    2    0    0  0.37895899820E+02  0.14186738337E+02  0.39752574148E+01  0.40659137218E+02  0.00000000000E+00 0. -1.
         11    1    3    3    0    0 -0.13770085639E+01  0.53837065647E+01 -0.32798209720E+01  0.64527261548E+01  0.51100000000E-03 0. -1.
        -11    1    3    3    0    0 -0.39914933980E+01 -0.60556297567E+01 -0.46747035000E+01  0.86287614622E+01  0.51100000000E-03 0.  1.
         12    1    3    3    0    0 -0.32527397858E+02 -0.13514815145E+02  0.39792670573E+01  0.35447375165E+02  0.00000000000E+00 0. -1.
</event>
<event>
 7    1  0.4871930E-013  0.5052885E+02  0.7816164E-02  0.1300439E+00
        -11   -1    0    0    0    0  0.00000000000E+00  0.00000000000E+00  0.45593999997E+02  0.45594000000E+02  0.51100000000E-03 0.  1.
         11   -1    0    0    0    0 -0.00000000000E+00 -0.00000000000E+00 -0.45593999997E+02  0.45594000000E+02  0.51100000000E-03 0. -1.
    9900012    2    1    2    0    0 -0.19495456304E+02  0.12929511147E+02  0.33255397978E+02  0.50528848882E+02  0.29999966661E+02 0.  0.
         12    1    1    2    0    0  0.19495456304E+02 -0.12929511147E+02 -0.33255397978E+02  0.40659151118E+02  0.00000000000E+00 0. -1.
         11    1    3    3    0    0 -0.35658805441E+00  0.38399325221E+01 -0.18976124411E+01  0.42980425838E+01  0.51100000000E-03 0. -1.
        -11    1    3    3    0    0 -0.15816838785E+02  0.15721531297E+02  0.23334922358E+02  0.32277818037E+02  0.51100000000E-03 0.  1.
         12    1    3    3    0    0 -0.33220294643E+01 -0.66319526726E+01  0.11818088061E+02  0.13952988261E+02  0.00000000000E+00 0. -1.
</event>
<event>
 7    1  0.4871930E-013  0.5052885E+02  0.7816164E-02  0.1300439E+00
        -11   -1    0    0    0    0  0.00000000000E+00  0.00000000000E+00  0.45593999997E+02  0.45594000000E+02  0.51100000000E-03 0. -1.
         11   -1    0    0    0    0 -0.00000000000E+00 -0.00000000000E+00 -0.45593999997E+02  0.45594000000E+02  0.51100000000E-03 0.  1.
    9900012    2    1    2    0    0 -0.11091057888E+02  0.27681624264E+02 -0.27638420927E+02  0.50528853449E+02  0.29999980542E+02 0.  0.
         12    1    1    2    0    0  0.11091057888E+02 -0.27681624264E+02  0.27638420927E+02  0.40659146551E+02  0.00000000000E+00 0. -1.
         11    1    3    3    0    0  0.14010936631E+01 -0.19839018879E+01 -0.68930729035E+01  0.73084461049E+01  0.51100000000E-03 0. -1.
        -11    1    3    3    0    0  0.42205006022E+01  0.65919810176E+00 -0.37141302208E+01  0.56605592505E+01  0.51100000000E-03 0.  1.
        -12    1    3    3    0    0 -0.16712652153E+02  0.29006328050E+02 -0.17031217802E+02  0.37559848093E+02  0.00000000000E+00 0.  1.
</event>
<event>
 7    1  0.4871930E-013  0.5052887E+02  0.7816164E-02  0.1300439E+00
        -11   -1    0    0    0    0  0.00000000000E+00  0.00000000000E+00  0.45593999997E+02  0.45594000000E+02  0.51100000000E-03 0.  1.
         11   -1    0    0    0    0 -0.00000000000E+00 -0.00000000000E+00 -0.45593999997E+02  0.45594000000E+02  0.51100000000E-03 0. -1.
    9900012    2    1    2    0    0 -0.14637056157E+02 -0.24378423569E+01  0.37854704165E+02  0.50528866761E+02  0.30000021008E+02 0.  0.
         12    1    1    2    0    0  0.14637056157E+02  0.24378423569E+01 -0.37854704165E+02  0.40659133239E+02  0.00000000000E+00 0. -1.
         11    1    3    3    0    0 -0.43714670484E+01 -0.14702946124E+01 -0.29883292229E+01  0.54955984395E+01  0.51100000000E-03 0. -1.
        -11    1    3    3    0    0  0.19937986154E+00  0.10900397190E+01 -0.12147537819E+01  0.16442523924E+01  0.51100000000E-03 0.  1.
        -12    1    3    3    0    0 -0.10464968970E+02 -0.20575874635E+01  0.42057787170E+02  0.43389015929E+02  0.00000000000E+00 0.  1.
</event>
<event>
 7    1  0.4871930E-013  0.5052887E+02  0.7816164E-02  0.1300439E+00
        -11   -1    0    0    0    0  0.00000000000E+00  0.00000000000E+00  0.45593999997E+02  0.45594000000E+02  0.51100000000E-03 0. -1.
         11   -1    0    0    0    0 -0.00000000000E+00 -0.00000000000E+00 -0.45593999997E+02  0.45594000000E+02  0.51100000000E-03 0.  1.
    9900012    2    1    2    0    0  0.22519983014E+02 -0.32464507236E+02 -0.95953593425E+01  0.50528870817E+02  0.30000033334E+02 0.  0.
         12    1    1    2    0    0 -0.22519983014E+02  0.32464507236E+02  0.95953593425E+01  0.40659129183E+02  0.00000000000E+00 0. -1.
         11    1    3    3    0    0  0.11246473922E+01 -0.38046032801E+01  0.51054120184E+01  0.64656840330E+01  0.51100000000E-03 0. -1.
        -11    1    3    3    0    0  0.36923029831E+01 -0.21784619603E+02 -0.46613925668E+01  0.22581659228E+02  0.51100000000E-03 0.  1.
        -12    1    3    3    0    0  0.17703032639E+02 -0.68752843525E+01 -0.10039378794E+02  0.21481527555E+02  0.00000000000E+00 0.  1.
</event>
<event>
 7    1  0.5526347E-013  0.5052888E+02  0.7816164E-02  0.1300439E+00
        -11   -1    0    0    0    0  0.00000000000E+00  0.00000000000E+00  0.45593999997E+02  0.45594000000E+02  0.51100000000E-03 0.  1.
         11   -1    0    0    0    0 -0.00000000000E+00 -0.00000000000E+00 -0.45593999997E+02  0.45594000000E+02  0.51100000000E-03 0. -1.
    9900012    2    1    2    0    0 -0.30096306315E+02  0.26234767492E+02  0.76885233309E+01  0.50528879619E+02  0.30000060091E+02 0.  0.
         12    1    1    2    0    0  0.30096306315E+02 -0.26234767492E+02 -0.76885233309E+01  0.40659120381E+02  0.00000000000E+00 0. -1.
         11    1    3    3    0    0 -0.87963573813E+00  0.68188354713E+01  0.94300148503E+01  0.11670280912E+02  0.51100000000E-03 0. -1.
        -11    1    3    3    0    0 -0.20968743423E+02  0.14123370097E+02  0.64439057558E+01  0.26089877449E+02  0.51100000000E-03 0.  1.
         12    1    3    3    0    0 -0.82479271539E+01  0.52925619227E+01 -0.81853972751E+01  0.12768721259E+02  0.00000000000E+00 0. -1.
</event>
<event>
 7    1  0.4871930E-013  0.5052886E+02  0.7816164E-02  0.1300439E+00
        -11   -1    0    0    0    0  0.00000000000E+00  0.00000000000E+00  0.45593999997E+02  0.45594000000E+02  0.51100000000E-03 0. -1.
         11   -1    0    0    0    0 -0.00000000000E+00 -0.00000000000E+00 -0.45593999997E+02  0.45594000000E+02  0.51100000000E-03 0.  1.
    9900012    2    1    2    0    0  0.21642793696E+02 -0.28990548045E+02 -0.18555415643E+02  0.50528857798E+02  0.29999993763E+02 0.  0.
         12    1    1    2    0    0 -0.21642793696E+02  0.28990548045E+02  0.18555415643E+02  0.40659142202E+02  0.00000000000E+00 0. -1.
         11    1    3    3    0    0 -0.20035914963E+01 -0.24611027666E+00  0.66026685310E+00  0.21238883517E+01  0.51100000000E-03 0. -1.
        -11    1    3    3    0    0  0.19004199737E+02 -0.30308868669E+02 -0.87187589183E+01  0.36821242306E+02  0.51100000000E-03 0.  1.
         12    1    3    3    0    0  0.46421854553E+01  0.15644309011E+01 -0.10496923578E+02  0.11583727140E+02  0.00000000000E+00 0. -1.
</event>
<event>
 7    1  0.4871930E-013  0.5052882E+02  0.7816164E-02  0.1300439E+00
        -11   -1    0    0    0    0  0.00000000000E+00  0.00000000000E+00  0.45593999997E+02  0.45594000000E+02  0.51100000000E-03 0.  1.
         11   -1    0    0    0    0 -0.00000000000E+00 -0.00000000000E+00 -0.45593999997E+02  0.45594000000E+02  0.51100000000E-03 0. -1.
    9900012    2    1    2    0    0 -0.32595692272E+02 -0.21796026892E+02  0.10752803292E+02  0.50528822419E+02  0.29999886223E+02 0.  0.
         12    1    1    2    0    0  0.32595692272E+02  0.21796026892E+02 -0.10752803292E+02  0.40659177581E+02  0.00000000000E+00 0. -1.
         11    1    3    3    0    0 -0.92765288664E+01 -0.20288590524E+02  0.72873556746E+01  0.23468839900E+02  0.51100000000E-03 0. -1.
        -11    1    3    3    0    0 -0.38547661043E+01 -0.54834406799E+01  0.25535617164E+01  0.71727275920E+01  0.51100000000E-03 0.  1.
        -12    1    3    3    0    0 -0.19464397302E+02  0.39760043126E+01  0.91188590077E+00  0.19887254926E+02  0.00000000000E+00 0.  1.
</event>
<event>
 7    1  0.4871930E-013  0.5052886E+02  0.7816164E-02  0.1300439E+00
        -11   -1    0    0    0    0  0.00000000000E+00  0.00000000000E+00  0.45593999997E+02  0.45594000000E+02  0.51100000000E-03 0.  1.
         11   -1    0    0    0    0 -0.00000000000E+00 -0.00000000000E+00 -0.45593999997E+02  0.45594000000E+02  0.51100000000E-03 0. -1.
    9900012    2    1    2    0    0 -0.39712281498E+02 -0.40374000197E+01 -0.77330276539E+01  0.50528860593E+02  0.30000002257E+02 0.  0.
         12    1    1    2    0    0  0.39712281498E+02  0.40374000197E+01  0.77330276539E+01  0.40659139407E+02  0.00000000000E+00 0. -1.
         11    1    3    3    0    0 -0.38272722453E+01  0.64701261481E+01  0.30361445661E+01  0.81073250397E+01  0.51100000000E-03 0. -1.
        -11    1    3    3    0    0 -0.84623826255E+01 -0.23933209892E+01  0.46326597496E+01  0.99398914318E+01  0.51100000000E-03 0.  1.
        -12    1    3    3    0    0 -0.27422626627E+02 -0.81142051785E+01 -0.15401831970E+02  0.32481644121E+02  0.00000000000E+00 0.  1.
</event>
<event>
 7    1  0.4871930E-013  0.5052887E+02  0.7816164E-02  0.1300439E+00
        -11   -1    0    0    0    0  0.00000000000E+00  0.00000000000E+00  0.45593999997E+02  0.45594000000E+02  0.51100000000E-03 0.  1.
         11   -1    0    0    0    0 -0.00000000000E+00 -0.00000000000E+00 -0.45593999997E+02  0.45594000000E+02  0.51100000000E-03 0. -1.
    9900012    2    1    2    0    0 -0.29692090646E+02 -0.25940969596E+02  0.99303094398E+01  0.50528865773E+02  0.30000018005E+02 0.  0.
         12    1    1    2    0    0  0.29692090646E+02  0.25940969596E+02 -0.99303094398E+01  0.40659134227E+02  0.00000000000E+00 0. -1.
         11    1    3    3    0    0  0.53580009081E+00 -0.82413230073E+01 -0.41326532112E+01  0.92350045735E+01  0.51100000000E-03 0.  1.
        -11    1    3    3    0    0 -0.18391448284E+02 -0.22430669922E+01  0.26206513848E+01  0.18712149355E+02  0.51100000000E-03 0. -1.
        -12    1    3    3    0    0 -0.11836442452E+02 -0.15456579597E+02  0.11442311266E+02  0.22581711845E+02  0.00000000000E+00 0.  1.
</event>
<event>
 7    1  0.5005679E-013  0.5052886E+02  0.7816164E-02  0.1300439E+00
        -11   -1    0    0    0    0  0.00000000000E+00  0.00000000000E+00  0.45593999997E+02  0.45594000000E+02  0.51100000000E-03 0.  1.
         11   -1    0    0    0    0 -0.00000000000E+00 -0.00000000000E+00 -0.45593999997E+02  0.45594000000E+02  0.51100000000E-03 0. -1.
    9900012    2    1    2    0    0  0.38205450351E+02 -0.87693923618E+01  0.10798468810E+02  0.50528860713E+02  0.30000002623E+02 0.  0.
         12    1    1    2    0    0 -0.38205450351E+02  0.87693923618E+01 -0.10798468810E+02  0.40659139287E+02  0.00000000000E+00 0. -1.
         11    1    3    3    0    0  0.29902115911E+00 -0.45637370707E+01  0.70871431610E+00  0.46281082471E+01  0.51100000000E-03 0. -1.
        -11    1    3    3    0    0  0.22989423139E+02 -0.78358583847E+01 -0.45230558449E+01  0.24705713658E+02  0.51100000000E-03 0.  1.
        -12    1    3    3    0    0  0.14917006053E+02  0.36302030936E+01  0.14612810339E+02  0.21195038808E+02  0.00000000000E+00 0.  1.
</event>
<event>
 7    1  0.4871930E-013  0.5052885E+02  0.7816164E-02  0.1300439E+00
        -11   -1    0    0    0    0  0.00000000000E+00  0.00000000000E+00  0.45593999997E+02  0.45594000000E+02  0.51100000000E-03 0.  1.
         11   -1    0    0    0    0 -0.00000000000E+00 -0.00000000000E+00 -0.45593999997E+02  0.45594000000E+02  0.51100000000E-03 0. -1.
    9900012    2    1    2    0    0  0.18234255029E+02  0.36136169949E+02 -0.38542569528E+01  0.50528854267E+02  0.29999983031E+02 0.  0.
         12    1    1    2    0    0 -0.18234255029E+02 -0.36136169949E+02  0.38542569528E+01  0.40659145733E+02  0.00000000000E+00 0. -1.
         11    1    3    3    0    0  0.90866575051E+01  0.35931121280E+02  0.10490227339E+01  0.37077125967E+02  0.51100000000E-03 0. -1.
        -11    1    3    3    0    0 -0.91070899789E+00  0.44958971717E+00 -0.30585002856E+01  0.32227233903E+01  0.51100000000E-03 0.  1.
        -12    1    3    3    0    0  0.10058306521E+02 -0.24454104795E+00 -0.18447794011E+01  0.10229004910E+02  0.00000000000E+00 0.  1.
</event>
<event>
 7    1  0.4871930E-013  0.5052887E+02  0.7816164E-02  0.1300439E+00
        -11   -1    0    0    0    0  0.00000000000E+00  0.00000000000E+00  0.45593999997E+02  0.45594000000E+02  0.51100000000E-03 0. -1.
         11   -1    0    0    0    0 -0.00000000000E+00 -0.00000000000E+00 -0.45593999997E+02  0.45594000000E+02  0.51100000000E-03 0.  1.
    9900012    2    1    2    0    0  0.13894580648E+02  0.61496356551E+00 -0.38206375430E+02  0.50528872180E+02  0.30000037479E+02 0.  0.
         12    1    1    2    0    0 -0.13894580648E+02 -0.61496356551E+00  0.38206375430E+02  0.40659127820E+02  0.00000000000E+00 0. -1.
         11    1    3    3    0    0  0.13556677774E+02  0.70708920171E+01 -0.81530658946E+01  0.17327824732E+02  0.51100000000E-03 0. -1.
        -11    1    3    3    0    0  0.31373100991E+01  0.80652689848E+00 -0.14345260073E+01  0.35427482866E+01  0.51100000000E-03 0.  1.
        -12    1    3    3    0    0 -0.27994072258E+01 -0.72624553501E+01 -0.28618783528E+02  0.29658299162E+02  0.00000000000E+00 0.  1.
</event>
<event>
 7    1  0.4871930E-013  0.5052884E+02  0.7816164E-02  0.1300439E+00
        -11   -1    0    0    0    0  0.00000000000E+00  0.00000000000E+00  0.45593999997E+02  0.45594000000E+02  0.51100000000E-03 0.  1.
         11   -1    0    0    0    0 -0.00000000000E+00 -0.00000000000E+00 -0.45593999997E+02  0.45594000000E+02  0.51100000000E-03 0. -1.
    9900012    2    1    2    0    0 -0.19807105057E+02 -0.34931502492E+02  0.63746615882E+01  0.50528836366E+02  0.29999928617E+02 0.  0.
         12    1    1    2    0    0  0.19807105057E+02  0.34931502492E+02 -0.63746615882E+01  0.40659163634E+02  0.00000000000E+00 0. -1.
         11    1    3    3    0    0  0.49248020127E+01 -0.15494505170E+02  0.11559384944E+01  0.16299372975E+02  0.51100000000E-03 0. -1.
        -11    1    3    3    0    0 -0.68225555739E+01 -0.94007139024E+01 -0.31880655820E+01  0.12045100616E+02  0.51100000000E-03 0.  1.
        -12    1    3    3    0    0 -0.17909351496E+02 -0.10036283420E+02  0.84067886758E+01  0.22184362775E+02  0.00000000000E+00 0.  1.
</event>
<event>
 7    1  0.4871930E-013  0.5052886E+02  0.7816164E-02  0.1300439E+00
        -11   -1    0    0    0    0  0.00000000000E+00  0.00000000000E+00  0.45593999997E+02  0.45594000000E+02  0.51100000000E-03 0. -1.
         11   -1    0    0    0    0 -0.00000000000E+00 -0.00000000000E+00 -0.45593999997E+02  0.45594000000E+02  0.51100000000E-03 0.  1.
    9900012    2    1    2    0    0 -0.40199496223E+02  0.58462636428E+01 -0.17283023734E+01  0.50528864197E+02  0.30000013212E+02 0.  0.
         12    1    1    2    0    0  0.40199496223E+02 -0.58462636428E+01  0.17283023734E+01  0.40659135803E+02  0.00000000000E+00 0. -1.
         11    1    3    3    0    0 -0.22271283151E+02 -0.14751860027E+01  0.11797732760E+02  0.25246241810E+02  0.51100000000E-03 0. -1.
        -11    1    3    3    0    0 -0.20117797464E+01 -0.94960342856E+00 -0.48951916643E+01  0.53769792738E+01  0.51100000000E-03 0.  1.
        -12    1    3    3    0    0 -0.15916433325E+02  0.82710530740E+01 -0.86308434695E+01  0.19905643113E+02  0.00000000000E+00 0.  1.
</event>
<event>
 7    1  0.4871930E-013  0.5052886E+02  0.7816164E-02  0.1300439E+00
        -11   -1    0    0    0    0  0.00000000000E+00  0.00000000000E+00  0.45593999997E+02  0.45594000000E+02  0.51100000000E-03 0. -1.
         11   -1    0    0    0    0 -0.00000000000E+00 -0.00000000000E+00 -0.45593999997E+02  0.45594000000E+02  0.51100000000E-03 0.  1.
    9900012    2    1    2    0    0 -0.35336890941E+01  0.51406037694E+01 -0.40177769842E+02  0.50528856438E+02  0.29999989628E+02 0.  0.
         12    1    1    2    0    0  0.35336890941E+01 -0.51406037694E+01  0.40177769842E+02  0.40659143562E+02  0.00000000000E+00 0. -1.
         11    1    3    3    0    0 -0.40018851189E+01 -0.22144608389E+01  0.19878482322E+01  0.49870293931E+01  0.51100000000E-03 0. -1.
        -11    1    3    3    0    0 -0.26751404614E+00  0.89327555564E+01 -0.10332396493E+02  0.13661043267E+02  0.51100000000E-03 0.  1.
        -12    1    3    3    0    0  0.73571007098E+00 -0.15776909481E+01 -0.31833221581E+02  0.31880783777E+02  0.00000000000E+00 0.  1.
</event>
<event>
 7    1  0.4871930E-013  0.5052886E+02  0.7816164E-02  0.1300439E+00
        -11   -1    0    0    0    0  0.00000000000E+00  0.00000000000E+00  0.45593999997E+02  0.45594000000E+02  0.51100000000E-03 0.  1.
         11   -1    0    0    0    0 -0.00000000000E+00 -0.00000000000E+00 -0.45593999997E+02  0.45594000000E+02  0.51100000000E-03 0. -1.
    9900012    2    1    2    0    0 -0.34613316414E+02 -0.16516133285E+02  0.13501907851E+02  0.50528857762E+02  0.29999993653E+02 0.  0.
         12    1    1    2    0    0  0.34613316414E+02  0.16516133285E+02 -0.13501907851E+02  0.40659142238E+02  0.00000000000E+00 0. -1.
         11    1    3    3    0    0 -0.32787105564E+02 -0.90409766093E+01  0.12421263579E+02  0.36208028647E+02  0.51100000000E-03 0. -1.
        -11    1    3    3    0    0 -0.56318404689E+01  0.21464399763E+00 -0.23370888796E+00  0.56407729274E+01  0.51100000000E-03 0.  1.
         12    1    3    3    0    0  0.38056296186E+01 -0.76898006738E+01  0.13143531599E+01  0.86800561879E+01  0.00000000000E+00 0. -1.
</event>
<event>
 7    1  0.4871930E-013  0.5052887E+02  0.7816164E-02  0.1300439E+00
        -11   -1    0    0    0    0  0.00000000000E+00  0.00000000000E+00  0.45593999997E+02  0.45594000000E+02  0.51100000000E-03 0. -1.
         11   -1    0    0    0    0 -0.00000000000E+00 -0.00000000000E+00 -0.45593999997E+02  0.45594000000E+02  0.51100000000E-03 0.  1.
    9900012    2    1    2    0    0  0.98287898151E+01  0.36910113686E+02  0.13935696850E+02  0.50528865132E+02  0.30000016054E+02 0.  0.
         12    1    1    2    0    0 -0.98287898151E+01 -0.36910113686E+02 -0.13935696850E+02  0.40659134868E+02  0.00000000000E+00 0. -1.
         11    1    3    3    0    0  0.13130361698E+02  0.19593249941E+02  0.13613147743E+02  0.27232694198E+02  0.51100000000E-03 0.  1.
        -11    1    3    3    0    0 -0.77153708642E+01  0.10341702478E+02  0.49660788074E+01  0.13825328086E+02  0.51100000000E-03 0. -1.
         12    1    3    3    0    0  0.44137989810E+01  0.69751612675E+01 -0.46435297002E+01  0.94708428468E+01  0.00000000000E+00 0. -1.
</event>
<event>
 7    1  0.4871930E-013  0.5052884E+02  0.7816164E-02  0.1300439E+00
        -11   -1    0    0    0    0  0.00000000000E+00  0.00000000000E+00  0.45593999997E+02  0.45594000000E+02  0.51100000000E-03 0.  1.
         11   -1    0    0    0    0 -0.00000000000E+00 -0.00000000000E+00 -0.45593999997E+02  0.45594000000E+02  0.51100000000E-03 0. -1.
    9900012    2    1    2    0    0  0.51126967423E+01  0.78413021485E+01  0.39566921855E+02  0.50528843683E+02  0.29999950858E+02 0.  0.
         12    1    1    2    0    0 -0.51126967423E+01 -0.78413021485E+01 -0.39566921855E+02  0.40659156317E+02  0.00000000000E+00 0. -1.
         11    1    3    3    0    0  0.41955820083E+01  0.22817578430E+01 -0.14425763668E+01  0.49890233590E+01  0.51100000000E-03 0. -1.
        -11    1    3    3    0    0  0.97429393298E+01  0.16987662017E+01  0.16963783263E+02  0.19636206768E+02  0.51100000000E-03 0.  1.
        -12    1    3    3    0    0 -0.88258245957E+01  0.38607781038E+01  0.24045714959E+02  0.25903613556E+02  0.00000000000E+00 0.  1.
</event>
<event>
 7    1  0.4871930E-013  0.5052886E+02  0.7816164E-02  0.1300439E+00
        -11   -1    0    0    0    0  0.00000000000E+00  0.00000000000E+00  0.45593999997E+02  0.45594000000E+02  0.51100000000E-03 0. -1.
         11   -1    0    0    0    0 -0.00000000000E+00 -0.00000000000E+00 -0.45593999997E+02  0.45594000000E+02  0.51100000000E-03 0.  1.
    9900012    2    1    2    0    0  0.47053512890E+01  0.34102598904E+02  0.21634183312E+02  0.50528862401E+02  0.30000007754E+02 0.  0.
         12    1    1    2    0    0 -0.47053512890E+01 -0.34102598904E+02 -0.21634183312E+02  0.40659137599E+02  0.00000000000E+00 0. -1.
         11    1    3    3    0    0  0.54259910795E+01  0.70860901714E+01  0.10341204248E+02  0.13659961884E+02  0.51100000000E-03 0. -1.
        -11    1    3    3    0    0  0.64012569239E+01  0.26577094644E+02  0.11669242386E+02  0.29723547367E+02  0.51100000000E-03 0.  1.
        -12    1    3    3    0    0 -0.71218967144E+01  0.43941408798E+00 -0.37626332265E+00  0.71453531501E+01  0.00000000000E+00 0.  1.
</event>
<event>
 7    1  0.4871930E-013  0.5052887E+02  0.7816164E-02  0.1300439E+00
        -11   -1    0    0    0    0  0.00000000000E+00  0.00000000000E+00  0.45593999997E+02  0.45594000000E+02  0.51100000000E-03 0.  1.
         11   -1    0    0    0    0 -0.00000000000E+00 -0.00000000000E+00 -0.45593999997E+02  0.45594000000E+02  0.51100000000E-03 0. -1.
    9900012    2    1    2    0    0  0.31760624697E+02 -0.92782991061E+01  0.23629230696E+02  0.50528872381E+02  0.30000038090E+02 0.  0.
         12    1    1    2    0    0 -0.31760624697E+02  0.92782991061E+01 -0.23629230696E+02  0.40659127619E+02  0.00000000000E+00 0. -1.
         11    1    3    3    0    0 -0.97437137908E-01  0.53713368696E+01  0.44514356217E+01  0.69768211327E+01  0.51100000000E-03 0. -1.
        -11    1    3    3    0    0  0.78095091255E+01 -0.61301913050E+01  0.14562703306E+02  0.17624982441E+02  0.51100000000E-03 0.  1.
         12    1    3    3    0    0  0.24048552709E+02 -0.85194446707E+01  0.46150917685E+01  0.25927068807E+02  0.00000000000E+00 0. -1.
</event>
<event>
 7    1  0.4871930E-013  0.5052886E+02  0.7816164E-02  0.1300439E+00
        -11   -1    0    0    0    0  0.00000000000E+00  0.00000000000E+00  0.45593999997E+02  0.45594000000E+02  0.51100000000E-03 0. -1.
         11   -1    0    0    0    0 -0.00000000000E+00 -0.00000000000E+00 -0.45593999997E+02  0.45594000000E+02  0.51100000000E-03 0.  1.
    9900012    2    1    2    0    0  0.75576229754E+01 -0.33059430408E+02 -0.22430382586E+02  0.50528859984E+02  0.30000000406E+02 0.  0.
         12    1    1    2    0    0 -0.75576229754E+01  0.33059430408E+02  0.22430382586E+02  0.40659140016E+02  0.00000000000E+00 0. -1.
         11    1    3    3    0    0  0.10505605728E+01  0.11798476257E+01 -0.61582230223E+01  0.63576276228E+01  0.51100000000E-03 0. -1.
        -11    1    3    3    0    0  0.79605549101E+01 -0.52221185537E+01  0.21620660643E+01  0.97629650513E+01  0.51100000000E-03 0.  1.
        -12    1    3    3    0    0 -0.14534925075E+01 -0.29017159480E+02 -0.18434225628E+02  0.34408267309E+02  0.00000000000E+00 0.  1.
</event>
<event>
 7    1  0.4871930E-013  0.5052885E+02  0.7816164E-02  0.1300439E+00
        -11   -1    0    0    0    0  0.00000000000E+00  0.00000000000E+00  0.45593999997E+02  0.45594000000E+02  0.51100000000E-03 0.  1.
         11   -1    0    0    0    0 -0.00000000000E+00 -0.00000000000E+00 -0.45593999997E+02  0.45594000000E+02  0.51100000000E-03 0. -1.
    9900012    2    1    2    0    0 -0.35993219059E+02  0.62508093282E+01  0.17848874114E+02  0.50528846754E+02  0.29999960195E+02 0.  0.
         12    1    1    2    0    0  0.35993219059E+02 -0.62508093282E+01 -0.17848874114E+02  0.40659153246E+02  0.00000000000E+00 0. -1.
         11    1    3    3    0    0 -0.58907932977E+01  0.31847162537E+01  0.15056458086E+02  0.16478494884E+02  0.51100000000E-03 0. -1.
        -11    1    3    3    0    0 -0.14281181081E+02  0.55482764984E+01  0.79038158520E+01  0.17239658073E+02  0.51100000000E-03 0.  1.
        -12    1    3    3    0    0 -0.15821244680E+02 -0.24821834239E+01 -0.51113998245E+01  0.16810693797E+02  0.00000000000E+00 0.  1.
</event>
<event>
 7    1  0.4871930E-013  0.5052886E+02  0.7816164E-02  0.1300439E+00
        -11   -1    0    0    0    0  0.00000000000E+00  0.00000000000E+00  0.45593999997E+02  0.45594000000E+02  0.51100000000E-03 0.  1.
         11   -1    0    0    0    0 -0.00000000000E+00 -0.00000000000E+00 -0.45593999997E+02  0.45594000000E+02  0.51100000000E-03 0. -1.
    9900012    2    1    2    0    0  0.58614248364E+01  0.31767838110E+02  0.24690361019E+02  0.50528858758E+02  0.29999996681E+02 0.  0.
         12    1    1    2    0    0 -0.58614248364E+01 -0.31767838110E+02 -0.24690361019E+02  0.40659141242E+02  0.00000000000E+00 0. -1.
         11    1    3    3    0    0  0.62802734515E+01  0.97802861859E+01 -0.37655054565E+01  0.12217809301E+02  0.51100000000E-03 0.  1.
        -11    1    3    3    0    0  0.22798796337E+01  0.14478583679E+02  0.87962854964E+01  0.17093913399E+02  0.51100000000E-03 0. -1.
        -12    1    3    3    0    0 -0.26987282488E+01  0.75089682451E+01  0.19659580979E+02  0.21217136059E+02  0.00000000000E+00 0.  1.
</event>
<event>
 7    1  0.4871930E-013  0.5052886E+02  0.7816164E-02  0.1300439E+00
        -11   -1    0    0    0    0  0.00000000000E+00  0.00000000000E+00  0.45593999997E+02  0.45594000000E+02  0.51100000000E-03 0.  1.
         11   -1    0    0    0    0 -0.00000000000E+00 -0.00000000000E+00 -0.45593999997E+02  0.45594000000E+02  0.51100000000E-03 0. -1.
    9900012    2    1    2    0    0  0.23189747409E+02  0.32725990520E+02  0.66641429906E+01  0.50528860286E+02  0.30000001326E+02 0.  0.
         12    1    1    2    0    0 -0.23189747409E+02 -0.32725990520E+02 -0.66641429906E+01  0.40659139714E+02  0.00000000000E+00 0. -1.
         11    1    3    3    0    0  0.22351567584E+02  0.15935178569E+02 -0.45030063332E+01  0.27817252844E+02  0.51100000000E-03 0. -1.
        -11    1    3    3    0    0  0.29761450167E+01  0.42286026016E+01  0.80918225179E+01  0.96029220056E+01  0.51100000000E-03 0.  1.
        -12    1    3    3    0    0 -0.21379651917E+01  0.12562209350E+02  0.30753268060E+01  0.13108685436E+02  0.00000000000E+00 0.  1.
</event>
<event>
 7    1  0.4871930E-013  0.5052886E+02  0.7816164E-02  0.1300439E+00
        -11   -1    0    0    0    0  0.00000000000E+00  0.00000000000E+00  0.45593999997E+02  0.45594000000E+02  0.51100000000E-03 0.  1.
         11   -1    0    0    0    0 -0.00000000000E+00 -0.00000000000E+00 -0.45593999997E+02  0.45594000000E+02  0.51100000000E-03 0. -1.
    9900012    2    1    2    0    0 -0.32368623608E+02 -0.75879480831E+01  0.23406429459E+02  0.50528859694E+02  0.29999999527E+02 0.  0.
         12    1    1    2    0    0  0.32368623608E+02  0.75879480831E+01 -0.23406429459E+02  0.40659140306E+02  0.00000000000E+00 0. -1.
         11    1    3    3    0    0  0.16168171885E+01 -0.27176477348E+01  0.23755821293E+01  0.39551356166E+01  0.51100000000E-03 0. -1.
        -11    1    3    3    0    0 -0.16439465116E+02 -0.12759511320E+02  0.17108419750E+02  0.26939917762E+02  0.51100000000E-03 0.  1.
        -12    1    3    3    0    0 -0.17545975680E+02  0.78892109714E+01  0.39224275795E+01  0.19633806315E+02  0.00000000000E+00 0.  1.
</event>
<event>
 7    1  0.4871930E-013  0.5052886E+02  0.7816164E-02  0.1300439E+00
        -11   -1    0    0    0    0  0.00000000000E+00  0.00000000000E+00  0.45593999997E+02  0.45594000000E+02  0.51100000000E-03 0.  1.
         11   -1    0    0    0    0 -0.00000000000E+00 -0.00000000000E+00 -0.45593999997E+02  0.45594000000E+02  0.51100000000E-03 0. -1.
    9900012    2    1    2    0    0 -0.34248405004E+02 -0.14250677409E+02  0.16647236445E+02  0.50528861628E+02  0.30000005403E+02 0.  0.
         12    1    1    2    0    0  0.34248405004E+02  0.14250677409E+02 -0.16647236445E+02  0.40659138372E+02  0.00000000000E+00 0. -1.
         11    1    3    3    0    0 -0.94376300167E+01  0.63406385188E+01 -0.62541606341E-01  0.11369981041E+02  0.51100000000E-03 0. -1.
        -11    1    3    3    0    0 -0.10188821671E+02 -0.13188489927E+01  0.93002718042E+01  0.13858084485E+02  0.51100000000E-03 0.  1.
         12    1    3    3    0    0 -0.14621953317E+02 -0.19272466935E+02  0.74095062469E+01  0.25300796102E+02  0.00000000000E+00 0. -1.
</event>
<event>
 7    1  0.4871930E-013  0.5052890E+02  0.7816164E-02  0.1300439E+00
        -11   -1    0    0    0    0  0.00000000000E+00  0.00000000000E+00  0.45593999997E+02  0.45594000000E+02  0.51100000000E-03 0.  1.
         11   -1    0    0    0    0 -0.00000000000E+00 -0.00000000000E+00 -0.45593999997E+02  0.45594000000E+02  0.51100000000E-03 0. -1.
    9900012    2    1    2    0    0  0.12989687227E+02  0.36629798864E+02  0.11945229129E+02  0.50528897230E+02  0.30000113621E+02 0.  0.
         12    1    1    2    0    0 -0.12989687227E+02 -0.36629798864E+02 -0.11945229129E+02  0.40659102770E+02  0.00000000000E+00 0. -1.
         11    1    3    3    0    0 -0.66043858120E+00 -0.31147551916E+01  0.38187490930E+01  0.49719939581E+01  0.51100000000E-03 0.  1.
        -11    1    3    3    0    0 -0.22261760983E+01  0.16297246515E+02  0.18434829086E+01  0.16551571934E+02  0.51100000000E-03 0. -1.
        -12    1    3    3    0    0  0.15876301906E+02  0.23447307541E+02  0.62829971271E+01  0.29005331338E+02  0.00000000000E+00 0.  1.
</event>
<event>
 7    1  0.4871930E-013  0.5052886E+02  0.7816164E-02  0.1300439E+00
        -11   -1    0    0    0    0  0.00000000000E+00  0.00000000000E+00  0.45593999997E+02  0.45594000000E+02  0.51100000000E-03 0.  1.
         11   -1    0    0    0    0 -0.00000000000E+00 -0.00000000000E+00 -0.45593999997E+02  0.45594000000E+02  0.51100000000E-03 0. -1.
    9900012    2    1    2    0    0 -0.26442528629E+02  0.29897322104E+02  0.77529524056E+01  0.50528862523E+02  0.30000008126E+02 0.  0.
         12    1    1    2    0    0  0.26442528629E+02 -0.29897322104E+02 -0.77529524056E+01  0.40659137477E+02  0.00000000000E+00 0. -1.
         11    1    3    3    0    0 -0.20057070316E+02  0.20947208800E+02  0.29460987645E+01  0.29150490980E+02  0.51100000000E-03 0. -1.
        -11    1    3    3    0    0  0.26454336416E+01  0.10420324227E+02  0.57292870238E+01  0.12182208593E+02  0.51100000000E-03 0.  1.
         12    1    3    3    0    0 -0.90308919550E+01 -0.14702109228E+01 -0.92243338269E+00  0.91961629502E+01  0.00000000000E+00 0. -1.
</event>
<event>
 7    1  0.4871930E-013  0.5052887E+02  0.7816164E-02  0.1300439E+00
        -11   -1    0    0    0    0  0.00000000000E+00  0.00000000000E+00  0.45593999997E+02  0.45594000000E+02  0.51100000000E-03 0. -1.
         11   -1    0    0    0    0 -0.00000000000E+00 -0.00000000000E+00 -0.45593999997E+02  0.45594000000E+02  0.51100000000E-03 0.  1.
    9900012    2    1    2    0    0 -0.31835216275E+01 -0.36884180391E+02 -0.16810340056E+02  0.50528866882E+02  0.30000021376E+02 0.  0.
         12    1    1    2    0    0  0.31835216275E+01  0.36884180391E+02  0.16810340056E+02  0.40659133118E+02  0.00000000000E+00 0. -1.
         11    1    3    3    0    0  0.73974378201E+01 -0.72547127047E+01 -0.93022584429E+01  0.13924257795E+02  0.51100000000E-03 0. -1.
        -11    1    3    3    0    0  0.93737428935E+00 -0.18136139188E+02 -0.89934341729E+01  0.20265242996E+02  0.51100000000E-03 0.  1.
        -12    1    3    3    0    0 -0.11518333737E+02 -0.11493328499E+02  0.14853525602E+01  0.16339366092E+02  0.00000000000E+00 0.  1.
</event>
<event>
 7    1  0.4871930E-013  0.5052886E+02  0.7816164E-02  0.1300439E+00
        -11   -1    0    0    0    0  0.00000000000E+00  0.00000000000E+00  0.45593999997E+02  0.45594000000E+02  0.51100000000E-03 0.  1.
         11   -1    0    0    0    0 -0.00000000000E+00 -0.00000000000E+00 -0.45593999997E+02  0.45594000000E+02  0.51100000000E-03 0. -1.
    9900012    2    1    2    0    0  0.23331600357E+02  0.29390842478E+02 -0.15651845828E+02  0.50528862348E+02  0.30000007594E+02 0.  0.
         12    1    1    2    0    0 -0.23331600357E+02 -0.29390842478E+02  0.15651845828E+02  0.40659137652E+02  0.00000000000E+00 0. -1.
         11    1    3    3    0    0  0.51595213324E+01  0.42770014380E+01  0.29356934758E+01  0.73165359375E+01  0.51100000000E-03 0. -1.
        -11    1    3    3    0    0  0.20130328328E+02  0.27397640171E+02 -0.12145186708E+02  0.36102165669E+02  0.51100000000E-03 0.  1.
         12    1    3    3    0    0 -0.19582493039E+01 -0.22837991314E+01 -0.64423525952E+01  0.71101607415E+01  0.00000000000E+00 0. -1.
</event>
<event>
 7    1  0.4871930E-013  0.5052886E+02  0.7816164E-02  0.1300439E+00
        -11   -1    0    0    0    0  0.00000000000E+00  0.00000000000E+00  0.45593999997E+02  0.45594000000E+02  0.51100000000E-03 0.  1.
         11   -1    0    0    0    0 -0.00000000000E+00 -0.00000000000E+00 -0.45593999997E+02  0.45594000000E+02  0.51100000000E-03 0. -1.
    9900012    2    1    2    0    0  0.83592365214E+01  0.96839537098E+00  0.39778777865E+02  0.50528858429E+02  0.29999995681E+02 0.  0.
         12    1    1    2    0    0 -0.83592365214E+01 -0.96839537098E+00 -0.39778777865E+02  0.40659141571E+02  0.00000000000E+00 0. -1.
         11    1    3    3    0    0  0.68000326326E+01 -0.22674045033E+01  0.75932423859E+00  0.72081995357E+01  0.51100000000E-03 0. -1.
        -11    1    3    3    0    0  0.14587288123E+00 -0.75692385384E+01  0.20226619734E+02  0.21597008985E+02  0.51100000000E-03 0.  1.
        -12    1    3    3    0    0  0.14133310076E+01  0.10805038413E+02  0.18792833892E+02  0.21723649908E+02  0.00000000000E+00 0.  1.
</event>
<event>
 7    1  0.4871930E-013  0.5052886E+02  0.7816164E-02  0.1300439E+00
        -11   -1    0    0    0    0  0.00000000000E+00  0.00000000000E+00  0.45593999997E+02  0.45594000000E+02  0.51100000000E-03 0. -1.
         11   -1    0    0    0    0 -0.00000000000E+00 -0.00000000000E+00 -0.45593999997E+02  0.45594000000E+02  0.51100000000E-03 0.  1.
    9900012    2    1    2    0    0  0.34481354091E+00  0.96651993584E+01 -0.39492160409E+02  0.50528859468E+02  0.29999998838E+02 0.  0.
         12    1    1    2    0    0 -0.34481354091E+00 -0.96651993584E+01  0.39492160409E+02  0.40659140532E+02  0.00000000000E+00 0. -1.
         11    1    3    3    0    0 -0.39731937497E+01 -0.98092094356E+01 -0.16872141826E+02  0.19916727351E+02  0.51100000000E-03 0. -1.
        -11    1    3    3    0    0  0.35463165641E+01  0.53882654017E+01 -0.82811692413E+01  0.10497024792E+02  0.51100000000E-03 0.  1.
        -12    1    3    3    0    0  0.77169072654E+00  0.14086143392E+02 -0.14338849343E+02  0.20115107325E+02  0.00000000000E+00 0.  1.
</event>
<event>
 7    1  0.4871930E-013  0.5052886E+02  0.7816164E-02  0.1300439E+00
        -11   -1    0    0    0    0  0.00000000000E+00  0.00000000000E+00  0.45593999997E+02  0.45594000000E+02  0.51100000000E-03 0.  1.
         11   -1    0    0    0    0 -0.00000000000E+00 -0.00000000000E+00 -0.45593999997E+02  0.45594000000E+02  0.51100000000E-03 0. -1.
    9900012    2    1    2    0    0 -0.14162053224E+02 -0.28998699140E+02  0.24732105612E+02  0.50528863863E+02  0.30000012199E+02 0.  0.
         12    1    1    2    0    0  0.14162053224E+02  0.28998699140E+02 -0.24732105612E+02  0.40659136137E+02  0.00000000000E+00 0. -1.
         11    1    3    3    0    0 -0.21661017940E+01 -0.21681821981E+02  0.24202022136E+02  0.32565799194E+02  0.51100000000E-03 0. -1.
        -11    1    3    3    0    0  0.13549895882E+01 -0.39386386259E+01 -0.21939063577E+00  0.41709715322E+01  0.51100000000E-03 0.  1.
        -12    1    3    3    0    0 -0.13350941018E+02 -0.33782385331E+01  0.74947411201E+00  0.13792093137E+02  0.00000000000E+00 0.  1.
</event>
<event>
 7    1  0.4871930E-013  0.5052887E+02  0.7816164E-02  0.1300439E+00
        -11   -1    0    0    0    0  0.00000000000E+00  0.00000000000E+00  0.45593999997E+02  0.45594000000E+02  0.51100000000E-03 0.  1.
         11   -1    0    0    0    0 -0.00000000000E+00 -0.00000000000E+00 -0.45593999997E+02  0.45594000000E+02  0.51100000000E-03 0. -1.
    9900012    2    1    2    0    0  0.33067996278E+02  0.23024322714E+02  0.54362844946E+01  0.50528868143E+02  0.30000025208E+02 0.  0.
         12    1    1    2    0    0 -0.33067996278E+02 -0.23024322714E+02 -0.54362844946E+01  0.40659131857E+02  0.00000000000E+00 0. -1.
         11    1    3    3    0    0  0.12638161272E+02  0.11476683744E+02 -0.62804760109E+01  0.18190155834E+02  0.51100000000E-03 0. -1.
        -11    1    3    3    0    0  0.22007803871E+02  0.14595513731E+02  0.11756060419E+02  0.28906355861E+02  0.51100000000E-03 0.  1.
         12    1    3    3    0    0 -0.15779688656E+01 -0.30478747615E+01 -0.39299913825E-01  0.34323564479E+01  0.00000000000E+00 0. -1.
</event>
<event>
 7    1  0.4871930E-013  0.5052883E+02  0.7816164E-02  0.1300439E+00
        -11   -1    0    0    0    0  0.00000000000E+00  0.00000000000E+00  0.45593999997E+02  0.45594000000E+02  0.51100000000E-03 0.  1.
         11   -1    0    0    0    0 -0.00000000000E+00 -0.00000000000E+00 -0.45593999997E+02  0.45594000000E+02  0.51100000000E-03 0. -1.
    9900012    2    1    2    0    0  0.26715163775E+02  0.87476536166E+01  0.29375950468E+02  0.50528832704E+02  0.29999917487E+02 0.  0.
         12    1    1    2    0    0 -0.26715163775E+02 -0.87476536166E+01 -0.29375950468E+02  0.40659167296E+02  0.00000000000E+00 0. -1.
         11    1    3    3    0    0 -0.16634575340E+01 -0.25363464044E+01  0.23615298269E+01  0.38440821317E+01  0.51100000000E-03 0. -1.
        -11    1    3    3    0    0  0.10191020286E+02  0.68140154279E+01 -0.17264169189E+01  0.12380154133E+02  0.51100000000E-03 0.  1.
        -12    1    3    3    0    0  0.18187601023E+02  0.44699845931E+01  0.28740837560E+02  0.34304596439E+02  0.00000000000E+00 0.  1.
</event>
<event>
 7    1  0.4871930E-013  0.5052887E+02  0.7816164E-02  0.1300439E+00
        -11   -1    0    0    0    0  0.00000000000E+00  0.00000000000E+00  0.45593999997E+02  0.45594000000E+02  0.51100000000E-03 0.  1.
         11   -1    0    0    0    0 -0.00000000000E+00 -0.00000000000E+00 -0.45593999997E+02  0.45594000000E+02  0.51100000000E-03 0. -1.
    9900012    2    1    2    0    0  0.12165092253E+02  0.71880115751E+00  0.38789933980E+02  0.50528866674E+02  0.30000020744E+02 0.  0.
         12    1    1    2    0    0 -0.12165092253E+02 -0.71880115751E+00 -0.38789933980E+02  0.40659133326E+02  0.00000000000E+00 0. -1.
         11    1    3    3    0    0  0.21622265040E+01 -0.34346932456E+01  0.14719761022E+02  0.15269044041E+02  0.51100000000E-03 0. -1.
        -11    1    3    3    0    0  0.15460851640E+02  0.32936139068E+01  0.25076955828E+02  0.29643541284E+02  0.51100000000E-03 0.  1.
         12    1    3    3    0    0 -0.54579858906E+01  0.85988049632E+00 -0.10067828694E+01  0.56162813494E+01  0.00000000000E+00 0. -1.
</event>
<event>
 7    1  0.4871930E-013  0.5052886E+02  0.7816164E-02  0.1300439E+00
        -11   -1    0    0    0    0  0.00000000000E+00  0.00000000000E+00  0.45593999997E+02  0.45594000000E+02  0.51100000000E-03 0.  1.
         11   -1    0    0    0    0 -0.00000000000E+00 -0.00000000000E+00 -0.45593999997E+02  0.45594000000E+02  0.51100000000E-03 0. -1.
    9900012    2    1    2    0    0  0.18146329755E+02 -0.13450828402E+02  0.33807571514E+02  0.50528856379E+02  0.29999989450E+02 0.  0.
         12    1    1    2    0    0 -0.18146329755E+02  0.13450828402E+02 -0.33807571514E+02  0.40659143621E+02  0.00000000000E+00 0. -1.
         11    1    3    3    0    0  0.26701341033E+00 -0.13727727632E+02  0.17001208948E+02  0.21853212763E+02  0.51100000000E-03 0. -1.
        -11    1    3    3    0    0  0.62273120347E+01 -0.21300636749E+00  0.15783110924E+02  0.16968540821E+02  0.51100000000E-03 0.  1.
         12    1    3    3    0    0  0.11652004310E+02  0.48990559721E+00  0.10232516422E+01  0.11707102795E+02  0.00000000000E+00 0. -1.
</event>
<event>
 7    1  0.4871930E-013  0.5052880E+02  0.7816164E-02  0.1300439E+00
        -11   -1    0    0    0    0  0.00000000000E+00  0.00000000000E+00  0.45593999997E+02  0.45594000000E+02  0.51100000000E-03 0.  1.
         11   -1    0    0    0    0 -0.00000000000E+00 -0.00000000000E+00 -0.45593999997E+02  0.45594000000E+02  0.51100000000E-03 0. -1.
    9900012    2    1    2    0    0  0.16561218561E+02 -0.11469481260E+02  0.35317805620E+02  0.50528802339E+02  0.29999825191E+02 0.  0.
         12    1    1    2    0    0 -0.16561218561E+02  0.11469481260E+02 -0.35317805620E+02  0.40659197661E+02  0.00000000000E+00 0. -1.
         11    1    3    3    0    0 -0.21244935253E+01 -0.39400136180E+01 -0.98019442802E+00  0.45823532630E+01  0.51100000000E-03 0. -1.
        -11    1    3    3    0    0  0.69383396313E+01 -0.12676725642E+02  0.24891677734E+02  0.28782556358E+02  0.51100000000E-03 0.  1.
        -12    1    3    3    0    0  0.11747372455E+02  0.51472580001E+01  0.11406322314E+02  0.17163892718E+02  0.00000000000E+00 0.  1.
</event>
<event>
 7    1  0.4871930E-013  0.5052885E+02  0.7816164E-02  0.1300439E+00
        -11   -1    0    0    0    0  0.00000000000E+00  0.00000000000E+00  0.45593999997E+02  0.45594000000E+02  0.51100000000E-03 0.  1.
         11   -1    0    0    0    0 -0.00000000000E+00 -0.00000000000E+00 -0.45593999997E+02  0.45594000000E+02  0.51100000000E-03 0. -1.
    9900012    2    1    2    0    0  0.34716486987E+02 -0.20494572691E+02  0.52824807280E+01  0.50528848740E+02  0.29999966231E+02 0.  0.
         12    1    1    2    0    0 -0.34716486987E+02  0.20494572691E+02 -0.52824807280E+01  0.40659151260E+02  0.00000000000E+00 0. -1.
         11    1    3    3    0    0  0.53371363215E+01 -0.96539414948E+01 -0.49023871965E+01  0.12071330125E+02  0.51100000000E-03 0. -1.
        -11    1    3    3    0    0  0.14982932104E+02  0.46468971558E+01  0.65620698415E+01  0.17004195614E+02  0.51100000000E-03 0.  1.
         12    1    3    3    0    0  0.14396418561E+02 -0.15487528352E+02  0.36227980830E+01  0.21453323001E+02  0.00000000000E+00 0. -1.
</event>
<event>
 7    1  0.4871930E-013  0.5052886E+02  0.7816164E-02  0.1300439E+00
        -11   -1    0    0    0    0  0.00000000000E+00  0.00000000000E+00  0.45593999997E+02  0.45594000000E+02  0.51100000000E-03 0.  1.
         11   -1    0    0    0    0 -0.00000000000E+00 -0.00000000000E+00 -0.45593999997E+02  0.45594000000E+02  0.51100000000E-03 0. -1.
    9900012    2    1    2    0    0  0.35980451403E+02  0.21040770016E+01  0.18818758547E+02  0.50528859620E+02  0.29999999302E+02 0.  0.
         12    1    1    2    0    0 -0.35980451403E+02 -0.21040770016E+01 -0.18818758547E+02  0.40659140380E+02  0.00000000000E+00 0. -1.
         11    1    3    3    0    0  0.96715722698E+01 -0.19871649240E+01 -0.48349681964E+01  0.10993864304E+02  0.51100000000E-03 0. -1.
        -11    1    3    3    0    0  0.20507037063E+02 -0.16195762365E+01  0.83506396104E+01  0.22201233714E+02  0.51100000000E-03 0.  1.
        -12    1    3    3    0    0  0.58018420703E+01  0.57108181620E+01  0.15303087133E+02  0.17333761602E+02  0.00000000000E+00 0.  1.
</event>
<event>
 7    1  0.4871930E-013  0.5052886E+02  0.7816164E-02  0.1300439E+00
        -11   -1    0    0    0    0  0.00000000000E+00  0.00000000000E+00  0.45593999997E+02  0.45594000000E+02  0.51100000000E-03 0.  1.
         11   -1    0    0    0    0 -0.00000000000E+00 -0.00000000000E+00 -0.45593999997E+02  0.45594000000E+02  0.51100000000E-03 0. -1.
    9900012    2    1    2    0    0 -0.77310485174E+01 -0.32882673901E+02  0.22630203624E+02  0.50528862403E+02  0.30000007760E+02 0.  0.
         12    1    1    2    0    0  0.77310485174E+01  0.32882673901E+02 -0.22630203624E+02  0.40659137597E+02  0.00000000000E+00 0. -1.
         11    1    3    3    0    0 -0.53710207035E+01 -0.18635765847E+01  0.78789688569E+01  0.97159112591E+01  0.51100000000E-03 0. -1.
        -11    1    3    3    0    0 -0.11432155029E+02 -0.22458857554E+02  0.12527434341E+02  0.28143046435E+02  0.51100000000E-03 0.  1.
         12    1    3    3    0    0  0.90721272148E+01 -0.85602397628E+01  0.22238004265E+01  0.12669904709E+02  0.00000000000E+00 0. -1.
</event>
<event>
 7    1  0.4871930E-013  0.5052887E+02  0.7816164E-02  0.1300439E+00
        -11   -1    0    0    0    0  0.00000000000E+00  0.00000000000E+00  0.45593999997E+02  0.45594000000E+02  0.51100000000E-03 0. -1.
         11   -1    0    0    0    0 -0.00000000000E+00 -0.00000000000E+00 -0.45593999997E+02  0.45594000000E+02  0.51100000000E-03 0.  1.
    9900012    2    1    2    0    0 -0.33827232010E+02  0.11837406746E+02 -0.19203105558E+02  0.50528867114E+02  0.30000022081E+02 0.  0.
         12    1    1    2    0    0  0.33827232010E+02 -0.11837406746E+02  0.19203105558E+02  0.40659132886E+02  0.00000000000E+00 0. -1.
         11    1    3    3    0    0 -0.11237739120E+02  0.56636389593E+01  0.46690603909E+01  0.13422507664E+02  0.51100000000E-03 0. -1.
        -11    1    3    3    0    0 -0.18875442755E+02  0.61247400443E+01 -0.90223018534E+01  0.21799007106E+02  0.51100000000E-03 0.  1.
        -12    1    3    3    0    0 -0.37140501341E+01  0.49027742390E-01 -0.14849864096E+02  0.15307352344E+02  0.00000000000E+00 0.  1.
</event>
<event>
 7    1  0.4871930E-013  0.5052887E+02  0.7816164E-02  0.1300439E+00
        -11   -1    0    0    0    0  0.00000000000E+00  0.00000000000E+00  0.45593999997E+02  0.45594000000E+02  0.51100000000E-03 0.  1.
         11   -1    0    0    0    0 -0.00000000000E+00 -0.00000000000E+00 -0.45593999997E+02  0.45594000000E+02  0.51100000000E-03 0. -1.
    9900012    2    1    2    0    0  0.82284594420E+01  0.13199132962E+02  0.37566473878E+02  0.50528872915E+02  0.30000039712E+02 0.  0.
         12    1    1    2    0    0 -0.82284594420E+01 -0.13199132962E+02 -0.37566473878E+02  0.40659127085E+02  0.00000000000E+00 0. -1.
         11    1    3    3    0    0  0.97998927619E+01  0.37409909984E+01  0.13204136597E+02  0.16863633515E+02  0.51100000000E-03 0. -1.
        -11    1    3    3    0    0  0.22945501537E+01  0.14267800152E+02  0.23279466428E+02  0.27400157645E+02  0.51100000000E-03 0.  1.
         12    1    3    3    0    0 -0.38659834736E+01 -0.48096581880E+01  0.10828708526E+01  0.62650817542E+01  0.00000000000E+00 0. -1.
</event>
<event>
 7    1  0.4871930E-013  0.5052886E+02  0.7816164E-02  0.1300439E+00
        -11   -1    0    0    0    0  0.00000000000E+00  0.00000000000E+00  0.45593999997E+02  0.45594000000E+02  0.51100000000E-03 0.  1.
         11   -1    0    0    0    0 -0.00000000000E+00 -0.00000000000E+00 -0.45593999997E+02  0.45594000000E+02  0.51100000000E-03 0. -1.
    9900012    2    1    2    0    0  0.21475279858E+02 -0.84654856021E+01  0.33471091704E+02  0.50528855010E+02  0.29999985288E+02 0.  0.
         12    1    1    2    0    0 -0.21475279858E+02  0.84654856021E+01 -0.33471091704E+02  0.40659144990E+02  0.00000000000E+00 0. -1.
         11    1    3    3    0    0  0.22491322497E+01  0.85722930048E+01  0.73784746107E+01  0.11531898850E+02  0.51100000000E-03 0.  1.
        -11    1    3    3    0    0  0.10249808996E+02 -0.16447985230E+01  0.54409236541E+01  0.11720392362E+02  0.51100000000E-03 0. -1.
        -12    1    3    3    0    0  0.89763386118E+01 -0.15392980084E+02  0.20651693439E+02  0.27276563799E+02  0.00000000000E+00 0.  1.
</event>
<event>
 7    1  0.4871930E-013  0.5052887E+02  0.7816164E-02  0.1300439E+00
        -11   -1    0    0    0    0  0.00000000000E+00  0.00000000000E+00  0.45593999997E+02  0.45594000000E+02  0.51100000000E-03 0.  1.
         11   -1    0    0    0    0 -0.00000000000E+00 -0.00000000000E+00 -0.45593999997E+02  0.45594000000E+02  0.51100000000E-03 0. -1.
    9900012    2    1    2    0    0 -0.28108390766E+02 -0.38970046145E+01  0.29118669406E+02  0.50528865917E+02  0.30000018440E+02 0.  0.
         12    1    1    2    0    0  0.28108390766E+02  0.38970046145E+01 -0.29118669406E+02  0.40659134083E+02  0.00000000000E+00 0. -1.
         11    1    3    3    0    0 -0.55778719385E+01 -0.33623359362E+01 -0.41858495315E+01  0.77420472016E+01  0.51100000000E-03 0. -1.
        -11    1    3    3    0    0 -0.15956648559E+02 -0.41308979849E+01  0.12537037305E+02  0.20708844875E+02  0.51100000000E-03 0.  1.
        -12    1    3    3    0    0 -0.65738702682E+01  0.35962293066E+01  0.20767481632E+02  0.22077973840E+02  0.00000000000E+00 0.  1.
</event>
<event>
 7    1  0.4871930E-013  0.5052887E+02  0.7816164E-02  0.1300439E+00
        -11   -1    0    0    0    0  0.00000000000E+00  0.00000000000E+00  0.45593999997E+02  0.45594000000E+02  0.51100000000E-03 0. -1.
         11   -1    0    0    0    0 -0.00000000000E+00 -0.00000000000E+00 -0.45593999997E+02  0.45594000000E+02  0.51100000000E-03 0.  1.
    9900012    2    1    2    0    0  0.11282488988E+02 -0.37455513807E+02  0.11088485772E+02  0.50528873238E+02  0.30000040695E+02 0.  0.
         12    1    1    2    0    0 -0.11282488988E+02  0.37455513807E+02 -0.11088485772E+02  0.40659126762E+02  0.00000000000E+00 0. -1.
         11    1    3    3    0    0  0.16212677114E+01 -0.17529915314E+02  0.15628048854E+02  0.23540653159E+02  0.51100000000E-03 0. -1.
        -11    1    3    3    0    0  0.65267309557E+00 -0.16343273549E+02 -0.17718862609E+00  0.16357260422E+02  0.51100000000E-03 0.  1.
         12    1    3    3    0    0  0.90085481806E+01 -0.35823249450E+01 -0.43623744564E+01  0.10630959657E+02  0.00000000000E+00 0. -1.
</event>
<event>
 7    1  0.4871930E-013  0.5052886E+02  0.7816164E-02  0.1300439E+00
        -11   -1    0    0    0    0  0.00000000000E+00  0.00000000000E+00  0.45593999997E+02  0.45594000000E+02  0.51100000000E-03 0.  1.
         11   -1    0    0    0    0 -0.00000000000E+00 -0.00000000000E+00 -0.45593999997E+02  0.45594000000E+02  0.51100000000E-03 0. -1.
    9900012    2    1    2    0    0  0.87202600031E+01 -0.29753000189E+02  0.26303642217E+02  0.50528861437E+02  0.30000004825E+02 0.  0.
         12    1    1    2    0    0 -0.87202600031E+01  0.29753000189E+02 -0.26303642217E+02  0.40659138563E+02  0.00000000000E+00 0. -1.
         11    1    3    3    0    0 -0.94695135356E+00 -0.15548362087E+02  0.12929701942E+01  0.15630740630E+02  0.51100000000E-03 0. -1.
        -11    1    3    3    0    0 -0.49337038872E+01 -0.45475731758E+01  0.85547393208E+01  0.10872231645E+02  0.51100000000E-03 0.  1.
        -12    1    3    3    0    0  0.14600915244E+02 -0.96570649261E+01  0.16455932702E+02  0.24025889162E+02  0.00000000000E+00 0.  1.
</event>
<event>
 7    1  0.4871930E-013  0.5052885E+02  0.7816164E-02  0.1300439E+00
        -11   -1    0    0    0    0  0.00000000000E+00  0.00000000000E+00  0.45593999997E+02  0.45594000000E+02  0.51100000000E-03 0.  1.
         11   -1    0    0    0    0 -0.00000000000E+00 -0.00000000000E+00 -0.45593999997E+02  0.45594000000E+02  0.51100000000E-03 0. -1.
    9900012    2    1    2    0    0 -0.13208975105E+02  0.14643559423E+02  0.35556368992E+02  0.50528853037E+02  0.29999979290E+02 0.  0.
         12    1    1    2    0    0  0.13208975105E+02 -0.14643559423E+02 -0.35556368992E+02  0.40659146963E+02  0.00000000000E+00 0. -1.
         11    1    3    3    0    0 -0.58030652565E+01 -0.49891768777E+01  0.89354513338E+01  0.11764767022E+02  0.51100000000E-03 0. -1.
        -11    1    3    3    0    0  0.63713988654E+01  0.54100802725E+01  0.85370456734E+01  0.11947587252E+02  0.51100000000E-03 0.  1.
        -12    1    3    3    0    0 -0.13777308714E+02  0.14222656028E+02  0.18083871985E+02  0.26816498762E+02  0.00000000000E+00 0.  1.
</event>
<event>
 7    1  0.4871930E-013  0.5052886E+02  0.7816164E-02  0.1300439E+00
        -11   -1    0    0    0    0  0.00000000000E+00  0.00000000000E+00  0.45593999997E+02  0.45594000000E+02  0.51100000000E-03 0. -1.
         11   -1    0    0    0    0 -0.00000000000E+00 -0.00000000000E+00 -0.45593999997E+02  0.45594000000E+02  0.51100000000E-03 0.  1.
    9900012    2    1    2    0    0 -0.10203300422E+01  0.32538253545E+02 -0.24359536961E+02  0.50528855172E+02  0.29999985782E+02 0.  0.
         12    1    1    2    0    0  0.10203300422E+01 -0.32538253545E+02  0.24359536961E+02  0.40659144828E+02  0.00000000000E+00 0. -1.
         11    1    3    3    0    0 -0.18932664936E+01  0.14517508693E+02 -0.19011580804E+02  0.23995472939E+02  0.51100000000E-03 0. -1.
        -11    1    3    3    0    0 -0.80508411933E+01  0.13673783742E+02 -0.48589860670E+01  0.16595124333E+02  0.51100000000E-03 0.  1.
         12    1    3    3    0    0  0.89237776446E+01  0.43469611100E+01 -0.48897009003E+00  0.99382579003E+01  0.00000000000E+00 0. -1.
</event>
<event>
 7    1  0.4871930E-013  0.5052889E+02  0.7816164E-02  0.1300439E+00
        -11   -1    0    0    0    0  0.00000000000E+00  0.00000000000E+00  0.45593999997E+02  0.45594000000E+02  0.51100000000E-03 0.  1.
         11   -1    0    0    0    0 -0.00000000000E+00 -0.00000000000E+00 -0.45593999997E+02  0.45594000000E+02  0.51100000000E-03 0. -1.
    9900012    2    1    2    0    0  0.30948918252E+02 -0.23554263203E+02  0.11854294479E+02  0.50528890891E+02  0.30000094351E+02 0.  0.
         12    1    1    2    0    0 -0.30948918252E+02  0.23554263203E+02 -0.11854294479E+02  0.40659109109E+02  0.00000000000E+00 0. -1.
         11    1    3    3    0    0  0.84231971837E+00  0.48790258356E+01  0.32816789426E+01  0.59400178919E+01  0.51100000000E-03 0.  1.
        -11    1    3    3    0    0  0.14323140828E+02 -0.43759348787E+01  0.33280741402E+01  0.15342009222E+02  0.51100000000E-03 0. -1.
        -12    1    3    3    0    0  0.15783457706E+02 -0.24057354159E+02  0.52445413964E+01  0.29246863777E+02  0.00000000000E+00 0.  1.
</event>
<event>
 7    1  0.5407433E-013  0.5052886E+02  0.7816164E-02  0.1300439E+00
        -11   -1    0    0    0    0  0.00000000000E+00  0.00000000000E+00  0.45593999997E+02  0.45594000000E+02  0.51100000000E-03 0. -1.
         11   -1    0    0    0    0 -0.00000000000E+00 -0.00000000000E+00 -0.45593999997E+02  0.45594000000E+02  0.51100000000E-03 0.  1.
    9900012    2    1    2    0    0 -0.12243467257E+02  0.29905811419E+02 -0.24676017065E+02  0.50528857543E+02  0.29999992989E+02 0.  0.
         12    1    1    2    0    0  0.12243467257E+02 -0.29905811419E+02  0.24676017065E+02  0.40659142457E+02  0.00000000000E+00 0. -1.
         11    1    3    3    0    0 -0.70765246789E+01 -0.22067552736E+01 -0.77216526938E+01  0.10703779284E+02  0.51100000000E-03 0. -1.
        -11    1    3    3    0    0 -0.33973486250E+01  0.10928688881E+02  0.16663259941E+01  0.11565243660E+02  0.51100000000E-03 0.  1.
        -12    1    3    3    0    0 -0.17695939530E+01  0.21183877812E+02 -0.18620690366E+02  0.28259834600E+02  0.00000000000E+00 0.  1.
</event>
<event>
 7    1  0.4871930E-013  0.5052883E+02  0.7816164E-02  0.1300439E+00
        -11   -1    0    0    0    0  0.00000000000E+00  0.00000000000E+00  0.45593999997E+02  0.45594000000E+02  0.51100000000E-03 0.  1.
         11   -1    0    0    0    0 -0.00000000000E+00 -0.00000000000E+00 -0.45593999997E+02  0.45594000000E+02  0.51100000000E-03 0. -1.
    9900012    2    1    2    0    0 -0.31699146786E+02  0.23195457795E+02  0.10502530327E+02  0.50528827449E+02  0.29999901512E+02 0.  0.
         12    1    1    2    0    0  0.31699146786E+02 -0.23195457795E+02 -0.10502530327E+02  0.40659172551E+02  0.00000000000E+00 0. -1.
         11    1    3    3    0    0 -0.86272623775E+01 -0.16939761320E+01 -0.57683221239E+01  0.10515357895E+02  0.51100000000E-03 0. -1.
        -11    1    3    3    0    0 -0.14564452309E+02  0.58651945782E+01  0.64239613744E+01  0.16964405633E+02  0.51100000000E-03 0.  1.
        -12    1    3    3    0    0 -0.85074321003E+01  0.19024239349E+02  0.98468910770E+01  0.23049063921E+02  0.00000000000E+00 0.  1.
</event>
<event>
 7    1  0.4871930E-013  0.5052882E+02  0.7816164E-02  0.1300439E+00
        -11   -1    0    0    0    0  0.00000000000E+00  0.00000000000E+00  0.45593999997E+02  0.45594000000E+02  0.51100000000E-03 0. -1.
         11   -1    0    0    0    0 -0.00000000000E+00 -0.00000000000E+00 -0.45593999997E+02  0.45594000000E+02  0.51100000000E-03 0.  1.
    9900012    2    1    2    0    0 -0.75983495403E+01  0.16272017059E+01 -0.39909721000E+02  0.50528824757E+02  0.29999893333E+02 0.  0.
         12    1    1    2    0    0  0.75983495403E+01 -0.16272017059E+01  0.39909721000E+02  0.40659175243E+02  0.00000000000E+00 0. -1.
         11    1    3    3    0    0 -0.56431732905E+00  0.53771811701E+01 -0.21901810520E-01  0.54067560824E+01  0.51100000000E-03 0. -1.
        -11    1    3    3    0    0 -0.88111842741E+01  0.58077567906E+01 -0.14476819988E+02  0.17914946957E+02  0.51100000000E-03 0.  1.
         12    1    3    3    0    0  0.17771520629E+01 -0.95577362549E+01 -0.25410999201E+02  0.27207121718E+02  0.00000000000E+00 0. -1.
</event>
<event>
 7    1  0.5436840E-013  0.5052887E+02  0.7816164E-02  0.1300439E+00
        -11   -1    0    0    0    0  0.00000000000E+00  0.00000000000E+00  0.45593999997E+02  0.45594000000E+02  0.51100000000E-03 0. -1.
         11   -1    0    0    0    0 -0.00000000000E+00 -0.00000000000E+00 -0.45593999997E+02  0.45594000000E+02  0.51100000000E-03 0.  1.
    9900012    2    1    2    0    0  0.13729889825E+02  0.14606671995E+02 -0.35373725360E+02  0.50528865882E+02  0.30000018336E+02 0.  0.
         12    1    1    2    0    0 -0.13729889825E+02 -0.14606671995E+02  0.35373725360E+02  0.40659134118E+02  0.00000000000E+00 0. -1.
         11    1    3    3    0    0  0.92735592599E+01 -0.44214821147E+01 -0.46116707966E+01  0.11261257178E+02  0.51100000000E-03 0. -1.
        -11    1    3    3    0    0  0.50806836830E+01  0.94397482702E+01 -0.51115615884E+01  0.11876458067E+02  0.51100000000E-03 0.  1.
        -12    1    3    3    0    0 -0.62435311811E+00  0.95884058395E+01 -0.25650492975E+02  0.27391150637E+02  0.00000000000E+00 0.  1.
</event>
<event>
 7    1  0.4871930E-013  0.5052885E+02  0.7816164E-02  0.1300439E+00
        -11   -1    0    0    0    0  0.00000000000E+00  0.00000000000E+00  0.45593999997E+02  0.45594000000E+02  0.51100000000E-03 0. -1.
         11   -1    0    0    0    0 -0.00000000000E+00 -0.00000000000E+00 -0.45593999997E+02  0.45594000000E+02  0.51100000000E-03 0.  1.
    9900012    2    1    2    0    0  0.28912957688E+02 -0.28263641419E+02 -0.42864530866E+01  0.50528853075E+02  0.29999979408E+02 0.  0.
         12    1    1    2    0    0 -0.28912957688E+02  0.28263641419E+02  0.42864530866E+01  0.40659146925E+02  0.00000000000E+00 0. -1.
         11    1    3    3    0    0  0.33367221761E+01 -0.20183151846E+01  0.88958630341E+01  0.97130680244E+01  0.51100000000E-03 0. -1.
        -11    1    3    3    0    0 -0.10463986833E+01 -0.98296285486E+00  0.67442144275E+00  0.15861937845E+01  0.51100000000E-03 0.  1.
        -12    1    3    3    0    0  0.26622634196E+02 -0.25262363380E+02 -0.13856737563E+02  0.39229591267E+02  0.00000000000E+00 0.  1.
</event>
<event>
 7    1  0.4871930E-013  0.5052886E+02  0.7816164E-02  0.1300439E+00
        -11   -1    0    0    0    0  0.00000000000E+00  0.00000000000E+00  0.45593999997E+02  0.45594000000E+02  0.51100000000E-03 0.  1.
         11   -1    0    0    0    0 -0.00000000000E+00 -0.00000000000E+00 -0.45593999997E+02  0.45594000000E+02  0.51100000000E-03 0. -1.
    9900012    2    1    2    0    0  0.38014193479E+02  0.14280709354E+02  0.20367112455E+01  0.50528858861E+02  0.29999996994E+02 0.  0.
         12    1    1    2    0    0 -0.38014193479E+02 -0.14280709354E+02 -0.20367112455E+01  0.40659141139E+02  0.00000000000E+00 0. -1.
         11    1    3    3    0    0  0.13041222201E+02 -0.32141181035E+01  0.11812405614E+02  0.17886781665E+02  0.51100000000E-03 0. -1.
        -11    1    3    3    0    0  0.11858365532E+02  0.59510585880E+01 -0.16385127750E+01  0.13368644500E+02  0.51100000000E-03 0.  1.
         12    1    3    3    0    0  0.13114605746E+02  0.11543768869E+02 -0.81371815938E+01  0.19273432695E+02  0.00000000000E+00 0. -1.
</event>
<event>
 7    1  0.4871930E-013  0.5052883E+02  0.7816164E-02  0.1300439E+00
        -11   -1    0    0    0    0  0.00000000000E+00  0.00000000000E+00  0.45593999997E+02  0.45594000000E+02  0.51100000000E-03 0. -1.
         11   -1    0    0    0    0 -0.00000000000E+00 -0.00000000000E+00 -0.45593999997E+02  0.45594000000E+02  0.51100000000E-03 0.  1.
    9900012    2    1    2    0    0  0.10350587459E+02  0.49673684233E+01 -0.39004594218E+02  0.50528833999E+02  0.29999921423E+02 0.  0.
         12    1    1    2    0    0 -0.10350587459E+02 -0.49673684233E+01  0.39004594218E+02  0.40659166001E+02  0.00000000000E+00 0. -1.
         11    1    3    3    0    0  0.84985845284E+01 -0.54934454925E+01 -0.23478766666E+02  0.25566704261E+02  0.51100000000E-03 0. -1.
        -11    1    3    3    0    0 -0.60248439501E+01 -0.49459406518E+00 -0.44762648785E+01  0.75219887952E+01  0.51100000000E-03 0.  1.
        -12    1    3    3    0    0  0.78768468806E+01  0.10955407981E+02 -0.11049562674E+02  0.17440140942E+02  0.00000000000E+00 0.  1.
</event>
<event>
 7    1  0.4871930E-013  0.5052886E+02  0.7816164E-02  0.1300439E+00
        -11   -1    0    0    0    0  0.00000000000E+00  0.00000000000E+00  0.45593999997E+02  0.45594000000E+02  0.51100000000E-03 0. -1.
         11   -1    0    0    0    0 -0.00000000000E+00 -0.00000000000E+00 -0.45593999997E+02  0.45594000000E+02  0.51100000000E-03 0.  1.
    9900012    2    1    2    0    0 -0.28369326830E+02  0.27247469996E+02 -0.10291841455E+02  0.50528864169E+02  0.30000013128E+02 0.  0.
         12    1    1    2    0    0  0.28369326830E+02 -0.27247469996E+02  0.10291841455E+02  0.40659135831E+02  0.00000000000E+00 0. -1.
         11    1    3    3    0    0  0.11030889359E+01  0.84525034467E+00 -0.40830847842E+01  0.43131003885E+01  0.51100000000E-03 0. -1.
        -11    1    3    3    0    0 -0.82724229369E+01  0.22673450631E+02 -0.15042462460E+01  0.24182247658E+02  0.51100000000E-03 0.  1.
        -12    1    3    3    0    0 -0.21199992829E+02  0.37287690196E+01 -0.47045104252E+01  0.22033516122E+02  0.00000000000E+00 0.  1.
</event>
<event>
 7    1  0.4871930E-013  0.5052886E+02  0.7816164E-02  0.1300439E+00
        -11   -1    0    0    0    0  0.00000000000E+00  0.00000000000E+00  0.45593999997E+02  0.45594000000E+02  0.51100000000E-03 0. -1.
         11   -1    0    0    0    0 -0.00000000000E+00 -0.00000000000E+00 -0.45593999997E+02  0.45594000000E+02  0.51100000000E-03 0.  1.
    9900012    2    1    2    0    0 -0.95972333505E+01  0.37470930072E+02 -0.12529503618E+02  0.50528856509E+02  0.29999989846E+02 0.  0.
         12    1    1    2    0    0  0.95972333505E+01 -0.37470930072E+02  0.12529503618E+02  0.40659143491E+02  0.00000000000E+00 0. -1.
         11    1    3    3    0    0 -0.13346068990E+02  0.27094510427E+02 -0.26618785985E+01  0.30320218514E+02  0.51100000000E-03 0. -1.
        -11    1    3    3    0    0 -0.23741367087E+01  0.97995748206E+01 -0.97960721343E+01  0.14058137192E+02  0.51100000000E-03 0.  1.
        -12    1    3    3    0    0  0.61229723481E+01  0.57684482450E+00 -0.71552884893E-01  0.61505008042E+01  0.00000000000E+00 0.  1.
</event>
<event>
 7    1  0.4871930E-013  0.5052887E+02  0.7816164E-02  0.1300439E+00
        -11   -1    0    0    0    0  0.00000000000E+00  0.00000000000E+00  0.45593999997E+02  0.45594000000E+02  0.51100000000E-03 0.  1.
         11   -1    0    0    0    0 -0.00000000000E+00 -0.00000000000E+00 -0.45593999997E+02  0.45594000000E+02  0.51100000000E-03 0. -1.
    9900012    2    1    2    0    0  0.24470706296E+02 -0.16883488798E+02  0.27736214553E+02  0.50528865007E+02  0.30000015676E+02 0.  0.
         12    1    1    2    0    0 -0.24470706296E+02  0.16883488798E+02 -0.27736214553E+02  0.40659134993E+02  0.00000000000E+00 0. -1.
         11    1    3    3    0    0  0.13479034143E+02  0.17100304164E+01  0.74278058354E+01  0.15484859226E+02  0.51100000000E-03 0. -1.
        -11    1    3    3    0    0  0.14323527519E+02 -0.11168968134E+02  0.70424866442E+01  0.19480911379E+02  0.51100000000E-03 0.  1.
        -12    1    3    3    0    0 -0.33318553655E+01 -0.74245510799E+01  0.13265922073E+02  0.15563094402E+02  0.00000000000E+00 0.  1.
</event>
<event>
 7    1  0.4871930E-013  0.5052886E+02  0.7816164E-02  0.1300439E+00
        -11   -1    0    0    0    0  0.00000000000E+00  0.00000000000E+00  0.45593999997E+02  0.45594000000E+02  0.51100000000E-03 0.  1.
         11   -1    0    0    0    0 -0.00000000000E+00 -0.00000000000E+00 -0.45593999997E+02  0.45594000000E+02  0.51100000000E-03 0. -1.
    9900012    2    1    2    0    0 -0.25192349507E+02 -0.14431881284E+02  0.28464578384E+02  0.50528857195E+02  0.29999991930E+02 0.  0.
         12    1    1    2    0    0  0.25192349507E+02  0.14431881284E+02 -0.28464578384E+02  0.40659142805E+02  0.00000000000E+00 0. -1.
         11    1    3    3    0    0 -0.12061126806E+02 -0.67562346633E+01  0.20693563776E+02  0.24886564019E+02  0.51100000000E-03 0. -1.
        -11    1    3    3    0    0 -0.32662017086E+01 -0.11910471804E+02  0.83223493487E+01  0.14892579063E+02  0.51100000000E-03 0.  1.
         12    1    3    3    0    0 -0.98650209924E+01  0.42348251841E+01 -0.55133474058E+00  0.10749714113E+02  0.00000000000E+00 0. -1.
</event>
<event>
 7    1  0.4871930E-013  0.5052886E+02  0.7816164E-02  0.1300439E+00
        -11   -1    0    0    0    0  0.00000000000E+00  0.00000000000E+00  0.45593999997E+02  0.45594000000E+02  0.51100000000E-03 0.  1.
         11   -1    0    0    0    0 -0.00000000000E+00 -0.00000000000E+00 -0.45593999997E+02  0.45594000000E+02  0.51100000000E-03 0. -1.
    9900012    2    1    2    0    0 -0.34943640075E+02  0.20045047722E+02  0.55048633175E+01  0.50528862773E+02  0.30000008884E+02 0.  0.
         12    1    1    2    0    0  0.34943640075E+02 -0.20045047722E+02 -0.55048633175E+01  0.40659137227E+02  0.00000000000E+00 0. -1.
         11    1    3    3    0    0 -0.13799914344E+02  0.15532993369E+02 -0.43489049852E+00  0.20782219537E+02  0.51100000000E-03 0.  1.
        -11    1    3    3    0    0 -0.11374361082E+02  0.83349291666E+00 -0.67984824620E+01  0.13277430644E+02  0.51100000000E-03 0. -1.
         12    1    3    3    0    0 -0.97693646499E+01  0.36785614370E+01  0.12738236278E+02  0.16469212591E+02  0.00000000000E+00 0. -1.
</event>
<event>
 7    1  0.4871930E-013  0.5052886E+02  0.7816164E-02  0.1300439E+00
        -11   -1    0    0    0    0  0.00000000000E+00  0.00000000000E+00  0.45593999997E+02  0.45594000000E+02  0.51100000000E-03 0. -1.
         11   -1    0    0    0    0 -0.00000000000E+00 -0.00000000000E+00 -0.45593999997E+02  0.45594000000E+02  0.51100000000E-03 0.  1.
    9900012    2    1    2    0    0 -0.32520704707E+02 -0.20342488253E+02 -0.13481564745E+02  0.50528860179E+02  0.30000001001E+02 0.  0.
         12    1    1    2    0    0  0.32520704707E+02  0.20342488253E+02  0.13481564745E+02  0.40659139821E+02  0.00000000000E+00 0. -1.
         11    1    3    3    0    0  0.22407538585E+00 -0.66510387360E+01 -0.47553542326E+01  0.81792371396E+01  0.51100000000E-03 0. -1.
        -11    1    3    3    0    0 -0.13769881245E+02 -0.15586146847E+02  0.12373198558E+01  0.20834312174E+02  0.51100000000E-03 0.  1.
        -12    1    3    3    0    0 -0.18974898848E+02  0.18946973308E+01 -0.99635303685E+01  0.21515310866E+02  0.00000000000E+00 0.  1.
</event>
<event>
 7    1  0.4871930E-013  0.5052886E+02  0.7816164E-02  0.1300439E+00
        -11   -1    0    0    0    0  0.00000000000E+00  0.00000000000E+00  0.45593999997E+02  0.45594000000E+02  0.51100000000E-03 0. -1.
         11   -1    0    0    0    0 -0.00000000000E+00 -0.00000000000E+00 -0.45593999997E+02  0.45594000000E+02  0.51100000000E-03 0.  1.
    9900012    2    1    2    0    0 -0.12674165047E+02 -0.37954388874E+02  0.72107715303E+01  0.50528864243E+02  0.30000013352E+02 0.  0.
         12    1    1    2    0    0  0.12674165047E+02  0.37954388874E+02 -0.72107715303E+01  0.40659135757E+02  0.00000000000E+00 0. -1.
         11    1    3    3    0    0 -0.33149203811E+01 -0.12640936864E+02  0.79286667967E+01  0.15285474784E+02  0.51100000000E-03 0. -1.
        -11    1    3    3    0    0 -0.14156274886E+02 -0.26636907400E+02  0.28875912862E+00  0.30166344435E+02  0.51100000000E-03 0.  1.
         12    1    3    3    0    0  0.47970302204E+01  0.13234553894E+01 -0.10066543951E+01  0.50770450238E+01  0.00000000000E+00 0. -1.
</event>
<event>
 7    1  0.4871930E-013  0.5052887E+02  0.7816164E-02  0.1300439E+00
        -11   -1    0    0    0    0  0.00000000000E+00  0.00000000000E+00  0.45593999997E+02  0.45594000000E+02  0.51100000000E-03 0.  1.
         11   -1    0    0    0    0 -0.00000000000E+00 -0.00000000000E+00 -0.45593999997E+02  0.45594000000E+02  0.51100000000E-03 0. -1.
    9900012    2    1    2    0    0 -0.26668279820E+02 -0.19262442822E+02  0.23894066186E+02  0.50528865099E+02  0.30000015954E+02 0.  0.
         12    1    1    2    0    0  0.26668279820E+02  0.19262442822E+02 -0.23894066186E+02  0.40659134901E+02  0.00000000000E+00 0. -1.
         11    1    3    3    0    0 -0.11198883580E+02 -0.10870995281E+02  0.10936408934E+02  0.19057769346E+02  0.51100000000E-03 0. -1.
        -11    1    3    3    0    0 -0.80295406235E+01  0.24143910678E+01  0.15945688334E+02  0.18015764862E+02  0.51100000000E-03 0.  1.
         12    1    3    3    0    0 -0.74398556171E+01 -0.10805838609E+02 -0.29880310817E+01  0.13455330891E+02  0.00000000000E+00 0. -1.
</event>
<event>
 7    1  0.4871930E-013  0.5052883E+02  0.7816164E-02  0.1300439E+00
        -11   -1    0    0    0    0  0.00000000000E+00  0.00000000000E+00  0.45593999997E+02  0.45594000000E+02  0.51100000000E-03 0. -1.
         11   -1    0    0    0    0 -0.00000000000E+00 -0.00000000000E+00 -0.45593999997E+02  0.45594000000E+02  0.51100000000E-03 0.  1.
    9900012    2    1    2    0    0  0.64865220354E+01  0.24844455742E+02 -0.31525321221E+02  0.50528833416E+02  0.29999919652E+02 0.  0.
         12    1    1    2    0    0 -0.64865220354E+01 -0.24844455742E+02  0.31525321221E+02  0.40659166584E+02  0.00000000000E+00 0. -1.
         11    1    3    3    0    0 -0.12033415924E+01 -0.33019207685E+01 -0.45388118771E+01  0.57403419120E+01  0.51100000000E-03 0. -1.
        -11    1    3    3    0    0 -0.30533748556E+01  0.13170408116E+02 -0.21782405574E+02  0.25637003350E+02  0.51100000000E-03 0.  1.
        -12    1    3    3    0    0  0.10743238483E+02  0.14975968394E+02 -0.52041037702E+01  0.19151488154E+02  0.00000000000E+00 0.  1.
</event>
<event>
 7    1  0.4871930E-013  0.5052886E+02  0.7816164E-02  0.1300439E+00
        -11   -1    0    0    0    0  0.00000000000E+00  0.00000000000E+00  0.45593999997E+02  0.45594000000E+02  0.51100000000E-03 0.  1.
         11   -1    0    0    0    0 -0.00000000000E+00 -0.00000000000E+00 -0.45593999997E+02  0.45594000000E+02  0.51100000000E-03 0. -1.
    9900012    2    1    2    0    0  0.38088511536E+02 -0.92458951447E+01  0.10814079713E+02  0.50528860706E+02  0.30000002603E+02 0.  0.
         12    1    1    2    0    0 -0.38088511536E+02  0.92458951447E+01 -0.10814079713E+02  0.40659139294E+02  0.00000000000E+00 0. -1.
         11    1    3    3    0    0 -0.23072176088E+01 -0.55081053590E+00 -0.21954573241E+00  0.23821935124E+01  0.51100000000E-03 0. -1.
        -11    1    3    3    0    0  0.20375481300E+02 -0.15613926181E+02  0.54774784980E+01  0.26248003733E+02  0.51100000000E-03 0.  1.
        -12    1    3    3    0    0  0.20020247845E+02  0.69188415723E+01  0.55561469477E+01  0.21898663461E+02  0.00000000000E+00 0.  1.
</event>
<event>
 7    1  0.4871930E-013  0.5052886E+02  0.7816164E-02  0.1300439E+00
        -11   -1    0    0    0    0  0.00000000000E+00  0.00000000000E+00  0.45593999997E+02  0.45594000000E+02  0.51100000000E-03 0. -1.
         11   -1    0    0    0    0 -0.00000000000E+00 -0.00000000000E+00 -0.45593999997E+02  0.45594000000E+02  0.51100000000E-03 0.  1.
    9900012    2    1    2    0    0 -0.67270728954E+01 -0.30701941472E+02 -0.25793462789E+02  0.50528862742E+02  0.30000008790E+02 0.  0.
         12    1    1    2    0    0  0.67270728954E+01  0.30701941472E+02  0.25793462789E+02  0.40659137258E+02  0.00000000000E+00 0. -1.
         11    1    3    3    0    0 -0.45718593968E+01 -0.23568784814E+02 -0.31342028860E+01  0.24211830661E+02  0.51100000000E-03 0. -1.
        -11    1    3    3    0    0 -0.14769002842E+01 -0.10081482889E+02 -0.15550432643E+02  0.18591220706E+02  0.51100000000E-03 0.  1.
        -12    1    3    3    0    0 -0.67831321431E+00  0.29483262309E+01 -0.71088272602E+01  0.77258113746E+01  0.00000000000E+00 0.  1.
</event>
<event>
 7    1  0.4871930E-013  0.5052886E+02  0.7816164E-02  0.1300439E+00
        -11   -1    0    0    0    0  0.00000000000E+00  0.00000000000E+00  0.45593999997E+02  0.45594000000E+02  0.51100000000E-03 0.  1.
         11   -1    0    0    0    0 -0.00000000000E+00 -0.00000000000E+00 -0.45593999997E+02  0.45594000000E+02  0.51100000000E-03 0. -1.
    9900012    2    1    2    0    0 -0.10621464659E+02  0.27761177272E+02  0.27742873094E+02  0.50528862251E+02  0.30000007297E+02 0.  0.
         12    1    1    2    0    0  0.10621464659E+02 -0.27761177272E+02 -0.27742873094E+02  0.40659137749E+02  0.00000000000E+00 0. -1.
         11    1    3    3    0    0 -0.59095832020E+01  0.11086880278E+02 -0.34064381798E+00  0.12568139337E+02  0.51100000000E-03 0. -1.
        -11    1    3    3    0    0  0.43075264125E+01 -0.29406423367E+00  0.50428732075E+00  0.43469027515E+01  0.51100000000E-03 0.  1.
         12    1    3    3    0    0 -0.90194078696E+01  0.16968361228E+02  0.27579229591E+02  0.33613820162E+02  0.00000000000E+00 0. -1.
</event>
<event>
 7    1  0.4871930E-013  0.5052886E+02  0.7816164E-02  0.1300439E+00
        -11   -1    0    0    0    0  0.00000000000E+00  0.00000000000E+00  0.45593999997E+02  0.45594000000E+02  0.51100000000E-03 0.  1.
         11   -1    0    0    0    0 -0.00000000000E+00 -0.00000000000E+00 -0.45593999997E+02  0.45594000000E+02  0.51100000000E-03 0. -1.
    9900012    2    1    2    0    0 -0.88241545875E+01  0.39482627950E+02  0.40524418473E+01  0.50528857129E+02  0.29999991730E+02 0.  0.
         12    1    1    2    0    0  0.88241545875E+01 -0.39482627950E+02 -0.40524418473E+01  0.40659142871E+02  0.00000000000E+00 0. -1.
         11    1    3    3    0    0  0.54603854954E+00  0.15867600473E+02  0.94150540817E+01  0.18458660473E+02  0.51100000000E-03 0. -1.
        -11    1    3    3    0    0 -0.73462235144E+01  0.26725211304E+02 -0.35580993077E+01  0.27943943711E+02  0.51100000000E-03 0.  1.
         12    1    3    3    0    0 -0.20239696226E+01 -0.31101838260E+01 -0.18045129268E+01  0.41262529452E+01  0.00000000000E+00 0. -1.
</event>
<event>
 7    1  0.4871930E-013  0.5052886E+02  0.7816164E-02  0.1300439E+00
        -11   -1    0    0    0    0  0.00000000000E+00  0.00000000000E+00  0.45593999997E+02  0.45594000000E+02  0.51100000000E-03 0.  1.
         11   -1    0    0    0    0 -0.00000000000E+00 -0.00000000000E+00 -0.45593999997E+02  0.45594000000E+02  0.51100000000E-03 0. -1.
    9900012    2    1    2    0    0  0.49656301197E+01 -0.18740589327E+02  0.35739311201E+02  0.50528861594E+02  0.30000005301E+02 0.  0.
         12    1    1    2    0    0 -0.49656301197E+01  0.18740589327E+02 -0.35739311201E+02  0.40659138406E+02  0.00000000000E+00 0. -1.
         11    1    3    3    0    0  0.98336049693E+01 -0.11602095228E+02  0.18663408913E+02  0.24075531830E+02  0.51100000000E-03 0. -1.
        -11    1    3    3    0    0  0.60452252858E+01 -0.52250036093E+01  0.11622764545E+02  0.14104398867E+02  0.51100000000E-03 0.  1.
         12    1    3    3    0    0 -0.10913200135E+02 -0.19134904897E+01  0.54531377430E+01  0.12348930897E+02  0.00000000000E+00 0. -1.
</event>
<event>
 7    1  0.4871930E-013  0.5052886E+02  0.7816164E-02  0.1300439E+00
        -11   -1    0    0    0    0  0.00000000000E+00  0.00000000000E+00  0.45593999997E+02  0.45594000000E+02  0.51100000000E-03 0.  1.
         11   -1    0    0    0    0 -0.00000000000E+00 -0.00000000000E+00 -0.45593999997E+02  0.45594000000E+02  0.51100000000E-03 0. -1.
    9900012    2    1    2    0    0  0.22668344667E+02  0.13072622690E+02  0.31119426870E+02  0.50528855362E+02  0.29999986358E+02 0.  0.
         12    1    1    2    0    0 -0.22668344667E+02 -0.13072622690E+02 -0.31119426870E+02  0.40659144638E+02  0.00000000000E+00 0. -1.
         11    1    3    3    0    0  0.87122388302E+01 -0.48072487881E+01  0.42720423179E+01  0.10828808437E+02  0.51100000000E-03 0. -1.
        -11    1    3    3    0    0  0.11842487861E+02  0.67676862648E+01  0.40136453389E+01  0.14218137898E+02  0.51100000000E-03 0.  1.
        -12    1    3    3    0    0  0.21136179758E+01  0.11112185214E+02  0.22833739213E+02  0.25481909026E+02  0.00000000000E+00 0.  1.
</event>
<event>
 7    1  0.4871930E-013  0.5052886E+02  0.7816164E-02  0.1300439E+00
        -11   -1    0    0    0    0  0.00000000000E+00  0.00000000000E+00  0.45593999997E+02  0.45594000000E+02  0.51100000000E-03 0.  1.
         11   -1    0    0    0    0 -0.00000000000E+00 -0.00000000000E+00 -0.45593999997E+02  0.45594000000E+02  0.51100000000E-03 0. -1.
    9900012    2    1    2    0    0  0.88396035326E+01  0.34054114166E+02  0.20380006615E+02  0.50528856479E+02  0.29999989752E+02 0.  0.
         12    1    1    2    0    0 -0.88396035326E+01 -0.34054114166E+02 -0.20380006615E+02  0.40659143521E+02  0.00000000000E+00 0. -1.
         11    1    3    3    0    0  0.51469553926E+01 -0.36787965494E+00 -0.45704663875E+01  0.68931595451E+01  0.51100000000E-03 0. -1.
        -11    1    3    3    0    0  0.45817985857E+01  0.71907488160E+01  0.66727161892E+01  0.10827044307E+02  0.51100000000E-03 0.  1.
        -12    1    3    3    0    0 -0.88915044571E+00  0.27231245005E+02  0.18277756814E+02  0.32808652627E+02  0.00000000000E+00 0.  1.
</event>
<event>
 7    1  0.4871930E-013  0.5052885E+02  0.7816164E-02  0.1300439E+00
        -11   -1    0    0    0    0  0.00000000000E+00  0.00000000000E+00  0.45593999997E+02  0.45594000000E+02  0.51100000000E-03 0. -1.
         11   -1    0    0    0    0 -0.00000000000E+00 -0.00000000000E+00 -0.45593999997E+02  0.45594000000E+02  0.51100000000E-03 0.  1.
    9900012    2    1    2    0    0  0.36491443428E+02 -0.10143022084E+02  0.14787156230E+02  0.50528851831E+02  0.29999975627E+02 0.  0.
         12    1    1    2    0    0 -0.36491443428E+02  0.10143022084E+02 -0.14787156230E+02  0.40659148169E+02  0.00000000000E+00 0. -1.
         11    1    3    3    0    0  0.10114389262E+01 -0.47472367536E+01  0.22336298148E+01  0.53430672752E+01  0.51100000000E-03 0. -1.
        -11    1    3    3    0    0  0.23760631419E+02 -0.11870958921E+02 -0.38883169799E+00  0.26563856299E+02  0.51100000000E-03 0.  1.
        -12    1    3    3    0    0  0.11719373082E+02  0.64751735908E+01  0.12942358113E+02  0.18621928257E+02  0.00000000000E+00 0.  1.
</event>
<event>
 7    1  0.4871930E-013  0.5052887E+02  0.7816164E-02  0.1300439E+00
        -11   -1    0    0    0    0  0.00000000000E+00  0.00000000000E+00  0.45593999997E+02  0.45594000000E+02  0.51100000000E-03 0.  1.
         11   -1    0    0    0    0 -0.00000000000E+00 -0.00000000000E+00 -0.45593999997E+02  0.45594000000E+02  0.51100000000E-03 0. -1.
    9900012    2    1    2    0    0  0.37608519515E+01  0.38849686284E+02 -0.11389603055E+02  0.50528865853E+02  0.30000018248E+02 0.  0.
         12    1    1    2    0    0 -0.37608519515E+01 -0.38849686284E+02  0.11389603055E+02  0.40659134147E+02  0.00000000000E+00 0. -1.
         11    1    3    3    0    0  0.80128354194E+01  0.17218027563E+01 -0.18451375512E+01  0.84008731114E+01  0.51100000000E-03 0.  1.
        -11    1    3    3    0    0 -0.60424694109E+01  0.12905831668E+02  0.33363019272E+01  0.14635670072E+02  0.51100000000E-03 0. -1.
        -12    1    3    3    0    0  0.17904859429E+01  0.24222051860E+02 -0.12880767431E+02  0.27492322670E+02  0.00000000000E+00 0.  1.
</event>
<event>
 7    1  0.4871930E-013  0.5052885E+02  0.7816164E-02  0.1300439E+00
        -11   -1    0    0    0    0  0.00000000000E+00  0.00000000000E+00  0.45593999997E+02  0.45594000000E+02  0.51100000000E-03 0. -1.
         11   -1    0    0    0    0 -0.00000000000E+00 -0.00000000000E+00 -0.45593999997E+02  0.45594000000E+02  0.51100000000E-03 0.  1.
    9900012    2    1    2    0    0 -0.26190449791E+02 -0.21049255410E+02 -0.22894438006E+02  0.50528854593E+02  0.29999984022E+02 0.  0.
         12    1    1    2    0    0  0.26190449791E+02  0.21049255410E+02  0.22894438006E+02  0.40659145407E+02  0.00000000000E+00 0. -1.
         11    1    3    3    0    0 -0.19949655839E+02 -0.68295177325E+01 -0.10943567942E+02  0.23756951827E+02  0.51100000000E-03 0. -1.
        -11    1    3    3    0    0 -0.26124413564E+01 -0.10662708188E+02 -0.16588806845E+02  0.19892378152E+02  0.51100000000E-03 0.  1.
         12    1    3    3    0    0 -0.36283525956E+01 -0.35570294902E+01  0.46379367801E+01  0.68795246149E+01  0.00000000000E+00 0. -1.
</event>
<event>
 7    1  0.4871930E-013  0.5052886E+02  0.7816164E-02  0.1300439E+00
        -11   -1    0    0    0    0  0.00000000000E+00  0.00000000000E+00  0.45593999997E+02  0.45594000000E+02  0.51100000000E-03 0. -1.
         11   -1    0    0    0    0 -0.00000000000E+00 -0.00000000000E+00 -0.45593999997E+02  0.45594000000E+02  0.51100000000E-03 0.  1.
    9900012    2    1    2    0    0 -0.18994073860E+02  0.16524756591E+02 -0.31926844683E+02  0.50528857933E+02  0.29999994174E+02 0.  0.
         12    1    1    2    0    0  0.18994073860E+02 -0.16524756591E+02  0.31926844683E+02  0.40659142067E+02  0.00000000000E+00 0. -1.
         11    1    3    3    0    0 -0.78536634699E+01  0.37383050377E+01 -0.22578777915E+01  0.89862654555E+01  0.51100000000E-03 0. -1.
        -11    1    3    3    0    0 -0.12004398358E+02  0.19113512151E+02 -0.24634416844E+02  0.33410872784E+02  0.51100000000E-03 0.  1.
        -12    1    3    3    0    0  0.86398796769E+00 -0.63270605971E+01 -0.50345500467E+01  0.81317196939E+01  0.00000000000E+00 0.  1.
</event>
<event>
 7    1  0.4871930E-013  0.5052886E+02  0.7816164E-02  0.1300439E+00
        -11   -1    0    0    0    0  0.00000000000E+00  0.00000000000E+00  0.45593999997E+02  0.45594000000E+02  0.51100000000E-03 0.  1.
         11   -1    0    0    0    0 -0.00000000000E+00 -0.00000000000E+00 -0.45593999997E+02  0.45594000000E+02  0.51100000000E-03 0. -1.
    9900012    2    1    2    0    0  0.16124395151E+02 -0.61208231298E+01  0.36819901042E+02  0.50528859484E+02  0.29999998886E+02 0.  0.
         12    1    1    2    0    0 -0.16124395151E+02  0.61208231298E+01 -0.36819901042E+02  0.40659140516E+02  0.00000000000E+00 0. -1.
         11    1    3    3    0    0  0.56407313105E+01  0.10673268138E+02  0.63518533568E+01  0.13641207564E+02  0.51100000000E-03 0. -1.
        -11    1    3    3    0    0  0.32142886675E+01 -0.50067807854E+01  0.45078647872E+01  0.74646065316E+01  0.51100000000E-03 0.  1.
        -12    1    3    3    0    0  0.72693751733E+01 -0.11787310482E+02  0.25960182898E+02  0.29423045388E+02  0.00000000000E+00 0.  1.
</event>
<event>
 7    1  0.4871930E-013  0.5052886E+02  0.7816164E-02  0.1300439E+00
        -11   -1    0    0    0    0  0.00000000000E+00  0.00000000000E+00  0.45593999997E+02  0.45594000000E+02  0.51100000000E-03 0.  1.
         11   -1    0    0    0    0 -0.00000000000E+00 -0.00000000000E+00 -0.45593999997E+02  0.45594000000E+02  0.51100000000E-03 0. -1.
    9900012    2    1    2    0    0 -0.19378261177E+02 -0.34571629227E+02  0.90802534811E+01  0.50528861335E+02  0.30000004515E+02 0.  0.
         12    1    1    2    0    0  0.19378261177E+02  0.34571629227E+02 -0.90802534811E+01  0.40659138665E+02  0.00000000000E+00 0. -1.
         11    1    3    3    0    0 -0.33453731334E+01 -0.10873217019E+02 -0.54950052303E+01  0.12633821769E+02  0.51100000000E-03 0. -1.
        -11    1    3    3    0    0 -0.37051092644E+01 -0.11755782144E+02 -0.36548816304E+01  0.12856298397E+02  0.51100000000E-03 0.  1.
        -12    1    3    3    0    0 -0.12327778779E+02 -0.11942630064E+02  0.18230140342E+02  0.25038741169E+02  0.00000000000E+00 0.  1.
</event>
<event>
 7    1  0.4871930E-013  0.5052886E+02  0.7816164E-02  0.1300439E+00
        -11   -1    0    0    0    0  0.00000000000E+00  0.00000000000E+00  0.45593999997E+02  0.45594000000E+02  0.51100000000E-03 0.  1.
         11   -1    0    0    0    0 -0.00000000000E+00 -0.00000000000E+00 -0.45593999997E+02  0.45594000000E+02  0.51100000000E-03 0. -1.
    9900012    2    1    2    0    0  0.13936698515E+02  0.38137771125E+02 -0.21082018720E+01  0.50528859982E+02  0.30000000401E+02 0.  0.
         12    1    1    2    0    0 -0.13936698515E+02 -0.38137771125E+02  0.21082018720E+01  0.40659140018E+02  0.00000000000E+00 0. -1.
         11    1    3    3    0    0  0.13838071301E+02  0.19640297835E+02 -0.10331342976E+01  0.24047887290E+02  0.51100000000E-03 0. -1.
        -11    1    3    3    0    0  0.29325033726E+01  0.15398442330E+02  0.71630350884E+01  0.17234287748E+02  0.51100000000E-03 0.  1.
         12    1    3    3    0    0 -0.28338761586E+01  0.30990309592E+01 -0.82381026629E+01  0.92466849439E+01  0.00000000000E+00 0. -1.
</event>
<event>
 7    1  0.4871930E-013  0.5052886E+02  0.7816164E-02  0.1300439E+00
        -11   -1    0    0    0    0  0.00000000000E+00  0.00000000000E+00  0.45593999997E+02  0.45594000000E+02  0.51100000000E-03 0. -1.
         11   -1    0    0    0    0 -0.00000000000E+00 -0.00000000000E+00 -0.45593999997E+02  0.45594000000E+02  0.51100000000E-03 0.  1.
    9900012    2    1    2    0    0  0.13087656852E+02  0.35694530295E+02 -0.14414558362E+02  0.50528858991E+02  0.29999997388E+02 0.  0.
         12    1    1    2    0    0 -0.13087656852E+02 -0.35694530295E+02  0.14414558362E+02  0.40659141009E+02  0.00000000000E+00 0. -1.
         11    1    3    3    0    0 -0.30142493732E+01 -0.10350981007E+01 -0.72558276091E+01  0.79249076913E+01  0.51100000000E-03 0. -1.
        -11    1    3    3    0    0  0.14599815890E+02  0.19225100225E+02 -0.65993213677E+01  0.25026189192E+02  0.51100000000E-03 0.  1.
        -12    1    3    3    0    0  0.15020903352E+01  0.17504528171E+02 -0.55940938524E+00  0.17577762108E+02  0.00000000000E+00 0.  1.
</event>
<event>
 7    1  0.4871930E-013  0.5052886E+02  0.7816164E-02  0.1300439E+00
        -11   -1    0    0    0    0  0.00000000000E+00  0.00000000000E+00  0.45593999997E+02  0.45594000000E+02  0.51100000000E-03 0. -1.
         11   -1    0    0    0    0 -0.00000000000E+00 -0.00000000000E+00 -0.45593999997E+02  0.45594000000E+02  0.51100000000E-03 0.  1.
    9900012    2    1    2    0    0  0.12188774272E+02  0.28005331195E+02 -0.26838423238E+02  0.50528858894E+02  0.29999997094E+02 0.  0.
         12    1    1    2    0    0 -0.12188774272E+02 -0.28005331195E+02  0.26838423238E+02  0.40659141106E+02  0.00000000000E+00 0. -1.
         11    1    3    3    0    0  0.88181432314E+01  0.43527708764E+00 -0.10016959113E+02  0.13352474914E+02  0.51100000000E-03 0. -1.
        -11    1    3    3    0    0  0.10176659379E+02  0.15212328742E+02 -0.55702939275E+01  0.19131322918E+02  0.51100000000E-03 0.  1.
         12    1    3    3    0    0 -0.68060283386E+01  0.12357725365E+02 -0.11251170198E+02  0.18045061062E+02  0.00000000000E+00 0. -1.
</event>
<event>
 7    1  0.4871930E-013  0.5052888E+02  0.7816164E-02  0.1300439E+00
        -11   -1    0    0    0    0  0.00000000000E+00  0.00000000000E+00  0.45593999997E+02  0.45594000000E+02  0.51100000000E-03 0.  1.
         11   -1    0    0    0    0 -0.00000000000E+00 -0.00000000000E+00 -0.45593999997E+02  0.45594000000E+02  0.51100000000E-03 0. -1.
    9900012    2    1    2    0    0 -0.23307572164E+02  0.30218659365E+02  0.14026898731E+02  0.50528878243E+02  0.30000055909E+02 0.  0.
         12    1    1    2    0    0  0.23307572164E+02 -0.30218659365E+02 -0.14026898731E+02  0.40659121757E+02  0.00000000000E+00 0. -1.
         11    1    3    3    0    0 -0.52037799027E+01 -0.48009283368E+01 -0.51326573783E+00  0.70987097525E+01  0.51100000000E-03 0. -1.
        -11    1    3    3    0    0 -0.55406444211E+01  0.63097238821E+01 -0.98921287154E+00  0.84551699235E+01  0.51100000000E-03 0.  1.
        -12    1    3    3    0    0 -0.12563147840E+02  0.28709863820E+02  0.15529377341E+02  0.34974998567E+02  0.00000000000E+00 0.  1.
</event>
<event>
 7    1  0.4871930E-013  0.5052886E+02  0.7816164E-02  0.1300439E+00
        -11   -1    0    0    0    0  0.00000000000E+00  0.00000000000E+00  0.45593999997E+02  0.45594000000E+02  0.51100000000E-03 0.  1.
         11   -1    0    0    0    0 -0.00000000000E+00 -0.00000000000E+00 -0.45593999997E+02  0.45594000000E+02  0.51100000000E-03 0. -1.
    9900012    2    1    2    0    0  0.18811137189E+02 -0.46980814080E+00  0.36042838135E+02  0.50528858557E+02  0.29999996071E+02 0.  0.
         12    1    1    2    0    0 -0.18811137189E+02  0.46980814080E+00 -0.36042838135E+02  0.40659141443E+02  0.00000000000E+00 0. -1.
         11    1    3    3    0    0  0.69458594600E+01  0.92396409127E+01  0.77096793275E+01  0.13894426344E+02  0.51100000000E-03 0. -1.
        -11    1    3    3    0    0  0.27094486153E+00 -0.50439340207E+01 -0.62953558440E+00  0.50902845535E+01  0.51100000000E-03 0.  1.
         12    1    3    3    0    0  0.11594332868E+02 -0.46655150329E+01  0.28962694392E+02  0.31544147660E+02  0.00000000000E+00 0. -1.
</event>
<event>
 7    1  0.4871930E-013  0.5052887E+02  0.7816164E-02  0.1300439E+00
        -11   -1    0    0    0    0  0.00000000000E+00  0.00000000000E+00  0.45593999997E+02  0.45594000000E+02  0.51100000000E-03 0.  1.
         11   -1    0    0    0    0 -0.00000000000E+00 -0.00000000000E+00 -0.45593999997E+02  0.45594000000E+02  0.51100000000E-03 0. -1.
    9900012    2    1    2    0    0  0.32423341814E+02 -0.15848436147E+02  0.18727487317E+02  0.50528870596E+02  0.30000032662E+02 0.  0.
         12    1    1    2    0    0 -0.32423341814E+02  0.15848436147E+02 -0.18727487317E+02  0.40659129404E+02  0.00000000000E+00 0. -1.
         11    1    3    3    0    0  0.61452537747E+01  0.57038965123E+01  0.29227607414E+01  0.88792516571E+01  0.51100000000E-03 0.  1.
        -11    1    3    3    0    0  0.11302184008E+02  0.10022113693E+01  0.61491939804E+01  0.12905672313E+02  0.51100000000E-03 0. -1.
         12    1    3    3    0    0  0.14975904032E+02 -0.22554544029E+02  0.96555325949E+01  0.28743946626E+02  0.00000000000E+00 0. -1.
</event>
<event>
 7    1  0.4871930E-013  0.5052885E+02  0.7816164E-02  0.1300439E+00
        -11   -1    0    0    0    0  0.00000000000E+00  0.00000000000E+00  0.45593999997E+02  0.45594000000E+02  0.51100000000E-03 0.  1.
         11   -1    0    0    0    0 -0.00000000000E+00 -0.00000000000E+00 -0.45593999997E+02  0.45594000000E+02  0.51100000000E-03 0. -1.
    9900012    2    1    2    0    0 -0.69960085323E+01 -0.39057251842E+02  0.88742983475E+01  0.50528853084E+02  0.29999979433E+02 0.  0.
         12    1    1    2    0    0  0.69960085323E+01  0.39057251842E+02 -0.88742983475E+01  0.40659146916E+02  0.00000000000E+00 0. -1.
         11    1    3    3    0    0  0.10944418384E+01  0.11654430052E+01 -0.18618470806E+01  0.24540853996E+01  0.51100000000E-03 0. -1.
        -11    1    3    3    0    0 -0.80910663071E+01 -0.16529787879E+02  0.15316033993E+02  0.23943269176E+02  0.51100000000E-03 0.  1.
        -12    1    3    3    0    0  0.61593634143E-03 -0.23692906968E+02 -0.45798885649E+01  0.24131498508E+02  0.00000000000E+00 0.  1.
</event>
<event>
 7    1  0.4871930E-013  0.5052885E+02  0.7816164E-02  0.1300439E+00
        -11   -1    0    0    0    0  0.00000000000E+00  0.00000000000E+00  0.45593999997E+02  0.45594000000E+02  0.51100000000E-03 0.  1.
         11   -1    0    0    0    0 -0.00000000000E+00 -0.00000000000E+00 -0.45593999997E+02  0.45594000000E+02  0.51100000000E-03 0. -1.
    9900012    2    1    2    0    0  0.35966797230E+02 -0.14828419086E+02 -0.11818359034E+02  0.50528854340E+02  0.29999983251E+02 0.  0.
         12    1    1    2    0    0 -0.35966797230E+02  0.14828419086E+02  0.11818359034E+02  0.40659145660E+02  0.00000000000E+00 0. -1.
         11    1    3    3    0    0 -0.96700468330E+00 -0.14064942998E+01  0.32521557970E+00  0.17375527927E+01  0.51100000000E-03 0. -1.
        -11    1    3    3    0    0  0.31054082045E+02  0.14378350012E+01 -0.59459155564E+01  0.31650865600E+02  0.51100000000E-03 0.  1.
         12    1    3    3    0    0  0.58797198681E+01 -0.14859759788E+02 -0.61976590576E+01  0.17140435947E+02  0.00000000000E+00 0. -1.
</event>
<event>
 7    1  0.4871930E-013  0.5052885E+02  0.7816164E-02  0.1300439E+00
        -11   -1    0    0    0    0  0.00000000000E+00  0.00000000000E+00  0.45593999997E+02  0.45594000000E+02  0.51100000000E-03 0.  1.
         11   -1    0    0    0    0 -0.00000000000E+00 -0.00000000000E+00 -0.45593999997E+02  0.45594000000E+02  0.51100000000E-03 0. -1.
    9900012    2    1    2    0    0  0.17027073011E+02  0.29679211418E+02  0.21963372029E+02  0.50528849534E+02  0.29999968645E+02 0.  0.
         12    1    1    2    0    0 -0.17027073011E+02 -0.29679211418E+02 -0.21963372029E+02  0.40659150466E+02  0.00000000000E+00 0. -1.
         11    1    3    3    0    0 -0.33455986106E+01 -0.18510679015E+01  0.90831728970E+01  0.98551262080E+01  0.51100000000E-03 0. -1.
        -11    1    3    3    0    0  0.70798579570E+01  0.14327057658E+02  0.12801779408E+01  0.16032087376E+02  0.51100000000E-03 0.  1.
        -12    1    3    3    0    0  0.13292813664E+02  0.17203221662E+02  0.11600021191E+02  0.24641635950E+02  0.00000000000E+00 0.  1.
</event>
<event>
 7    1  0.4871930E-013  0.5052884E+02  0.7816164E-02  0.1300439E+00
        -11   -1    0    0    0    0  0.00000000000E+00  0.00000000000E+00  0.45593999997E+02  0.45594000000E+02  0.51100000000E-03 0.  1.
         11   -1    0    0    0    0 -0.00000000000E+00 -0.00000000000E+00 -0.45593999997E+02  0.45594000000E+02  0.51100000000E-03 0. -1.
    9900012    2    1    2    0    0  0.35806805414E+02 -0.11434693045E+02  0.15501227721E+02  0.50528836459E+02  0.29999928902E+02 0.  0.
         12    1    1    2    0    0 -0.35806805414E+02  0.11434693045E+02 -0.15501227721E+02  0.40659163541E+02  0.00000000000E+00 0. -1.
         11    1    3    3    0    0  0.20512318053E+02 -0.82478565739E+01 -0.51681534296E+01  0.22704451988E+02  0.51100000000E-03 0. -1.
        -11    1    3    3    0    0  0.10274302596E+02 -0.15224524299E+01  0.54861564853E+01  0.11746364053E+02  0.51100000000E-03 0.  1.
         12    1    3    3    0    0  0.50201847655E+01 -0.16643840409E+01  0.15183224665E+02  0.16078020418E+02  0.00000000000E+00 0. -1.
</event>
<event>
 7    1  0.4871930E-013  0.5052882E+02  0.7816164E-02  0.1300439E+00
        -11   -1    0    0    0    0  0.00000000000E+00  0.00000000000E+00  0.45593999997E+02  0.45594000000E+02  0.51100000000E-03 0. -1.
         11   -1    0    0    0    0 -0.00000000000E+00 -0.00000000000E+00 -0.45593999997E+02  0.45594000000E+02  0.51100000000E-03 0.  1.
    9900012    2    1    2    0    0 -0.24292072121E+02 -0.31527538505E+02 -0.83113350611E+01  0.50528822160E+02  0.29999885438E+02 0.  0.
         12    1    1    2    0    0  0.24292072121E+02  0.31527538505E+02  0.83113350611E+01  0.40659177840E+02  0.00000000000E+00 0. -1.
         11    1    3    3    0    0 -0.11223324778E+02 -0.18939080187E+02 -0.16090588860E+01  0.22073532752E+02  0.51100000000E-03 0. -1.
        -11    1    3    3    0    0 -0.57402731351E+01 -0.42018475250E+01  0.75460462178E+01  0.10370586872E+02  0.51100000000E-03 0.  1.
         12    1    3    3    0    0 -0.73284742078E+01 -0.83866107932E+01 -0.14248322393E+02  0.18084702536E+02  0.00000000000E+00 0. -1.
</event>
<event>
 7    1  0.4871930E-013  0.5052887E+02  0.7816164E-02  0.1300439E+00
        -11   -1    0    0    0    0  0.00000000000E+00  0.00000000000E+00  0.45593999997E+02  0.45594000000E+02  0.51100000000E-03 0.  1.
         11   -1    0    0    0    0 -0.00000000000E+00 -0.00000000000E+00 -0.45593999997E+02  0.45594000000E+02  0.51100000000E-03 0. -1.
    9900012    2    1    2    0    0 -0.20549840847E+02  0.34535359938E+02  0.61788228516E+01  0.50528869455E+02  0.30000029194E+02 0.  0.
         12    1    1    2    0    0  0.20549840847E+02 -0.34535359938E+02 -0.61788228516E+01  0.40659130545E+02  0.00000000000E+00 0. -1.
         11    1    3    3    0    0 -0.80996648959E+01  0.89700455413E+00 -0.19155476763E+01  0.83712909254E+01  0.51100000000E-03 0. -1.
        -11    1    3    3    0    0  0.37160211487E+01  0.11300000476E+02 -0.32646458611E+01  0.12335182885E+02  0.51100000000E-03 0.  1.
        -12    1    3    3    0    0 -0.16166197100E+02  0.22338354908E+02  0.11359016389E+02  0.29822395645E+02  0.00000000000E+00 0.  1.
</event>
<event>
 7    1  0.4871930E-013  0.5052886E+02  0.7816164E-02  0.1300439E+00
        -11   -1    0    0    0    0  0.00000000000E+00  0.00000000000E+00  0.45593999997E+02  0.45594000000E+02  0.51100000000E-03 0.  1.
         11   -1    0    0    0    0 -0.00000000000E+00 -0.00000000000E+00 -0.45593999997E+02  0.45594000000E+02  0.51100000000E-03 0. -1.
    9900012    2    1    2    0    0 -0.50247529847E+01  0.39386940258E+02 -0.87513732377E+01  0.50528859097E+02  0.29999997712E+02 0.  0.
         12    1    1    2    0    0  0.50247529847E+01 -0.39386940258E+02  0.87513732377E+01  0.40659140903E+02  0.00000000000E+00 0. -1.
         11    1    3    3    0    0 -0.10079967745E+02  0.83517507274E+01 -0.11962677912E+02  0.17733108950E+02  0.51100000000E-03 0. -1.
        -11    1    3    3    0    0  0.59021154280E+01  0.12461054860E+02  0.34008160829E+01  0.14201352226E+02  0.51100000000E-03 0.  1.
        -12    1    3    3    0    0 -0.84690066756E+00  0.18574134670E+02 -0.18951140869E+00  0.18594397921E+02  0.00000000000E+00 0.  1.
</event>
<event>
 7    1  0.4871930E-013  0.5052887E+02  0.7816164E-02  0.1300439E+00
        -11   -1    0    0    0    0  0.00000000000E+00  0.00000000000E+00  0.45593999997E+02  0.45594000000E+02  0.51100000000E-03 0. -1.
         11   -1    0    0    0    0 -0.00000000000E+00 -0.00000000000E+00 -0.45593999997E+02  0.45594000000E+02  0.51100000000E-03 0.  1.
    9900012    2    1    2    0    0  0.18568712237E+02  0.16598987607E+02 -0.32137847340E+02  0.50528871931E+02  0.30000036722E+02 0.  0.
         12    1    1    2    0    0 -0.18568712237E+02 -0.16598987607E+02  0.32137847340E+02  0.40659128069E+02  0.00000000000E+00 0. -1.
         11    1    3    3    0    0 -0.35700050466E+01  0.76205284248E+00 -0.20180474316E+02  0.20507979043E+02  0.51100000000E-03 0. -1.
        -11    1    3    3    0    0  0.43302376410E+01  0.12626339498E+01 -0.16064158240E+01  0.47880867347E+01  0.51100000000E-03 0.  1.
         12    1    3    3    0    0  0.17808479642E+02  0.14574300815E+02 -0.10350957200E+02  0.25232806153E+02  0.00000000000E+00 0. -1.
</event>
<event>
 7    1  0.4871930E-013  0.5052884E+02  0.7816164E-02  0.1300439E+00
        -11   -1    0    0    0    0  0.00000000000E+00  0.00000000000E+00  0.45593999997E+02  0.45594000000E+02  0.51100000000E-03 0.  1.
         11   -1    0    0    0    0 -0.00000000000E+00 -0.00000000000E+00 -0.45593999997E+02  0.45594000000E+02  0.51100000000E-03 0. -1.
    9900012    2    1    2    0    0  0.85071434481E+01 -0.22641288972E+02  0.32682833225E+02  0.50528843054E+02  0.29999948946E+02 0.  0.
         12    1    1    2    0    0 -0.85071434481E+01  0.22641288972E+02 -0.32682833225E+02  0.40659156946E+02  0.00000000000E+00 0. -1.
         11    1    3    3    0    0  0.49194513942E+01  0.35401064233E+01  0.12991030771E+02  0.14335279427E+02  0.51100000000E-03 0. -1.
        -11    1    3    3    0    0  0.94373028164E+01 -0.14547473946E+02  0.11591168762E+02  0.20857777355E+02  0.51100000000E-03 0.  1.
         12    1    3    3    0    0 -0.58496107626E+01 -0.11633921449E+02  0.81006336922E+01  0.15335786272E+02  0.00000000000E+00 0. -1.
</event>
<event>
 7    1  0.4871930E-013  0.5052884E+02  0.7816164E-02  0.1300439E+00
        -11   -1    0    0    0    0  0.00000000000E+00  0.00000000000E+00  0.45593999997E+02  0.45594000000E+02  0.51100000000E-03 0.  1.
         11   -1    0    0    0    0 -0.00000000000E+00 -0.00000000000E+00 -0.45593999997E+02  0.45594000000E+02  0.51100000000E-03 0. -1.
    9900012    2    1    2    0    0 -0.17524077097E+02 -0.31588433722E+02  0.18661326735E+02  0.50528836966E+02  0.29999930441E+02 0.  0.
         12    1    1    2    0    0  0.17524077097E+02  0.31588433722E+02 -0.18661326735E+02  0.40659163034E+02  0.00000000000E+00 0. -1.
         11    1    3    3    0    0 -0.61570545856E+00 -0.83740805846E+01  0.92972534309E+01  0.12527698930E+02  0.51100000000E-03 0. -1.
        -11    1    3    3    0    0 -0.62478928393E+01 -0.12706992916E+02 -0.70238028579E+01  0.15806253216E+02  0.51100000000E-03 0.  1.
         12    1    3    3    0    0 -0.10660478799E+02 -0.10507360222E+02  0.16387876162E+02  0.22194884820E+02  0.00000000000E+00 0. -1.
</event>
<event>
 7    1  0.4871930E-013  0.5052886E+02  0.7816164E-02  0.1300439E+00
        -11   -1    0    0    0    0  0.00000000000E+00  0.00000000000E+00  0.45593999997E+02  0.45594000000E+02  0.51100000000E-03 0.  1.
         11   -1    0    0    0    0 -0.00000000000E+00 -0.00000000000E+00 -0.45593999997E+02  0.45594000000E+02  0.51100000000E-03 0. -1.
    9900012    2    1    2    0    0 -0.26649205952E+02  0.30111675956E+02  0.60226744376E+01  0.50528858173E+02  0.29999994902E+02 0.  0.
         12    1    1    2    0    0  0.26649205952E+02 -0.30111675956E+02 -0.60226744376E+01  0.40659141827E+02  0.00000000000E+00 0. -1.
         11    1    3    3    0    0 -0.18518038622E+02  0.84304760067E+01 -0.72454356741E+01  0.21598310547E+02  0.51100000000E-03 0. -1.
        -11    1    3    3    0    0  0.16853673530E+01  0.59160846706E+00 -0.55583839109E+00  0.18706737479E+01  0.51100000000E-03 0.  1.
        -12    1    3    3    0    0 -0.98165346822E+01  0.21089591483E+02  0.13823948503E+02  0.27059873878E+02  0.00000000000E+00 0.  1.
</event>
<event>
 7    1  0.4871930E-013  0.5052886E+02  0.7816164E-02  0.1300439E+00
        -11   -1    0    0    0    0  0.00000000000E+00  0.00000000000E+00  0.45593999997E+02  0.45594000000E+02  0.51100000000E-03 0. -1.
         11   -1    0    0    0    0 -0.00000000000E+00 -0.00000000000E+00 -0.45593999997E+02  0.45594000000E+02  0.51100000000E-03 0.  1.
    9900012    2    1    2    0    0 -0.13796234920E+02  0.31052483089E+01 -0.38120686967E+02  0.50528862775E+02  0.30000008890E+02 0.  0.
         12    1    1    2    0    0  0.13796234920E+02 -0.31052483089E+01  0.38120686967E+02  0.40659137225E+02  0.00000000000E+00 0. -1.
         11    1    3    3    0    0  0.37702312946E+00 -0.54610927330E+01 -0.15495421835E+02  0.16433921577E+02  0.51100000000E-03 0. -1.
        -11    1    3    3    0    0 -0.14650354791E+02  0.67349389670E+01 -0.25785179671E+02  0.30411639044E+02  0.51100000000E-03 0.  1.
         12    1    3    3    0    0  0.47709674166E+00  0.18314020749E+01  0.31599145393E+01  0.36833021539E+01  0.00000000000E+00 0. -1.
</event>
<event>
 7    1  0.4871930E-013  0.5052886E+02  0.7816164E-02  0.1300439E+00
        -11   -1    0    0    0    0  0.00000000000E+00  0.00000000000E+00  0.45593999997E+02  0.45594000000E+02  0.51100000000E-03 0.  1.
         11   -1    0    0    0    0 -0.00000000000E+00 -0.00000000000E+00 -0.45593999997E+02  0.45594000000E+02  0.51100000000E-03 0. -1.
    9900012    2    1    2    0    0 -0.30837514344E+02  0.26599932704E+01  0.26365460960E+02  0.50528863428E+02  0.30000010875E+02 0.  0.
         12    1    1    2    0    0  0.30837514344E+02 -0.26599932704E+01 -0.26365460960E+02  0.40659136572E+02  0.00000000000E+00 0. -1.
         11    1    3    3    0    0 -0.15489865952E+02 -0.14373271516E+01 -0.18330129428E+01  0.15664028641E+02  0.51100000000E-03 0. -1.
        -11    1    3    3    0    0 -0.11000512684E+02 -0.11679614985E+01  0.83069110108E+01  0.13834022704E+02  0.51100000000E-03 0.  1.
         12    1    3    3    0    0 -0.43471357085E+01  0.52652819205E+01  0.19891562892E+02  0.21030812083E+02  0.00000000000E+00 0. -1.
</event>
<event>
 7    1  0.4871930E-013  0.5052886E+02  0.7816164E-02  0.1300439E+00
        -11   -1    0    0    0    0  0.00000000000E+00  0.00000000000E+00  0.45593999997E+02  0.45594000000E+02  0.51100000000E-03 0.  1.
         11   -1    0    0    0    0 -0.00000000000E+00 -0.00000000000E+00 -0.45593999997E+02  0.45594000000E+02  0.51100000000E-03 0. -1.
    9900012    2    1    2    0    0 -0.37489163370E+02 -0.10274682632E+01  0.15705808863E+02  0.50528862119E+02  0.30000006896E+02 0.  0.
         12    1    1    2    0    0  0.37489163370E+02  0.10274682632E+01 -0.15705808863E+02  0.40659137881E+02  0.00000000000E+00 0. -1.
         11    1    3    3    0    0 -0.16982439976E+02 -0.91304802019E+01  0.35193937833E+01  0.19599874212E+02  0.51100000000E-03 0. -1.
        -11    1    3    3    0    0 -0.17595143816E+02  0.19424793992E+00  0.13782648937E+02  0.22351470425E+02  0.51100000000E-03 0.  1.
         12    1    3    3    0    0 -0.29115795775E+01  0.79087639988E+01 -0.15962338572E+01  0.85775174818E+01  0.00000000000E+00 0. -1.
</event>
<event>
 7    1  0.4871930E-013  0.5052886E+02  0.7816164E-02  0.1300439E+00
        -11   -1    0    0    0    0  0.00000000000E+00  0.00000000000E+00  0.45593999997E+02  0.45594000000E+02  0.51100000000E-03 0.  1.
         11   -1    0    0    0    0 -0.00000000000E+00 -0.00000000000E+00 -0.45593999997E+02  0.45594000000E+02  0.51100000000E-03 0. -1.
    9900012    2    1    2    0    0  0.87082746392E+01 -0.61436754391E+01  0.39237569237E+02  0.50528860379E+02  0.30000001607E+02 0.  0.
         12    1    1    2    0    0 -0.87082746392E+01  0.61436754391E+01 -0.39237569237E+02  0.40659139621E+02  0.00000000000E+00 0. -1.
         11    1    3    3    0    0 -0.33827431927E+01 -0.46077862118E+01  0.28654293830E+00  0.57233515005E+01  0.51100000000E-03 0. -1.
        -11    1    3    3    0    0  0.30062837087E+01 -0.90037881929E+01  0.23820100183E+02  0.25641823581E+02  0.51100000000E-03 0.  1.
        -12    1    3    3    0    0  0.90847341233E+01  0.74678989656E+01  0.15130926116E+02  0.19163685297E+02  0.00000000000E+00 0.  1.
</event>
<event>
 7    1  0.4871930E-013  0.5052886E+02  0.7816164E-02  0.1300439E+00
        -11   -1    0    0    0    0  0.00000000000E+00  0.00000000000E+00  0.45593999997E+02  0.45594000000E+02  0.51100000000E-03 0.  1.
         11   -1    0    0    0    0 -0.00000000000E+00 -0.00000000000E+00 -0.45593999997E+02  0.45594000000E+02  0.51100000000E-03 0. -1.
    9900012    2    1    2    0    0  0.16713652220E+01  0.33885257873E+02  0.22408954888E+02  0.50528862995E+02  0.30000009560E+02 0.  0.
         12    1    1    2    0    0 -0.16713652220E+01 -0.33885257873E+02 -0.22408954888E+02  0.40659137005E+02  0.00000000000E+00 0. -1.
         11    1    3    3    0    0 -0.12245526653E+02  0.19726039936E+02  0.18860252516E+02  0.29912851750E+02  0.51100000000E-03 0. -1.
        -11    1    3    3    0    0  0.28837920125E+01  0.50858935800E+01  0.22785118480E+01  0.62748853679E+01  0.51100000000E-03 0.  1.
         12    1    3    3    0    0  0.11033099862E+02  0.90733243570E+01  0.12701905238E+01  0.14341125877E+02  0.00000000000E+00 0. -1.
</event>
<event>
 7    1  0.4871930E-013  0.5052884E+02  0.7816164E-02  0.1300439E+00
        -11   -1    0    0    0    0  0.00000000000E+00  0.00000000000E+00  0.45593999997E+02  0.45594000000E+02  0.51100000000E-03 0. -1.
         11   -1    0    0    0    0 -0.00000000000E+00 -0.00000000000E+00 -0.45593999997E+02  0.45594000000E+02  0.51100000000E-03 0.  1.
    9900012    2    1    2    0    0 -0.20737192292E+02 -0.33240905685E+02 -0.10870987372E+02  0.50528839638E+02  0.29999938562E+02 0.  0.
         12    1    1    2    0    0  0.20737192292E+02  0.33240905685E+02  0.10870987372E+02  0.40659160362E+02  0.00000000000E+00 0. -1.
         11    1    3    3    0    0  0.34332347216E+01 -0.88537583666E+01 -0.65473230684E+01  0.11534451764E+02  0.51100000000E-03 0. -1.
        -11    1    3    3    0    0 -0.88113194611E+01 -0.21175169272E+02 -0.10134339564E+01  0.22957660878E+02  0.51100000000E-03 0.  1.
         12    1    3    3    0    0 -0.15359107553E+02 -0.32119780465E+01 -0.33102303472E+01  0.16036726996E+02  0.00000000000E+00 0. -1.
</event>
<event>
 7    1  0.4871930E-013  0.5052886E+02  0.7816164E-02  0.1300439E+00
        -11   -1    0    0    0    0  0.00000000000E+00  0.00000000000E+00  0.45593999997E+02  0.45594000000E+02  0.51100000000E-03 0.  1.
         11   -1    0    0    0    0 -0.00000000000E+00 -0.00000000000E+00 -0.45593999997E+02  0.45594000000E+02  0.51100000000E-03 0. -1.
    9900012    2    1    2    0    0 -0.27220072692E+02  0.29303073141E+02  0.73187133586E+01  0.50528855665E+02  0.29999987280E+02 0.  0.
         12    1    1    2    0    0  0.27220072692E+02 -0.29303073141E+02 -0.73187133586E+01  0.40659144335E+02  0.00000000000E+00 0. -1.
         11    1    3    3    0    0 -0.58044680010E+01 -0.50309037404E+01  0.15886726747E+01  0.78438333963E+01  0.51100000000E-03 0. -1.
        -11    1    3    3    0    0 -0.14172173528E+02  0.28237865735E+02  0.86860222503E+01  0.32766973412E+02  0.51100000000E-03 0.  1.
        -12    1    3    3    0    0 -0.72434311623E+01  0.60961111461E+01 -0.29559815663E+01  0.99180488569E+01  0.00000000000E+00 0.  1.
</event>
<event>
 7    1  0.4871930E-013  0.5052886E+02  0.7816164E-02  0.1300439E+00
        -11   -1    0    0    0    0  0.00000000000E+00  0.00000000000E+00  0.45593999997E+02  0.45594000000E+02  0.51100000000E-03 0.  1.
         11   -1    0    0    0    0 -0.00000000000E+00 -0.00000000000E+00 -0.45593999997E+02  0.45594000000E+02  0.51100000000E-03 0. -1.
    9900012    2    1    2    0    0 -0.19751074829E+02 -0.14946661696E+01  0.35508122138E+02  0.50528859310E+02  0.29999998360E+02 0.  0.
         12    1    1    2    0    0  0.19751074829E+02  0.14946661696E+01 -0.35508122138E+02  0.40659140690E+02  0.00000000000E+00 0. -1.
         11    1    3    3    0    0 -0.14238405255E+02  0.74318873162E+01  0.12343110729E+02  0.20256295713E+02  0.51100000000E-03 0. -1.
        -11    1    3    3    0    0 -0.73615990414E+01 -0.45805585392E+01  0.24270975117E+01  0.90036359084E+01  0.51100000000E-03 0.  1.
        -12    1    3    3    0    0  0.18489294669E+01 -0.43459949465E+01  0.20737913897E+02  0.21268927689E+02  0.00000000000E+00 0.  1.
</event>
<event>
 7    1  0.4871930E-013  0.5052886E+02  0.7816164E-02  0.1300439E+00
        -11   -1    0    0    0    0  0.00000000000E+00  0.00000000000E+00  0.45593999997E+02  0.45594000000E+02  0.51100000000E-03 0.  1.
         11   -1    0    0    0    0 -0.00000000000E+00 -0.00000000000E+00 -0.45593999997E+02  0.45594000000E+02  0.51100000000E-03 0. -1.
    9900012    2    1    2    0    0  0.24892755961E+02 -0.17769705750E+02  0.26790925822E+02  0.50528862673E+02  0.30000008581E+02 0.  0.
         12    1    1    2    0    0 -0.24892755961E+02  0.17769705750E+02 -0.26790925822E+02  0.40659137327E+02  0.00000000000E+00 0. -1.
         11    1    3    3    0    0 -0.20115231581E+01 -0.12801347163E+02  0.32024062071E+01  0.13348262822E+02  0.51100000000E-03 0. -1.
        -11    1    3    3    0    0  0.13067966664E+02 -0.48172121541E+01  0.16631580279E+02  0.21693011513E+02  0.51100000000E-03 0.  1.
        -12    1    3    3    0    0  0.13836312455E+02 -0.15114643299E+00  0.69569393354E+01  0.15487588338E+02  0.00000000000E+00 0.  1.
</event>
<event>
 7    1  0.4871930E-013  0.5052894E+02  0.7816164E-02  0.1300438E+00
        -11   -1    0    0    0    0  0.00000000000E+00  0.00000000000E+00  0.45593999997E+02  0.45594000000E+02  0.51100000000E-03 0. -1.
         11   -1    0    0    0    0 -0.00000000000E+00 -0.00000000000E+00 -0.45593999997E+02  0.45594000000E+02  0.51100000000E-03 0.  1.
    9900012    2    1    2    0    0 -0.34841520610E+02 -0.12583319869E+02 -0.16759692718E+02  0.50528944461E+02  0.30000257181E+02 0.  0.
         12    1    1    2    0    0  0.34841520610E+02  0.12583319869E+02  0.16759692718E+02  0.40659055539E+02  0.00000000000E+00 0. -1.
         11    1    3    3    0    0 -0.46979918586E+01 -0.11655920448E+02 -0.25659999239E+01  0.12826377698E+02  0.51100000000E-03 0. -1.
        -11    1    3    3    0    0 -0.14150288395E+01 -0.56392971992E+01 -0.22002554104E+01  0.62165186117E+01  0.51100000000E-03 0.  1.
        -12    1    3    3    0    0 -0.28728499912E+02  0.47118977776E+01 -0.11993437384E+02  0.31486048151E+02  0.00000000000E+00 0.  1.
</event>
<event>
 7    1  0.4871930E-013  0.5052890E+02  0.7816164E-02  0.1300439E+00
        -11   -1    0    0    0    0  0.00000000000E+00  0.00000000000E+00  0.45593999997E+02  0.45594000000E+02  0.51100000000E-03 0.  1.
         11   -1    0    0    0    0 -0.00000000000E+00 -0.00000000000E+00 -0.45593999997E+02  0.45594000000E+02  0.51100000000E-03 0. -1.
    9900012    2    1    2    0    0 -0.22747313206E+02 -0.29203829236E+02  0.16818409154E+02  0.50528895403E+02  0.30000108068E+02 0.  0.
         12    1    1    2    0    0  0.22747313206E+02  0.29203829236E+02 -0.16818409154E+02  0.40659104597E+02  0.00000000000E+00 0. -1.
         11    1    3    3    0    0 -0.13862249927E+02 -0.60371333484E+01  0.10323191695E+02  0.18307846382E+02  0.51100000000E-03 0. -1.
        -11    1    3    3    0    0 -0.86586914419E+01 -0.24124485534E+02  0.10793736715E+02  0.27811301521E+02  0.51100000000E-03 0.  1.
         12    1    3    3    0    0 -0.22637183633E+00  0.95778964552E+00 -0.42985192570E+01  0.44097475003E+01  0.00000000000E+00 0. -1.
</event>
<event>
 7    1  0.4871930E-013  0.5052887E+02  0.7816164E-02  0.1300439E+00
        -11   -1    0    0    0    0  0.00000000000E+00  0.00000000000E+00  0.45593999997E+02  0.45594000000E+02  0.51100000000E-03 0.  1.
         11   -1    0    0    0    0 -0.00000000000E+00 -0.00000000000E+00 -0.45593999997E+02  0.45594000000E+02  0.51100000000E-03 0. -1.
    9900012    2    1    2    0    0 -0.19967753024E+02 -0.35225090176E+02  0.36941568703E+01  0.50528869000E+02  0.30000027812E+02 0.  0.
         12    1    1    2    0    0  0.19967753024E+02  0.35225090176E+02 -0.36941568703E+01  0.40659131000E+02  0.00000000000E+00 0. -1.
         11    1    3    3    0    0 -0.17892520535E+02 -0.18816854427E+02  0.60736824377E+01  0.26666569337E+02  0.51100000000E-03 0. -1.
        -11    1    3    3    0    0 -0.21014561861E+01 -0.82842678601E+01  0.72897144888E+01  0.11233216355E+02  0.51100000000E-03 0.  1.
         12    1    3    3    0    0  0.26223696888E-01 -0.81239678886E+01 -0.96692400562E+01  0.12629083308E+02  0.00000000000E+00 0. -1.
</event>
<event>
 7    1  0.4871930E-013  0.5052885E+02  0.7816164E-02  0.1300439E+00
        -11   -1    0    0    0    0  0.00000000000E+00  0.00000000000E+00  0.45593999997E+02  0.45594000000E+02  0.51100000000E-03 0. -1.
         11   -1    0    0    0    0 -0.00000000000E+00 -0.00000000000E+00 -0.45593999997E+02  0.45594000000E+02  0.51100000000E-03 0.  1.
    9900012    2    1    2    0    0 -0.75254627132E+01  0.37402260126E+02  0.14057192985E+02  0.50528851875E+02  0.29999975760E+02 0.  0.
         12    1    1    2    0    0  0.75254627132E+01 -0.37402260126E+02 -0.14057192985E+02  0.40659148125E+02  0.00000000000E+00 0. -1.
         11    1    3    3    0    0  0.43851839041E+01  0.69715010587E+01  0.33312509119E+01  0.88841937047E+01  0.51100000000E-03 0. -1.
        -11    1    3    3    0    0  0.46566185003E+01  0.10686266262E+02  0.10769577587E+02  0.15870229492E+02  0.51100000000E-03 0.  1.
         12    1    3    3    0    0 -0.16567265118E+02  0.19744492806E+02 -0.43635513678E-01  0.25774428678E+02  0.00000000000E+00 0. -1.
</event>
<event>
 7    1  0.4871930E-013  0.5052886E+02  0.7816164E-02  0.1300439E+00
        -11   -1    0    0    0    0  0.00000000000E+00  0.00000000000E+00  0.45593999997E+02  0.45594000000E+02  0.51100000000E-03 0.  1.
         11   -1    0    0    0    0 -0.00000000000E+00 -0.00000000000E+00 -0.45593999997E+02  0.45594000000E+02  0.51100000000E-03 0. -1.
    9900012    2    1    2    0    0 -0.29000351762E+02  0.16437618586E+02  0.23279822381E+02  0.50528857889E+02  0.29999994040E+02 0.  0.
         12    1    1    2    0    0  0.29000351762E+02 -0.16437618586E+02 -0.23279822381E+02  0.40659142111E+02  0.00000000000E+00 0. -1.
         11    1    3    3    0    0  0.40826769440E+01 -0.56519199737E-01  0.76582353932E+01  0.86787104485E+01  0.51100000000E-03 0. -1.
        -11    1    3    3    0    0 -0.74015484572E+01  0.84093513584E+01  0.83180109826E+01  0.13953114950E+02  0.51100000000E-03 0.  1.
        -12    1    3    3    0    0 -0.25681480249E+02  0.80847864274E+01  0.73035760050E+01  0.27897032491E+02  0.00000000000E+00 0.  1.
</event>
<event>
 7    1  0.4871930E-013  0.5052886E+02  0.7816164E-02  0.1300439E+00
        -11   -1    0    0    0    0  0.00000000000E+00  0.00000000000E+00  0.45593999997E+02  0.45594000000E+02  0.51100000000E-03 0.  1.
         11   -1    0    0    0    0 -0.00000000000E+00 -0.00000000000E+00 -0.45593999997E+02  0.45594000000E+02  0.51100000000E-03 0. -1.
    9900012    2    1    2    0    0 -0.35264793206E+02 -0.15390653932E+02  0.13141065339E+02  0.50528862447E+02  0.30000007894E+02 0.  0.
         12    1    1    2    0    0  0.35264793206E+02  0.15390653932E+02 -0.13141065339E+02  0.40659137553E+02  0.00000000000E+00 0. -1.
         11    1    3    3    0    0 -0.23922398055E+02 -0.22165507091E+02  0.18124687222E+01  0.32663065938E+02  0.51100000000E-03 0. -1.
        -11    1    3    3    0    0 -0.60866554539E+01  0.15555109775E+01  0.40099098594E+01  0.74529434693E+01  0.51100000000E-03 0.  1.
        -12    1    3    3    0    0 -0.52557396977E+01  0.52193421822E+01  0.73186867571E+01  0.10412853040E+02  0.00000000000E+00 0.  1.
</event>
<event>
 7    1  0.4871930E-013  0.5052876E+02  0.7816164E-02  0.1300439E+00
        -11   -1    0    0    0    0  0.00000000000E+00  0.00000000000E+00  0.45593999997E+02  0.45594000000E+02  0.51100000000E-03 0.  1.
         11   -1    0    0    0    0 -0.00000000000E+00 -0.00000000000E+00 -0.45593999997E+02  0.45594000000E+02  0.51100000000E-03 0. -1.
    9900012    2    1    2    0    0  0.85785769676E+01 -0.22866245685E+02  0.32507174783E+02  0.50528762588E+02  0.29999704362E+02 0.  0.
         12    1    1    2    0    0 -0.85785769676E+01  0.22866245685E+02 -0.32507174783E+02  0.40659237412E+02  0.00000000000E+00 0. -1.
         11    1    3    3    0    0  0.10924514115E+02 -0.18533707621E+02  0.31421708084E+02  0.38081059151E+02  0.51100000000E-03 0. -1.
        -11    1    3    3    0    0 -0.24853960032E+01 -0.59587251344E+01  0.50263759067E+01  0.81821790213E+01  0.51100000000E-03 0.  1.
         12    1    3    3    0    0  0.13945885553E+00  0.16261870698E+01 -0.39409092082E+01  0.42655244163E+01  0.00000000000E+00 0. -1.
</event>
<event>
 7    1  0.4871930E-013  0.5052885E+02  0.7816164E-02  0.1300439E+00
        -11   -1    0    0    0    0  0.00000000000E+00  0.00000000000E+00  0.45593999997E+02  0.45594000000E+02  0.51100000000E-03 0.  1.
         11   -1    0    0    0    0 -0.00000000000E+00 -0.00000000000E+00 -0.45593999997E+02  0.45594000000E+02  0.51100000000E-03 0. -1.
    9900012    2    1    2    0    0 -0.15069460901E+02 -0.24457404339E+02  0.28773480905E+02  0.50528849957E+02  0.29999969928E+02 0.  0.
         12    1    1    2    0    0  0.15069460901E+02  0.24457404339E+02 -0.28773480905E+02  0.40659150043E+02  0.00000000000E+00 0. -1.
         11    1    3    3    0    0  0.36201253172E+01 -0.85866576567E+01  0.53822218514E+01  0.10761241069E+02  0.51100000000E-03 0. -1.
        -11    1    3    3    0    0 -0.39708499499E+01  0.20281020386E+01  0.14121799135E+02  0.14808985728E+02  0.51100000000E-03 0.  1.
        -12    1    3    3    0    0 -0.14718736268E+02 -0.17898848721E+02  0.92694599186E+01  0.24958623160E+02  0.00000000000E+00 0.  1.
</event>
<event>
 7    1  0.4871930E-013  0.5052886E+02  0.7816164E-02  0.1300439E+00
        -11   -1    0    0    0    0  0.00000000000E+00  0.00000000000E+00  0.45593999997E+02  0.45594000000E+02  0.51100000000E-03 0.  1.
         11   -1    0    0    0    0 -0.00000000000E+00 -0.00000000000E+00 -0.45593999997E+02  0.45594000000E+02  0.51100000000E-03 0. -1.
    9900012    2    1    2    0    0  0.20946590597E+02 -0.10722553882E+02  0.33157700580E+02  0.50528856783E+02  0.29999990677E+02 0.  0.
         12    1    1    2    0    0 -0.20946590597E+02  0.10722553882E+02 -0.33157700580E+02  0.40659143217E+02  0.00000000000E+00 0. -1.
         11    1    3    3    0    0 -0.16004876791E+01 -0.81791332440E+01  0.29133423505E+00  0.83393439389E+01  0.51100000000E-03 0. -1.
        -11    1    3    3    0    0  0.33066349862E+01  0.37151116345E+01  0.21730455747E+01  0.54275239953E+01  0.51100000000E-03 0.  1.
        -12    1    3    3    0    0  0.19240443290E+02 -0.62585322722E+01  0.30693320770E+02  0.36761988849E+02  0.00000000000E+00 0.  1.
</event>
<event>
 7    1  0.4871930E-013  0.5052887E+02  0.7816164E-02  0.1300439E+00
        -11   -1    0    0    0    0  0.00000000000E+00  0.00000000000E+00  0.45593999997E+02  0.45594000000E+02  0.51100000000E-03 0.  1.
         11   -1    0    0    0    0 -0.00000000000E+00 -0.00000000000E+00 -0.45593999997E+02  0.45594000000E+02  0.51100000000E-03 0. -1.
    9900012    2    1    2    0    0 -0.50137971959E+01 -0.30161440865E+02  0.26801381707E+02  0.50528871397E+02  0.30000035098E+02 0.  0.
         12    1    1    2    0    0  0.50137971959E+01  0.30161440865E+02 -0.26801381707E+02  0.40659128603E+02  0.00000000000E+00 0. -1.
         11    1    3    3    0    0  0.14023388284E+01 -0.23422331732E+02  0.62761280396E+01  0.24289132578E+02  0.51100000000E-03 0. -1.
        -11    1    3    3    0    0 -0.14977098366E+00 -0.94229572495E+01  0.13363704819E+02  0.16352466524E+02  0.51100000000E-03 0.  1.
         12    1    3    3    0    0 -0.62663650407E+01  0.26838481162E+01  0.71615488481E+01  0.98872722952E+01  0.00000000000E+00 0. -1.
</event>
<event>
 7    1  0.4871930E-013  0.5052886E+02  0.7816164E-02  0.1300439E+00
        -11   -1    0    0    0    0  0.00000000000E+00  0.00000000000E+00  0.45593999997E+02  0.45594000000E+02  0.51100000000E-03 0.  1.
         11   -1    0    0    0    0 -0.00000000000E+00 -0.00000000000E+00 -0.45593999997E+02  0.45594000000E+02  0.51100000000E-03 0. -1.
    9900012    2    1    2    0    0  0.28798667191E+02 -0.12856069628E+02  0.25661728429E+02  0.50528855098E+02  0.29999985555E+02 0.  0.
         12    1    1    2    0    0 -0.28798667191E+02  0.12856069628E+02 -0.25661728429E+02  0.40659144902E+02  0.00000000000E+00 0. -1.
         11    1    3    3    0    0 -0.36258989856E+01 -0.47550121558E+01  0.34637993679E+01  0.69105130329E+01  0.51100000000E-03 0. -1.
        -11    1    3    3    0    0  0.99496633563E+01 -0.10995261118E+02  0.99749507014E+01  0.17871519513E+02  0.51100000000E-03 0.  1.
        -12    1    3    3    0    0  0.22474902820E+02  0.28942036460E+01  0.12222978359E+02  0.25746822551E+02  0.00000000000E+00 0.  1.
</event>
<event>
 7    1  0.4871930E-013  0.5052885E+02  0.7816164E-02  0.1300439E+00
        -11   -1    0    0    0    0  0.00000000000E+00  0.00000000000E+00  0.45593999997E+02  0.45594000000E+02  0.51100000000E-03 0. -1.
         11   -1    0    0    0    0 -0.00000000000E+00 -0.00000000000E+00 -0.45593999997E+02  0.45594000000E+02  0.51100000000E-03 0.  1.
    9900012    2    1    2    0    0 -0.17446419998E+02  0.31693093981E+02  0.18556307011E+02  0.50528852115E+02  0.29999976489E+02 0.  0.
         12    1    1    2    0    0  0.17446419998E+02 -0.31693093981E+02 -0.18556307011E+02  0.40659147885E+02  0.00000000000E+00 0. -1.
         11    1    3    3    0    0 -0.15115640543E+02  0.17802486651E+02  0.20991775732E+02  0.31401684169E+02  0.51100000000E-03 0. -1.
        -11    1    3    3    0    0 -0.27900872521E+01  0.11772292964E+02  0.36745096173E+01  0.12644108893E+02  0.51100000000E-03 0.  1.
         12    1    3    3    0    0  0.45930779730E+00  0.21183143656E+01 -0.61099783379E+01  0.64830590537E+01  0.00000000000E+00 0. -1.
</event>
<event>
 7    1  0.4871930E-013  0.5052883E+02  0.7816164E-02  0.1300439E+00
        -11   -1    0    0    0    0  0.00000000000E+00  0.00000000000E+00  0.45593999997E+02  0.45594000000E+02  0.51100000000E-03 0.  1.
         11   -1    0    0    0    0 -0.00000000000E+00 -0.00000000000E+00 -0.45593999997E+02  0.45594000000E+02  0.51100000000E-03 0. -1.
    9900012    2    1    2    0    0  0.34004357478E+02  0.22005086397E+02 -0.35563501367E+01  0.50528833984E+02  0.29999921378E+02 0.  0.
         12    1    1    2    0    0 -0.34004357478E+02 -0.22005086397E+02  0.35563501367E+01  0.40659166016E+02  0.00000000000E+00 0. -1.
         11    1    3    3    0    0  0.15833579783E+02 -0.17826903245E+01  0.62719958604E+01  0.17123614276E+02  0.51100000000E-03 0. -1.
        -11    1    3    3    0    0  0.28212951555E+00  0.53733167444E+01  0.11187850019E+01  0.54957993086E+01  0.51100000000E-03 0.  1.
         12    1    3    3    0    0  0.17888648179E+02  0.18414459977E+02 -0.10947130999E+02  0.27909420399E+02  0.00000000000E+00 0. -1.
</event>
<event>
 7    1  0.4871930E-013  0.5052886E+02  0.7816164E-02  0.1300439E+00
        -11   -1    0    0    0    0  0.00000000000E+00  0.00000000000E+00  0.45593999997E+02  0.45594000000E+02  0.51100000000E-03 0.  1.
         11   -1    0    0    0    0 -0.00000000000E+00 -0.00000000000E+00 -0.45593999997E+02  0.45594000000E+02  0.51100000000E-03 0. -1.
    9900012    2    1    2    0    0  0.15939523273E+02 -0.61522037825E+01  0.36895093383E+02  0.50528856757E+02  0.29999990597E+02 0.  0.
         12    1    1    2    0    0 -0.15939523273E+02  0.61522037825E+01 -0.36895093383E+02  0.40659143243E+02  0.00000000000E+00 0. -1.
         11    1    3    3    0    0 -0.11145544060E+01  0.63981075854E+00  0.22886375489E+02  0.22922429466E+02  0.51100000000E-03 0. -1.
        -11    1    3    3    0    0  0.10687636911E+02 -0.54193488067E+01  0.16704261144E+02  0.20557900303E+02  0.51100000000E-03 0.  1.
         12    1    3    3    0    0  0.63664407685E+01 -0.13726657343E+01 -0.26955432508E+01  0.70485269875E+01  0.00000000000E+00 0. -1.
</event>
<event>
 7    1  0.4871930E-013  0.5052887E+02  0.7816164E-02  0.1300439E+00
        -11   -1    0    0    0    0  0.00000000000E+00  0.00000000000E+00  0.45593999997E+02  0.45594000000E+02  0.51100000000E-03 0.  1.
         11   -1    0    0    0    0 -0.00000000000E+00 -0.00000000000E+00 -0.45593999997E+02  0.45594000000E+02  0.51100000000E-03 0. -1.
    9900012    2    1    2    0    0 -0.35836260780E+02  0.91484497171E+00  0.19185690196E+02  0.50528865278E+02  0.30000016500E+02 0.  0.
         12    1    1    2    0    0  0.35836260780E+02 -0.91484497171E+00 -0.19185690196E+02  0.40659134722E+02  0.00000000000E+00 0. -1.
         11    1    3    3    0    0 -0.59147899860E+01  0.10483781087E+01 -0.31402113086E+01  0.67782567495E+01  0.51100000000E-03 0. -1.
        -11    1    3    3    0    0 -0.26211903354E+02  0.72943826456E+01  0.10205134384E+02  0.29058848286E+02  0.51100000000E-03 0.  1.
         12    1    3    3    0    0 -0.37095674397E+01 -0.74279157826E+01  0.12120767120E+02  0.14691760243E+02  0.00000000000E+00 0. -1.
</event>
<event>
 7    1  0.4871930E-013  0.5052887E+02  0.7816164E-02  0.1300439E+00
        -11   -1    0    0    0    0  0.00000000000E+00  0.00000000000E+00  0.45593999997E+02  0.45594000000E+02  0.51100000000E-03 0.  1.
         11   -1    0    0    0    0 -0.00000000000E+00 -0.00000000000E+00 -0.45593999997E+02  0.45594000000E+02  0.51100000000E-03 0. -1.
    9900012    2    1    2    0    0 -0.17132346390E+02 -0.11854298317E+02  0.34915943191E+02  0.50528871008E+02  0.30000033916E+02 0.  0.
         12    1    1    2    0    0  0.17132346390E+02  0.11854298317E+02 -0.34915943191E+02  0.40659128992E+02  0.00000000000E+00 0. -1.
         11    1    3    3    0    0 -0.15957230287E+02 -0.13453371804E+02  0.38902963018E+02  0.44148238279E+02  0.51100000000E-03 0.  1.
        -11    1    3    3    0    0 -0.26704175930E+01  0.74054066074E+00 -0.10276651447E+01  0.29556093284E+01  0.51100000000E-03 0. -1.
        -12    1    3    3    0    0  0.14953014899E+01  0.85853282646E+00 -0.29593546818E+01  0.34250234003E+01  0.00000000000E+00 0.  1.
</event>
<event>
 7    1  0.4871930E-013  0.5052884E+02  0.7816164E-02  0.1300439E+00
        -11   -1    0    0    0    0  0.00000000000E+00  0.00000000000E+00  0.45593999997E+02  0.45594000000E+02  0.51100000000E-03 0.  1.
         11   -1    0    0    0    0 -0.00000000000E+00 -0.00000000000E+00 -0.45593999997E+02  0.45594000000E+02  0.51100000000E-03 0. -1.
    9900012    2    1    2    0    0 -0.18688084960E+02  0.76446521333E+01  0.35291384965E+02  0.50528842625E+02  0.29999947643E+02 0.  0.
         12    1    1    2    0    0  0.18688084960E+02 -0.76446521333E+01 -0.35291384965E+02  0.40659157375E+02  0.00000000000E+00 0. -1.
         11    1    3    3    0    0 -0.65867581479E+01 -0.40832310324E+01  0.17551483854E+02  0.19186264470E+02  0.51100000000E-03 0. -1.
        -11    1    3    3    0    0 -0.12493739875E+02  0.57535017571E+01  0.20550127871E+02  0.24728608419E+02  0.51100000000E-03 0.  1.
         12    1    3    3    0    0  0.39241306253E+00  0.59743814087E+01 -0.28102267609E+01  0.66139697365E+01  0.00000000000E+00 0. -1.
</event>
<event>
 7    1  0.4871930E-013  0.5052883E+02  0.7816164E-02  0.1300439E+00
        -11   -1    0    0    0    0  0.00000000000E+00  0.00000000000E+00  0.45593999997E+02  0.45594000000E+02  0.51100000000E-03 0. -1.
         11   -1    0    0    0    0 -0.00000000000E+00 -0.00000000000E+00 -0.45593999997E+02  0.45594000000E+02  0.51100000000E-03 0.  1.
    9900012    2    1    2    0    0 -0.28563120135E+02  0.54070054629E-01 -0.28936362527E+02  0.50528833362E+02  0.29999919486E+02 0.  0.
         12    1    1    2    0    0  0.28563120135E+02 -0.54070054629E-01  0.28936362527E+02  0.40659166638E+02  0.00000000000E+00 0. -1.
         11    1    3    3    0    0 -0.20865945557E+02  0.57419412936E+01 -0.25180236532E+02  0.33202437951E+02  0.51100000000E-03 0. -1.
        -11    1    3    3    0    0 -0.47689094442E+01 -0.55049870410E+01 -0.88416456941E+01  0.11455220576E+02  0.51100000000E-03 0.  1.
         12    1    3    3    0    0 -0.29282651335E+01 -0.18288419806E+00  0.50855196994E+01  0.58711748343E+01  0.00000000000E+00 0. -1.
</event>
<event>
 7    1  0.4871930E-013  0.5052884E+02  0.7816164E-02  0.1300439E+00
        -11   -1    0    0    0    0  0.00000000000E+00  0.00000000000E+00  0.45593999997E+02  0.45594000000E+02  0.51100000000E-03 0.  1.
         11   -1    0    0    0    0 -0.00000000000E+00 -0.00000000000E+00 -0.45593999997E+02  0.45594000000E+02  0.51100000000E-03 0. -1.
    9900012    2    1    2    0    0 -0.11524827839E+02  0.38982039723E+02 -0.86404848290E+00  0.50528835505E+02  0.29999926001E+02 0.  0.
         12    1    1    2    0    0  0.11524827839E+02 -0.38982039723E+02  0.86404848290E+00  0.40659164495E+02  0.00000000000E+00 0. -1.
         11    1    3    3    0    0 -0.68461013513E+01 -0.15489657052E+01 -0.30711478895E+01  0.76616152401E+01  0.51100000000E-03 0. -1.
        -11    1    3    3    0    0 -0.78877493671E+01  0.20428119520E+02 -0.22948385356E+01  0.22017968602E+02  0.51100000000E-03 0.  1.
        -12    1    3    3    0    0  0.32090228793E+01  0.20102885908E+02  0.45019379422E+01  0.20849251663E+02  0.00000000000E+00 0.  1.
</event>
<event>
 7    1  0.4871930E-013  0.5052886E+02  0.7816164E-02  0.1300439E+00
        -11   -1    0    0    0    0  0.00000000000E+00  0.00000000000E+00  0.45593999997E+02  0.45594000000E+02  0.51100000000E-03 0.  1.
         11   -1    0    0    0    0 -0.00000000000E+00 -0.00000000000E+00 -0.45593999997E+02  0.45594000000E+02  0.51100000000E-03 0. -1.
    9900012    2    1    2    0    0  0.16809250445E+02  0.60673344800E+01  0.36521259462E+02  0.50528857843E+02  0.29999993900E+02 0.  0.
         12    1    1    2    0    0 -0.16809250445E+02 -0.60673344800E+01 -0.36521259462E+02  0.40659142157E+02  0.00000000000E+00 0. -1.
         11    1    3    3    0    0 -0.46937916295E+01  0.83728179558E+00  0.27609698656E+01  0.55095984905E+01  0.51100000000E-03 0. -1.
        -11    1    3    3    0    0  0.35485352945E+01  0.13633947313E+01  0.23847792228E+02  0.24148874556E+02  0.51100000000E-03 0.  1.
        -12    1    3    3    0    0  0.17954506780E+02  0.38666579531E+01  0.99124973687E+01  0.20870384796E+02  0.00000000000E+00 0.  1.
</event>
<event>
 7    1  0.4871930E-013  0.5052886E+02  0.7816164E-02  0.1300439E+00
        -11   -1    0    0    0    0  0.00000000000E+00  0.00000000000E+00  0.45593999997E+02  0.45594000000E+02  0.51100000000E-03 0.  1.
         11   -1    0    0    0    0 -0.00000000000E+00 -0.00000000000E+00 -0.45593999997E+02  0.45594000000E+02  0.51100000000E-03 0. -1.
    9900012    2    1    2    0    0 -0.13796994966E+02  0.37459567799E+02  0.77194284729E+01  0.50528857538E+02  0.29999992974E+02 0.  0.
         12    1    1    2    0    0  0.13796994966E+02 -0.37459567799E+02 -0.77194284729E+01  0.40659142462E+02  0.00000000000E+00 0. -1.
         11    1    3    3    0    0 -0.81649516364E+01  0.18701901079E+02  0.11183727040E+02  0.23270223247E+02  0.51100000000E-03 0. -1.
        -11    1    3    3    0    0 -0.80950979260E+01  0.23149208230E+01  0.36469335714E+01  0.91754887381E+01  0.51100000000E-03 0.  1.
         12    1    3    3    0    0  0.24630545960E+01  0.16442745896E+02 -0.71112321389E+01  0.18083145553E+02  0.00000000000E+00 0. -1.
</event>
<event>
 7    1  0.4871930E-013  0.5052886E+02  0.7816164E-02  0.1300439E+00
        -11   -1    0    0    0    0  0.00000000000E+00  0.00000000000E+00  0.45593999997E+02  0.45594000000E+02  0.51100000000E-03 0.  1.
         11   -1    0    0    0    0 -0.00000000000E+00 -0.00000000000E+00 -0.45593999997E+02  0.45594000000E+02  0.51100000000E-03 0. -1.
    9900012    2    1    2    0    0  0.37637248077E+02  0.89581494147E+01  0.12504198879E+02  0.50528857444E+02  0.29999992688E+02 0.  0.
         12    1    1    2    0    0 -0.37637248077E+02 -0.89581494147E+01 -0.12504198879E+02  0.40659142556E+02  0.00000000000E+00 0. -1.
         11    1    3    3    0    0  0.10422381031E+02 -0.56337050934E+01 -0.71556628474E+00  0.11869148866E+02  0.51100000000E-03 0. -1.
        -11    1    3    3    0    0  0.21362475055E+02  0.39910023170E+01  0.14615158886E+01  0.21781172350E+02  0.51100000000E-03 0.  1.
        -12    1    3    3    0    0  0.58523919908E+01  0.10600852191E+02  0.11758249275E+02  0.16878536228E+02  0.00000000000E+00 0.  1.
</event>
<event>
 7    1  0.4871930E-013  0.5052886E+02  0.7816164E-02  0.1300439E+00
        -11   -1    0    0    0    0  0.00000000000E+00  0.00000000000E+00  0.45593999997E+02  0.45594000000E+02  0.51100000000E-03 0.  1.
         11   -1    0    0    0    0 -0.00000000000E+00 -0.00000000000E+00 -0.45593999997E+02  0.45594000000E+02  0.51100000000E-03 0. -1.
    9900012    2    1    2    0    0  0.33914982578E+02 -0.30712010798E+01  0.22215027893E+02  0.50528858548E+02  0.29999996042E+02 0.  0.
         12    1    1    2    0    0 -0.33914982578E+02  0.30712010798E+01 -0.22215027893E+02  0.40659141452E+02  0.00000000000E+00 0. -1.
         11    1    3    3    0    0  0.69480328493E+01  0.57055472658E+01  0.11962718733E+02  0.14964460225E+02  0.51100000000E-03 0. -1.
        -11    1    3    3    0    0  0.61728044918E+01 -0.99492984677E+01  0.88743179213E+01  0.14691683842E+02  0.51100000000E-03 0.  1.
        -12    1    3    3    0    0  0.20794145237E+02  0.11725501221E+01  0.13779912386E+01  0.20872714481E+02  0.00000000000E+00 0.  1.
</event>
<event>
 7    1  0.4871930E-013  0.5052886E+02  0.7816164E-02  0.1300439E+00
        -11   -1    0    0    0    0  0.00000000000E+00  0.00000000000E+00  0.45593999997E+02  0.45594000000E+02  0.51100000000E-03 0.  1.
         11   -1    0    0    0    0 -0.00000000000E+00 -0.00000000000E+00 -0.45593999997E+02  0.45594000000E+02  0.51100000000E-03 0. -1.
    9900012    2    1    2    0    0 -0.13406972978E+02 -0.38345730755E+02 -0.17389220819E+01  0.50528857835E+02  0.29999993876E+02 0.  0.
         12    1    1    2    0    0  0.13406972978E+02  0.38345730755E+02  0.17389220819E+01  0.40659142165E+02  0.00000000000E+00 0. -1.
         11    1    3    3    0    0 -0.15539169156E+02 -0.34850526333E+02  0.18642079575E+01  0.38203406070E+02  0.51100000000E-03 0.  1.
        -11    1    3    3    0    0 -0.96009658027E+00 -0.23862768917E+00  0.36571060996E+01  0.37885556486E+01  0.51100000000E-03 0. -1.
        -12    1    3    3    0    0  0.30922927582E+01 -0.32565767327E+01 -0.72602361390E+01  0.85368961170E+01  0.00000000000E+00 0.  1.
</event>
<event>
 7    1  0.4871930E-013  0.5052886E+02  0.7816164E-02  0.1300439E+00
        -11   -1    0    0    0    0  0.00000000000E+00  0.00000000000E+00  0.45593999997E+02  0.45594000000E+02  0.51100000000E-03 0. -1.
         11   -1    0    0    0    0 -0.00000000000E+00 -0.00000000000E+00 -0.45593999997E+02  0.45594000000E+02  0.51100000000E-03 0.  1.
    9900012    2    1    2    0    0  0.32676337595E+02 -0.12496446055E+02 -0.20718629686E+02  0.50528858117E+02  0.29999994731E+02 0.  0.
         12    1    1    2    0    0 -0.32676337595E+02  0.12496446055E+02  0.20718629686E+02  0.40659141883E+02  0.00000000000E+00 0. -1.
         11    1    3    3    0    0  0.19862007554E+02  0.40781568774E+01 -0.12470663114E+02  0.23804372421E+02  0.51100000000E-03 0. -1.
        -11    1    3    3    0    0  0.25903682594E+01  0.24460304998E+01 -0.25797539021E+01  0.43986592709E+01  0.51100000000E-03 0.  1.
        -12    1    3    3    0    0  0.10223961781E+02 -0.19020633432E+02 -0.56682126701E+01  0.22325826425E+02  0.00000000000E+00 0.  1.
</event>
<event>
 7    1  0.4871930E-013  0.5052887E+02  0.7816164E-02  0.1300439E+00
        -11   -1    0    0    0    0  0.00000000000E+00  0.00000000000E+00  0.45593999997E+02  0.45594000000E+02  0.51100000000E-03 0. -1.
         11   -1    0    0    0    0 -0.00000000000E+00 -0.00000000000E+00 -0.45593999997E+02  0.45594000000E+02  0.51100000000E-03 0.  1.
    9900012    2    1    2    0    0  0.17836228628E+02  0.36356251921E+02 -0.36410136494E+01  0.50528867130E+02  0.30000022127E+02 0.  0.
         12    1    1    2    0    0 -0.17836228628E+02 -0.36356251921E+02  0.36410136494E+01  0.40659132870E+02  0.00000000000E+00 0. -1.
         11    1    3    3    0    0  0.37520338461E+01  0.10700026153E+02  0.58436365928E+01  0.12756034123E+02  0.51100000000E-03 0. -1.
        -11    1    3    3    0    0  0.17829855775E+02  0.11579077573E+02 -0.92994351422E+01  0.23204704019E+02  0.51100000000E-03 0.  1.
         12    1    3    3    0    0 -0.37456609928E+01  0.14077148194E+02 -0.18521510007E+00  0.14568128987E+02  0.00000000000E+00 0. -1.
</event>
<event>
 7    1  0.4871930E-013  0.5052886E+02  0.7816164E-02  0.1300439E+00
        -11   -1    0    0    0    0  0.00000000000E+00  0.00000000000E+00  0.45593999997E+02  0.45594000000E+02  0.51100000000E-03 0. -1.
         11   -1    0    0    0    0 -0.00000000000E+00 -0.00000000000E+00 -0.45593999997E+02  0.45594000000E+02  0.51100000000E-03 0.  1.
    9900012    2    1    2    0    0  0.16066379719E+02  0.36119788580E+02  0.95077812930E+01  0.50528860936E+02  0.30000003301E+02 0.  0.
         12    1    1    2    0    0 -0.16066379719E+02 -0.36119788580E+02 -0.95077812930E+01  0.40659139064E+02  0.00000000000E+00 0. -1.
         11    1    3    3    0    0  0.65302124746E+01  0.33920670105E+02  0.49855623197E+01  0.34901452223E+02  0.51100000000E-03 0. -1.
        -11    1    3    3    0    0  0.32458209686E+01  0.34138040885E+01  0.72649366314E+01  0.86584477035E+01  0.51100000000E-03 0.  1.
        -12    1    3    3    0    0  0.62903462754E+01 -0.12146856140E+01 -0.27427176581E+01  0.69689610099E+01  0.00000000000E+00 0.  1.
</event>
<event>
 7    1  0.4871930E-013  0.5052884E+02  0.7816164E-02  0.1300439E+00
        -11   -1    0    0    0    0  0.00000000000E+00  0.00000000000E+00  0.45593999997E+02  0.45594000000E+02  0.51100000000E-03 0.  1.
         11   -1    0    0    0    0 -0.00000000000E+00 -0.00000000000E+00 -0.45593999997E+02  0.45594000000E+02  0.51100000000E-03 0. -1.
    9900012    2    1    2    0    0 -0.31776972455E+02 -0.54969824007E+01  0.24762361334E+02  0.50528839498E+02  0.29999938138E+02 0.  0.
         12    1    1    2    0    0  0.31776972455E+02  0.54969824007E+01 -0.24762361334E+02  0.40659160502E+02  0.00000000000E+00 0. -1.
         11    1    3    3    0    0  0.25740668812E+01 -0.11909821276E+01 -0.74379177189E+00  0.29321468582E+01  0.51100000000E-03 0. -1.
        -11    1    3    3    0    0 -0.21880642682E+02 -0.58663799642E+01  0.44668599921E+01  0.23089603212E+02  0.51100000000E-03 0.  1.
        -12    1    3    3    0    0 -0.12470396654E+02  0.15603796910E+01  0.21039293114E+02  0.24507089427E+02  0.00000000000E+00 0.  1.
</event>
<event>
 7    1  0.4871930E-013  0.5052886E+02  0.7816164E-02  0.1300439E+00
        -11   -1    0    0    0    0  0.00000000000E+00  0.00000000000E+00  0.45593999997E+02  0.45594000000E+02  0.51100000000E-03 0.  1.
         11   -1    0    0    0    0 -0.00000000000E+00 -0.00000000000E+00 -0.45593999997E+02  0.45594000000E+02  0.51100000000E-03 0. -1.
    9900012    2    1    2    0    0 -0.23976106274E+02  0.12952945008E+02  0.30175040638E+02  0.50528861618E+02  0.30000005375E+02 0.  0.
         12    1    1    2    0    0  0.23976106274E+02 -0.12952945008E+02 -0.30175040638E+02  0.40659138382E+02  0.00000000000E+00 0. -1.
         11    1    3    3    0    0 -0.22503624759E+02  0.11635780207E+02  0.30914480208E+02  0.39968857816E+02  0.51100000000E-03 0. -1.
        -11    1    3    3    0    0 -0.54700077803E+01  0.27217709327E+01  0.54097552819E+00  0.61336511892E+01  0.51100000000E-03 0.  1.
         12    1    3    3    0    0  0.39975262653E+01 -0.14046061314E+01 -0.12804150988E+01  0.44263526127E+01  0.00000000000E+00 0. -1.
</event>
<event>
 7    1  0.4871930E-013  0.5052886E+02  0.7816164E-02  0.1300439E+00
        -11   -1    0    0    0    0  0.00000000000E+00  0.00000000000E+00  0.45593999997E+02  0.45594000000E+02  0.51100000000E-03 0.  1.
         11   -1    0    0    0    0 -0.00000000000E+00 -0.00000000000E+00 -0.45593999997E+02  0.45594000000E+02  0.51100000000E-03 0. -1.
    9900012    2    1    2    0    0  0.10159194790E+02  0.39314605443E+02 -0.20779990915E+01  0.50528861788E+02  0.30000005891E+02 0.  0.
         12    1    1    2    0    0 -0.10159194790E+02 -0.39314605443E+02  0.20779990915E+01  0.40659138212E+02  0.00000000000E+00 0. -1.
         11    1    3    3    0    0  0.26981798724E+01 -0.32176156875E+01  0.19265813086E+01  0.46200585642E+01  0.51100000000E-03 0. -1.
        -11    1    3    3    0    0 -0.43632847199E+01  0.66680262568E+01 -0.53775280398E+00  0.79868645943E+01  0.51100000000E-03 0.  1.
        -12    1    3    3    0    0  0.11824299637E+02  0.35864194874E+02 -0.34668275962E+01  0.37921938630E+02  0.00000000000E+00 0.  1.
</event>
<event>
 7    1  0.4871930E-013  0.5052885E+02  0.7816164E-02  0.1300439E+00
        -11   -1    0    0    0    0  0.00000000000E+00  0.00000000000E+00  0.45593999997E+02  0.45594000000E+02  0.51100000000E-03 0. -1.
         11   -1    0    0    0    0 -0.00000000000E+00 -0.00000000000E+00 -0.45593999997E+02  0.45594000000E+02  0.51100000000E-03 0.  1.
    9900012    2    1    2    0    0 -0.16224454950E+02 -0.31900682633E+01 -0.37145081598E+02  0.50528848990E+02  0.29999966989E+02 0.  0.
         12    1    1    2    0    0  0.16224454950E+02  0.31900682633E+01  0.37145081598E+02  0.40659151010E+02  0.00000000000E+00 0. -1.
         11    1    3    3    0    0 -0.69483909062E+01 -0.18672842686E+01  0.15922419807E+01  0.73689973206E+01  0.51100000000E-03 0. -1.
        -11    1    3    3    0    0  0.41001654550E+01 -0.32455784422E+01 -0.14434419781E+02  0.15352446413E+02  0.51100000000E-03 0.  1.
         12    1    3    3    0    0 -0.13376229499E+02  0.19227944474E+01 -0.24302903797E+02  0.27807405256E+02  0.00000000000E+00 0. -1.
</event>
<event>
 7    1  0.4871930E-013  0.5052885E+02  0.7816164E-02  0.1300439E+00
        -11   -1    0    0    0    0  0.00000000000E+00  0.00000000000E+00  0.45593999997E+02  0.45594000000E+02  0.51100000000E-03 0.  1.
         11   -1    0    0    0    0 -0.00000000000E+00 -0.00000000000E+00 -0.45593999997E+02  0.45594000000E+02  0.51100000000E-03 0. -1.
    9900012    2    1    2    0    0 -0.11105851935E+02  0.25183095679E+02  0.29927208986E+02  0.50528854745E+02  0.29999984482E+02 0.  0.
         12    1    1    2    0    0  0.11105851935E+02 -0.25183095679E+02 -0.29927208986E+02  0.40659145255E+02  0.00000000000E+00 0. -1.
         11    1    3    3    0    0  0.51285130607E+01  0.31010445771E+01  0.15677290163E+01  0.61948283441E+01  0.51100000000E-03 0. -1.
        -11    1    3    3    0    0 -0.12290115661E+02  0.23251439274E+02  0.30008213869E+02  0.39901995829E+02  0.51100000000E-03 0.  1.
         12    1    3    3    0    0 -0.39442493348E+01 -0.11693881716E+01 -0.16487339000E+01  0.44320305712E+01  0.00000000000E+00 0. -1.
</event>
<event>
 7    1  0.4871930E-013  0.5052888E+02  0.7816164E-02  0.1300439E+00
        -11   -1    0    0    0    0  0.00000000000E+00  0.00000000000E+00  0.45593999997E+02  0.45594000000E+02  0.51100000000E-03 0.  1.
         11   -1    0    0    0    0 -0.00000000000E+00 -0.00000000000E+00 -0.45593999997E+02  0.45594000000E+02  0.51100000000E-03 0. -1.
    9900012    2    1    2    0    0  0.26338705445E+02  0.19855177336E+02  0.23774121207E+02  0.50528876660E+02  0.30000051097E+02 0.  0.
         12    1    1    2    0    0 -0.26338705445E+02 -0.19855177336E+02 -0.23774121207E+02  0.40659123340E+02  0.00000000000E+00 0. -1.
         11    1    3    3    0    0  0.26206633652E+01  0.24959656621E+01  0.13595586157E+01  0.38660213335E+01  0.51100000000E-03 0. -1.
        -11    1    3    3    0    0  0.27242124631E+02  0.53393236634E+01  0.11497404036E+02  0.30047163450E+02  0.51100000000E-03 0.  1.
         12    1    3    3    0    0 -0.35240825509E+01  0.12019888011E+02  0.10917158555E+02  0.16615691877E+02  0.00000000000E+00 0. -1.
</event>
<event>
 7    1  0.4871930E-013  0.5052886E+02  0.7816164E-02  0.1300439E+00
        -11   -1    0    0    0    0  0.00000000000E+00  0.00000000000E+00  0.45593999997E+02  0.45594000000E+02  0.51100000000E-03 0. -1.
         11   -1    0    0    0    0 -0.00000000000E+00 -0.00000000000E+00 -0.45593999997E+02  0.45594000000E+02  0.51100000000E-03 0.  1.
    9900012    2    1    2    0    0  0.14553785392E+01 -0.68207574594E+00 -0.40627355410E+02  0.50528863737E+02  0.30000011816E+02 0.  0.
         12    1    1    2    0    0 -0.14553785392E+01  0.68207574594E+00  0.40627355410E+02  0.40659136263E+02  0.00000000000E+00 0. -1.
         11    1    3    3    0    0  0.13890024987E+01 -0.85603686964E+01 -0.11252171180E+01  0.87450188097E+01  0.51100000000E-03 0. -1.
        -11    1    3    3    0    0 -0.25489366230E+01  0.27616854299E+01 -0.29363208969E+01  0.47692730047E+01  0.51100000000E-03 0.  1.
        -12    1    3    3    0    0  0.26153126635E+01  0.51166075205E+01 -0.36565817395E+02  0.37014571923E+02  0.00000000000E+00 0.  1.
</event>
<event>
 7    1  0.4871930E-013  0.5052886E+02  0.7816164E-02  0.1300439E+00
        -11   -1    0    0    0    0  0.00000000000E+00  0.00000000000E+00  0.45593999997E+02  0.45594000000E+02  0.51100000000E-03 0.  1.
         11   -1    0    0    0    0 -0.00000000000E+00 -0.00000000000E+00 -0.45593999997E+02  0.45594000000E+02  0.51100000000E-03 0. -1.
    9900012    2    1    2    0    0 -0.18961595347E+02  0.31417210132E+02  0.17509501803E+02  0.50528857806E+02  0.29999993786E+02 0.  0.
         12    1    1    2    0    0  0.18961595347E+02 -0.31417210132E+02 -0.17509501803E+02  0.40659142194E+02  0.00000000000E+00 0. -1.
         11    1    3    3    0    0 -0.77962343990E+01  0.14553423689E+02  0.80352659841E+01  0.18361615167E+02  0.51100000000E-03 0. -1.
        -11    1    3    3    0    0 -0.89783435325E+01  0.13183500707E+02  0.17123488634E+02  0.23401478730E+02  0.51100000000E-03 0.  1.
         12    1    3    3    0    0 -0.21870174159E+01  0.36802857358E+01 -0.76492528148E+01  0.87657639085E+01  0.00000000000E+00 0. -1.
</event>
<event>
 7    1  0.4871930E-013  0.5052886E+02  0.7816164E-02  0.1300439E+00
        -11   -1    0    0    0    0  0.00000000000E+00  0.00000000000E+00  0.45593999997E+02  0.45594000000E+02  0.51100000000E-03 0.  1.
         11   -1    0    0    0    0 -0.00000000000E+00 -0.00000000000E+00 -0.45593999997E+02  0.45594000000E+02  0.51100000000E-03 0. -1.
    9900012    2    1    2    0    0  0.39774961563E+01 -0.22437113001E+02  0.33673743861E+02  0.50528861530E+02  0.30000005107E+02 0.  0.
         12    1    1    2    0    0 -0.39774961563E+01  0.22437113001E+02 -0.33673743861E+02  0.40659138470E+02  0.00000000000E+00 0. -1.
         11    1    3    3    0    0  0.43007984879E+01 -0.45151954139E-01 -0.23437761279E+01  0.48981826356E+01  0.51100000000E-03 0. -1.
        -11    1    3    3    0    0  0.42612273647E+01  0.50303952605E-01  0.10547266465E+02  0.11375650280E+02  0.51100000000E-03 0.  1.
        -12    1    3    3    0    0 -0.45845296963E+01 -0.22442265000E+02  0.25470253523E+02  0.34255028615E+02  0.00000000000E+00 0.  1.
</event>
<event>
 7    1  0.4871930E-013  0.5052886E+02  0.7816164E-02  0.1300439E+00
        -11   -1    0    0    0    0  0.00000000000E+00  0.00000000000E+00  0.45593999997E+02  0.45594000000E+02  0.51100000000E-03 0.  1.
         11   -1    0    0    0    0 -0.00000000000E+00 -0.00000000000E+00 -0.45593999997E+02  0.45594000000E+02  0.51100000000E-03 0. -1.
    9900012    2    1    2    0    0 -0.36026988038E+02 -0.17697922470E+02 -0.64811733846E+01  0.50528856683E+02  0.29999990373E+02 0.  0.
         12    1    1    2    0    0  0.36026988038E+02  0.17697922470E+02  0.64811733846E+01  0.40659143317E+02  0.00000000000E+00 0. -1.
         11    1    3    3    0    0 -0.18580592878E+02 -0.18842312149E+02 -0.13536409943E+02  0.29723821309E+02  0.51100000000E-03 0. -1.
        -11    1    3    3    0    0 -0.91699562183E+01 -0.33549582522E+01  0.56476871245E+01  0.11280080321E+02  0.51100000000E-03 0.  1.
        -12    1    3    3    0    0 -0.82764389416E+01  0.44993479310E+01  0.14075494336E+01  0.95249550533E+01  0.00000000000E+00 0.  1.
</event>
<event>
 7    1  0.4871930E-013  0.5052886E+02  0.7816164E-02  0.1300439E+00
        -11   -1    0    0    0    0  0.00000000000E+00  0.00000000000E+00  0.45593999997E+02  0.45594000000E+02  0.51100000000E-03 0.  1.
         11   -1    0    0    0    0 -0.00000000000E+00 -0.00000000000E+00 -0.45593999997E+02  0.45594000000E+02  0.51100000000E-03 0. -1.
    9900012    2    1    2    0    0  0.38339073931E+02 -0.11216251891E+02 -0.75813701414E+01  0.50528855031E+02  0.29999985353E+02 0.  0.
         12    1    1    2    0    0 -0.38339073931E+02  0.11216251891E+02  0.75813701414E+01  0.40659144969E+02  0.00000000000E+00 0. -1.
         11    1    3    3    0    0  0.15823724437E+02 -0.87853194157E+01  0.57276017808E+01  0.18983611740E+02  0.51100000000E-03 0. -1.
        -11    1    3    3    0    0  0.17347333754E+02 -0.84856762996E+01 -0.13533577022E+02  0.23581653842E+02  0.51100000000E-03 0.  1.
         12    1    3    3    0    0  0.51680157401E+01  0.60547438244E+01  0.22460509970E+00  0.79635894495E+01  0.00000000000E+00 0. -1.
</event>
<event>
 7    1  0.4871930E-013  0.5052886E+02  0.7816164E-02  0.1300439E+00
        -11   -1    0    0    0    0  0.00000000000E+00  0.00000000000E+00  0.45593999997E+02  0.45594000000E+02  0.51100000000E-03 0. -1.
         11   -1    0    0    0    0 -0.00000000000E+00 -0.00000000000E+00 -0.45593999997E+02  0.45594000000E+02  0.51100000000E-03 0.  1.
    9900012    2    1    2    0    0  0.40585620857E+02  0.20318213951E+01 -0.13583318805E+01  0.50528856083E+02  0.29999988551E+02 0.  0.
         12    1    1    2    0    0 -0.40585620857E+02 -0.20318213951E+01  0.13583318805E+01  0.40659143917E+02  0.00000000000E+00 0. -1.
         11    1    3    3    0    0 -0.16354436163E+00 -0.14865657389E+01  0.13948924877E+01  0.20450794038E+01  0.51100000000E-03 0. -1.
        -11    1    3    3    0    0  0.42255222149E+02  0.33661300231E+01  0.30381685713E+01  0.42497824635E+02  0.51100000000E-03 0.  1.
         12    1    3    3    0    0 -0.15060569300E+01  0.15225711088E+00 -0.57913929394E+01  0.59859520448E+01  0.00000000000E+00 0. -1.
</event>
<event>
 7    1  0.4871930E-013  0.5052887E+02  0.7816164E-02  0.1300439E+00
        -11   -1    0    0    0    0  0.00000000000E+00  0.00000000000E+00  0.45593999997E+02  0.45594000000E+02  0.51100000000E-03 0.  1.
         11   -1    0    0    0    0 -0.00000000000E+00 -0.00000000000E+00 -0.45593999997E+02  0.45594000000E+02  0.51100000000E-03 0. -1.
    9900012    2    1    2    0    0  0.14551340474E+02  0.18659979237E+02  0.33064011620E+02  0.50528865735E+02  0.30000017889E+02 0.  0.
         12    1    1    2    0    0 -0.14551340474E+02 -0.18659979237E+02 -0.33064011620E+02  0.40659134265E+02  0.00000000000E+00 0. -1.
         11    1    3    3    0    0 -0.19359908927E+01 -0.20040218175E+01 -0.19674558745E+01  0.34110184785E+01  0.51100000000E-03 0. -1.
        -11    1    3    3    0    0  0.11682093884E+02  0.19777260937E+01  0.99386635170E+01  0.15464790680E+02  0.51100000000E-03 0.  1.
        -12    1    3    3    0    0  0.48052374828E+01  0.18686274961E+02  0.25092803978E+02  0.31653056577E+02  0.00000000000E+00 0.  1.
</event>
<event>
 7    1  0.4871930E-013  0.5052885E+02  0.7816164E-02  0.1300439E+00
        -11   -1    0    0    0    0  0.00000000000E+00  0.00000000000E+00  0.45593999997E+02  0.45594000000E+02  0.51100000000E-03 0.  1.
         11   -1    0    0    0    0 -0.00000000000E+00 -0.00000000000E+00 -0.45593999997E+02  0.45594000000E+02  0.51100000000E-03 0. -1.
    9900012    2    1    2    0    0 -0.12312832038E+02  0.22103964191E+02  0.31827270080E+02  0.50528853594E+02  0.29999980983E+02 0.  0.
         12    1    1    2    0    0  0.12312832038E+02 -0.22103964191E+02 -0.31827270080E+02  0.40659146406E+02  0.00000000000E+00 0. -1.
         11    1    3    3    0    0 -0.73421786334E+01  0.16990194427E+01  0.21393216768E+00  0.75392321482E+01  0.51100000000E-03 0. -1.
        -11    1    3    3    0    0  0.57690820561E+01  0.66219956644E-01  0.38468200056E+01  0.69343144773E+01  0.51100000000E-03 0.  1.
        -12    1    3    3    0    0 -0.10739735460E+02  0.20338724791E+02  0.27766517907E+02  0.36055306968E+02  0.00000000000E+00 0.  1.
</event>
<event>
 7    1  0.4999033E-013  0.5052886E+02  0.7816164E-02  0.1300439E+00
        -11   -1    0    0    0    0  0.00000000000E+00  0.00000000000E+00  0.45593999997E+02  0.45594000000E+02  0.51100000000E-03 0.  1.
         11   -1    0    0    0    0 -0.00000000000E+00 -0.00000000000E+00 -0.45593999997E+02  0.45594000000E+02  0.51100000000E-03 0. -1.
    9900012    2    1    2    0    0 -0.66279005019E+01 -0.40064294314E+02 -0.20220948129E+01  0.50528860666E+02  0.30000002482E+02 0.  0.
         12    1    1    2    0    0  0.66279005019E+01  0.40064294314E+02  0.20220948129E+01  0.40659139334E+02  0.00000000000E+00 0. -1.
         11    1    3    3    0    0  0.13942390599E+01  0.27807669685E+00  0.55588442490E+01  0.57377677585E+01  0.51100000000E-03 0. -1.
        -11    1    3    3    0    0 -0.11788432914E+02 -0.20316788021E+02 -0.15479688509E+01  0.23540077185E+02  0.51100000000E-03 0.  1.
        -12    1    3    3    0    0  0.37662933520E+01 -0.20025582990E+02 -0.60329702109E+01  0.21251015723E+02  0.00000000000E+00 0.  1.
</event>
<event>
 7    1  0.4871930E-013  0.5052885E+02  0.7816164E-02  0.1300439E+00
        -11   -1    0    0    0    0  0.00000000000E+00  0.00000000000E+00  0.45593999997E+02  0.45594000000E+02  0.51100000000E-03 0.  1.
         11   -1    0    0    0    0 -0.00000000000E+00 -0.00000000000E+00 -0.45593999997E+02  0.45594000000E+02  0.51100000000E-03 0. -1.
    9900012    2    1    2    0    0 -0.38135407202E+02 -0.75500490544E+01  0.11910238567E+02  0.50528852125E+02  0.29999976518E+02 0.  0.
         12    1    1    2    0    0  0.38135407202E+02  0.75500490544E+01 -0.11910238567E+02  0.40659147875E+02  0.00000000000E+00 0. -1.
         11    1    3    3    0    0 -0.27959176047E+02 -0.85227948520E+01  0.86068859150E+01  0.30470182847E+02  0.51100000000E-03 0. -1.
        -11    1    3    3    0    0 -0.28141026421E+01 -0.33265214395E+01  0.88660635061E+01  0.98788663785E+01  0.51100000000E-03 0.  1.
        -12    1    3    3    0    0 -0.73621285130E+01  0.42992672371E+01 -0.55627108537E+01  0.10179802899E+02  0.00000000000E+00 0.  1.
</event>
<event>
 7    1  0.4871930E-013  0.5052886E+02  0.7816164E-02  0.1300439E+00
        -11   -1    0    0    0    0  0.00000000000E+00  0.00000000000E+00  0.45593999997E+02  0.45594000000E+02  0.51100000000E-03 0.  1.
         11   -1    0    0    0    0 -0.00000000000E+00 -0.00000000000E+00 -0.45593999997E+02  0.45594000000E+02  0.51100000000E-03 0. -1.
    9900012    2    1    2    0    0  0.22564476132E+02  0.10343504842E+02  0.32202828643E+02  0.50528857755E+02  0.29999993631E+02 0.  0.
         12    1    1    2    0    0 -0.22564476132E+02 -0.10343504842E+02 -0.32202828643E+02  0.40659142245E+02  0.00000000000E+00 0. -1.
         11    1    3    3    0    0  0.11472924546E+02  0.15151805898E+02  0.66364132010E+01  0.20130752595E+02  0.51100000000E-03 0. -1.
        -11    1    3    3    0    0  0.81047767135E+01  0.24498866261E+01  0.15153545829E+02  0.17358551251E+02  0.51100000000E-03 0.  1.
        -12    1    3    3    0    0  0.29867748728E+01 -0.72581876827E+01  0.10412869612E+02  0.13039553909E+02  0.00000000000E+00 0.  1.
</event>
<event>
 7    1  0.4871930E-013  0.5052886E+02  0.7816164E-02  0.1300439E+00
        -11   -1    0    0    0    0  0.00000000000E+00  0.00000000000E+00  0.45593999997E+02  0.45594000000E+02  0.51100000000E-03 0.  1.
         11   -1    0    0    0    0 -0.00000000000E+00 -0.00000000000E+00 -0.45593999997E+02  0.45594000000E+02  0.51100000000E-03 0. -1.
    9900012    2    1    2    0    0 -0.32985320318E+02 -0.79216488882E+00  0.23759348006E+02  0.50528862044E+02  0.30000006668E+02 0.  0.
         12    1    1    2    0    0  0.32985320318E+02  0.79216488882E+00 -0.23759348006E+02  0.40659137956E+02  0.00000000000E+00 0. -1.
         11    1    3    3    0    0 -0.56941131700E+01  0.89802004280E+01  0.11099122163E+02  0.15370668091E+02  0.51100000000E-03 0.  1.
        -11    1    3    3    0    0 -0.10176608050E+02  0.29467522026E+01  0.48948413851E+00  0.10605955635E+02  0.51100000000E-03 0. -1.
         12    1    3    3    0    0 -0.17114599098E+02 -0.12719117519E+02  0.12170741704E+02  0.24552238317E+02  0.00000000000E+00 0. -1.
</event>
<event>
 7    1  0.4871930E-013  0.5052886E+02  0.7816164E-02  0.1300439E+00
        -11   -1    0    0    0    0  0.00000000000E+00  0.00000000000E+00  0.45593999997E+02  0.45594000000E+02  0.51100000000E-03 0.  1.
         11   -1    0    0    0    0 -0.00000000000E+00 -0.00000000000E+00 -0.45593999997E+02  0.45594000000E+02  0.51100000000E-03 0. -1.
    9900012    2    1    2    0    0  0.28888832702E+02  0.28450466315E+02  0.30285277803E+01  0.50528859958E+02  0.30000000327E+02 0.  0.
         12    1    1    2    0    0 -0.28888832702E+02 -0.28450466315E+02 -0.30285277803E+01  0.40659140042E+02  0.00000000000E+00 0. -1.
         11    1    3    3    0    0  0.55242898721E+00 -0.37665003266E+01  0.39645404933E+00  0.38273853439E+01  0.51100000000E-03 0. -1.
        -11    1    3    3    0    0  0.21364550836E+02  0.11289245449E+02  0.44425449986E+01  0.24568827843E+02  0.51100000000E-03 0.  1.
         12    1    3    3    0    0  0.69718528792E+01  0.20927721193E+02 -0.18104712676E+01  0.22132646771E+02  0.00000000000E+00 0. -1.
</event>
<event>
 7    1  0.4871930E-013  0.5052886E+02  0.7816164E-02  0.1300439E+00
        -11   -1    0    0    0    0  0.00000000000E+00  0.00000000000E+00  0.45593999997E+02  0.45594000000E+02  0.51100000000E-03 0.  1.
         11   -1    0    0    0    0 -0.00000000000E+00 -0.00000000000E+00 -0.45593999997E+02  0.45594000000E+02  0.51100000000E-03 0. -1.
    9900012    2    1    2    0    0 -0.30709067045E+02  0.45693141993E+01  0.26253388447E+02  0.50528857905E+02  0.29999994087E+02 0.  0.
         12    1    1    2    0    0  0.30709067045E+02 -0.45693141993E+01 -0.26253388447E+02  0.40659142095E+02  0.00000000000E+00 0. -1.
         11    1    3    3    0    0 -0.91835193350E+01  0.80113613559E+01 -0.16762675748E+01  0.12301577598E+02  0.51100000000E-03 0. -1.
        -11    1    3    3    0    0 -0.14506674440E+02  0.29683681432E+01  0.97993662745E+01  0.17756193071E+02  0.51100000000E-03 0.  1.
         12    1    3    3    0    0 -0.70188732696E+01 -0.64104152998E+01  0.18130289747E+02  0.20471087235E+02  0.00000000000E+00 0. -1.
</event>
<event>
 7    1  0.4871930E-013  0.5052886E+02  0.7816164E-02  0.1300439E+00
        -11   -1    0    0    0    0  0.00000000000E+00  0.00000000000E+00  0.45593999997E+02  0.45594000000E+02  0.51100000000E-03 0.  1.
         11   -1    0    0    0    0 -0.00000000000E+00 -0.00000000000E+00 -0.45593999997E+02  0.45594000000E+02  0.51100000000E-03 0. -1.
    9900012    2    1    2    0    0 -0.12198248213E+02  0.21267493879E+02  0.32435504376E+02  0.50528862042E+02  0.30000006663E+02 0.  0.
         12    1    1    2    0    0  0.12198248213E+02 -0.21267493879E+02 -0.32435504376E+02  0.40659137958E+02  0.00000000000E+00 0. -1.
         11    1    3    3    0    0 -0.49042664766E+01 -0.33518748606E+01  0.62112920677E+00  0.59726624304E+01  0.51100000000E-03 0. -1.
        -11    1    3    3    0    0 -0.78429731008E+01  0.79395673644E+01  0.35117933608E+01  0.11699643151E+02  0.51100000000E-03 0.  1.
        -12    1    3    3    0    0  0.54899136463E+00  0.16679801375E+02  0.28302581809E+02  0.32856556461E+02  0.00000000000E+00 0.  1.
</event>
<event>
 7    1  0.4871930E-013  0.5052890E+02  0.7816164E-02  0.1300439E+00
        -11   -1    0    0    0    0  0.00000000000E+00  0.00000000000E+00  0.45593999997E+02  0.45594000000E+02  0.51100000000E-03 0.  1.
         11   -1    0    0    0    0 -0.00000000000E+00 -0.00000000000E+00 -0.45593999997E+02  0.45594000000E+02  0.51100000000E-03 0. -1.
    9900012    2    1    2    0    0 -0.34452044348E+02  0.64593372416E+01  0.20603302965E+02  0.50528899046E+02  0.30000119139E+02 0.  0.
         12    1    1    2    0    0  0.34452044348E+02 -0.64593372416E+01 -0.20603302965E+02  0.40659100954E+02  0.00000000000E+00 0. -1.
         11    1    3    3    0    0 -0.25612719136E+01  0.51810966700E+01  0.28251381018E+01  0.64331393639E+01  0.51100000000E-03 0. -1.
        -11    1    3    3    0    0 -0.40189316892E+01 -0.87648596738E+01  0.90166330807E+01  0.13201297262E+02  0.51100000000E-03 0.  1.
         12    1    3    3    0    0 -0.27871840745E+02  0.10043100245E+02  0.87615317826E+01  0.30894462420E+02  0.00000000000E+00 0. -1.
</event>
<event>
 7    1  0.4871930E-013  0.5052887E+02  0.7816164E-02  0.1300439E+00
        -11   -1    0    0    0    0  0.00000000000E+00  0.00000000000E+00  0.45593999997E+02  0.45594000000E+02  0.51100000000E-03 0.  1.
         11   -1    0    0    0    0 -0.00000000000E+00 -0.00000000000E+00 -0.45593999997E+02  0.45594000000E+02  0.51100000000E-03 0. -1.
    9900012    2    1    2    0    0 -0.36704457246E+02 -0.17455742175E+02  0.11156937576E+01  0.50528869548E+02  0.30000029478E+02 0.  0.
         12    1    1    2    0    0  0.36704457246E+02  0.17455742175E+02 -0.11156937576E+01  0.40659130452E+02  0.00000000000E+00 0. -1.
         11    1    3    3    0    0 -0.78531134069E+01 -0.16399685493E+02  0.25383522290E+01  0.18359311173E+02  0.51100000000E-03 0. -1.
        -11    1    3    3    0    0 -0.13684389089E+02 -0.74664194123E+01 -0.18489166822E+01  0.15698038627E+02  0.51100000000E-03 0.  1.
         12    1    3    3    0    0 -0.15166954750E+02  0.64103627310E+01  0.42625821086E+00  0.16471519747E+02  0.00000000000E+00 0. -1.
</event>
<event>
 7    1  0.4871930E-013  0.5052885E+02  0.7816164E-02  0.1300439E+00
        -11   -1    0    0    0    0  0.00000000000E+00  0.00000000000E+00  0.45593999997E+02  0.45594000000E+02  0.51100000000E-03 0.  1.
         11   -1    0    0    0    0 -0.00000000000E+00 -0.00000000000E+00 -0.45593999997E+02  0.45594000000E+02  0.51100000000E-03 0. -1.
    9900012    2    1    2    0    0  0.24984247941E+02  0.21022696056E+02  0.24228077202E+02  0.50528854416E+02  0.29999983484E+02 0.  0.
         12    1    1    2    0    0 -0.24984247941E+02 -0.21022696056E+02 -0.24228077202E+02  0.40659145584E+02  0.00000000000E+00 0. -1.
         11    1    3    3    0    0  0.82624750856E+01  0.15250352791E+02 -0.21498341349E+01  0.17477515323E+02  0.51100000000E-03 0. -1.
        -11    1    3    3    0    0  0.68508176445E+01 -0.17154592414E+01  0.63300116581E+01  0.94839628141E+01  0.51100000000E-03 0.  1.
        -12    1    3    3    0    0  0.98709552114E+01  0.74878025068E+01  0.20047899679E+02  0.23567376279E+02  0.00000000000E+00 0.  1.
</event>
<event>
 7    1  0.4871930E-013  0.5052887E+02  0.7816164E-02  0.1300439E+00
        -11   -1    0    0    0    0  0.00000000000E+00  0.00000000000E+00  0.45593999997E+02  0.45594000000E+02  0.51100000000E-03 0.  1.
         11   -1    0    0    0    0 -0.00000000000E+00 -0.00000000000E+00 -0.45593999997E+02  0.45594000000E+02  0.51100000000E-03 0. -1.
    9900012    2    1    2    0    0 -0.75531014528E+01 -0.23761855086E+02  0.32116819001E+02  0.50528866200E+02  0.30000019300E+02 0.  0.
         12    1    1    2    0    0  0.75531014528E+01  0.23761855086E+02 -0.32116819001E+02  0.40659133800E+02  0.00000000000E+00 0. -1.
         11    1    3    3    0    0 -0.21522286477E+01 -0.80242897111E+01 -0.80875514413E+00  0.83471790842E+01  0.51100000000E-03 0. -1.
        -11    1    3    3    0    0 -0.56424442945E+00  0.27738117734E+01  0.17155192879E+02  0.17387151765E+02  0.51100000000E-03 0.  1.
         12    1    3    3    0    0 -0.48366283756E+01 -0.18511377148E+02  0.15770381266E+02  0.24794535350E+02  0.00000000000E+00 0. -1.
</event>
<event>
 7    1  0.4871930E-013  0.5052886E+02  0.7816164E-02  0.1300439E+00
        -11   -1    0    0    0    0  0.00000000000E+00  0.00000000000E+00  0.45593999997E+02  0.45594000000E+02  0.51100000000E-03 0.  1.
         11   -1    0    0    0    0 -0.00000000000E+00 -0.00000000000E+00 -0.45593999997E+02  0.45594000000E+02  0.51100000000E-03 0. -1.
    9900012    2    1    2    0    0 -0.11469066122E+01  0.40276100919E+02  0.54484766532E+01  0.50528860833E+02  0.30000002987E+02 0.  0.
         12    1    1    2    0    0  0.11469066122E+01 -0.40276100919E+02 -0.54484766532E+01  0.40659139167E+02  0.00000000000E+00 0. -1.
         11    1    3    3    0    0  0.52744984220E+01  0.38509625039E+01 -0.68768175388E+01  0.94837158084E+01  0.51100000000E-03 0. -1.
        -11    1    3    3    0    0  0.28061435256E+01  0.54130264150E+01  0.49643789481E+01  0.78625921335E+01  0.51100000000E-03 0.  1.
         12    1    3    3    0    0 -0.92275485599E+01  0.31012112000E+02  0.73609152439E+01  0.33182552891E+02  0.00000000000E+00 0. -1.
</event>
<event>
 7    1  0.4871930E-013  0.5052886E+02  0.7816164E-02  0.1300439E+00
        -11   -1    0    0    0    0  0.00000000000E+00  0.00000000000E+00  0.45593999997E+02  0.45594000000E+02  0.51100000000E-03 0. -1.
         11   -1    0    0    0    0 -0.00000000000E+00 -0.00000000000E+00 -0.45593999997E+02  0.45594000000E+02  0.51100000000E-03 0.  1.
    9900012    2    1    2    0    0 -0.84128589495E+01  0.19187468534E+00 -0.39778798958E+02  0.50528857631E+02  0.29999993256E+02 0.  0.
         12    1    1    2    0    0  0.84128589495E+01 -0.19187468534E+00  0.39778798958E+02  0.40659142369E+02  0.00000000000E+00 0. -1.
         11    1    3    3    0    0 -0.89622673237E+01  0.92668591072E+01 -0.12843652483E+02  0.18197701027E+02  0.51100000000E-03 0. -1.
        -11    1    3    3    0    0  0.39418422910E+01 -0.21707486507E+01 -0.23463981261E+02  0.23891602860E+02  0.51100000000E-03 0.  1.
         12    1    3    3    0    0 -0.33924339168E+01 -0.69042357712E+01 -0.34711652144E+01  0.84395537447E+01  0.00000000000E+00 0. -1.
</event>
<event>
 7    1  0.4871930E-013  0.5052885E+02  0.7816164E-02  0.1300439E+00
        -11   -1    0    0    0    0  0.00000000000E+00  0.00000000000E+00  0.45593999997E+02  0.45594000000E+02  0.51100000000E-03 0.  1.
         11   -1    0    0    0    0 -0.00000000000E+00 -0.00000000000E+00 -0.45593999997E+02  0.45594000000E+02  0.51100000000E-03 0. -1.
    9900012    2    1    2    0    0  0.16917139272E+02 -0.14706293271E+02  0.33921991303E+02  0.50528853958E+02  0.29999982091E+02 0.  0.
         12    1    1    2    0    0 -0.16917139272E+02  0.14706293271E+02 -0.33921991303E+02  0.40659146042E+02  0.00000000000E+00 0. -1.
         11    1    3    3    0    0  0.82058057874E+01 -0.47809060036E+01  0.19365470957E+01  0.96923952535E+01  0.51100000000E-03 0.  1.
        -11    1    3    3    0    0  0.87417288827E+01 -0.15812089764E+02  0.17298012573E+02  0.25013221420E+02  0.51100000000E-03 0. -1.
        -12    1    3    3    0    0 -0.30395398171E-01  0.58867024965E+01  0.14687431634E+02  0.15823237285E+02  0.00000000000E+00 0.  1.
</event>
<event>
 7    1  0.4871930E-013  0.5052885E+02  0.7816164E-02  0.1300439E+00
        -11   -1    0    0    0    0  0.00000000000E+00  0.00000000000E+00  0.45593999997E+02  0.45594000000E+02  0.51100000000E-03 0. -1.
         11   -1    0    0    0    0 -0.00000000000E+00 -0.00000000000E+00 -0.45593999997E+02  0.45594000000E+02  0.51100000000E-03 0.  1.
    9900012    2    1    2    0    0  0.16412792192E+02 -0.37176287182E+02 -0.13078971627E+01  0.50528847634E+02  0.29999962868E+02 0.  0.
         12    1    1    2    0    0 -0.16412792192E+02  0.37176287182E+02  0.13078971627E+01  0.40659152366E+02  0.00000000000E+00 0. -1.
         11    1    3    3    0    0 -0.17779685616E+01 -0.37860952917E+01 -0.36062666558E+01  0.55227573926E+01  0.51100000000E-03 0. -1.
        -11    1    3    3    0    0  0.14468116699E+02 -0.35065178616E+02 -0.33016532326E+01  0.38076161395E+02  0.51100000000E-03 0.  1.
         12    1    3    3    0    0  0.37226440543E+01  0.16749867263E+01  0.56000227258E+01  0.69299288465E+01  0.00000000000E+00 0. -1.
</event>
<event>
 7    1  0.6852423E-013  0.5052886E+02  0.7816164E-02  0.1300439E+00
        -11   -1    0    0    0    0  0.00000000000E+00  0.00000000000E+00  0.45593999997E+02  0.45594000000E+02  0.51100000000E-03 0. -1.
         11   -1    0    0    0    0 -0.00000000000E+00 -0.00000000000E+00 -0.45593999997E+02  0.45594000000E+02  0.51100000000E-03 0.  1.
    9900012    2    1    2    0    0  0.33501664910E+02  0.29056921158E+01 -0.22855214867E+02  0.50528862712E+02  0.30000008698E+02 0.  0.
         12    1    1    2    0    0 -0.33501664910E+02 -0.29056921158E+01  0.22855214867E+02  0.40659137288E+02  0.00000000000E+00 0. -1.
         11    1    3    3    0    0  0.49970883568E+01  0.26390764224E+01 -0.12785206666E+02  0.13978452209E+02  0.51100000000E-03 0. -1.
        -11    1    3    3    0    0  0.21397622621E+02  0.51159727505E+01 -0.15006244410E+02  0.26631162246E+02  0.51100000000E-03 0.  1.
         12    1    3    3    0    0  0.71069539322E+01 -0.48493570571E+01  0.49362362092E+01  0.99192482565E+01  0.00000000000E+00 0. -1.
</event>
<event>
 7    1  0.4871930E-013  0.5052886E+02  0.7816164E-02  0.1300439E+00
        -11   -1    0    0    0    0  0.00000000000E+00  0.00000000000E+00  0.45593999997E+02  0.45594000000E+02  0.51100000000E-03 0.  1.
         11   -1    0    0    0    0 -0.00000000000E+00 -0.00000000000E+00 -0.45593999997E+02  0.45594000000E+02  0.51100000000E-03 0. -1.
    9900012    2    1    2    0    0  0.11152484897E+02 -0.32114176007E+02  0.22303979864E+02  0.50528859112E+02  0.29999997756E+02 0.  0.
         12    1    1    2    0    0 -0.11152484897E+02  0.32114176007E+02 -0.22303979864E+02  0.40659140888E+02  0.00000000000E+00 0. -1.
         11    1    3    3    0    0  0.30998039752E+01 -0.12939385803E+02 -0.39346661449E+00  0.13311322469E+02  0.51100000000E-03 0. -1.
        -11    1    3    3    0    0  0.12807848256E+02 -0.41022879671E+01  0.80799243332E+01  0.15689325065E+02  0.51100000000E-03 0.  1.
        -12    1    3    3    0    0 -0.47551673336E+01 -0.15072502237E+02  0.14617522145E+02  0.21528211578E+02  0.00000000000E+00 0.  1.
</event>
<event>
 7    1  0.4871930E-013  0.5052885E+02  0.7816164E-02  0.1300439E+00
        -11   -1    0    0    0    0  0.00000000000E+00  0.00000000000E+00  0.45593999997E+02  0.45594000000E+02  0.51100000000E-03 0. -1.
         11   -1    0    0    0    0 -0.00000000000E+00 -0.00000000000E+00 -0.45593999997E+02  0.45594000000E+02  0.51100000000E-03 0.  1.
    9900012    2    1    2    0    0  0.21369334432E+02  0.61910248632E+01 -0.34032184644E+02  0.50528845624E+02  0.29999956759E+02 0.  0.
         12    1    1    2    0    0 -0.21369334432E+02 -0.61910248632E+01  0.34032184644E+02  0.40659154376E+02  0.00000000000E+00 0. -1.
         11    1    3    3    0    0 -0.24853403559E+01  0.73156774672E+00 -0.91290214181E+00  0.27469071034E+01  0.51100000000E-03 0. -1.
        -11    1    3    3    0    0  0.24165581143E+02 -0.89461219768E+00 -0.33605454229E+02  0.41401717321E+02  0.51100000000E-03 0.  1.
         12    1    3    3    0    0 -0.31090635461E+00  0.63540693141E+01  0.48617172687E+00  0.63802211998E+01  0.00000000000E+00 0. -1.
</event>
<event>
 7    1  0.4871930E-013  0.5052886E+02  0.7816164E-02  0.1300439E+00
        -11   -1    0    0    0    0  0.00000000000E+00  0.00000000000E+00  0.45593999997E+02  0.45594000000E+02  0.51100000000E-03 0. -1.
         11   -1    0    0    0    0 -0.00000000000E+00 -0.00000000000E+00 -0.45593999997E+02  0.45594000000E+02  0.51100000000E-03 0.  1.
    9900012    2    1    2    0    0 -0.38854100166E+02 -0.54662413477E+01  0.10660435621E+02  0.50528858571E+02  0.29999996111E+02 0.  0.
         12    1    1    2    0    0  0.38854100166E+02  0.54662413477E+01 -0.10660435621E+02  0.40659141429E+02  0.00000000000E+00 0. -1.
         11    1    3    3    0    0 -0.72750048884E+01  0.11150958216E+01 -0.83682790152E+01  0.11144381040E+02  0.51100000000E-03 0. -1.
        -11    1    3    3    0    0 -0.23135131420E+02  0.59453747550E+00  0.10562581242E+02  0.25439259097E+02  0.51100000000E-03 0.  1.
        -12    1    3    3    0    0 -0.84439638571E+01 -0.71758746448E+01  0.84661333944E+01  0.13945218435E+02  0.00000000000E+00 0.  1.
</event>
<event>
 7    1  0.4871930E-013  0.5052886E+02  0.7816164E-02  0.1300439E+00
        -11   -1    0    0    0    0  0.00000000000E+00  0.00000000000E+00  0.45593999997E+02  0.45594000000E+02  0.51100000000E-03 0.  1.
         11   -1    0    0    0    0 -0.00000000000E+00 -0.00000000000E+00 -0.45593999997E+02  0.45594000000E+02  0.51100000000E-03 0. -1.
    9900012    2    1    2    0    0 -0.20526753445E+02  0.26154973037E+02  0.23403755800E+02  0.50528855800E+02  0.29999987689E+02 0.  0.
         12    1    1    2    0    0  0.20526753445E+02 -0.26154973037E+02 -0.23403755800E+02  0.40659144200E+02  0.00000000000E+00 0. -1.
         11    1    3    3    0    0 -0.27872135826E+01  0.11399004058E+02  0.17985438171E+02  0.21475144692E+02  0.51100000000E-03 0.  1.
        -11    1    3    3    0    0  0.12635224813E+01 -0.35474209385E+00 -0.30662322409E+01  0.33352828111E+01  0.51100000000E-03 0. -1.
        -12    1    3    3    0    0 -0.19003062344E+02  0.15110711072E+02  0.84845498705E+01  0.25718428297E+02  0.00000000000E+00 0.  1.
</event>
<event>
 7    1  0.4871930E-013  0.5052887E+02  0.7816164E-02  0.1300439E+00
        -11   -1    0    0    0    0  0.00000000000E+00  0.00000000000E+00  0.45593999997E+02  0.45594000000E+02  0.51100000000E-03 0.  1.
         11   -1    0    0    0    0 -0.00000000000E+00 -0.00000000000E+00 -0.45593999997E+02  0.45594000000E+02  0.51100000000E-03 0. -1.
    9900012    2    1    2    0    0  0.13621101081E+02  0.25900522874E+02  0.28227532303E+02  0.50528867450E+02  0.30000023102E+02 0.  0.
         12    1    1    2    0    0 -0.13621101081E+02 -0.25900522874E+02 -0.28227532303E+02  0.40659132550E+02  0.00000000000E+00 0. -1.
         11    1    3    3    0    0 -0.31807175511E+01  0.11066261160E+02  0.84584286649E+01  0.14287201124E+02  0.51100000000E-03 0. -1.
        -11    1    3    3    0    0  0.19557377104E+02  0.96105719602E+01  0.20939217510E+02  0.30220935174E+02  0.51100000000E-03 0.  1.
         12    1    3    3    0    0 -0.27555584724E+01  0.52236897534E+01 -0.11701138722E+01  0.60207311523E+01  0.00000000000E+00 0. -1.
</event>
<event>
 7    1  0.4871930E-013  0.5052886E+02  0.7816164E-02  0.1300439E+00
        -11   -1    0    0    0    0  0.00000000000E+00  0.00000000000E+00  0.45593999997E+02  0.45594000000E+02  0.51100000000E-03 0.  1.
         11   -1    0    0    0    0 -0.00000000000E+00 -0.00000000000E+00 -0.45593999997E+02  0.45594000000E+02  0.51100000000E-03 0. -1.
    9900012    2    1    2    0    0  0.19436991315E+02  0.18216421854E+02  0.30716948475E+02  0.50528861050E+02  0.30000003647E+02 0.  0.
         12    1    1    2    0    0 -0.19436991315E+02 -0.18216421854E+02 -0.30716948475E+02  0.40659138950E+02  0.00000000000E+00 0. -1.
         11    1    3    3    0    0  0.14840913578E+02  0.10488633468E+02  0.21464016261E+02  0.28124155847E+02  0.51100000000E-03 0.  1.
        -11    1    3    3    0    0  0.64433148749E+00  0.11531812178E+02 -0.11349660263E+00  0.11550356571E+02  0.51100000000E-03 0. -1.
         12    1    3    3    0    0  0.39517462497E+01 -0.38040237913E+01  0.93664288174E+01  0.10854348632E+02  0.00000000000E+00 0. -1.
</event>
<event>
 7    1  0.4871930E-013  0.5052886E+02  0.7816164E-02  0.1300439E+00
        -11   -1    0    0    0    0  0.00000000000E+00  0.00000000000E+00  0.45593999997E+02  0.45594000000E+02  0.51100000000E-03 0.  1.
         11   -1    0    0    0    0 -0.00000000000E+00 -0.00000000000E+00 -0.45593999997E+02  0.45594000000E+02  0.51100000000E-03 0. -1.
    9900012    2    1    2    0    0  0.15576917084E+02  0.28146213860E+02  0.24865959486E+02  0.50528860294E+02  0.30000001349E+02 0.  0.
         12    1    1    2    0    0 -0.15576917084E+02 -0.28146213860E+02 -0.24865959486E+02  0.40659139706E+02  0.00000000000E+00 0. -1.
         11    1    3    3    0    0 -0.14152552351E+01  0.46608213582E+00  0.33878001686E+00  0.15280550052E+01  0.51100000000E-03 0. -1.
        -11    1    3    3    0    0  0.21819028859E+02  0.19145725185E+02  0.85606130121E+01  0.30264053076E+02  0.51100000000E-03 0.  1.
        -12    1    3    3    0    0 -0.48268565399E+01  0.85344065394E+01  0.15966566457E+02  0.18736752213E+02  0.00000000000E+00 0.  1.
</event>
<event>
 7    1  0.4871930E-013  0.5052886E+02  0.7816164E-02  0.1300439E+00
        -11   -1    0    0    0    0  0.00000000000E+00  0.00000000000E+00  0.45593999997E+02  0.45594000000E+02  0.51100000000E-03 0.  1.
         11   -1    0    0    0    0 -0.00000000000E+00 -0.00000000000E+00 -0.45593999997E+02  0.45594000000E+02  0.51100000000E-03 0. -1.
    9900012    2    1    2    0    0 -0.32675520759E+02 -0.19935795143E+01  0.24114348233E+02  0.50528858262E+02  0.29999995173E+02 0.  0.
         12    1    1    2    0    0  0.32675520759E+02  0.19935795143E+01 -0.24114348233E+02  0.40659141738E+02  0.00000000000E+00 0. -1.
         11    1    3    3    0    0 -0.25082910121E+02 -0.79000090860E+01  0.10528549313E+02  0.28326893134E+02  0.51100000000E-03 0. -1.
        -11    1    3    3    0    0  0.15000015742E+01 -0.13215116749E+01 -0.19575884050E+01  0.27979546912E+01  0.51100000000E-03 0.  1.
        -12    1    3    3    0    0 -0.90926122124E+01  0.72279412466E+01  0.15543387325E+02  0.19404010437E+02  0.00000000000E+00 0.  1.
</event>
<event>
 7    1  0.4871930E-013  0.5052888E+02  0.7816164E-02  0.1300439E+00
        -11   -1    0    0    0    0  0.00000000000E+00  0.00000000000E+00  0.45593999997E+02  0.45594000000E+02  0.51100000000E-03 0.  1.
         11   -1    0    0    0    0 -0.00000000000E+00 -0.00000000000E+00 -0.45593999997E+02  0.45594000000E+02  0.51100000000E-03 0. -1.
    9900012    2    1    2    0    0 -0.89327779679E+01  0.18467222685E+02  0.35104575082E+02  0.50528880143E+02  0.30000061682E+02 0.  0.
         12    1    1    2    0    0  0.89327779679E+01 -0.18467222685E+02 -0.35104575082E+02  0.40659119857E+02  0.00000000000E+00 0. -1.
         11    1    3    3    0    0 -0.83038126379E+01  0.11888802612E+01  0.25765607011E+01  0.87752724122E+01  0.51100000000E-03 0. -1.
        -11    1    3    3    0    0 -0.96816361799E+01  0.12049400581E+02  0.22257948420E+02  0.27098678964E+02  0.51100000000E-03 0.  1.
        -12    1    3    3    0    0  0.90526708499E+01  0.52289418426E+01  0.10270065960E+02  0.14654928766E+02  0.00000000000E+00 0.  1.
</event>
<event>
 7    1  0.4871930E-013  0.5052886E+02  0.7816164E-02  0.1300439E+00
        -11   -1    0    0    0    0  0.00000000000E+00  0.00000000000E+00  0.45593999997E+02  0.45594000000E+02  0.51100000000E-03 0.  1.
         11   -1    0    0    0    0 -0.00000000000E+00 -0.00000000000E+00 -0.45593999997E+02  0.45594000000E+02  0.51100000000E-03 0. -1.
    9900012    2    1    2    0    0  0.67488466175E+01 -0.68106949457E-01  0.40095062250E+02  0.50528860977E+02  0.30000003427E+02 0.  0.
         12    1    1    2    0    0 -0.67488466175E+01  0.68106949457E-01 -0.40095062250E+02  0.40659139023E+02  0.00000000000E+00 0. -1.
         11    1    3    3    0    0  0.10029330862E+02 -0.20363834193E+01  0.23593884391E+02  0.25717809314E+02  0.51100000000E-03 0. -1.
        -11    1    3    3    0    0 -0.23985835549E+01  0.12789486050E+01  0.20489300105E+02  0.20668825115E+02  0.51100000000E-03 0.  1.
         12    1    3    3    0    0 -0.88190068910E+00  0.68932786482E+00 -0.39881222459E+01  0.41422265485E+01  0.00000000000E+00 0. -1.
</event>
<event>
 7    1  0.4871930E-013  0.5052887E+02  0.7816164E-02  0.1300439E+00
        -11   -1    0    0    0    0  0.00000000000E+00  0.00000000000E+00  0.45593999997E+02  0.45594000000E+02  0.51100000000E-03 0. -1.
         11   -1    0    0    0    0 -0.00000000000E+00 -0.00000000000E+00 -0.45593999997E+02  0.45594000000E+02  0.51100000000E-03 0.  1.
    9900012    2    1    2    0    0 -0.11078592999E+02  0.33514566690E+02 -0.20179274297E+02  0.50528874156E+02  0.30000043485E+02 0.  0.
         12    1    1    2    0    0  0.11078592999E+02 -0.33514566690E+02  0.20179274297E+02  0.40659125844E+02  0.00000000000E+00 0. -1.
         11    1    3    3    0    0 -0.15782492630E+02  0.16753712170E+02 -0.13044381917E+02  0.26456187272E+02  0.51100000000E-03 0.  1.
        -11    1    3    3    0    0 -0.31138142790E+01  0.93014857633E+01  0.18957723088E+01  0.99903668439E+01  0.51100000000E-03 0. -1.
         12    1    3    3    0    0  0.78177139098E+01  0.74593687565E+01 -0.90306646882E+01  0.14082320041E+02  0.00000000000E+00 0. -1.
</event>
<event>
 7    1  0.4871930E-013  0.5052886E+02  0.7816164E-02  0.1300439E+00
        -11   -1    0    0    0    0  0.00000000000E+00  0.00000000000E+00  0.45593999997E+02  0.45594000000E+02  0.51100000000E-03 0.  1.
         11   -1    0    0    0    0 -0.00000000000E+00 -0.00000000000E+00 -0.45593999997E+02  0.45594000000E+02  0.51100000000E-03 0. -1.
    9900012    2    1    2    0    0  0.93989220646E+00  0.40236138445E+02  0.57736730214E+01  0.50528861612E+02  0.30000005356E+02 0.  0.
         12    1    1    2    0    0 -0.93989220646E+00 -0.40236138445E+02 -0.57736730214E+01  0.40659138388E+02  0.00000000000E+00 0. -1.
         11    1    3    3    0    0  0.10689926055E+00  0.85037094058E+01 -0.58580732436E+01  0.10326738280E+02  0.51100000000E-03 0. -1.
        -11    1    3    3    0    0  0.51524056668E+01  0.29128073747E+02  0.23938407079E+01  0.29676968140E+02  0.51100000000E-03 0.  1.
        -12    1    3    3    0    0 -0.43194127209E+01  0.26043552914E+01  0.92379055571E+01  0.10525155192E+02  0.00000000000E+00 0.  1.
</event>
<event>
 7    1  0.4871930E-013  0.5052885E+02  0.7816164E-02  0.1300439E+00
        -11   -1    0    0    0    0  0.00000000000E+00  0.00000000000E+00  0.45593999997E+02  0.45594000000E+02  0.51100000000E-03 0.  1.
         11   -1    0    0    0    0 -0.00000000000E+00 -0.00000000000E+00 -0.45593999997E+02  0.45594000000E+02  0.51100000000E-03 0. -1.
    9900012    2    1    2    0    0  0.27339870472E+02 -0.29369210074E+02  0.65686560789E+01  0.50528852684E+02  0.29999978217E+02 0.  0.
         12    1    1    2    0    0 -0.27339870472E+02  0.29369210074E+02 -0.65686560789E+01  0.40659147316E+02  0.00000000000E+00 0. -1.
         11    1    3    3    0    0 -0.72625097438E+00 -0.11168379709E+02  0.39398747995E+01  0.11865191085E+02  0.51100000000E-03 0. -1.
        -11    1    3    3    0    0  0.55805354064E+01  0.29693931517E+01  0.44438201323E+01  0.77270439847E+01  0.51100000000E-03 0.  1.
        -12    1    3    3    0    0  0.22485586040E+02 -0.21170223517E+02 -0.18150388529E+01  0.30936617613E+02  0.00000000000E+00 0.  1.
</event>
<event>
 7    1  0.4871930E-013  0.5052886E+02  0.7816164E-02  0.1300439E+00
        -11   -1    0    0    0    0  0.00000000000E+00  0.00000000000E+00  0.45593999997E+02  0.45594000000E+02  0.51100000000E-03 0. -1.
         11   -1    0    0    0    0 -0.00000000000E+00 -0.00000000000E+00 -0.45593999997E+02  0.45594000000E+02  0.51100000000E-03 0.  1.
    9900012    2    1    2    0    0  0.47800437702E+01 -0.37910403948E+02 -0.13896682351E+02  0.50528864172E+02  0.30000013136E+02 0.  0.
         12    1    1    2    0    0 -0.47800437702E+01  0.37910403948E+02  0.13896682351E+02  0.40659135828E+02  0.00000000000E+00 0. -1.
         11    1    3    3    0    0 -0.17487045588E+01 -0.14929458773E+02  0.60889292920E+01  0.16217945834E+02  0.51100000000E-03 0. -1.
        -11    1    3    3    0    0  0.67514794188E+01 -0.16293866527E+02 -0.56989207758E+01  0.18535108821E+02  0.51100000000E-03 0.  1.
        -12    1    3    3    0    0 -0.22273108972E+00 -0.66870786484E+01 -0.14286690867E+02  0.15775809517E+02  0.00000000000E+00 0.  1.
</event>
<event>
 7    1  0.4871930E-013  0.5052887E+02  0.7816164E-02  0.1300439E+00
        -11   -1    0    0    0    0  0.00000000000E+00  0.00000000000E+00  0.45593999997E+02  0.45594000000E+02  0.51100000000E-03 0.  1.
         11   -1    0    0    0    0 -0.00000000000E+00 -0.00000000000E+00 -0.45593999997E+02  0.45594000000E+02  0.51100000000E-03 0. -1.
    9900012    2    1    2    0    0  0.25474969112E+02  0.16025327730E+02  0.27338251540E+02  0.50528866003E+02  0.30000018704E+02 0.  0.
         12    1    1    2    0    0 -0.25474969112E+02 -0.16025327730E+02 -0.27338251540E+02  0.40659133997E+02  0.00000000000E+00 0. -1.
         11    1    3    3    0    0  0.82574884667E+01  0.79892091355E+01  0.11568780956E+02  0.16304915561E+02  0.51100000000E-03 0.  1.
        -11    1    3    3    0    0 -0.32777650760E+01 -0.44744621093E+01  0.63481979782E+01  0.84299568736E+01  0.51100000000E-03 0. -1.
         12    1    3    3    0    0  0.20495245721E+02  0.12510580704E+02  0.94212726057E+01  0.25793993568E+02  0.00000000000E+00 0. -1.
</event>
<event>
 7    1  0.4871930E-013  0.5052885E+02  0.7816164E-02  0.1300439E+00
        -11   -1    0    0    0    0  0.00000000000E+00  0.00000000000E+00  0.45593999997E+02  0.45594000000E+02  0.51100000000E-03 0. -1.
         11   -1    0    0    0    0 -0.00000000000E+00 -0.00000000000E+00 -0.45593999997E+02  0.45594000000E+02  0.51100000000E-03 0.  1.
    9900012    2    1    2    0    0  0.21556722363E+02 -0.34335436234E+02  0.30905750648E+01  0.50528854477E+02  0.29999983667E+02 0.  0.
         12    1    1    2    0    0 -0.21556722363E+02  0.34335436234E+02 -0.30905750648E+01  0.40659145523E+02  0.00000000000E+00 0. -1.
         11    1    3    3    0    0  0.12421675214E+02 -0.13983916428E+02  0.89761087563E+00  0.18725748031E+02  0.51100000000E-03 0. -1.
        -11    1    3    3    0    0  0.67148540942E+01  0.22204216947E+01 -0.41913592536E+01  0.82211331739E+01  0.51100000000E-03 0.  1.
         12    1    3    3    0    0  0.24201930548E+01 -0.22571941501E+02  0.63843234428E+01  0.23581973271E+02  0.00000000000E+00 0. -1.
</event>
<event>
 7    1  0.4871930E-013  0.5052886E+02  0.7816164E-02  0.1300439E+00
        -11   -1    0    0    0    0  0.00000000000E+00  0.00000000000E+00  0.45593999997E+02  0.45594000000E+02  0.51100000000E-03 0.  1.
         11   -1    0    0    0    0 -0.00000000000E+00 -0.00000000000E+00 -0.45593999997E+02  0.45594000000E+02  0.51100000000E-03 0. -1.
    9900012    2    1    2    0    0  0.17911268088E+02  0.19264748028E+02  0.31003580613E+02  0.50528855249E+02  0.29999986014E+02 0.  0.
         12    1    1    2    0    0 -0.17911268088E+02 -0.19264748028E+02 -0.31003580613E+02  0.40659144751E+02  0.00000000000E+00 0. -1.
         11    1    3    3    0    0 -0.49077161317E+01  0.78267196599E+01  0.13458002099E+02  0.16323634369E+02  0.51100000000E-03 0. -1.
        -11    1    3    3    0    0  0.84832697553E+01  0.44522220092E+01  0.15368333925E+02  0.18110047886E+02  0.51100000000E-03 0.  1.
         12    1    3    3    0    0  0.14335714464E+02  0.69858063591E+01  0.21772445894E+01  0.16095172993E+02  0.00000000000E+00 0. -1.
</event>
<event>
 7    1  0.4871930E-013  0.5052886E+02  0.7816164E-02  0.1300439E+00
        -11   -1    0    0    0    0  0.00000000000E+00  0.00000000000E+00  0.45593999997E+02  0.45594000000E+02  0.51100000000E-03 0. -1.
         11   -1    0    0    0    0 -0.00000000000E+00 -0.00000000000E+00 -0.45593999997E+02  0.45594000000E+02  0.51100000000E-03 0.  1.
    9900012    2    1    2    0    0  0.10615476485E+02 -0.23924658791E+02 -0.31114115860E+02  0.50528857793E+02  0.29999993747E+02 0.  0.
         12    1    1    2    0    0 -0.10615476485E+02  0.23924658791E+02  0.31114115860E+02  0.40659142207E+02  0.00000000000E+00 0. -1.
         11    1    3    3    0    0 -0.10985155238E+01  0.56104615126E+01 -0.17946717952E+01  0.59920665762E+01  0.51100000000E-03 0. -1.
        -11    1    3    3    0    0 -0.16085346919E+01 -0.80271091920E+01 -0.80961425153E+01  0.11513878136E+02  0.51100000000E-03 0.  1.
         12    1    3    3    0    0  0.13322526700E+02 -0.21508011112E+02 -0.21223301550E+02  0.33022913081E+02  0.00000000000E+00 0. -1.
</event>
<event>
 7    1  0.4871930E-013  0.5052886E+02  0.7816164E-02  0.1300439E+00
        -11   -1    0    0    0    0  0.00000000000E+00  0.00000000000E+00  0.45593999997E+02  0.45594000000E+02  0.51100000000E-03 0. -1.
         11   -1    0    0    0    0 -0.00000000000E+00 -0.00000000000E+00 -0.45593999997E+02  0.45594000000E+02  0.51100000000E-03 0.  1.
    9900012    2    1    2    0    0  0.24328072576E+02  0.66595884110E+01 -0.31889819980E+02  0.50528857714E+02  0.29999993508E+02 0.  0.
         12    1    1    2    0    0 -0.24328072576E+02 -0.66595884110E+01  0.31889819980E+02  0.40659142286E+02  0.00000000000E+00 0. -1.
         11    1    3    3    0    0  0.11402308921E+02  0.13247203814E+02 -0.49266643917E+01  0.18159655281E+02  0.51100000000E-03 0. -1.
        -11    1    3    3    0    0  0.30604917088E+01  0.25935245478E+01 -0.94876292414E+01  0.10300878019E+02  0.51100000000E-03 0.  1.
         12    1    3    3    0    0  0.98652719457E+01 -0.91811399507E+01 -0.17475526347E+02  0.22068324415E+02  0.00000000000E+00 0. -1.
</event>
<event>
 7    1  0.4871930E-013  0.5052883E+02  0.7816164E-02  0.1300439E+00
        -11   -1    0    0    0    0  0.00000000000E+00  0.00000000000E+00  0.45593999997E+02  0.45594000000E+02  0.51100000000E-03 0.  1.
         11   -1    0    0    0    0 -0.00000000000E+00 -0.00000000000E+00 -0.45593999997E+02  0.45594000000E+02  0.51100000000E-03 0. -1.
    9900012    2    1    2    0    0 -0.32119737852E+02 -0.82874402744E+01  0.23511894242E+02  0.50528826412E+02  0.29999898362E+02 0.  0.
         12    1    1    2    0    0  0.32119737852E+02  0.82874402744E+01 -0.23511894242E+02  0.40659173588E+02  0.00000000000E+00 0. -1.
         11    1    3    3    0    0 -0.64381367045E+01  0.34563417240E+00 -0.52322143541E+01  0.83033206921E+01  0.51100000000E-03 0. -1.
        -11    1    3    3    0    0 -0.11442392342E+02  0.16029942300E+01  0.47183041071E+01  0.12480397707E+02  0.51100000000E-03 0.  1.
        -12    1    3    3    0    0 -0.14239208805E+02 -0.10236068677E+02  0.24025804489E+02  0.29745108013E+02  0.00000000000E+00 0.  1.
</event>
<event>
 7    1  0.4871930E-013  0.5052886E+02  0.7816164E-02  0.1300439E+00
        -11   -1    0    0    0    0  0.00000000000E+00  0.00000000000E+00  0.45593999997E+02  0.45594000000E+02  0.51100000000E-03 0.  1.
         11   -1    0    0    0    0 -0.00000000000E+00 -0.00000000000E+00 -0.45593999997E+02  0.45594000000E+02  0.51100000000E-03 0. -1.
    9900012    2    1    2    0    0  0.27775677660E+02  0.13449596761E+02  0.26472354002E+02  0.50528862664E+02  0.30000008554E+02 0.  0.
         12    1    1    2    0    0 -0.27775677660E+02 -0.13449596761E+02 -0.26472354002E+02  0.40659137336E+02  0.00000000000E+00 0. -1.
         11    1    3    3    0    0  0.54870899510E+01  0.15023253990E+02  0.14712484194E+02  0.21731624606E+02  0.51100000000E-03 0. -1.
        -11    1    3    3    0    0  0.40055378051E+01 -0.39366144014E+00  0.95248659173E+01  0.10340327531E+02  0.51100000000E-03 0.  1.
         12    1    3    3    0    0  0.18283049904E+02 -0.11799957892E+01  0.22350038909E+01  0.18456910528E+02  0.00000000000E+00 0. -1.
</event>
<event>
 7    1  0.4871930E-013  0.5052897E+02  0.7816164E-02  0.1300438E+00
        -11   -1    0    0    0    0  0.00000000000E+00  0.00000000000E+00  0.45593999997E+02  0.45594000000E+02  0.51100000000E-03 0.  1.
         11   -1    0    0    0    0 -0.00000000000E+00 -0.00000000000E+00 -0.45593999997E+02  0.45594000000E+02  0.51100000000E-03 0. -1.
    9900012    2    1    2    0    0 -0.39366520341E+02  0.10024307166E+01  0.10120705975E+02  0.50528972951E+02  0.30000343780E+02 0.  0.
         12    1    1    2    0    0  0.39366520341E+02 -0.10024307166E+01 -0.10120705975E+02  0.40659027049E+02  0.00000000000E+00 0. -1.
         11    1    3    3    0    0 -0.22718691875E+02  0.42328640056E+01  0.14389602982E+02  0.27223459965E+02  0.51100000000E-03 0. -1.
        -11    1    3    3    0    0 -0.12238219581E+02  0.52024718927E+01 -0.14295328052E+01  0.13374726039E+02  0.51100000000E-03 0.  1.
         12    1    3    3    0    0 -0.44096088853E+01 -0.84329051818E+01 -0.28393642023E+01  0.99307869477E+01  0.00000000000E+00 0. -1.
</event>
<event>
 7    1  0.4871930E-013  0.5052885E+02  0.7816164E-02  0.1300439E+00
        -11   -1    0    0    0    0  0.00000000000E+00  0.00000000000E+00  0.45593999997E+02  0.45594000000E+02  0.51100000000E-03 0. -1.
         11   -1    0    0    0    0 -0.00000000000E+00 -0.00000000000E+00 -0.45593999997E+02  0.45594000000E+02  0.51100000000E-03 0.  1.
    9900012    2    1    2    0    0 -0.17064345094E+02  0.46675019554E+01 -0.36608589615E+02  0.50528852425E+02  0.29999977430E+02 0.  0.
         12    1    1    2    0    0  0.17064345094E+02 -0.46675019554E+01  0.36608589615E+02  0.40659147575E+02  0.00000000000E+00 0. -1.
         11    1    3    3    0    0 -0.12785662976E+02  0.97731895769E+01 -0.94142641037E+01  0.18644483932E+02  0.51100000000E-03 0. -1.
        -11    1    3    3    0    0 -0.70625592808E+01 -0.79619325157E+01 -0.11407032214E+02  0.15601041541E+02  0.51100000000E-03 0.  1.
         12    1    3    3    0    0  0.27838771626E+01  0.28562448942E+01 -0.15787293297E+02  0.16283326951E+02  0.00000000000E+00 0. -1.
</event>
<event>
 7    1  0.4871930E-013  0.5052886E+02  0.7816164E-02  0.1300439E+00
        -11   -1    0    0    0    0  0.00000000000E+00  0.00000000000E+00  0.45593999997E+02  0.45594000000E+02  0.51100000000E-03 0. -1.
         11   -1    0    0    0    0 -0.00000000000E+00 -0.00000000000E+00 -0.45593999997E+02  0.45594000000E+02  0.51100000000E-03 0.  1.
    9900012    2    1    2    0    0 -0.37935030054E+02 -0.11592680018E+02 -0.89280019174E+01  0.50528856459E+02  0.29999989694E+02 0.  0.
         12    1    1    2    0    0  0.37935030054E+02  0.11592680018E+02  0.89280019174E+01  0.40659143541E+02  0.00000000000E+00 0. -1.
         11    1    3    3    0    0 -0.14944167777E+02  0.96818213996E+00 -0.44605783924E+01  0.15625693171E+02  0.51100000000E-03 0.  1.
        -11    1    3    3    0    0 -0.19331536816E+01 -0.11808201872E+02 -0.67009083968E+01  0.13713966903E+02  0.51100000000E-03 0. -1.
         12    1    3    3    0    0 -0.21057708595E+02 -0.75266028528E+00  0.22334848717E+01  0.21189196386E+02  0.00000000000E+00 0. -1.
</event>
<event>
 7    1  0.4871930E-013  0.5052885E+02  0.7816164E-02  0.1300439E+00
        -11   -1    0    0    0    0  0.00000000000E+00  0.00000000000E+00  0.45593999997E+02  0.45594000000E+02  0.51100000000E-03 0. -1.
         11   -1    0    0    0    0 -0.00000000000E+00 -0.00000000000E+00 -0.45593999997E+02  0.45594000000E+02  0.51100000000E-03 0.  1.
    9900012    2    1    2    0    0 -0.20502436994E+02 -0.31926108327E+02 -0.14613021301E+02  0.50528847191E+02  0.29999961521E+02 0.  0.
         12    1    1    2    0    0  0.20502436994E+02  0.31926108327E+02  0.14613021301E+02  0.40659152809E+02  0.00000000000E+00 0. -1.
         11    1    3    3    0    0 -0.11799323396E+02 -0.14096462149E+01 -0.26958097005E+01  0.12185176455E+02  0.51100000000E-03 0. -1.
        -11    1    3    3    0    0 -0.24035036748E+01 -0.33819328430E+01 -0.95196206356E+01  0.10384482509E+02  0.51100000000E-03 0.  1.
         12    1    3    3    0    0 -0.62996099237E+01 -0.27134529269E+02 -0.23975909645E+01  0.27959188227E+02  0.00000000000E+00 0. -1.
</event>
<event>
 7    1  0.4871930E-013  0.5052887E+02  0.7816164E-02  0.1300439E+00
        -11   -1    0    0    0    0  0.00000000000E+00  0.00000000000E+00  0.45593999997E+02  0.45594000000E+02  0.51100000000E-03 0.  1.
         11   -1    0    0    0    0 -0.00000000000E+00 -0.00000000000E+00 -0.45593999997E+02  0.45594000000E+02  0.51100000000E-03 0. -1.
    9900012    2    1    2    0    0  0.40681337314E+00 -0.15451161862E+02  0.37606661313E+02  0.50528869720E+02  0.30000030002E+02 0.  0.
         12    1    1    2    0    0 -0.40681337314E+00  0.15451161862E+02 -0.37606661313E+02  0.40659130280E+02  0.00000000000E+00 0. -1.
         11    1    3    3    0    0 -0.52841054324E+01 -0.13729163834E+01  0.46694374817E+01  0.71840320345E+01  0.51100000000E-03 0.  1.
        -11    1    3    3    0    0 -0.72378413204E+01  0.73165603992E+00  0.38322368031E+01  0.82223905719E+01  0.51100000000E-03 0. -1.
         12    1    3    3    0    0  0.12928760126E+02 -0.14809901519E+02  0.29104987028E+02  0.35122447114E+02  0.00000000000E+00 0. -1.
</event>
<event>
 7    1  0.4871930E-013  0.5052886E+02  0.7816164E-02  0.1300439E+00
        -11   -1    0    0    0    0  0.00000000000E+00  0.00000000000E+00  0.45593999997E+02  0.45594000000E+02  0.51100000000E-03 0.  1.
         11   -1    0    0    0    0 -0.00000000000E+00 -0.00000000000E+00 -0.45593999997E+02  0.45594000000E+02  0.51100000000E-03 0. -1.
    9900012    2    1    2    0    0  0.22314029978E+02  0.26391211549E+02  0.21418532256E+02  0.50528861975E+02  0.30000006460E+02 0.  0.
         12    1    1    2    0    0 -0.22314029978E+02 -0.26391211549E+02 -0.21418532256E+02  0.40659138025E+02  0.00000000000E+00 0. -1.
         11    1    3    3    0    0  0.55761575074E+01  0.20245226934E+02  0.49330398596E+01  0.21570758649E+02  0.51100000000E-03 0. -1.
        -11    1    3    3    0    0  0.17779159486E+01 -0.36714687369E+01 -0.71092350886E+00  0.41407825714E+01  0.51100000000E-03 0.  1.
        -12    1    3    3    0    0  0.14959956522E+02  0.98174533520E+01  0.17196415906E+02  0.24817320755E+02  0.00000000000E+00 0.  1.
</event>
<event>
 7    1  0.4871930E-013  0.5052887E+02  0.7816164E-02  0.1300439E+00
        -11   -1    0    0    0    0  0.00000000000E+00  0.00000000000E+00  0.45593999997E+02  0.45594000000E+02  0.51100000000E-03 0.  1.
         11   -1    0    0    0    0 -0.00000000000E+00 -0.00000000000E+00 -0.45593999997E+02  0.45594000000E+02  0.51100000000E-03 0. -1.
    9900012    2    1    2    0    0 -0.24641591560E+02 -0.29115080078E+02  0.14080799378E+02  0.50528870230E+02  0.30000031550E+02 0.  0.
         12    1    1    2    0    0  0.24641591560E+02  0.29115080078E+02 -0.14080799378E+02  0.40659129770E+02  0.00000000000E+00 0. -1.
         11    1    3    3    0    0 -0.23327795230E+01  0.16353512896E+01  0.14047068116E+01  0.31763871979E+01  0.51100000000E-03 0.  1.
        -11    1    3    3    0    0 -0.51063821885E+00  0.57685891416E+00 -0.51658548788E+01  0.52229852084E+01  0.51100000000E-03 0. -1.
        -12    1    3    3    0    0 -0.21798173818E+02 -0.31327290282E+02  0.17841947446E+02  0.42129497823E+02  0.00000000000E+00 0.  1.
</event>
<event>
 7    1  0.4871930E-013  0.5052886E+02  0.7816164E-02  0.1300439E+00
        -11   -1    0    0    0    0  0.00000000000E+00  0.00000000000E+00  0.45593999997E+02  0.45594000000E+02  0.51100000000E-03 0. -1.
         11   -1    0    0    0    0 -0.00000000000E+00 -0.00000000000E+00 -0.45593999997E+02  0.45594000000E+02  0.51100000000E-03 0.  1.
    9900012    2    1    2    0    0 -0.42915401212E+01  0.39200683903E+02 -0.99022517037E+01  0.50528861743E+02  0.30000005753E+02 0.  0.
         12    1    1    2    0    0  0.42915401212E+01 -0.39200683903E+02  0.99022517037E+01  0.40659138257E+02  0.00000000000E+00 0. -1.
         11    1    3    3    0    0  0.90182087009E+01  0.13296682519E+02  0.11880853209E+01  0.16110288674E+02  0.51100000000E-03 0. -1.
        -11    1    3    3    0    0 -0.15003545793E+01  0.18650213312E+02 -0.58874448235E+01  0.19614880251E+02  0.51100000000E-03 0.  1.
        -12    1    3    3    0    0 -0.11809394243E+02  0.72537880718E+01 -0.52028922011E+01  0.14803692817E+02  0.00000000000E+00 0.  1.
</event>
<event>
 7    1  0.4871930E-013  0.5052886E+02  0.7816164E-02  0.1300439E+00
        -11   -1    0    0    0    0  0.00000000000E+00  0.00000000000E+00  0.45593999997E+02  0.45594000000E+02  0.51100000000E-03 0.  1.
         11   -1    0    0    0    0 -0.00000000000E+00 -0.00000000000E+00 -0.45593999997E+02  0.45594000000E+02  0.51100000000E-03 0. -1.
    9900012    2    1    2    0    0 -0.10707939917E+01  0.11064109386E+02  0.39110159253E+02  0.50528859908E+02  0.30000000175E+02 0.  0.
         12    1    1    2    0    0  0.10707939917E+01 -0.11064109386E+02 -0.39110159253E+02  0.40659140092E+02  0.00000000000E+00 0. -1.
         11    1    3    3    0    0 -0.22435353298E+00  0.27565664080E+01 -0.18359108740E+01  0.33195725429E+01  0.51100000000E-03 0. -1.
        -11    1    3    3    0    0  0.90964343574E+01  0.17172541101E+01  0.82306203368E+01  0.12386976673E+02  0.51100000000E-03 0.  1.
         12    1    3    3    0    0 -0.99428748162E+01  0.65902888684E+01  0.32715449790E+02  0.34822310692E+02  0.00000000000E+00 0. -1.
</event>
<event>
 7    1  0.4871930E-013  0.5052885E+02  0.7816164E-02  0.1300439E+00
        -11   -1    0    0    0    0  0.00000000000E+00  0.00000000000E+00  0.45593999997E+02  0.45594000000E+02  0.51100000000E-03 0. -1.
         11   -1    0    0    0    0 -0.00000000000E+00 -0.00000000000E+00 -0.45593999997E+02  0.45594000000E+02  0.51100000000E-03 0.  1.
    9900012    2    1    2    0    0 -0.18636622868E+02 -0.32193841158E+02 -0.16413386349E+02  0.50528851314E+02  0.29999974054E+02 0.  0.
         12    1    1    2    0    0  0.18636622868E+02  0.32193841158E+02  0.16413386349E+02  0.40659148686E+02  0.00000000000E+00 0. -1.
         11    1    3    3    0    0 -0.14310033589E+02 -0.41916050812E+01 -0.37422197875E+01  0.15373705593E+02  0.51100000000E-03 0. -1.
        -11    1    3    3    0    0 -0.87968058680E+01 -0.23483477511E+02 -0.56912483767E+01  0.25714739311E+02  0.51100000000E-03 0.  1.
        -12    1    3    3    0    0  0.44702165884E+01 -0.45187585664E+01 -0.69799181845E+01  0.94404064102E+01  0.00000000000E+00 0.  1.
</event>
<event>
 7    1  0.4871930E-013  0.5052888E+02  0.7816164E-02  0.1300439E+00
        -11   -1    0    0    0    0  0.00000000000E+00  0.00000000000E+00  0.45593999997E+02  0.45594000000E+02  0.51100000000E-03 0.  1.
         11   -1    0    0    0    0 -0.00000000000E+00 -0.00000000000E+00 -0.45593999997E+02  0.45594000000E+02  0.51100000000E-03 0. -1.
    9900012    2    1    2    0    0  0.27867337589E+02  0.17150480855E+02  0.24133728413E+02  0.50528876240E+02  0.30000049818E+02 0.  0.
         12    1    1    2    0    0 -0.27867337589E+02 -0.17150480855E+02 -0.24133728413E+02  0.40659123760E+02  0.00000000000E+00 0. -1.
         11    1    3    3    0    0 -0.18825738197E+01  0.60744990922E+01 -0.28915797255E+01  0.69860473071E+01  0.51100000000E-03 0. -1.
        -11    1    3    3    0    0  0.19938072799E+02  0.11256193663E+02  0.12711445560E+02  0.26187964625E+02  0.51100000000E-03 0.  1.
        -12    1    3    3    0    0  0.98118386095E+01 -0.18021189955E+00  0.14313862578E+02  0.17354864308E+02  0.00000000000E+00 0.  1.
</event>
<event>
 7    1  0.4871930E-013  0.5052886E+02  0.7816164E-02  0.1300439E+00
        -11   -1    0    0    0    0  0.00000000000E+00  0.00000000000E+00  0.45593999997E+02  0.45594000000E+02  0.51100000000E-03 0.  1.
         11   -1    0    0    0    0 -0.00000000000E+00 -0.00000000000E+00 -0.45593999997E+02  0.45594000000E+02  0.51100000000E-03 0. -1.
    9900012    2    1    2    0    0  0.91207324240E+00  0.25966283062E+02  0.31274364931E+02  0.50528860370E+02  0.30000001579E+02 0.  0.
         12    1    1    2    0    0 -0.91207324240E+00 -0.25966283062E+02 -0.31274364931E+02  0.40659139630E+02  0.00000000000E+00 0. -1.
         11    1    3    3    0    0 -0.23375585822E+01 -0.23482522826E+00  0.38003219845E+01  0.44678597180E+01  0.51100000000E-03 0. -1.
        -11    1    3    3    0    0 -0.11128576789E+02  0.77176812642E+01  0.95516147465E+01  0.16572301288E+02  0.51100000000E-03 0.  1.
         12    1    3    3    0    0  0.14378208614E+02  0.18483427026E+02  0.17922428200E+02  0.29488699364E+02  0.00000000000E+00 0. -1.
</event>
<event>
 7    1  0.4871930E-013  0.5052885E+02  0.7816164E-02  0.1300439E+00
        -11   -1    0    0    0    0  0.00000000000E+00  0.00000000000E+00  0.45593999997E+02  0.45594000000E+02  0.51100000000E-03 0.  1.
         11   -1    0    0    0    0 -0.00000000000E+00 -0.00000000000E+00 -0.45593999997E+02  0.45594000000E+02  0.51100000000E-03 0. -1.
    9900012    2    1    2    0    0  0.12833664643E+02  0.10537094763E+02  0.37113790364E+02  0.50528846671E+02  0.29999959941E+02 0.  0.
         12    1    1    2    0    0 -0.12833664643E+02 -0.10537094763E+02 -0.37113790364E+02  0.40659153329E+02  0.00000000000E+00 0. -1.
         11    1    3    3    0    0  0.27637511857E+01  0.88027252040E-01 -0.22372231689E+01  0.35568577681E+01  0.51100000000E-03 0. -1.
        -11    1    3    3    0    0 -0.13482771693E+01  0.13232304314E+02  0.15813095804E+02  0.20663149033E+02  0.51100000000E-03 0.  1.
        -12    1    3    3    0    0  0.11418190627E+02 -0.27832368028E+01  0.23537917729E+02  0.26308839870E+02  0.00000000000E+00 0.  1.
</event>
<event>
 7    1  0.4871930E-013  0.5052886E+02  0.7816164E-02  0.1300439E+00
        -11   -1    0    0    0    0  0.00000000000E+00  0.00000000000E+00  0.45593999997E+02  0.45594000000E+02  0.51100000000E-03 0.  1.
         11   -1    0    0    0    0 -0.00000000000E+00 -0.00000000000E+00 -0.45593999997E+02  0.45594000000E+02  0.51100000000E-03 0. -1.
    9900012    2    1    2    0    0  0.36590651884E+02  0.79694874613E+01  0.15835934307E+02  0.50528863867E+02  0.30000012210E+02 0.  0.
         12    1    1    2    0    0 -0.36590651884E+02 -0.79694874613E+01 -0.15835934307E+02  0.40659136133E+02  0.00000000000E+00 0. -1.
         11    1    3    3    0    0  0.17497408321E+02  0.44877895115E+01  0.17415955787E+02  0.25092131613E+02  0.51100000000E-03 0.  1.
        -11    1    3    3    0    0  0.14365629252E+02 -0.40241036368E+01  0.33473152299E+01  0.15289513838E+02  0.51100000000E-03 0. -1.
         12    1    3    3    0    0  0.47276143110E+01  0.75058015866E+01 -0.49273367099E+01  0.10147218416E+02  0.00000000000E+00 0. -1.
</event>
<event>
 7    1  0.4871930E-013  0.5052885E+02  0.7816164E-02  0.1300439E+00
        -11   -1    0    0    0    0  0.00000000000E+00  0.00000000000E+00  0.45593999997E+02  0.45594000000E+02  0.51100000000E-03 0. -1.
         11   -1    0    0    0    0 -0.00000000000E+00 -0.00000000000E+00 -0.45593999997E+02  0.45594000000E+02  0.51100000000E-03 0.  1.
    9900012    2    1    2    0    0  0.40173435347E+02  0.45759034165E+01  0.42804541757E+01  0.50528854810E+02  0.29999984679E+02 0.  0.
         12    1    1    2    0    0 -0.40173435347E+02 -0.45759034165E+01 -0.42804541757E+01  0.40659145190E+02  0.00000000000E+00 0. -1.
         11    1    3    3    0    0  0.91564339401E+01 -0.11152969899E+01  0.78598070385E+01  0.12118611175E+02  0.51100000000E-03 0. -1.
        -11    1    3    3    0    0  0.32947493268E+02  0.81836598030E+00 -0.37208310445E+01  0.33167026087E+02  0.51100000000E-03 0.  1.
        -12    1    3    3    0    0 -0.19304918612E+01  0.48728344261E+01  0.14147818174E+00  0.52432175471E+01  0.00000000000E+00 0.  1.
</event>
<event>
 7    1  0.4871930E-013  0.5052885E+02  0.7816164E-02  0.1300439E+00
        -11   -1    0    0    0    0  0.00000000000E+00  0.00000000000E+00  0.45593999997E+02  0.45594000000E+02  0.51100000000E-03 0.  1.
         11   -1    0    0    0    0 -0.00000000000E+00 -0.00000000000E+00 -0.45593999997E+02  0.45594000000E+02  0.51100000000E-03 0. -1.
    9900012    2    1    2    0    0 -0.33643817658E+02 -0.12241015183E+02  0.19272187757E+02  0.50528854163E+02  0.29999982713E+02 0.  0.
         12    1    1    2    0    0  0.33643817658E+02  0.12241015183E+02 -0.19272187757E+02  0.40659145837E+02  0.00000000000E+00 0. -1.
         11    1    3    3    0    0 -0.13639763316E+02 -0.79951795041E+01 -0.40990548168E+01  0.16333042867E+02  0.51100000000E-03 0. -1.
        -11    1    3    3    0    0 -0.20605637727E+02 -0.76627298400E+00  0.16272711498E+02  0.26267482182E+02  0.51100000000E-03 0.  1.
        -12    1    3    3    0    0  0.60158338535E+00 -0.34795626950E+01  0.70985310750E+01  0.79283291141E+01  0.00000000000E+00 0.  1.
</event>
<event>
 7    1  0.4871930E-013  0.5052886E+02  0.7816164E-02  0.1300439E+00
        -11   -1    0    0    0    0  0.00000000000E+00  0.00000000000E+00  0.45593999997E+02  0.45594000000E+02  0.51100000000E-03 0.  1.
         11   -1    0    0    0    0 -0.00000000000E+00 -0.00000000000E+00 -0.45593999997E+02  0.45594000000E+02  0.51100000000E-03 0. -1.
    9900012    2    1    2    0    0 -0.18845714648E+02 -0.30245526948E+02 -0.19575825667E+02  0.50528858205E+02  0.29999995000E+02 0.  0.
         12    1    1    2    0    0  0.18845714648E+02  0.30245526948E+02  0.19575825667E+02  0.40659141795E+02  0.00000000000E+00 0. -1.
         11    1    3    3    0    0 -0.14699248583E+01 -0.67412088459E+00  0.26855953557E+01  0.31348908644E+01  0.51100000000E-03 0. -1.
        -11    1    3    3    0    0  0.33269093962E+01 -0.13537214904E+01 -0.94761782015E+01  0.10134043693E+02  0.51100000000E-03 0.  1.
        -12    1    3    3    0    0 -0.20702699186E+02 -0.28217684573E+02 -0.12785242821E+02  0.37259923648E+02  0.00000000000E+00 0.  1.
</event>
<event>
 7    1  0.4871930E-013  0.5052886E+02  0.7816164E-02  0.1300439E+00
        -11   -1    0    0    0    0  0.00000000000E+00  0.00000000000E+00  0.45593999997E+02  0.45594000000E+02  0.51100000000E-03 0.  1.
         11   -1    0    0    0    0 -0.00000000000E+00 -0.00000000000E+00 -0.45593999997E+02  0.45594000000E+02  0.51100000000E-03 0. -1.
    9900012    2    1    2    0    0  0.12810228248E+02  0.27316925665E+01  0.38491582040E+02  0.50528856133E+02  0.29999988701E+02 0.  0.
         12    1    1    2    0    0 -0.12810228248E+02 -0.27316925665E+01 -0.38491582040E+02  0.40659143867E+02  0.00000000000E+00 0. -1.
         11    1    3    3    0    0  0.27222515835E+01 -0.66456168893E+01  0.14988663757E+02  0.16620316453E+02  0.51100000000E-03 0. -1.
        -11    1    3    3    0    0 -0.28701170899E+01 -0.21069883262E+01  0.13393258872E+02  0.13858439862E+02  0.51100000000E-03 0.  1.
        -12    1    3    3    0    0  0.12958093754E+02  0.11484297782E+02  0.10109659411E+02  0.20050099818E+02  0.00000000000E+00 0.  1.
</event>
<event>
 7    1  0.4871930E-013  0.5052886E+02  0.7816164E-02  0.1300439E+00
        -11   -1    0    0    0    0  0.00000000000E+00  0.00000000000E+00  0.45593999997E+02  0.45594000000E+02  0.51100000000E-03 0. -1.
         11   -1    0    0    0    0 -0.00000000000E+00 -0.00000000000E+00 -0.45593999997E+02  0.45594000000E+02  0.51100000000E-03 0.  1.
    9900012    2    1    2    0    0  0.64564032186E+01 -0.40111821834E+02 -0.15881374402E+01  0.50528861127E+02  0.30000003882E+02 0.  0.
         12    1    1    2    0    0 -0.64564032186E+01  0.40111821834E+02  0.15881374402E+01  0.40659138873E+02  0.00000000000E+00 0. -1.
         11    1    3    3    0    0 -0.15954781609E+01  0.69224235907E+00 -0.36741229000E+01  0.40649636396E+01  0.51100000000E-03 0.  1.
        -11    1    3    3    0    0 -0.67765563379E+01 -0.14778938725E+02  0.28227259202E+01  0.16501712866E+02  0.51100000000E-03 0. -1.
        -12    1    3    3    0    0  0.14828437717E+02 -0.26025125468E+02 -0.73674046036E+00  0.29962184621E+02  0.00000000000E+00 0.  1.
</event>
<event>
 7    1  0.4871930E-013  0.5052887E+02  0.7816164E-02  0.1300439E+00
        -11   -1    0    0    0    0  0.00000000000E+00  0.00000000000E+00  0.45593999997E+02  0.45594000000E+02  0.51100000000E-03 0. -1.
         11   -1    0    0    0    0 -0.00000000000E+00 -0.00000000000E+00 -0.45593999997E+02  0.45594000000E+02  0.51100000000E-03 0.  1.
    9900012    2    1    2    0    0  0.13970082725E+02  0.35433912942E+02 -0.14228117320E+02  0.50528871625E+02  0.30000035792E+02 0.  0.
         12    1    1    2    0    0 -0.13970082725E+02 -0.35433912942E+02  0.14228117320E+02  0.40659128375E+02  0.00000000000E+00 0. -1.
         11    1    3    3    0    0 -0.68026329467E+01  0.97026966834E+01  0.31406160292E+01  0.12258939891E+02  0.51100000000E-03 0. -1.
        -11    1    3    3    0    0  0.39248040733E+01  0.11010385021E+02 -0.68405203834E+01  0.13543462804E+02  0.51100000000E-03 0.  1.
        -12    1    3    3    0    0  0.16847911598E+02  0.14720831237E+02 -0.10528212966E+02  0.24726468931E+02  0.00000000000E+00 0.  1.
</event>
<event>
 7    1  0.4871930E-013  0.5052885E+02  0.7816164E-02  0.1300439E+00
        -11   -1    0    0    0    0  0.00000000000E+00  0.00000000000E+00  0.45593999997E+02  0.45594000000E+02  0.51100000000E-03 0.  1.
         11   -1    0    0    0    0 -0.00000000000E+00 -0.00000000000E+00 -0.45593999997E+02  0.45594000000E+02  0.51100000000E-03 0. -1.
    9900012    2    1    2    0    0  0.19588744272E+02 -0.15524239401E+02  0.32069381626E+02  0.50528854054E+02  0.29999982384E+02 0.  0.
         12    1    1    2    0    0 -0.19588744272E+02  0.15524239401E+02 -0.32069381626E+02  0.40659145946E+02  0.00000000000E+00 0. -1.
         11    1    3    3    0    0 -0.20785100917E+01 -0.38499627222E+01 -0.49102763155E+00  0.44026725474E+01  0.51100000000E-03 0. -1.
        -11    1    3    3    0    0  0.52994628877E+01  0.21808780181E+01  0.20992207773E+02  0.21760361285E+02  0.51100000000E-03 0.  1.
         12    1    3    3    0    0  0.16367791476E+02 -0.13855154697E+02  0.11568201485E+02  0.24365820222E+02  0.00000000000E+00 0. -1.
</event>
<event>
 7    1  0.4871930E-013  0.5052886E+02  0.7816164E-02  0.1300439E+00
        -11   -1    0    0    0    0  0.00000000000E+00  0.00000000000E+00  0.45593999997E+02  0.45594000000E+02  0.51100000000E-03 0.  1.
         11   -1    0    0    0    0 -0.00000000000E+00 -0.00000000000E+00 -0.45593999997E+02  0.45594000000E+02  0.51100000000E-03 0. -1.
    9900012    2    1    2    0    0  0.15883573337E+01 -0.72145257826E+01  0.39982416585E+02  0.50528857150E+02  0.29999991794E+02 0.  0.
         12    1    1    2    0    0 -0.15883573337E+01  0.72145257826E+01 -0.39982416585E+02  0.40659142850E+02  0.00000000000E+00 0. -1.
         11    1    3    3    0    0  0.10084576406E+02  0.10934398829E+01  0.11744263185E+02  0.15518440968E+02  0.51100000000E-03 0. -1.
        -11    1    3    3    0    0 -0.73295839841E+01  0.38138805342E+01  0.87860755114E+01  0.12060829543E+02  0.51100000000E-03 0.  1.
         12    1    3    3    0    0 -0.11666350881E+01 -0.12121846200E+02  0.19452077889E+02  0.22949586639E+02  0.00000000000E+00 0. -1.
</event>
<event>
 7    1  0.4871930E-013  0.5052886E+02  0.7816164E-02  0.1300439E+00
        -11   -1    0    0    0    0  0.00000000000E+00  0.00000000000E+00  0.45593999997E+02  0.45594000000E+02  0.51100000000E-03 0.  1.
         11   -1    0    0    0    0 -0.00000000000E+00 -0.00000000000E+00 -0.45593999997E+02  0.45594000000E+02  0.51100000000E-03 0. -1.
    9900012    2    1    2    0    0 -0.84948275313E+00  0.26036458244E+02  0.31217730494E+02  0.50528862330E+02  0.30000007539E+02 0.  0.
         12    1    1    2    0    0  0.84948275313E+00 -0.26036458244E+02 -0.31217730494E+02  0.40659137670E+02  0.00000000000E+00 0. -1.
         11    1    3    3    0    0  0.55077659607E+01  0.10041932079E+02  0.23808257824E+01  0.11698043316E+02  0.51100000000E-03 0. -1.
        -11    1    3    3    0    0  0.68310776468E+01  0.47575899279E+01  0.12491749382E+02  0.15011398556E+02  0.51100000000E-03 0.  1.
         12    1    3    3    0    0 -0.13188326361E+02  0.11236936238E+02  0.16345155330E+02  0.23819420458E+02  0.00000000000E+00 0. -1.
</event>
<event>
 7    1  0.4871930E-013  0.5052886E+02  0.7816164E-02  0.1300439E+00
        -11   -1    0    0    0    0  0.00000000000E+00  0.00000000000E+00  0.45593999997E+02  0.45594000000E+02  0.51100000000E-03 0. -1.
         11   -1    0    0    0    0 -0.00000000000E+00 -0.00000000000E+00 -0.45593999997E+02  0.45594000000E+02  0.51100000000E-03 0.  1.
    9900012    2    1    2    0    0  0.33105380936E+02  0.69887829519E+01 -0.22546758057E+02  0.50528860401E+02  0.30000001674E+02 0.  0.
         12    1    1    2    0    0 -0.33105380936E+02 -0.69887829519E+01  0.22546758057E+02  0.40659139599E+02  0.00000000000E+00 0. -1.
         11    1    3    3    0    0  0.52469044347E+01  0.28167227926E+00  0.19822622245E+01  0.56159335117E+01  0.51100000000E-03 0. -1.
        -11    1    3    3    0    0  0.12435437578E+02 -0.86316740614E+01 -0.14494499759E+02  0.20957968136E+02  0.51100000000E-03 0.  1.
         12    1    3    3    0    0  0.15423038923E+02  0.15338784734E+02 -0.10034520523E+02  0.23954958753E+02  0.00000000000E+00 0. -1.
</event>
<event>
 7    1  0.4871930E-013  0.5052886E+02  0.7816164E-02  0.1300439E+00
        -11   -1    0    0    0    0  0.00000000000E+00  0.00000000000E+00  0.45593999997E+02  0.45594000000E+02  0.51100000000E-03 0.  1.
         11   -1    0    0    0    0 -0.00000000000E+00 -0.00000000000E+00 -0.45593999997E+02  0.45594000000E+02  0.51100000000E-03 0. -1.
    9900012    2    1    2    0    0 -0.18609799771E+02 -0.21194816838E+01  0.36088069335E+02  0.50528860825E+02  0.30000002964E+02 0.  0.
         12    1    1    2    0    0  0.18609799771E+02  0.21194816838E+01 -0.36088069335E+02  0.40659139175E+02  0.00000000000E+00 0. -1.
         11    1    3    3    0    0 -0.38255434758E+01 -0.96537138425E+01  0.16885187416E+02  0.19822677119E+02  0.51100000000E-03 0. -1.
        -11    1    3    3    0    0  0.50064474410E+00  0.59116907006E+01  0.12698011122E+02  0.14015641934E+02  0.51100000000E-03 0.  1.
        -12    1    3    3    0    0 -0.15284901039E+02  0.16225414580E+01  0.65048707969E+01  0.16690541772E+02  0.00000000000E+00 0.  1.
</event>
<event>
 7    1  0.4871930E-013  0.5052885E+02  0.7816164E-02  0.1300439E+00
        -11   -1    0    0    0    0  0.00000000000E+00  0.00000000000E+00  0.45593999997E+02  0.45594000000E+02  0.51100000000E-03 0.  1.
         11   -1    0    0    0    0 -0.00000000000E+00 -0.00000000000E+00 -0.45593999997E+02  0.45594000000E+02  0.51100000000E-03 0. -1.
    9900012    2    1    2    0    0 -0.21897093900E+01 -0.17433945660E+02  0.36666463987E+02  0.50528845190E+02  0.29999955441E+02 0.  0.
         12    1    1    2    0    0  0.21897093900E+01  0.17433945660E+02 -0.36666463987E+02  0.40659154810E+02  0.00000000000E+00 0. -1.
         11    1    3    3    0    0 -0.48735201223E+01 -0.83297910841E+01  0.76677503232E+01  0.12326029903E+02  0.51100000000E-03 0. -1.
        -11    1    3    3    0    0  0.46657568506E+01 -0.81839115751E+01  0.30439179009E+00  0.94254098204E+01  0.51100000000E-03 0.  1.
        -12    1    3    3    0    0 -0.19819461183E+01 -0.92024300086E+00  0.28694321874E+02  0.28777405467E+02  0.00000000000E+00 0.  1.
</event>
<event>
 7    1  0.4871930E-013  0.5052886E+02  0.7816164E-02  0.1300439E+00
        -11   -1    0    0    0    0  0.00000000000E+00  0.00000000000E+00  0.45593999997E+02  0.45594000000E+02  0.51100000000E-03 0.  1.
         11   -1    0    0    0    0 -0.00000000000E+00 -0.00000000000E+00 -0.45593999997E+02  0.45594000000E+02  0.51100000000E-03 0. -1.
    9900012    2    1    2    0    0  0.76866376911E+01  0.39864584919E+02  0.22127112723E+01  0.50528860549E+02  0.30000002123E+02 0.  0.
         12    1    1    2    0    0 -0.76866376911E+01 -0.39864584919E+02 -0.22127112723E+01  0.40659139451E+02  0.00000000000E+00 0. -1.
         11    1    3    3    0    0 -0.13433863023E+01  0.16456406466E+02 -0.28085751296E+01  0.16748316185E+02  0.51100000000E-03 0. -1.
        -11    1    3    3    0    0 -0.42861181118E+01  0.18698873990E+02  0.16177183526E+01  0.19251901462E+02  0.51100000000E-03 0.  1.
        -12    1    3    3    0    0  0.13316142105E+02  0.47093044632E+01  0.34035680493E+01  0.14528642901E+02  0.00000000000E+00 0.  1.
</event>
<event>
 7    1  0.4871930E-013  0.5052889E+02  0.7816164E-02  0.1300439E+00
        -11   -1    0    0    0    0  0.00000000000E+00  0.00000000000E+00  0.45593999997E+02  0.45594000000E+02  0.51100000000E-03 0. -1.
         11   -1    0    0    0    0 -0.00000000000E+00 -0.00000000000E+00 -0.45593999997E+02  0.45594000000E+02  0.51100000000E-03 0.  1.
    9900012    2    1    2    0    0 -0.14240341401E+02 -0.18212302501E+02 -0.33446794351E+02  0.50528888623E+02  0.30000087458E+02 0.  0.
         12    1    1    2    0    0  0.14240341401E+02  0.18212302501E+02  0.33446794351E+02  0.40659111377E+02  0.00000000000E+00 0. -1.
         11    1    3    3    0    0  0.40347607973E+01  0.39333709558E+01 -0.79586528808E+01  0.97514541328E+01  0.51100000000E-03 0. -1.
        -11    1    3    3    0    0  0.14222777305E+01 -0.12761850539E+01 -0.54538630432E+01  0.57789397461E+01  0.51100000000E-03 0.  1.
         12    1    3    3    0    0 -0.19697379928E+02 -0.20869488403E+02 -0.20034278427E+02  0.34998494744E+02  0.00000000000E+00 0. -1.
</event>
<event>
 7    1  0.4871930E-013  0.5052886E+02  0.7816164E-02  0.1300439E+00
        -11   -1    0    0    0    0  0.00000000000E+00  0.00000000000E+00  0.45593999997E+02  0.45594000000E+02  0.51100000000E-03 0.  1.
         11   -1    0    0    0    0 -0.00000000000E+00 -0.00000000000E+00 -0.45593999997E+02  0.45594000000E+02  0.51100000000E-03 0. -1.
    9900012    2    1    2    0    0 -0.26100990928E+02  0.17403250218E+02  0.25865631350E+02  0.50528859199E+02  0.29999998021E+02 0.  0.
         12    1    1    2    0    0  0.26100990928E+02 -0.17403250218E+02 -0.25865631350E+02  0.40659140801E+02  0.00000000000E+00 0. -1.
         11    1    3    3    0    0 -0.91870227995E+00  0.73461646389E+01  0.64500279119E+00  0.74314317357E+01  0.51100000000E-03 0. -1.
        -11    1    3    3    0    0  0.32507900800E+01  0.48818971312E+01  0.26908166800E+01  0.64529877120E+01  0.51100000000E-03 0.  1.
         12    1    3    3    0    0 -0.28433078728E+02  0.51751884482E+01  0.22529811878E+02  0.36644439751E+02  0.00000000000E+00 0. -1.
</event>
<event>
 7    1  0.4871930E-013  0.5052886E+02  0.7816164E-02  0.1300439E+00
        -11   -1    0    0    0    0  0.00000000000E+00  0.00000000000E+00  0.45593999997E+02  0.45594000000E+02  0.51100000000E-03 0. -1.
         11   -1    0    0    0    0 -0.00000000000E+00 -0.00000000000E+00 -0.45593999997E+02  0.45594000000E+02  0.51100000000E-03 0.  1.
    9900012    2    1    2    0    0  0.43691318261E+01 -0.38996745105E+02  0.10645675158E+02  0.50528857839E+02  0.29999993886E+02 0.  0.
         12    1    1    2    0    0 -0.43691318261E+01  0.38996745105E+02 -0.10645675158E+02  0.40659142161E+02  0.00000000000E+00 0. -1.
         11    1    3    3    0    0  0.15817851807E+01 -0.23178401442E+02  0.15010040129E+02  0.27659386159E+02  0.51100000000E-03 0. -1.
        -11    1    3    3    0    0 -0.55037771518E+01 -0.10069935801E+02  0.86011734160E+00  0.11508039454E+02  0.51100000000E-03 0.  1.
         12    1    3    3    0    0  0.82911237973E+01 -0.57484078624E+01 -0.52244823129E+01  0.11361432225E+02  0.00000000000E+00 0. -1.
</event>
<event>
 7    1  0.4871930E-013  0.5052886E+02  0.7816164E-02  0.1300439E+00
        -11   -1    0    0    0    0  0.00000000000E+00  0.00000000000E+00  0.45593999997E+02  0.45594000000E+02  0.51100000000E-03 0.  1.
         11   -1    0    0    0    0 -0.00000000000E+00 -0.00000000000E+00 -0.45593999997E+02  0.45594000000E+02  0.51100000000E-03 0. -1.
    9900012    2    1    2    0    0  0.28350096928E+00 -0.19975546664E+02  0.35412748831E+02  0.50528860595E+02  0.30000002265E+02 0.  0.
         12    1    1    2    0    0 -0.28350096928E+00  0.19975546664E+02 -0.35412748831E+02  0.40659139405E+02  0.00000000000E+00 0. -1.
         11    1    3    3    0    0 -0.37540685293E+01  0.11114205789E+01  0.31732152802E+01  0.50396013435E+01  0.51100000000E-03 0.  1.
        -11    1    3    3    0    0  0.72890389171E+01  0.28547169757E+01  0.95031992190E+01  0.12312200981E+02  0.51100000000E-03 0. -1.
        -12    1    3    3    0    0 -0.32514694185E+01 -0.23941684219E+02  0.22736334332E+02  0.33177058270E+02  0.00000000000E+00 0.  1.
</event>
<event>
 7    1  0.4871930E-013  0.5052886E+02  0.7816164E-02  0.1300439E+00
        -11   -1    0    0    0    0  0.00000000000E+00  0.00000000000E+00  0.45593999997E+02  0.45594000000E+02  0.51100000000E-03 0.  1.
         11   -1    0    0    0    0 -0.00000000000E+00 -0.00000000000E+00 -0.45593999997E+02  0.45594000000E+02  0.51100000000E-03 0. -1.
    9900012    2    1    2    0    0 -0.12712179204E+02  0.37318428101E+02  0.99448916866E+01  0.50528862691E+02  0.30000008636E+02 0.  0.
         12    1    1    2    0    0  0.12712179204E+02 -0.37318428101E+02 -0.99448916866E+01  0.40659137309E+02  0.00000000000E+00 0. -1.
         11    1    3    3    0    0 -0.85242091365E+00  0.80964899227E+01 -0.79284640154E+01  0.11363991921E+02  0.51100000000E-03 0. -1.
        -11    1    3    3    0    0  0.20854566195E+01  0.13474773937E+02  0.51110391996E+01  0.14561640839E+02  0.51100000000E-03 0.  1.
         12    1    3    3    0    0 -0.13945214909E+02  0.15747164241E+02  0.12762316502E+02  0.24603229931E+02  0.00000000000E+00 0. -1.
</event>
<event>
 7    1  0.4871930E-013  0.5052886E+02  0.7816164E-02  0.1300439E+00
        -11   -1    0    0    0    0  0.00000000000E+00  0.00000000000E+00  0.45593999997E+02  0.45594000000E+02  0.51100000000E-03 0.  1.
         11   -1    0    0    0    0 -0.00000000000E+00 -0.00000000000E+00 -0.45593999997E+02  0.45594000000E+02  0.51100000000E-03 0. -1.
    9900012    2    1    2    0    0  0.26787884017E+02 -0.13169223505E+02  0.27606993407E+02  0.50528864953E+02  0.30000015511E+02 0.  0.
         12    1    1    2    0    0 -0.26787884017E+02  0.13169223505E+02 -0.27606993407E+02  0.40659135047E+02  0.00000000000E+00 0. -1.
         11    1    3    3    0    0 -0.19156093066E+01 -0.31847310497E+01  0.11378998896E+02  0.11970534115E+02  0.51100000000E-03 0. -1.
        -11    1    3    3    0    0  0.92254386702E+01 -0.12079180834E+02  0.90787996239E+01  0.17704234837E+02  0.51100000000E-03 0.  1.
         12    1    3    3    0    0  0.19478054653E+02  0.20946883793E+01  0.71491948873E+01  0.20854096001E+02  0.00000000000E+00 0. -1.
</event>
<event>
 7    1  0.4871930E-013  0.5052885E+02  0.7816164E-02  0.1300439E+00
        -11   -1    0    0    0    0  0.00000000000E+00  0.00000000000E+00  0.45593999997E+02  0.45594000000E+02  0.51100000000E-03 0.  1.
         11   -1    0    0    0    0 -0.00000000000E+00 -0.00000000000E+00 -0.45593999997E+02  0.45594000000E+02  0.51100000000E-03 0. -1.
    9900012    2    1    2    0    0  0.39027935103E+02  0.10530150444E+02  0.43706790046E+01  0.50528848242E+02  0.29999964715E+02 0.  0.
         12    1    1    2    0    0 -0.39027935103E+02 -0.10530150444E+02 -0.43706790046E+01  0.40659151758E+02  0.00000000000E+00 0. -1.
         11    1    3    3    0    0  0.12227819538E+02 -0.30708116164E+01 -0.42044478813E+00  0.12614524514E+02  0.51100000000E-03 0.  1.
        -11    1    3    3    0    0  0.10166204301E+02  0.29455317991E+01  0.12790541730E+02  0.16601982577E+02  0.51100000000E-03 0. -1.
         12    1    3    3    0    0  0.16633911264E+02  0.10655430261E+02 -0.79994179374E+01  0.21312341151E+02  0.00000000000E+00 0. -1.
</event>
<event>
 7    1  0.4871930E-013  0.5052886E+02  0.7816164E-02  0.1300439E+00
        -11   -1    0    0    0    0  0.00000000000E+00  0.00000000000E+00  0.45593999997E+02  0.45594000000E+02  0.51100000000E-03 0.  1.
         11   -1    0    0    0    0 -0.00000000000E+00 -0.00000000000E+00 -0.45593999997E+02  0.45594000000E+02  0.51100000000E-03 0. -1.
    9900012    2    1    2    0    0  0.17187809890E+02 -0.36408477340E+02  0.56716445737E+01  0.50528861012E+02  0.30000003533E+02 0.  0.
         12    1    1    2    0    0 -0.17187809890E+02  0.36408477340E+02 -0.56716445737E+01  0.40659138988E+02  0.00000000000E+00 0. -1.
         11    1    3    3    0    0  0.62898256947E+01 -0.12297977606E+02  0.37342740259E+01  0.14308981908E+02  0.51100000000E-03 0. -1.
        -11    1    3    3    0    0  0.17549024740E+02 -0.12340579846E+02 -0.33305795898E+01  0.21710618161E+02  0.51100000000E-03 0.  1.
         12    1    3    3    0    0 -0.66510405444E+01 -0.11769919887E+02  0.52679501376E+01  0.14509260944E+02  0.00000000000E+00 0. -1.
</event>
<event>
 7    1  0.4871930E-013  0.5052886E+02  0.7816164E-02  0.1300439E+00
        -11   -1    0    0    0    0  0.00000000000E+00  0.00000000000E+00  0.45593999997E+02  0.45594000000E+02  0.51100000000E-03 0. -1.
         11   -1    0    0    0    0 -0.00000000000E+00 -0.00000000000E+00 -0.45593999997E+02  0.45594000000E+02  0.51100000000E-03 0.  1.
    9900012    2    1    2    0    0  0.15626940265E+02  0.18667364760E+02 -0.32565222120E+02  0.50528862517E+02  0.30000008106E+02 0.  0.
         12    1    1    2    0    0 -0.15626940265E+02 -0.18667364760E+02  0.32565222120E+02  0.40659137483E+02  0.00000000000E+00 0. -1.
         11    1    3    3    0    0  0.47062237845E+01 -0.65699607736E+01 -0.10403751580E+02  0.13173874680E+02  0.51100000000E-03 0. -1.
        -11    1    3    3    0    0 -0.75617880869E+00  0.54867242809E+01 -0.98900610261E+01  0.11335310189E+02  0.51100000000E-03 0.  1.
         12    1    3    3    0    0  0.11676895289E+02  0.19750601253E+02 -0.12271409514E+02  0.26019677648E+02  0.00000000000E+00 0. -1.
</event>
<event>
 7    1  0.4871930E-013  0.5052884E+02  0.7816164E-02  0.1300439E+00
        -11   -1    0    0    0    0  0.00000000000E+00  0.00000000000E+00  0.45593999997E+02  0.45594000000E+02  0.51100000000E-03 0. -1.
         11   -1    0    0    0    0 -0.00000000000E+00 -0.00000000000E+00 -0.45593999997E+02  0.45594000000E+02  0.51100000000E-03 0.  1.
    9900012    2    1    2    0    0 -0.37011903289E+01 -0.69796817636E+01 -0.39884234082E+02  0.50528844873E+02  0.29999954475E+02 0.  0.
         12    1    1    2    0    0  0.37011903289E+01  0.69796817636E+01  0.39884234082E+02  0.40659155127E+02  0.00000000000E+00 0. -1.
         11    1    3    3    0    0 -0.84318999826E+01  0.46713046349E+01 -0.61342835623E+01  0.11425736711E+02  0.51100000000E-03 0.  1.
        -11    1    3    3    0    0  0.41223484983E+01 -0.11445198715E+01 -0.59683903180E+00  0.43197106349E+01  0.51100000000E-03 0. -1.
        -12    1    3    3    0    0  0.60836115536E+00 -0.10506466527E+02 -0.33153111488E+02  0.34783397527E+02  0.00000000000E+00 0.  1.
</event>
<event>
 7    1  0.4871930E-013  0.5052887E+02  0.7816164E-02  0.1300439E+00
        -11   -1    0    0    0    0  0.00000000000E+00  0.00000000000E+00  0.45593999997E+02  0.45594000000E+02  0.51100000000E-03 0.  1.
         11   -1    0    0    0    0 -0.00000000000E+00 -0.00000000000E+00 -0.45593999997E+02  0.45594000000E+02  0.51100000000E-03 0. -1.
    9900012    2    1    2    0    0  0.17714603909E+02  0.36116510522E+02 -0.59123357662E+01  0.50528865256E+02  0.30000016431E+02 0.  0.
         12    1    1    2    0    0 -0.17714603909E+02 -0.36116510522E+02  0.59123357662E+01  0.40659134744E+02  0.00000000000E+00 0. -1.
         11    1    3    3    0    0  0.36839214133E+01 -0.22105286814E+01 -0.56368014121E+01  0.70874004015E+01  0.51100000000E-03 0. -1.
        -11    1    3    3    0    0  0.17974508592E+01  0.12846441885E+02 -0.64851088087E+01  0.14502363090E+02  0.51100000000E-03 0.  1.
         12    1    3    3    0    0  0.12233231636E+02  0.25480597319E+02  0.62095744546E+01  0.28939101764E+02  0.00000000000E+00 0. -1.
</event>
<event>
 7    1  0.4871930E-013  0.5052886E+02  0.7816164E-02  0.1300439E+00
        -11   -1    0    0    0    0  0.00000000000E+00  0.00000000000E+00  0.45593999997E+02  0.45594000000E+02  0.51100000000E-03 0.  1.
         11   -1    0    0    0    0 -0.00000000000E+00 -0.00000000000E+00 -0.45593999997E+02  0.45594000000E+02  0.51100000000E-03 0. -1.
    9900012    2    1    2    0    0  0.38366776139E+02  0.12674438949E+02 -0.45293505863E+01  0.50528856739E+02  0.29999990544E+02 0.  0.
         12    1    1    2    0    0 -0.38366776139E+02 -0.12674438949E+02  0.45293505863E+01  0.40659143261E+02  0.00000000000E+00 0. -1.
         11    1    3    3    0    0  0.18797903918E+02  0.63105760336E+01 -0.68461975414E+01  0.20977487519E+02  0.51100000000E-03 0. -1.
        -11    1    3    3    0    0  0.21093271669E+02 -0.17832703455E+01  0.18657953103E+01  0.21250584821E+02  0.51100000000E-03 0.  1.
         12    1    3    3    0    0 -0.15243994477E+01  0.81471332613E+01  0.45105164476E+00  0.83007843991E+01  0.00000000000E+00 0. -1.
</event>
<event>
 7    1  0.4871930E-013  0.5052883E+02  0.7816164E-02  0.1300439E+00
        -11   -1    0    0    0    0  0.00000000000E+00  0.00000000000E+00  0.45593999997E+02  0.45594000000E+02  0.51100000000E-03 0.  1.
         11   -1    0    0    0    0 -0.00000000000E+00 -0.00000000000E+00 -0.45593999997E+02  0.45594000000E+02  0.51100000000E-03 0. -1.
    9900012    2    1    2    0    0 -0.13780047927E+02 -0.36260822527E+02  0.12183224682E+02  0.50528832093E+02  0.29999915631E+02 0.  0.
         12    1    1    2    0    0  0.13780047927E+02  0.36260822527E+02 -0.12183224682E+02  0.40659167907E+02  0.00000000000E+00 0. -1.
         11    1    3    3    0    0 -0.48439998527E+01 -0.80447849845E+01  0.10123495205E+02  0.13808260406E+02  0.51100000000E-03 0. -1.
        -11    1    3    3    0    0 -0.14180356785E+02 -0.27482858315E+02  0.37733101335E+01  0.31154901530E+02  0.51100000000E-03 0.  1.
        -12    1    3    3    0    0  0.52443087110E+01 -0.73317922707E+00 -0.17135806558E+01  0.55656701573E+01  0.00000000000E+00 0.  1.
</event>
<event>
 7    1  0.4871930E-013  0.5052886E+02  0.7816164E-02  0.1300439E+00
        -11   -1    0    0    0    0  0.00000000000E+00  0.00000000000E+00  0.45593999997E+02  0.45594000000E+02  0.51100000000E-03 0. -1.
         11   -1    0    0    0    0 -0.00000000000E+00 -0.00000000000E+00 -0.45593999997E+02  0.45594000000E+02  0.51100000000E-03 0.  1.
    9900012    2    1    2    0    0  0.20987496719E+02  0.33378345153E+02 -0.99285741494E+01  0.50528861687E+02  0.30000005584E+02 0.  0.
         12    1    1    2    0    0 -0.20987496719E+02 -0.33378345153E+02  0.99285741494E+01  0.40659138313E+02  0.00000000000E+00 0. -1.
         11    1    3    3    0    0  0.71044771576E+01  0.77172506236E+01 -0.49544990992E+01  0.11600716118E+02  0.51100000000E-03 0. -1.
        -11    1    3    3    0    0  0.17175707111E+02  0.27863451941E+02 -0.82863557753E+01  0.33764486685E+02  0.51100000000E-03 0.  1.
         12    1    3    3    0    0 -0.32926875488E+01 -0.22023574118E+01  0.33122807251E+01  0.51636588835E+01  0.00000000000E+00 0. -1.
</event>
<event>
 7    1  0.4871930E-013  0.5052886E+02  0.7816164E-02  0.1300439E+00
        -11   -1    0    0    0    0  0.00000000000E+00  0.00000000000E+00  0.45593999997E+02  0.45594000000E+02  0.51100000000E-03 0. -1.
         11   -1    0    0    0    0 -0.00000000000E+00 -0.00000000000E+00 -0.45593999997E+02  0.45594000000E+02  0.51100000000E-03 0.  1.
    9900012    2    1    2    0    0  0.38827750457E+02  0.30987307120E+00 -0.12061315346E+02  0.50528861362E+02  0.30000004597E+02 0.  0.
         12    1    1    2    0    0 -0.38827750457E+02 -0.30987307120E+00  0.12061315346E+02  0.40659138638E+02  0.00000000000E+00 0. -1.
         11    1    3    3    0    0  0.17931344337E+02  0.54188077188E+01 -0.23317274207E+01  0.18876798983E+02  0.51100000000E-03 0. -1.
        -11    1    3    3    0    0  0.10926812956E+01 -0.91106765257E+00  0.59048672052E+01  0.60738335220E+01  0.51100000000E-03 0.  1.
        -12    1    3    3    0    0  0.19803724825E+02 -0.41978669950E+01 -0.15634455131E+02  0.25578228858E+02  0.00000000000E+00 0.  1.
</event>
<event>
 7    1  0.4871930E-013  0.5052885E+02  0.7816164E-02  0.1300439E+00
        -11   -1    0    0    0    0  0.00000000000E+00  0.00000000000E+00  0.45593999997E+02  0.45594000000E+02  0.51100000000E-03 0.  1.
         11   -1    0    0    0    0 -0.00000000000E+00 -0.00000000000E+00 -0.45593999997E+02  0.45594000000E+02  0.51100000000E-03 0. -1.
    9900012    2    1    2    0    0  0.23990588908E+02 -0.11746653939E+02  0.30653447540E+02  0.50528854891E+02  0.29999984926E+02 0.  0.
         12    1    1    2    0    0 -0.23990588908E+02  0.11746653939E+02 -0.30653447540E+02  0.40659145109E+02  0.00000000000E+00 0. -1.
         11    1    3    3    0    0  0.74263800932E+00 -0.43594996722E+01 -0.39826680028E+01  0.59513354204E+01  0.51100000000E-03 0. -1.
        -11    1    3    3    0    0  0.53702097998E+01  0.28962346116E+01  0.29665943879E+01  0.67843946482E+01  0.51100000000E-03 0.  1.
        -12    1    3    3    0    0  0.17877741099E+02 -0.10283388879E+02  0.31669521155E+02  0.37793124822E+02  0.00000000000E+00 0.  1.
</event>
<event>
 7    1  0.4871930E-013  0.5052886E+02  0.7816164E-02  0.1300439E+00
        -11   -1    0    0    0    0  0.00000000000E+00  0.00000000000E+00  0.45593999997E+02  0.45594000000E+02  0.51100000000E-03 0. -1.
         11   -1    0    0    0    0 -0.00000000000E+00 -0.00000000000E+00 -0.45593999997E+02  0.45594000000E+02  0.51100000000E-03 0.  1.
    9900012    2    1    2    0    0 -0.40528822331E+02  0.18016720266E+01  0.27081208558E+01  0.50528863508E+02  0.30000011120E+02 0.  0.
         12    1    1    2    0    0  0.40528822331E+02 -0.18016720266E+01 -0.27081208558E+01  0.40659136492E+02  0.00000000000E+00 0. -1.
         11    1    3    3    0    0 -0.19296807679E+02  0.95774429424E+01  0.33680825088E+01  0.21804544938E+02  0.51100000000E-03 0. -1.
        -11    1    3    3    0    0 -0.10198842492E+02  0.27288450087E+01 -0.65125395705E+01  0.12404682793E+02  0.51100000000E-03 0.  1.
         12    1    3    3    0    0 -0.11033172160E+02 -0.10504615924E+02  0.58525779174E+01  0.16319635778E+02  0.00000000000E+00 0. -1.
</event>
<event>
 7    1  0.4871930E-013  0.5052888E+02  0.7816164E-02  0.1300439E+00
        -11   -1    0    0    0    0  0.00000000000E+00  0.00000000000E+00  0.45593999997E+02  0.45594000000E+02  0.51100000000E-03 0. -1.
         11   -1    0    0    0    0 -0.00000000000E+00 -0.00000000000E+00 -0.45593999997E+02  0.45594000000E+02  0.51100000000E-03 0.  1.
    9900012    2    1    2    0    0  0.96295817527E+01  0.34264195519E+02  0.19657064267E+02  0.50528879069E+02  0.30000058418E+02 0.  0.
         12    1    1    2    0    0 -0.96295817527E+01 -0.34264195519E+02 -0.19657064267E+02  0.40659120931E+02  0.00000000000E+00 0. -1.
         11    1    3    3    0    0 -0.24763413018E+01  0.33505884990E+01 -0.46207662231E+01  0.62217513838E+01  0.51100000000E-03 0. -1.
        -11    1    3    3    0    0  0.95172744948E+00  0.29192292606E+01  0.10921917924E+02  0.11345306343E+02  0.51100000000E-03 0.  1.
        -12    1    3    3    0    0  0.11154195605E+02  0.27994377759E+02  0.13355912566E+02  0.32961821342E+02  0.00000000000E+00 0.  1.
</event>
<event>
 7    1  0.4871930E-013  0.5052886E+02  0.7816164E-02  0.1300439E+00
        -11   -1    0    0    0    0  0.00000000000E+00  0.00000000000E+00  0.45593999997E+02  0.45594000000E+02  0.51100000000E-03 0. -1.
         11   -1    0    0    0    0 -0.00000000000E+00 -0.00000000000E+00 -0.45593999997E+02  0.45594000000E+02  0.51100000000E-03 0.  1.
    9900012    2    1    2    0    0  0.19767018483E+02 -0.17461073901E+02  0.30944167337E+02  0.50528860638E+02  0.30000002396E+02 0.  0.
         12    1    1    2    0    0 -0.19767018483E+02  0.17461073901E+02 -0.30944167337E+02  0.40659139362E+02  0.00000000000E+00 0. -1.
         11    1    3    3    0    0  0.11715194551E+02 -0.74609607150E+01  0.18437458766E+02  0.23083578669E+02  0.51100000000E-03 0. -1.
        -11    1    3    3    0    0 -0.26982822125E+01 -0.34490873811E+01  0.14092190129E+02  0.14756922225E+02  0.51100000000E-03 0.  1.
        -12    1    3    3    0    0  0.10750106145E+02 -0.65510258046E+01 -0.15854815588E+01  0.12688359744E+02  0.00000000000E+00 0.  1.
</event>
<event>
 7    1  0.4871930E-013  0.5052883E+02  0.7816164E-02  0.1300439E+00
        -11   -1    0    0    0    0  0.00000000000E+00  0.00000000000E+00  0.45593999997E+02  0.45594000000E+02  0.51100000000E-03 0.  1.
         11   -1    0    0    0    0 -0.00000000000E+00 -0.00000000000E+00 -0.45593999997E+02  0.45594000000E+02  0.51100000000E-03 0. -1.
    9900012    2    1    2    0    0  0.33941224850E+02  0.40512250722E+01  0.22017023522E+02  0.50528825222E+02  0.29999894744E+02 0.  0.
         12    1    1    2    0    0 -0.33941224850E+02 -0.40512250722E+01 -0.22017023522E+02  0.40659174778E+02  0.00000000000E+00 0. -1.
         11    1    3    3    0    0  0.11350487478E+02  0.26540726015E+01  0.11344059424E+01  0.11711726793E+02  0.51100000000E-03 0. -1.
        -11    1    3    3    0    0  0.16348329117E+02  0.53835702749E+01  0.24992964266E+02  0.30346317024E+02  0.51100000000E-03 0.  1.
         12    1    3    3    0    0  0.62424082546E+01 -0.39864178042E+01 -0.41103466873E+01  0.84707814053E+01  0.00000000000E+00 0. -1.
</event>
<event>
 7    1  0.4871930E-013  0.5052886E+02  0.7816164E-02  0.1300439E+00
        -11   -1    0    0    0    0  0.00000000000E+00  0.00000000000E+00  0.45593999997E+02  0.45594000000E+02  0.51100000000E-03 0. -1.
         11   -1    0    0    0    0 -0.00000000000E+00 -0.00000000000E+00 -0.45593999997E+02  0.45594000000E+02  0.51100000000E-03 0.  1.
    9900012    2    1    2    0    0  0.33509563692E+02  0.15742264030E+02 -0.16806433744E+02  0.50528856492E+02  0.29999989793E+02 0.  0.
         12    1    1    2    0    0 -0.33509563692E+02 -0.15742264030E+02  0.16806433744E+02  0.40659143508E+02  0.00000000000E+00 0. -1.
         11    1    3    3    0    0  0.18220649705E+02  0.16328926824E+02 -0.13127130038E+02  0.27765940830E+02  0.51100000000E-03 0. -1.
        -11    1    3    3    0    0  0.14379547607E+02  0.57505242064E+01 -0.22507859631E+00  0.15488401424E+02  0.51100000000E-03 0.  1.
         12    1    3    3    0    0  0.90936637939E+00 -0.63371869999E+01 -0.34542251103E+01  0.72745142378E+01  0.00000000000E+00 0. -1.
</event>
<event>
 7    1  0.7224253E-013  0.5052885E+02  0.7816164E-02  0.1300439E+00
        -11   -1    0    0    0    0  0.00000000000E+00  0.00000000000E+00  0.45593999997E+02  0.45594000000E+02  0.51100000000E-03 0. -1.
         11   -1    0    0    0    0 -0.00000000000E+00 -0.00000000000E+00 -0.45593999997E+02  0.45594000000E+02  0.51100000000E-03 0.  1.
    9900012    2    1    2    0    0  0.16992256150E+01 -0.26122286134E+02 -0.31111178909E+02  0.50528847849E+02  0.29999963522E+02 0.  0.
         12    1    1    2    0    0 -0.16992256150E+01  0.26122286134E+02  0.31111178909E+02  0.40659152151E+02  0.00000000000E+00 0. -1.
         11    1    3    3    0    0  0.88671342680E+01 -0.47332543237E+01  0.70450284297E+00  0.10076015638E+02  0.51100000000E-03 0. -1.
        -11    1    3    3    0    0 -0.66144152453E+01 -0.75660897094E+01 -0.77367878357E+01  0.12682826530E+02  0.51100000000E-03 0.  1.
        -12    1    3    3    0    0 -0.55349340773E+00 -0.13822942101E+02 -0.24078893916E+02  0.27770005681E+02  0.00000000000E+00 0.  1.
</event>
<event>
 7    1  0.4871930E-013  0.5052888E+02  0.7816164E-02  0.1300439E+00
        -11   -1    0    0    0    0  0.00000000000E+00  0.00000000000E+00  0.45593999997E+02  0.45594000000E+02  0.51100000000E-03 0.  1.
         11   -1    0    0    0    0 -0.00000000000E+00 -0.00000000000E+00 -0.45593999997E+02  0.45594000000E+02  0.51100000000E-03 0. -1.
    9900012    2    1    2    0    0 -0.11559448460E+02 -0.13148015172E+02  0.36697044437E+02  0.50528877751E+02  0.30000054411E+02 0.  0.
         12    1    1    2    0    0  0.11559448460E+02  0.13148015172E+02 -0.36697044437E+02  0.40659122249E+02  0.00000000000E+00 0. -1.
         11    1    3    3    0    0 -0.92291915418E+01 -0.32549899791E+01  0.13526510301E+02  0.16695490932E+02  0.51100000000E-03 0. -1.
        -11    1    3    3    0    0 -0.10908866412E+02 -0.45263939358E+01  0.20004256124E+02  0.23230623578E+02  0.51100000000E-03 0.  1.
         12    1    3    3    0    0  0.85786094936E+01 -0.53666312571E+01  0.31662780116E+01  0.10602763241E+02  0.00000000000E+00 0. -1.
</event>
<event>
 7    1  0.4871930E-013  0.5052881E+02  0.7816164E-02  0.1300439E+00
        -11   -1    0    0    0    0  0.00000000000E+00  0.00000000000E+00  0.45593999997E+02  0.45594000000E+02  0.51100000000E-03 0. -1.
         11   -1    0    0    0    0 -0.00000000000E+00 -0.00000000000E+00 -0.45593999997E+02  0.45594000000E+02  0.51100000000E-03 0.  1.
    9900012    2    1    2    0    0 -0.35842432260E+02 -0.13827250245E+02 -0.13315302462E+02  0.50528805723E+02  0.29999835474E+02 0.  0.
         12    1    1    2    0    0  0.35842432260E+02  0.13827250245E+02  0.13315302462E+02  0.40659194277E+02  0.00000000000E+00 0. -1.
         11    1    3    3    0    0  0.99034322178E+00  0.60016359322E+00 -0.32631015485E+00  0.12031020796E+01  0.51100000000E-03 0. -1.
        -11    1    3    3    0    0 -0.19222525199E+02 -0.13017215105E+02 -0.19680007772E+02  0.30434455314E+02  0.51100000000E-03 0.  1.
        -12    1    3    3    0    0 -0.17610250282E+02 -0.14101987337E+01  0.66910154644E+01  0.18891248329E+02  0.00000000000E+00 0.  1.
</event>
<event>
 7    1  0.4871930E-013  0.5052887E+02  0.7816164E-02  0.1300439E+00
        -11   -1    0    0    0    0  0.00000000000E+00  0.00000000000E+00  0.45593999997E+02  0.45594000000E+02  0.51100000000E-03 0.  1.
         11   -1    0    0    0    0 -0.00000000000E+00 -0.00000000000E+00 -0.45593999997E+02  0.45594000000E+02  0.51100000000E-03 0. -1.
    9900012    2    1    2    0    0 -0.13890676292E+02 -0.13063076237E+02  0.35910587315E+02  0.50528866586E+02  0.30000020476E+02 0.  0.
         12    1    1    2    0    0  0.13890676292E+02  0.13063076237E+02 -0.35910587315E+02  0.40659133414E+02  0.00000000000E+00 0. -1.
         11    1    3    3    0    0  0.46064245933E-01 -0.11306080946E+02  0.71414861429E+01  0.13372748889E+02  0.51100000000E-03 0. -1.
        -11    1    3    3    0    0 -0.44667215268E+01  0.68400963129E+00 -0.19472671732E+01  0.49204999826E+01  0.51100000000E-03 0.  1.
        -12    1    3    3    0    0 -0.94700190108E+01 -0.24410049227E+01  0.30716368345E+02  0.32235617714E+02  0.00000000000E+00 0.  1.
</event>
<event>
 7    1  0.4871930E-013  0.5052887E+02  0.7816164E-02  0.1300439E+00
        -11   -1    0    0    0    0  0.00000000000E+00  0.00000000000E+00  0.45593999997E+02  0.45594000000E+02  0.51100000000E-03 0. -1.
         11   -1    0    0    0    0 -0.00000000000E+00 -0.00000000000E+00 -0.45593999997E+02  0.45594000000E+02  0.51100000000E-03 0.  1.
    9900012    2    1    2    0    0  0.12779179498E+02  0.35142161647E+02 -0.15965139856E+02  0.50528872557E+02  0.30000038624E+02 0.  0.
         12    1    1    2    0    0 -0.12779179498E+02 -0.35142161647E+02  0.15965139856E+02  0.40659127443E+02  0.00000000000E+00 0. -1.
         11    1    3    3    0    0  0.37720449341E+01  0.19780537059E+02 -0.14643765987E+02  0.24898551201E+02  0.51100000000E-03 0.  1.
        -11    1    3    3    0    0 -0.51661911115E+01  0.42585069783E+01 -0.33951754322E+01  0.75067721933E+01  0.51100000000E-03 0. -1.
         12    1    3    3    0    0  0.14173325675E+02  0.11103117609E+02  0.20738015640E+01  0.18123549163E+02  0.00000000000E+00 0. -1.
</event>
<event>
 7    1  0.4871930E-013  0.5052896E+02  0.7816164E-02  0.1300438E+00
        -11   -1    0    0    0    0  0.00000000000E+00  0.00000000000E+00  0.45593999997E+02  0.45594000000E+02  0.51100000000E-03 0.  1.
         11   -1    0    0    0    0 -0.00000000000E+00 -0.00000000000E+00 -0.45593999997E+02  0.45594000000E+02  0.51100000000E-03 0. -1.
    9900012    2    1    2    0    0  0.32360445594E+02 -0.15910369310E+02  0.18783489317E+02  0.50528957198E+02  0.30000295897E+02 0.  0.
         12    1    1    2    0    0 -0.32360445594E+02  0.15910369310E+02 -0.18783489317E+02  0.40659042802E+02  0.00000000000E+00 0. -1.
         11    1    3    3    0    0  0.89137505147E+01 -0.46283999215E+01 -0.20494281373E+01  0.10250716561E+02  0.51100000000E-03 0. -1.
        -11    1    3    3    0    0  0.25386366416E+02 -0.14403323397E+02  0.13675766699E+02  0.32232746078E+02  0.51100000000E-03 0.  1.
         12    1    3    3    0    0 -0.19396713364E+01  0.31213540088E+01  0.71571507560E+01  0.80454945582E+01  0.00000000000E+00 0. -1.
</event>
<event>
 7    1  0.4871930E-013  0.5052886E+02  0.7816164E-02  0.1300439E+00
        -11   -1    0    0    0    0  0.00000000000E+00  0.00000000000E+00  0.45593999997E+02  0.45594000000E+02  0.51100000000E-03 0. -1.
         11   -1    0    0    0    0 -0.00000000000E+00 -0.00000000000E+00 -0.45593999997E+02  0.45594000000E+02  0.51100000000E-03 0.  1.
    9900012    2    1    2    0    0 -0.73220503693E+01 -0.42776143188E+01 -0.39765001277E+02  0.50528859177E+02  0.29999997954E+02 0.  0.
         12    1    1    2    0    0  0.73220503693E+01  0.42776143188E+01  0.39765001277E+02  0.40659140823E+02  0.00000000000E+00 0. -1.
         11    1    3    3    0    0  0.23866935691E+01 -0.71744184510E+01 -0.11986663881E+02  0.14172109849E+02  0.51100000000E-03 0.  1.
        -11    1    3    3    0    0  0.28848386486E+01 -0.18879398713E+01  0.17748999282E+01  0.38777417400E+01  0.51100000000E-03 0. -1.
        -12    1    3    3    0    0 -0.12593582587E+02  0.47847440034E+01 -0.29553237324E+02  0.32479007588E+02  0.00000000000E+00 0.  1.
</event>
<event>
 7    1  0.4871930E-013  0.5052886E+02  0.7816164E-02  0.1300439E+00
        -11   -1    0    0    0    0  0.00000000000E+00  0.00000000000E+00  0.45593999997E+02  0.45594000000E+02  0.51100000000E-03 0. -1.
         11   -1    0    0    0    0 -0.00000000000E+00 -0.00000000000E+00 -0.45593999997E+02  0.45594000000E+02  0.51100000000E-03 0.  1.
    9900012    2    1    2    0    0 -0.25480276288E+02  0.25713425243E+02  0.18513254624E+02  0.50528864320E+02  0.30000013588E+02 0.  0.
         12    1    1    2    0    0  0.25480276288E+02 -0.25713425243E+02 -0.18513254624E+02  0.40659135680E+02  0.00000000000E+00 0. -1.
         11    1    3    3    0    0 -0.91231212898E+01 -0.13655204269E+01  0.11312793996E+02  0.14597098903E+02  0.51100000000E-03 0. -1.
        -11    1    3    3    0    0 -0.86099271125E+01  0.21760609987E+02  0.10921184653E+02  0.25824934973E+02  0.51100000000E-03 0.  1.
         12    1    3    3    0    0 -0.77472278857E+01  0.53183356835E+01 -0.37207240259E+01  0.10106830444E+02  0.00000000000E+00 0. -1.
</event>
<event>
 7    1  0.4871930E-013  0.5052884E+02  0.7816164E-02  0.1300439E+00
        -11   -1    0    0    0    0  0.00000000000E+00  0.00000000000E+00  0.45593999997E+02  0.45594000000E+02  0.51100000000E-03 0. -1.
         11   -1    0    0    0    0 -0.00000000000E+00 -0.00000000000E+00 -0.45593999997E+02  0.45594000000E+02  0.51100000000E-03 0.  1.
    9900012    2    1    2    0    0  0.11251957214E+02  0.24716803271E+02 -0.30259546457E+02  0.50528842890E+02  0.29999948449E+02 0.  0.
         12    1    1    2    0    0 -0.11251957214E+02 -0.24716803271E+02  0.30259546457E+02  0.40659157110E+02  0.00000000000E+00 0. -1.
         11    1    3    3    0    0 -0.23512098570E+01 -0.28679823953E+01 -0.19685249563E+01  0.41986428255E+01  0.51100000000E-03 0. -1.
        -11    1    3    3    0    0  0.12855758861E+02  0.54853730658E+01 -0.15129306522E+02  0.20597469982E+02  0.51100000000E-03 0.  1.
        -12    1    3    3    0    0  0.74740821052E+00  0.22099412601E+02 -0.13161714978E+02  0.25732730083E+02  0.00000000000E+00 0.  1.
</event>
<event>
 7    1  0.4871930E-013  0.5052886E+02  0.7816164E-02  0.1300439E+00
        -11   -1    0    0    0    0  0.00000000000E+00  0.00000000000E+00  0.45593999997E+02  0.45594000000E+02  0.51100000000E-03 0.  1.
         11   -1    0    0    0    0 -0.00000000000E+00 -0.00000000000E+00 -0.45593999997E+02  0.45594000000E+02  0.51100000000E-03 0. -1.
    9900012    2    1    2    0    0  0.32646784404E+02 -0.23119218112E+02 -0.72701131516E+01  0.50528864209E+02  0.30000013251E+02 0.  0.
         12    1    1    2    0    0 -0.32646784404E+02  0.23119218112E+02  0.72701131516E+01  0.40659135791E+02  0.00000000000E+00 0. -1.
         11    1    3    3    0    0 -0.14573056174E+00  0.22084724522E+01 -0.50550866581E+01  0.55183774201E+01  0.51100000000E-03 0. -1.
        -11    1    3    3    0    0  0.14326456006E+02 -0.15245103135E+02 -0.91833487893E+01  0.22847196908E+02  0.51100000000E-03 0.  1.
        -12    1    3    3    0    0  0.18466058959E+02 -0.10082587429E+02  0.69683222958E+01  0.22163289881E+02  0.00000000000E+00 0.  1.
</event>
<event>
 7    1  0.4871930E-013  0.5052886E+02  0.7816164E-02  0.1300439E+00
        -11   -1    0    0    0    0  0.00000000000E+00  0.00000000000E+00  0.45593999997E+02  0.45594000000E+02  0.51100000000E-03 0. -1.
         11   -1    0    0    0    0 -0.00000000000E+00 -0.00000000000E+00 -0.45593999997E+02  0.45594000000E+02  0.51100000000E-03 0.  1.
    9900012    2    1    2    0    0 -0.33612392918E+02  0.10092934944E+02 -0.20530587429E+02  0.50528864328E+02  0.30000013610E+02 0.  0.
         12    1    1    2    0    0  0.33612392918E+02 -0.10092934944E+02  0.20530587429E+02  0.40659135672E+02  0.00000000000E+00 0. -1.
         11    1    3    3    0    0 -0.26181986386E+01 -0.21198165923E+01 -0.13756651571E+02  0.14163122862E+02  0.51100000000E-03 0. -1.
        -11    1    3    3    0    0 -0.17731453370E+02  0.11061095076E+01 -0.69200114422E+01  0.19066055583E+02  0.51100000000E-03 0.  1.
         12    1    3    3    0    0 -0.13262740909E+02  0.11106642029E+02  0.14607558446E+00  0.17299685883E+02  0.00000000000E+00 0. -1.
</event>
<event>
 7    1  0.4871930E-013  0.5052881E+02  0.7816164E-02  0.1300439E+00
        -11   -1    0    0    0    0  0.00000000000E+00  0.00000000000E+00  0.45593999997E+02  0.45594000000E+02  0.51100000000E-03 0. -1.
         11   -1    0    0    0    0 -0.00000000000E+00 -0.00000000000E+00 -0.45593999997E+02  0.45594000000E+02  0.51100000000E-03 0.  1.
    9900012    2    1    2    0    0  0.38475521919E+02  0.32438063382E+01  0.12738970775E+02  0.50528813548E+02  0.29999859260E+02 0.  0.
         12    1    1    2    0    0 -0.38475521919E+02 -0.32438063382E+01 -0.12738970775E+02  0.40659186452E+02  0.00000000000E+00 0. -1.
         11    1    3    3    0    0  0.11876283734E+01  0.24124025302E+01 -0.10672173187E+01  0.28929397137E+01  0.51100000000E-03 0.  1.
        -11    1    3    3    0    0  0.30610341935E+02  0.10152222468E+02  0.15938201520E+02  0.35973419665E+02  0.51100000000E-03 0. -1.
         12    1    3    3    0    0  0.66775516106E+01 -0.93208186599E+01 -0.21320134260E+01  0.11662454169E+02  0.00000000000E+00 0. -1.
</event>
<event>
 7    1  0.4871930E-013  0.5052884E+02  0.7816164E-02  0.1300439E+00
        -11   -1    0    0    0    0  0.00000000000E+00  0.00000000000E+00  0.45593999997E+02  0.45594000000E+02  0.51100000000E-03 0.  1.
         11   -1    0    0    0    0 -0.00000000000E+00 -0.00000000000E+00 -0.45593999997E+02  0.45594000000E+02  0.51100000000E-03 0. -1.
    9900012    2    1    2    0    0  0.22453292854E+02  0.64841314277E+01  0.33271199399E+02  0.50528843223E+02  0.29999949461E+02 0.  0.
         12    1    1    2    0    0 -0.22453292854E+02 -0.64841314277E+01 -0.33271199399E+02  0.40659156777E+02  0.00000000000E+00 0. -1.
         11    1    3    3    0    0  0.11799064220E+02 -0.54808279947E+01  0.18998875539E+02  0.23026390599E+02  0.51100000000E-03 0. -1.
        -11    1    3    3    0    0  0.15336318913E+02  0.77852970943E+01  0.97946030121E+01  0.19792619258E+02  0.51100000000E-03 0.  1.
         12    1    3    3    0    0 -0.46820902792E+01  0.41796623280E+01  0.44777208475E+01  0.77098333670E+01  0.00000000000E+00 0. -1.
</event>
<event>
 7    1  0.4871930E-013  0.5052888E+02  0.7816164E-02  0.1300439E+00
        -11   -1    0    0    0    0  0.00000000000E+00  0.00000000000E+00  0.45593999997E+02  0.45594000000E+02  0.51100000000E-03 0.  1.
         11   -1    0    0    0    0 -0.00000000000E+00 -0.00000000000E+00 -0.45593999997E+02  0.45594000000E+02  0.51100000000E-03 0. -1.
    9900012    2    1    2    0    0  0.18818326343E+02  0.14996594818E+02  0.32774029879E+02  0.50528876830E+02  0.30000051611E+02 0.  0.
         12    1    1    2    0    0 -0.18818326343E+02 -0.14996594818E+02 -0.32774029879E+02  0.40659123170E+02  0.00000000000E+00 0. -1.
         11    1    3    3    0    0  0.40923669604E+01 -0.64398464679E+01  0.20159049078E+01  0.78919555706E+01  0.51100000000E-03 0. -1.
        -11    1    3    3    0    0  0.79897240811E+01  0.15395326252E+01  0.11847641293E+02  0.14372628711E+02  0.51100000000E-03 0.  1.
        -12    1    3    3    0    0  0.67362353014E+01  0.19896908661E+02  0.18910483678E+02  0.28264292548E+02  0.00000000000E+00 0.  1.
</event>
<event>
 7    1  0.4871930E-013  0.5052885E+02  0.7816164E-02  0.1300439E+00
        -11   -1    0    0    0    0  0.00000000000E+00  0.00000000000E+00  0.45593999997E+02  0.45594000000E+02  0.51100000000E-03 0.  1.
         11   -1    0    0    0    0 -0.00000000000E+00 -0.00000000000E+00 -0.45593999997E+02  0.45594000000E+02  0.51100000000E-03 0. -1.
    9900012    2    1    2    0    0  0.33094161534E+01  0.28704572566E+01  0.40422454468E+02  0.50528848689E+02  0.29999966075E+02 0.  0.
         12    1    1    2    0    0 -0.33094161534E+01 -0.28704572566E+01 -0.40422454468E+02  0.40659151311E+02  0.00000000000E+00 0. -1.
         11    1    3    3    0    0 -0.96970303070E+01  0.19903466204E+01  0.87685561648E+01  0.13224275176E+02  0.51100000000E-03 0. -1.
        -11    1    3    3    0    0 -0.95223420119E+00 -0.43872804989E+01  0.10492332956E+02  0.11412450713E+02  0.51100000000E-03 0.  1.
         12    1    3    3    0    0  0.13958680662E+02  0.52673911351E+01  0.21161565347E+02  0.25892122800E+02  0.00000000000E+00 0. -1.
</event>
<event>
 7    1  0.4871930E-013  0.5052886E+02  0.7816164E-02  0.1300439E+00
        -11   -1    0    0    0    0  0.00000000000E+00  0.00000000000E+00  0.45593999997E+02  0.45594000000E+02  0.51100000000E-03 0.  1.
         11   -1    0    0    0    0 -0.00000000000E+00 -0.00000000000E+00 -0.45593999997E+02  0.45594000000E+02  0.51100000000E-03 0. -1.
    9900012    2    1    2    0    0 -0.43555317085E+01 -0.20730958818E+02  0.34704785431E+02  0.50528862752E+02  0.30000008820E+02 0.  0.
         12    1    1    2    0    0  0.43555317085E+01  0.20730958818E+02 -0.34704785431E+02  0.40659137248E+02  0.00000000000E+00 0. -1.
         11    1    3    3    0    0 -0.27914157614E+01 -0.66258219683E+01  0.19521766345E+02  0.20803674680E+02  0.51100000000E-03 0.  1.
        -11    1    3    3    0    0  0.84993888053E+01 -0.11526354617E+01  0.83047916340E+01  0.11938917158E+02  0.51100000000E-03 0. -1.
        -12    1    3    3    0    0 -0.10063504752E+02 -0.12952501388E+02  0.68782274520E+01  0.17786270913E+02  0.00000000000E+00 0.  1.
</event>
<event>
 7    1  0.4871930E-013  0.5052886E+02  0.7816164E-02  0.1300439E+00
        -11   -1    0    0    0    0  0.00000000000E+00  0.00000000000E+00  0.45593999997E+02  0.45594000000E+02  0.51100000000E-03 0.  1.
         11   -1    0    0    0    0 -0.00000000000E+00 -0.00000000000E+00 -0.45593999997E+02  0.45594000000E+02  0.51100000000E-03 0. -1.
    9900012    2    1    2    0    0  0.25320686698E+02  0.28451501233E+02  0.14231681100E+02  0.50528857803E+02  0.29999993778E+02 0.  0.
         12    1    1    2    0    0 -0.25320686698E+02 -0.28451501233E+02 -0.14231681100E+02  0.40659142197E+02  0.00000000000E+00 0. -1.
         11    1    3    3    0    0 -0.40900477958E+01  0.65840665633E+01 -0.17768156205E+01  0.79520750432E+01  0.51100000000E-03 0. -1.
        -11    1    3    3    0    0  0.92179181281E+01  0.15896218284E+02  0.67855371795E+01  0.19588345653E+02  0.51100000000E-03 0.  1.
        -12    1    3    3    0    0  0.20192816366E+02  0.59712163858E+01  0.92229595407E+01  0.22988437106E+02  0.00000000000E+00 0.  1.
</event>
<event>
 7    1  0.4871930E-013  0.5052885E+02  0.7816164E-02  0.1300439E+00
        -11   -1    0    0    0    0  0.00000000000E+00  0.00000000000E+00  0.45593999997E+02  0.45594000000E+02  0.51100000000E-03 0.  1.
         11   -1    0    0    0    0 -0.00000000000E+00 -0.00000000000E+00 -0.45593999997E+02  0.45594000000E+02  0.51100000000E-03 0. -1.
    9900012    2    1    2    0    0 -0.26214470296E+02 -0.30095745509E+02  0.77597558637E+01  0.50528853899E+02  0.29999981910E+02 0.  0.
         12    1    1    2    0    0  0.26214470296E+02  0.30095745509E+02 -0.77597558637E+01  0.40659146101E+02  0.00000000000E+00 0. -1.
         11    1    3    3    0    0 -0.27209480060E+01  0.96271749403E-01 -0.18660308801E+01  0.33007420086E+01  0.51100000000E-03 0. -1.
        -11    1    3    3    0    0  0.49231672607E+01 -0.10394420595E+02  0.37695857740E+01  0.12103360383E+02  0.51100000000E-03 0.  1.
        -12    1    3    3    0    0 -0.28416689550E+02 -0.19797596663E+02  0.58562009697E+01  0.35124751507E+02  0.00000000000E+00 0.  1.
</event>
<event>
 7    1  0.4871930E-013  0.5052886E+02  0.7816164E-02  0.1300439E+00
        -11   -1    0    0    0    0  0.00000000000E+00  0.00000000000E+00  0.45593999997E+02  0.45594000000E+02  0.51100000000E-03 0. -1.
         11   -1    0    0    0    0 -0.00000000000E+00 -0.00000000000E+00 -0.45593999997E+02  0.45594000000E+02  0.51100000000E-03 0.  1.
    9900012    2    1    2    0    0 -0.14664164017E+02  0.24368087725E+02 -0.29057252467E+02  0.50528864168E+02  0.30000013126E+02 0.  0.
         12    1    1    2    0    0  0.14664164017E+02 -0.24368087725E+02  0.29057252467E+02  0.40659135832E+02  0.00000000000E+00 0. -1.
         11    1    3    3    0    0  0.18413966939E+01  0.20598908546E+02 -0.12039239423E+02  0.23930086946E+02  0.51100000000E-03 0. -1.
        -11    1    3    3    0    0 -0.26915235136E+01  0.21737132260E+01  0.12161391425E+01  0.36671954800E+01  0.51100000000E-03 0.  1.
        -12    1    3    3    0    0 -0.13814037197E+02  0.15954659530E+01 -0.18234152186E+02  0.22931581743E+02  0.00000000000E+00 0.  1.
</event>
<event>
 7    1  0.4871930E-013  0.5052887E+02  0.7816164E-02  0.1300439E+00
        -11   -1    0    0    0    0  0.00000000000E+00  0.00000000000E+00  0.45593999997E+02  0.45594000000E+02  0.51100000000E-03 0.  1.
         11   -1    0    0    0    0 -0.00000000000E+00 -0.00000000000E+00 -0.45593999997E+02  0.45594000000E+02  0.51100000000E-03 0. -1.
    9900012    2    1    2    0    0 -0.47564137939E+01 -0.28584091520E+02  0.28521763934E+02  0.50528870913E+02  0.30000033627E+02 0.  0.
         12    1    1    2    0    0  0.47564137939E+01  0.28584091520E+02 -0.28521763934E+02  0.40659129087E+02  0.00000000000E+00 0. -1.
         11    1    3    3    0    0  0.24713712700E+01 -0.17245671551E+02  0.13596805921E+02  0.22099637886E+02  0.51100000000E-03 0. -1.
        -11    1    3    3    0    0  0.52427742970E+01 -0.61098523846E+01 -0.31239188953E+00  0.80569577040E+01  0.51100000000E-03 0.  1.
         12    1    3    3    0    0 -0.12470559361E+02 -0.52285675846E+01  0.15237349903E+02  0.20372275323E+02  0.00000000000E+00 0. -1.
</event>
<event>
 7    1  0.5452863E-013  0.5052886E+02  0.7816164E-02  0.1300439E+00
        -11   -1    0    0    0    0  0.00000000000E+00  0.00000000000E+00  0.45593999997E+02  0.45594000000E+02  0.51100000000E-03 0.  1.
         11   -1    0    0    0    0 -0.00000000000E+00 -0.00000000000E+00 -0.45593999997E+02  0.45594000000E+02  0.51100000000E-03 0. -1.
    9900012    2    1    2    0    0  0.37980142175E+02  0.76500646067E+01  0.12334957113E+02  0.50528857668E+02  0.29999993369E+02 0.  0.
         12    1    1    2    0    0 -0.37980142175E+02 -0.76500646067E+01 -0.12334957113E+02  0.40659142332E+02  0.00000000000E+00 0. -1.
         11    1    3    3    0    0 -0.18298088427E+01 -0.11816480927E+01 -0.19422533355E+01  0.29183627081E+01  0.51100000000E-03 0. -1.
        -11    1    3    3    0    0  0.94653830191E+01  0.88082548324E+01  0.11207550490E+02  0.17111049562E+02  0.51100000000E-03 0.  1.
        -12    1    3    3    0    0  0.30344567999E+02  0.23457866976E-01  0.30696599592E+01  0.30499445398E+02  0.00000000000E+00 0.  1.
</event>
<event>
 7    1  0.4871930E-013  0.5052886E+02  0.7816164E-02  0.1300439E+00
        -11   -1    0    0    0    0  0.00000000000E+00  0.00000000000E+00  0.45593999997E+02  0.45594000000E+02  0.51100000000E-03 0.  1.
         11   -1    0    0    0    0 -0.00000000000E+00 -0.00000000000E+00 -0.45593999997E+02  0.45594000000E+02  0.51100000000E-03 0. -1.
    9900012    2    1    2    0    0  0.12630712905E+02  0.25551966891E+02  0.28995311719E+02  0.50528855615E+02  0.29999987127E+02 0.  0.
         12    1    1    2    0    0 -0.12630712905E+02 -0.25551966891E+02 -0.28995311719E+02  0.40659144385E+02  0.00000000000E+00 0. -1.
         11    1    3    3    0    0 -0.53270321417E+01 -0.10731234737E+01  0.94264676170E+01  0.10880586263E+02  0.51100000000E-03 0. -1.
        -11    1    3    3    0    0  0.33363390507E+01  0.10215936968E+02  0.12667050817E+02  0.16611763996E+02  0.51100000000E-03 0.  1.
        -12    1    3    3    0    0  0.14621405996E+02  0.16409153396E+02  0.69017932850E+01  0.23036505356E+02  0.00000000000E+00 0.  1.
</event>
<event>
 7    1  0.4871930E-013  0.5052887E+02  0.7816164E-02  0.1300439E+00
        -11   -1    0    0    0    0  0.00000000000E+00  0.00000000000E+00  0.45593999997E+02  0.45594000000E+02  0.51100000000E-03 0. -1.
         11   -1    0    0    0    0 -0.00000000000E+00 -0.00000000000E+00 -0.45593999997E+02  0.45594000000E+02  0.51100000000E-03 0.  1.
    9900012    2    1    2    0    0 -0.28326326107E+02  0.25620922433E+02 -0.13941038441E+02  0.50528868555E+02  0.30000026461E+02 0.  0.
         12    1    1    2    0    0  0.28326326107E+02 -0.25620922433E+02  0.13941038441E+02  0.40659131445E+02  0.00000000000E+00 0. -1.
         11    1    3    3    0    0  0.61826209790E-01  0.21357717576E+01  0.60683483312E+01  0.64335212140E+01  0.51100000000E-03 0. -1.
        -11    1    3    3    0    0 -0.10648443689E+02  0.10813121827E+02 -0.10649942762E+01  0.15213387845E+02  0.51100000000E-03 0.  1.
        -12    1    3    3    0    0 -0.17739708628E+02  0.12672028848E+02 -0.18944392496E+02  0.28881959496E+02  0.00000000000E+00 0.  1.
</event>
<event>
 7    1  0.4871930E-013  0.5052887E+02  0.7816164E-02  0.1300439E+00
        -11   -1    0    0    0    0  0.00000000000E+00  0.00000000000E+00  0.45593999997E+02  0.45594000000E+02  0.51100000000E-03 0.  1.
         11   -1    0    0    0    0 -0.00000000000E+00 -0.00000000000E+00 -0.45593999997E+02  0.45594000000E+02  0.51100000000E-03 0. -1.
    9900012    2    1    2    0    0  0.21663909097E+02 -0.29003305570E+02 -0.18510757000E+02  0.50528870446E+02  0.30000032209E+02 0.  0.
         12    1    1    2    0    0 -0.21663909097E+02  0.29003305570E+02  0.18510757000E+02  0.40659129554E+02  0.00000000000E+00 0. -1.
         11    1    3    3    0    0  0.13016562865E+01 -0.58782423067E+01 -0.75919102800E+01  0.96894346412E+01  0.51100000000E-03 0. -1.
        -11    1    3    3    0    0  0.11654480186E+02 -0.36618780513E+01 -0.14774985643E+02  0.19171240447E+02  0.51100000000E-03 0.  1.
        -12    1    3    3    0    0  0.87077726249E+01 -0.19463185212E+02  0.38561389231E+01  0.21668195358E+02  0.00000000000E+00 0.  1.
</event>
<event>
 7    1  0.4871930E-013  0.5052887E+02  0.7816164E-02  0.1300439E+00
        -11   -1    0    0    0    0  0.00000000000E+00  0.00000000000E+00  0.45593999997E+02  0.45594000000E+02  0.51100000000E-03 0.  1.
         11   -1    0    0    0    0 -0.00000000000E+00 -0.00000000000E+00 -0.45593999997E+02  0.45594000000E+02  0.51100000000E-03 0. -1.
    9900012    2    1    2    0    0 -0.19507038190E+01  0.38237158601E+02  0.13684992097E+02  0.50528873694E+02  0.30000042080E+02 0.  0.
         12    1    1    2    0    0  0.19507038190E+01 -0.38237158601E+02 -0.13684992097E+02  0.40659126306E+02  0.00000000000E+00 0. -1.
         11    1    3    3    0    0  0.29758513333E+01 -0.24571802514E+01 -0.12106659702E+00  0.38610987203E+01  0.51100000000E-03 0. -1.
        -11    1    3    3    0    0  0.59119537784E+01  0.23296821567E+02  0.85080641939E+01  0.25496671336E+02  0.51100000000E-03 0.  1.
         12    1    3    3    0    0 -0.10838508931E+02  0.17397517285E+02  0.52979945006E+01  0.21171103638E+02  0.00000000000E+00 0. -1.
</event>
<event>
 7    1  0.4871930E-013  0.5052888E+02  0.7816164E-02  0.1300439E+00
        -11   -1    0    0    0    0  0.00000000000E+00  0.00000000000E+00  0.45593999997E+02  0.45594000000E+02  0.51100000000E-03 0.  1.
         11   -1    0    0    0    0 -0.00000000000E+00 -0.00000000000E+00 -0.45593999997E+02  0.45594000000E+02  0.51100000000E-03 0. -1.
    9900012    2    1    2    0    0 -0.45754042292E+00  0.38646118152E+02 -0.12626637584E+02  0.50528883333E+02  0.30000071379E+02 0.  0.
         12    1    1    2    0    0  0.45754042292E+00 -0.38646118152E+02  0.12626637584E+02  0.40659116667E+02  0.00000000000E+00 0. -1.
         11    1    3    3    0    0  0.60486755628E+01  0.61060266030E+01 -0.42219182676E+01  0.95757313591E+01  0.51100000000E-03 0. -1.
        -11    1    3    3    0    0 -0.28719591287E+01  0.31359173488E+01 -0.10422526413E+02  0.11256606236E+02  0.51100000000E-03 0.  1.
        -12    1    3    3    0    0 -0.36342568570E+01  0.29404174200E+02  0.20178070971E+01  0.29696545738E+02  0.00000000000E+00 0.  1.
</event>
<event>
 7    1  0.4871930E-013  0.5052886E+02  0.7816164E-02  0.1300439E+00
        -11   -1    0    0    0    0  0.00000000000E+00  0.00000000000E+00  0.45593999997E+02  0.45594000000E+02  0.51100000000E-03 0.  1.
         11   -1    0    0    0    0 -0.00000000000E+00 -0.00000000000E+00 -0.45593999997E+02  0.45594000000E+02  0.51100000000E-03 0. -1.
    9900012    2    1    2    0    0  0.28290693542E+02 -0.77328369801E+01  0.28160350417E+02  0.50528862719E+02  0.30000008721E+02 0.  0.
         12    1    1    2    0    0 -0.28290693542E+02  0.77328369801E+01 -0.28160350417E+02  0.40659137281E+02  0.00000000000E+00 0. -1.
         11    1    3    3    0    0 -0.99069677500E+00 -0.28670396089E+01 -0.62599100985E+00  0.30972990208E+01  0.51100000000E-03 0. -1.
        -11    1    3    3    0    0  0.42925404314E+01 -0.43019314446E+01 -0.31753813675E+01  0.68567896715E+01  0.51100000000E-03 0.  1.
        -12    1    3    3    0    0  0.24988849885E+02 -0.56386592671E+00  0.31961722794E+02  0.40574774027E+02  0.00000000000E+00 0.  1.
</event>
<event>
 7    1  0.8548249E-013  0.5052886E+02  0.7816164E-02  0.1300439E+00
        -11   -1    0    0    0    0  0.00000000000E+00  0.00000000000E+00  0.45593999997E+02  0.45594000000E+02  0.51100000000E-03 0. -1.
         11   -1    0    0    0    0 -0.00000000000E+00 -0.00000000000E+00 -0.45593999997E+02  0.45594000000E+02  0.51100000000E-03 0.  1.
    9900012    2    1    2    0    0 -0.41918231783E+00 -0.15366744590E+02 -0.37641112765E+02  0.50528856830E+02  0.29999990821E+02 0.  0.
         12    1    1    2    0    0  0.41918231783E+00  0.15366744590E+02  0.37641112765E+02  0.40659143170E+02  0.00000000000E+00 0. -1.
         11    1    3    3    0    0 -0.57867524785E-01  0.28516558063E+01 -0.69902731979E+00  0.29366526766E+01  0.51100000000E-03 0. -1.
        -11    1    3    3    0    0 -0.11135729385E+02 -0.10631128606E+02 -0.12528550223E+02  0.19849179714E+02  0.51100000000E-03 0.  1.
        -12    1    3    3    0    0  0.10774414592E+02 -0.75872717897E+01 -0.24413535222E+02  0.27743024440E+02  0.00000000000E+00 0.  1.
</event>
<event>
 7    1  0.4871930E-013  0.5052887E+02  0.7816164E-02  0.1300439E+00
        -11   -1    0    0    0    0  0.00000000000E+00  0.00000000000E+00  0.45593999997E+02  0.45594000000E+02  0.51100000000E-03 0.  1.
         11   -1    0    0    0    0 -0.00000000000E+00 -0.00000000000E+00 -0.45593999997E+02  0.45594000000E+02  0.51100000000E-03 0. -1.
    9900012    2    1    2    0    0  0.85610141443E+01 -0.26695903131E+02  0.29448301558E+02  0.50528872220E+02  0.30000037601E+02 0.  0.
         12    1    1    2    0    0 -0.85610141443E+01  0.26695903131E+02 -0.29448301558E+02  0.40659127780E+02  0.00000000000E+00 0. -1.
         11    1    3    3    0    0 -0.92254403642E+00  0.16582735703E+00  0.10413130234E+02  0.10455231597E+02  0.51100000000E-03 0. -1.
        -11    1    3    3    0    0 -0.51182482407E+01 -0.86793619953E+01  0.16835388452E+00  0.10077506288E+02  0.51100000000E-03 0.  1.
        -12    1    3    3    0    0  0.14601806421E+02 -0.18182368492E+02  0.18866817440E+02  0.29996134335E+02  0.00000000000E+00 0.  1.
</event>
<event>
 7    1  0.4871930E-013  0.5052884E+02  0.7816164E-02  0.1300439E+00
        -11   -1    0    0    0    0  0.00000000000E+00  0.00000000000E+00  0.45593999997E+02  0.45594000000E+02  0.51100000000E-03 0. -1.
         11   -1    0    0    0    0 -0.00000000000E+00 -0.00000000000E+00 -0.45593999997E+02  0.45594000000E+02  0.51100000000E-03 0.  1.
    9900012    2    1    2    0    0 -0.10311419748E+02 -0.11492109280E+02 -0.37613469588E+02  0.50528843007E+02  0.29999948805E+02 0.  0.
         12    1    1    2    0    0  0.10311419748E+02  0.11492109280E+02  0.37613469588E+02  0.40659156993E+02  0.00000000000E+00 0. -1.
         11    1    3    3    0    0  0.18737048976E+01  0.14380558242E+01 -0.15167274835E+02  0.15350081458E+02  0.51100000000E-03 0.  1.
        -11    1    3    3    0    0 -0.15684767906E+02 -0.34503217130E+01 -0.18045495513E+02  0.24156915630E+02  0.51100000000E-03 0. -1.
         12    1    3    3    0    0  0.34996432600E+01 -0.94798433913E+01 -0.44006992406E+01  0.11021845920E+02  0.00000000000E+00 0. -1.
</event>
<event>
 7    1  0.4871930E-013  0.5052887E+02  0.7816164E-02  0.1300439E+00
        -11   -1    0    0    0    0  0.00000000000E+00  0.00000000000E+00  0.45593999997E+02  0.45594000000E+02  0.51100000000E-03 0. -1.
         11   -1    0    0    0    0 -0.00000000000E+00 -0.00000000000E+00 -0.45593999997E+02  0.45594000000E+02  0.51100000000E-03 0.  1.
    9900012    2    1    2    0    0 -0.79321255489E+01 -0.28115597539E+02 -0.28280019523E+02  0.50528868862E+02  0.30000027392E+02 0.  0.
         12    1    1    2    0    0  0.79321255489E+01  0.28115597539E+02  0.28280019523E+02  0.40659131138E+02  0.00000000000E+00 0. -1.
         11    1    3    3    0    0 -0.76239855453E+00  0.11389742373E+00  0.18889378656E+01  0.20401741838E+01  0.51100000000E-03 0. -1.
        -11    1    3    3    0    0 -0.12274590361E+02 -0.18989162158E+02 -0.80879539760E+01  0.24013930286E+02  0.51100000000E-03 0.  1.
        -12    1    3    3    0    0  0.51048633665E+01 -0.92403328052E+01 -0.22081003413E+02  0.24474764392E+02  0.00000000000E+00 0.  1.
</event>
<event>
 7    1  0.4871930E-013  0.5052886E+02  0.7816164E-02  0.1300439E+00
        -11   -1    0    0    0    0  0.00000000000E+00  0.00000000000E+00  0.45593999997E+02  0.45594000000E+02  0.51100000000E-03 0.  1.
         11   -1    0    0    0    0 -0.00000000000E+00 -0.00000000000E+00 -0.45593999997E+02  0.45594000000E+02  0.51100000000E-03 0. -1.
    9900012    2    1    2    0    0 -0.24133499905E+02 -0.32496852016E+02  0.38333054376E+01  0.50528862784E+02  0.30000008917E+02 0.  0.
         12    1    1    2    0    0  0.24133499905E+02  0.32496852016E+02 -0.38333054376E+01  0.40659137216E+02  0.00000000000E+00 0. -1.
         11    1    3    3    0    0 -0.51592752530E+01 -0.12294219284E+00 -0.68036771559E+01  0.85395116384E+01  0.51100000000E-03 0. -1.
        -11    1    3    3    0    0 -0.12882391125E+02 -0.14112840075E+02 -0.16058207415E+01  0.19175685558E+02  0.51100000000E-03 0.  1.
         12    1    3    3    0    0 -0.60918335273E+01 -0.18261069747E+02  0.12242803335E+02  0.22813665588E+02  0.00000000000E+00 0. -1.
</event>
<event>
 7    1  0.4871930E-013  0.5052886E+02  0.7816164E-02  0.1300439E+00
        -11   -1    0    0    0    0  0.00000000000E+00  0.00000000000E+00  0.45593999997E+02  0.45594000000E+02  0.51100000000E-03 0.  1.
         11   -1    0    0    0    0 -0.00000000000E+00 -0.00000000000E+00 -0.45593999997E+02  0.45594000000E+02  0.51100000000E-03 0. -1.
    9900012    2    1    2    0    0 -0.23166266143E+02 -0.41040864015E+01  0.33160914811E+02  0.50528859782E+02  0.29999999792E+02 0.  0.
         12    1    1    2    0    0  0.23166266143E+02  0.41040864015E+01 -0.33160914811E+02  0.40659140218E+02  0.00000000000E+00 0. -1.
         11    1    3    3    0    0 -0.10873121366E+02  0.12266397768E+01  0.23806848320E+01  0.11198083493E+02  0.51100000000E-03 0. -1.
        -11    1    3    3    0    0 -0.15455402764E+02  0.19946795761E+01  0.25071685826E+02  0.29520122825E+02  0.51100000000E-03 0.  1.
        -12    1    3    3    0    0  0.31622579865E+01 -0.73254057543E+01  0.57085441530E+01  0.98106534638E+01  0.00000000000E+00 0.  1.
</event>
<event>
 7    1  0.4871930E-013  0.5052886E+02  0.7816164E-02  0.1300439E+00
        -11   -1    0    0    0    0  0.00000000000E+00  0.00000000000E+00  0.45593999997E+02  0.45594000000E+02  0.51100000000E-03 0.  1.
         11   -1    0    0    0    0 -0.00000000000E+00 -0.00000000000E+00 -0.45593999997E+02  0.45594000000E+02  0.51100000000E-03 0. -1.
    9900012    2    1    2    0    0 -0.19138174691E+02  0.25647109398E+02  0.25082301358E+02  0.50528858440E+02  0.29999995714E+02 0.  0.
         12    1    1    2    0    0  0.19138174691E+02 -0.25647109398E+02 -0.25082301358E+02  0.40659141560E+02  0.00000000000E+00 0. -1.
         11    1    3    3    0    0 -0.16617899171E+02  0.50733595226E+01  0.10549539322E+02  0.20326985262E+02  0.51100000000E-03 0. -1.
        -11    1    3    3    0    0 -0.54077986733E+01  0.10453239141E+02  0.15690585009E+02  0.19613998909E+02  0.51100000000E-03 0.  1.
         12    1    3    3    0    0  0.28875231528E+01  0.10120510735E+02 -0.11578229732E+01  0.10587874268E+02  0.00000000000E+00 0. -1.
</event>
<event>
 7    1  0.4871930E-013  0.5052885E+02  0.7816164E-02  0.1300439E+00
        -11   -1    0    0    0    0  0.00000000000E+00  0.00000000000E+00  0.45593999997E+02  0.45594000000E+02  0.51100000000E-03 0.  1.
         11   -1    0    0    0    0 -0.00000000000E+00 -0.00000000000E+00 -0.45593999997E+02  0.45594000000E+02  0.51100000000E-03 0. -1.
    9900012    2    1    2    0    0  0.14911022879E+02  0.24579772563E+02  0.28751738336E+02  0.50528852445E+02  0.29999977491E+02 0.  0.
         12    1    1    2    0    0 -0.14911022879E+02 -0.24579772563E+02 -0.28751738336E+02  0.40659147555E+02  0.00000000000E+00 0. -1.
         11    1    3    3    0    0 -0.14885453759E+01  0.14013696513E+02  0.19129781274E+01  0.14221777064E+02  0.51100000000E-03 0. -1.
        -11    1    3    3    0    0  0.83712250509E+00 -0.28507400388E+01  0.68831468610E+00  0.30497983910E+01  0.51100000000E-03 0.  1.
         12    1    3    3    0    0  0.15562445750E+02  0.13416816089E+02  0.26150445523E+02  0.33257276989E+02  0.00000000000E+00 0. -1.
</event>
<event>
 7    1  0.4871930E-013  0.5052881E+02  0.7816164E-02  0.1300439E+00
        -11   -1    0    0    0    0  0.00000000000E+00  0.00000000000E+00  0.45593999997E+02  0.45594000000E+02  0.51100000000E-03 0.  1.
         11   -1    0    0    0    0 -0.00000000000E+00 -0.00000000000E+00 -0.45593999997E+02  0.45594000000E+02  0.51100000000E-03 0. -1.
    9900012    2    1    2    0    0 -0.36044351060E+02 -0.11247297127E+02  0.15082196423E+02  0.50528811802E+02  0.29999853954E+02 0.  0.
         12    1    1    2    0    0  0.36044351060E+02  0.11247297127E+02 -0.15082196423E+02  0.40659188198E+02  0.00000000000E+00 0. -1.
         11    1    3    3    0    0 -0.25370249104E+02 -0.13740569877E+02  0.17616690612E+02  0.33805333729E+02  0.51100000000E-03 0. -1.
        -11    1    3    3    0    0 -0.11205875784E+02  0.10743730906E+01  0.24439868385E+01  0.11519505265E+02  0.51100000000E-03 0.  1.
         12    1    3    3    0    0  0.53177382791E+00  0.14188996596E+01 -0.49784810278E+01  0.52039728085E+01  0.00000000000E+00 0. -1.
</event>
<event>
 7    1  0.4871930E-013  0.5052893E+02  0.7816164E-02  0.1300439E+00
        -11   -1    0    0    0    0  0.00000000000E+00  0.00000000000E+00  0.45593999997E+02  0.45594000000E+02  0.51100000000E-03 0.  1.
         11   -1    0    0    0    0 -0.00000000000E+00 -0.00000000000E+00 -0.45593999997E+02  0.45594000000E+02  0.51100000000E-03 0. -1.
    9900012    2    1    2    0    0  0.24683068498E+02 -0.32202622619E+02 -0.26262750809E+01  0.50528928505E+02  0.30000208684E+02 0.  0.
         12    1    1    2    0    0 -0.24683068498E+02  0.32202622619E+02  0.26262750809E+01  0.40659071495E+02  0.00000000000E+00 0. -1.
         11    1    3    3    0    0 -0.68235134677E+00 -0.16187312308E+01  0.48880191135E+01  0.51940952314E+01  0.51100000000E-03 0. -1.
        -11    1    3    3    0    0  0.13531643860E+02 -0.30698179031E+01  0.17460835166E+01  0.13984919571E+02  0.51100000000E-03 0.  1.
        -12    1    3    3    0    0  0.11833775985E+02 -0.27514073485E+02 -0.92603777110E+01  0.31349913702E+02  0.00000000000E+00 0.  1.
</event>
<event>
 7    1  0.4871930E-013  0.5052886E+02  0.7816164E-02  0.1300439E+00
        -11   -1    0    0    0    0  0.00000000000E+00  0.00000000000E+00  0.45593999997E+02  0.45594000000E+02  0.51100000000E-03 0. -1.
         11   -1    0    0    0    0 -0.00000000000E+00 -0.00000000000E+00 -0.45593999997E+02  0.45594000000E+02  0.51100000000E-03 0.  1.
    9900012    2    1    2    0    0 -0.37422551761E+02 -0.48821362950E+01  0.15128888301E+02  0.50528857162E+02  0.29999991830E+02 0.  0.
         12    1    1    2    0    0  0.37422551761E+02  0.48821362950E+01 -0.15128888301E+02  0.40659142838E+02  0.00000000000E+00 0. -1.
         11    1    3    3    0    0 -0.82341222113E+01  0.27616101791E+01  0.17307536607E+01  0.88556630394E+01  0.51100000000E-03 0. -1.
        -11    1    3    3    0    0 -0.16460230886E+02  0.83660248821E+01  0.98081872709E+01  0.20907656754E+02  0.51100000000E-03 0.  1.
         12    1    3    3    0    0 -0.12728198663E+02 -0.16009771356E+02  0.35899473698E+01  0.20765537369E+02  0.00000000000E+00 0. -1.
</event>
<event>
 7    1  0.4871930E-013  0.5052887E+02  0.7816164E-02  0.1300439E+00
        -11   -1    0    0    0    0  0.00000000000E+00  0.00000000000E+00  0.45593999997E+02  0.45594000000E+02  0.51100000000E-03 0.  1.
         11   -1    0    0    0    0 -0.00000000000E+00 -0.00000000000E+00 -0.45593999997E+02  0.45594000000E+02  0.51100000000E-03 0. -1.
    9900012    2    1    2    0    0  0.18682535379E+02 -0.35347379188E+02  0.73952793270E+01  0.50528874333E+02  0.30000044023E+02 0.  0.
         12    1    1    2    0    0 -0.18682535379E+02  0.35347379188E+02 -0.73952793270E+01  0.40659125667E+02  0.00000000000E+00 0. -1.
         11    1    3    3    0    0  0.97660784869E+01 -0.37632116546E+01  0.56345011064E+01  0.11886364202E+02  0.51100000000E-03 0. -1.
        -11    1    3    3    0    0  0.75728001012E+01 -0.34520445512E+02  0.20483337519E+01  0.35400623316E+02  0.51100000000E-03 0.  1.
         12    1    3    3    0    0  0.13436567907E+01  0.29362779786E+01 -0.28755553127E+00  0.32418868151E+01  0.00000000000E+00 0. -1.
</event>
<event>
 7    1  0.4871930E-013  0.5052886E+02  0.7816164E-02  0.1300439E+00
        -11   -1    0    0    0    0  0.00000000000E+00  0.00000000000E+00  0.45593999997E+02  0.45594000000E+02  0.51100000000E-03 0. -1.
         11   -1    0    0    0    0 -0.00000000000E+00 -0.00000000000E+00 -0.45593999997E+02  0.45594000000E+02  0.51100000000E-03 0.  1.
    9900012    2    1    2    0    0 -0.53018342858E-01 -0.18351750723E+02 -0.36281902815E+02  0.50528855427E+02  0.29999986556E+02 0.  0.
         12    1    1    2    0    0  0.53018342858E-01  0.18351750723E+02  0.36281902815E+02  0.40659144573E+02  0.00000000000E+00 0. -1.
         11    1    3    3    0    0 -0.83218522546E+01 -0.77912777752E+01 -0.45633025261E+01  0.12279290066E+02  0.51100000000E-03 0. -1.
        -11    1    3    3    0    0  0.50149416273E+01 -0.14817802818E+02 -0.20230370475E+02  0.25573126710E+02  0.51100000000E-03 0.  1.
        -12    1    3    3    0    0  0.32538922844E+01  0.42573298707E+01 -0.11488229814E+02  0.12676438652E+02  0.00000000000E+00 0.  1.
</event>
<event>
 7    1  0.4871930E-013  0.5052887E+02  0.7816164E-02  0.1300439E+00
        -11   -1    0    0    0    0  0.00000000000E+00  0.00000000000E+00  0.45593999997E+02  0.45594000000E+02  0.51100000000E-03 0.  1.
         11   -1    0    0    0    0 -0.00000000000E+00 -0.00000000000E+00 -0.45593999997E+02  0.45594000000E+02  0.51100000000E-03 0. -1.
    9900012    2    1    2    0    0  0.35836575751E+02 -0.75527592084E+01  0.17659581044E+02  0.50528866514E+02  0.30000020256E+02 0.  0.
         12    1    1    2    0    0 -0.35836575751E+02  0.75527592084E+01 -0.17659581044E+02  0.40659133486E+02  0.00000000000E+00 0. -1.
         11    1    3    3    0    0 -0.33045859952E+00 -0.13961411327E+01  0.37361254559E+01  0.40021302618E+01  0.51100000000E-03 0. -1.
        -11    1    3    3    0    0  0.19108956699E+02  0.63752923414E+01  0.15328921300E+02  0.25313482713E+02  0.51100000000E-03 0.  1.
         12    1    3    3    0    0  0.17058077651E+02 -0.12531910417E+02 -0.14054657125E+01  0.21213253539E+02  0.00000000000E+00 0. -1.
</event>
<event>
 7    1  0.4871930E-013  0.5052886E+02  0.7816164E-02  0.1300439E+00
        -11   -1    0    0    0    0  0.00000000000E+00  0.00000000000E+00  0.45593999997E+02  0.45594000000E+02  0.51100000000E-03 0.  1.
         11   -1    0    0    0    0 -0.00000000000E+00 -0.00000000000E+00 -0.45593999997E+02  0.45594000000E+02  0.51100000000E-03 0. -1.
    9900012    2    1    2    0    0  0.11514653107E+02 -0.16964270431E+02  0.35111134220E+02  0.50528862606E+02  0.30000008376E+02 0.  0.
         12    1    1    2    0    0 -0.11514653107E+02  0.16964270431E+02 -0.35111134220E+02  0.40659137394E+02  0.00000000000E+00 0. -1.
         11    1    3    3    0    0 -0.41255772326E+01 -0.24593690408E+01  0.12530571170E+01  0.49637723538E+01  0.51100000000E-03 0. -1.
        -11    1    3    3    0    0  0.59598730060E+01 -0.16016549594E+02  0.10063723875E+02  0.19832510825E+02  0.51100000000E-03 0.  1.
        -12    1    3    3    0    0  0.96803573339E+01  0.15116482036E+01  0.23794353228E+02  0.25732579426E+02  0.00000000000E+00 0.  1.
</event>
<event>
 7    1  0.4871930E-013  0.5052886E+02  0.7816164E-02  0.1300439E+00
        -11   -1    0    0    0    0  0.00000000000E+00  0.00000000000E+00  0.45593999997E+02  0.45594000000E+02  0.51100000000E-03 0.  1.
         11   -1    0    0    0    0 -0.00000000000E+00 -0.00000000000E+00 -0.45593999997E+02  0.45594000000E+02  0.51100000000E-03 0. -1.
    9900012    2    1    2    0    0  0.18076639534E+02  0.34912476295E+02  0.10369176260E+02  0.50528859401E+02  0.29999998636E+02 0.  0.
         12    1    1    2    0    0 -0.18076639534E+02 -0.34912476295E+02 -0.10369176260E+02  0.40659140599E+02  0.00000000000E+00 0. -1.
         11    1    3    3    0    0  0.50419200164E+01  0.43354294661E+01 -0.66435819532E+01  0.93996855020E+01  0.51100000000E-03 0. -1.
        -11    1    3    3    0    0  0.90326875137E+01  0.19267197803E+02  0.12443955088E+01  0.21315789344E+02  0.51100000000E-03 0.  1.
         12    1    3    3    0    0  0.40020320043E+01  0.11309849026E+02  0.15768362705E+02  0.19813384555E+02  0.00000000000E+00 0. -1.
</event>
<event>
 7    1  0.4871930E-013  0.5052887E+02  0.7816164E-02  0.1300439E+00
        -11   -1    0    0    0    0  0.00000000000E+00  0.00000000000E+00  0.45593999997E+02  0.45594000000E+02  0.51100000000E-03 0. -1.
         11   -1    0    0    0    0 -0.00000000000E+00 -0.00000000000E+00 -0.45593999997E+02  0.45594000000E+02  0.51100000000E-03 0.  1.
    9900012    2    1    2    0    0 -0.30452592294E+02  0.24794060168E+02 -0.10538464333E+02  0.50528867846E+02  0.30000024305E+02 0.  0.
         12    1    1    2    0    0  0.30452592294E+02 -0.24794060168E+02  0.10538464333E+02  0.40659132154E+02  0.00000000000E+00 0. -1.
         11    1    3    3    0    0 -0.22468086287E+01 -0.38733994855E+01  0.24757050456E+01  0.51166872410E+01  0.51100000000E-03 0. -1.
        -11    1    3    3    0    0 -0.98949823999E+01  0.10841069769E+02  0.33648813453E+01  0.15058615380E+02  0.51100000000E-03 0.  1.
         12    1    3    3    0    0 -0.18310801265E+02  0.17826389884E+02 -0.16379050724E+02  0.30353565225E+02  0.00000000000E+00 0. -1.
</event>
<event>
 7    1  0.4871930E-013  0.5052887E+02  0.7816164E-02  0.1300439E+00
        -11   -1    0    0    0    0  0.00000000000E+00  0.00000000000E+00  0.45593999997E+02  0.45594000000E+02  0.51100000000E-03 0.  1.
         11   -1    0    0    0    0 -0.00000000000E+00 -0.00000000000E+00 -0.45593999997E+02  0.45594000000E+02  0.51100000000E-03 0. -1.
    9900012    2    1    2    0    0  0.19313034827E+02  0.17769133976E+02  0.31055266627E+02  0.50528867917E+02  0.30000024519E+02 0.  0.
         12    1    1    2    0    0 -0.19313034827E+02 -0.17769133976E+02 -0.31055266627E+02  0.40659132083E+02  0.00000000000E+00 0. -1.
         11    1    3    3    0    0 -0.34615005660E+01  0.22487220294E+01  0.55007045458E+00  0.41642904197E+01  0.51100000000E-03 0. -1.
        -11    1    3    3    0    0  0.73934225518E+01 -0.42574502790E+01  0.13890834463E+02  0.16301652132E+02  0.51100000000E-03 0.  1.
        -12    1    3    3    0    0  0.15381112841E+02  0.19777862226E+02  0.16614361710E+02  0.30062925365E+02  0.00000000000E+00 0.  1.
</event>
<event>
 7    1  0.5390123E-013  0.5052886E+02  0.7816164E-02  0.1300439E+00
        -11   -1    0    0    0    0  0.00000000000E+00  0.00000000000E+00  0.45593999997E+02  0.45594000000E+02  0.51100000000E-03 0.  1.
         11   -1    0    0    0    0 -0.00000000000E+00 -0.00000000000E+00 -0.45593999997E+02  0.45594000000E+02  0.51100000000E-03 0. -1.
    9900012    2    1    2    0    0  0.20656234609E+02 -0.26057101700E+02  0.23398992404E+02  0.50528862986E+02  0.30000009531E+02 0.  0.
         12    1    1    2    0    0 -0.20656234609E+02  0.26057101700E+02 -0.23398992404E+02  0.40659137014E+02  0.00000000000E+00 0. -1.
         11    1    3    3    0    0  0.16671648820E+01  0.94605151686E+00 -0.46569386514E+01  0.50360232406E+01  0.51100000000E-03 0. -1.
        -11    1    3    3    0    0  0.47032048727E+01 -0.74571578725E+01  0.16407434097E+02  0.18626143818E+02  0.51100000000E-03 0.  1.
        -12    1    3    3    0    0  0.14285864854E+02 -0.19545995345E+02  0.11648496958E+02  0.26866695927E+02  0.00000000000E+00 0.  1.
</event>
<event>
 7    1  0.4871930E-013  0.5052887E+02  0.7816164E-02  0.1300439E+00
        -11   -1    0    0    0    0  0.00000000000E+00  0.00000000000E+00  0.45593999997E+02  0.45594000000E+02  0.51100000000E-03 0.  1.
         11   -1    0    0    0    0 -0.00000000000E+00 -0.00000000000E+00 -0.45593999997E+02  0.45594000000E+02  0.51100000000E-03 0. -1.
    9900012    2    1    2    0    0  0.30692876150E+02 -0.22087958212E+02  0.14941023809E+02  0.50528871420E+02  0.30000035170E+02 0.  0.
         12    1    1    2    0    0 -0.30692876150E+02  0.22087958212E+02 -0.14941023809E+02  0.40659128580E+02  0.00000000000E+00 0. -1.
         11    1    3    3    0    0  0.12745002203E+02 -0.90777293076E+01  0.15417394771E+01  0.15723142542E+02  0.51100000000E-03 0. -1.
        -11    1    3    3    0    0  0.12050879396E+02  0.35088046410E+01  0.11742124090E+02  0.17187579313E+02  0.51100000000E-03 0.  1.
         12    1    3    3    0    0  0.58969945515E+01 -0.16519033546E+02  0.16571602419E+01  0.17618149565E+02  0.00000000000E+00 0. -1.
</event>
<event>
 7    1  0.4871930E-013  0.5052894E+02  0.7816164E-02  0.1300438E+00
        -11   -1    0    0    0    0  0.00000000000E+00  0.00000000000E+00  0.45593999997E+02  0.45594000000E+02  0.51100000000E-03 0. -1.
         11   -1    0    0    0    0 -0.00000000000E+00 -0.00000000000E+00 -0.45593999997E+02  0.45594000000E+02  0.51100000000E-03 0.  1.
    9900012    2    1    2    0    0 -0.11213026846E+02 -0.34812200911E+02 -0.17763375686E+02  0.50528944193E+02  0.30000256369E+02 0.  0.
         12    1    1    2    0    0  0.11213026846E+02  0.34812200911E+02  0.17763375686E+02  0.40659055807E+02  0.00000000000E+00 0. -1.
         11    1    3    3    0    0  0.20846132355E+01 -0.10730714490E+02 -0.69668655454E+01  0.12962679568E+02  0.51100000000E-03 0. -1.
        -11    1    3    3    0    0 -0.11505209374E+02 -0.14442216484E+02 -0.17697710338E+02  0.25576481603E+02  0.51100000000E-03 0.  1.
         12    1    3    3    0    0 -0.17924307070E+01 -0.96392699375E+01  0.69012001969E+01  0.11989783022E+02  0.00000000000E+00 0. -1.
</event>
<event>
 7    1  0.6295108E-013  0.5052885E+02  0.7816164E-02  0.1300439E+00
        -11   -1    0    0    0    0  0.00000000000E+00  0.00000000000E+00  0.45593999997E+02  0.45594000000E+02  0.51100000000E-03 0. -1.
         11   -1    0    0    0    0 -0.00000000000E+00 -0.00000000000E+00 -0.45593999997E+02  0.45594000000E+02  0.51100000000E-03 0.  1.
    9900012    2    1    2    0    0 -0.13914951903E+02  0.34698194580E+02 -0.15986730286E+02  0.50528854180E+02  0.29999982766E+02 0.  0.
         12    1    1    2    0    0  0.13914951903E+02 -0.34698194580E+02  0.15986730286E+02  0.40659145820E+02  0.00000000000E+00 0. -1.
         11    1    3    3    0    0  0.16570905975E+01 -0.49032070243E+00  0.24526237431E+01  0.30002878405E+01  0.51100000000E-03 0. -1.
        -11    1    3    3    0    0 -0.14451446523E+02  0.80634834049E+01 -0.53697848020E+01  0.17398237276E+02  0.51100000000E-03 0.  1.
        -12    1    3    3    0    0 -0.11205959776E+01  0.27125031877E+02 -0.13069569227E+02  0.30130329063E+02  0.00000000000E+00 0.  1.
</event>
<event>
 7    1  0.4871930E-013  0.5052887E+02  0.7816164E-02  0.1300439E+00
        -11   -1    0    0    0    0  0.00000000000E+00  0.00000000000E+00  0.45593999997E+02  0.45594000000E+02  0.51100000000E-03 0.  1.
         11   -1    0    0    0    0 -0.00000000000E+00 -0.00000000000E+00 -0.45593999997E+02  0.45594000000E+02  0.51100000000E-03 0. -1.
    9900012    2    1    2    0    0 -0.20222694893E+02 -0.29536404756E+02  0.19282331748E+02  0.50528869263E+02  0.30000028611E+02 0.  0.
         12    1    1    2    0    0  0.20222694893E+02  0.29536404756E+02 -0.19282331748E+02  0.40659130737E+02  0.00000000000E+00 0. -1.
         11    1    3    3    0    0  0.44610722965E+01 -0.33360854984E+01  0.61393919717E+01  0.82899195732E+01  0.51100000000E-03 0. -1.
        -11    1    3    3    0    0 -0.14853741877E+02 -0.92261766151E+01  0.14301674999E+02  0.22589685494E+02  0.51100000000E-03 0.  1.
        -12    1    3    3    0    0 -0.98300253122E+01 -0.16974142643E+02 -0.11587352222E+01  0.19649264195E+02  0.00000000000E+00 0.  1.
</event>
<event>
 7    1  0.4871930E-013  0.5052887E+02  0.7816164E-02  0.1300439E+00
        -11   -1    0    0    0    0  0.00000000000E+00  0.00000000000E+00  0.45593999997E+02  0.45594000000E+02  0.51100000000E-03 0.  1.
         11   -1    0    0    0    0 -0.00000000000E+00 -0.00000000000E+00 -0.45593999997E+02  0.45594000000E+02  0.51100000000E-03 0. -1.
    9900012    2    1    2    0    0  0.16222480190E+02 -0.20282468824E+02  0.31282866321E+02  0.50528866581E+02  0.30000020459E+02 0.  0.
         12    1    1    2    0    0 -0.16222480190E+02  0.20282468824E+02 -0.31282866321E+02  0.40659133419E+02  0.00000000000E+00 0. -1.
         11    1    3    3    0    0  0.41922873722E+01 -0.15509402497E+01 -0.87474942493E-01  0.44708322710E+01  0.51100000000E-03 0. -1.
        -11    1    3    3    0    0 -0.11756293686E+01 -0.33328580341E+01 -0.39664200438E+01  0.53124886176E+01  0.51100000000E-03 0.  1.
        -12    1    3    3    0    0  0.13205822187E+02 -0.15398670540E+02  0.35336761307E+02  0.40745545692E+02  0.00000000000E+00 0.  1.
</event>
<event>
 7    1  0.4871930E-013  0.5052891E+02  0.7816164E-02  0.1300439E+00
        -11   -1    0    0    0    0  0.00000000000E+00  0.00000000000E+00  0.45593999997E+02  0.45594000000E+02  0.51100000000E-03 0.  1.
         11   -1    0    0    0    0 -0.00000000000E+00 -0.00000000000E+00 -0.45593999997E+02  0.45594000000E+02  0.51100000000E-03 0. -1.
    9900012    2    1    2    0    0  0.28303606088E+02  0.22738700959E+02  0.18303525384E+02  0.50528909007E+02  0.30000149416E+02 0.  0.
         12    1    1    2    0    0 -0.28303606088E+02 -0.22738700959E+02 -0.18303525384E+02  0.40659090993E+02  0.00000000000E+00 0. -1.
         11    1    3    3    0    0  0.14342154843E+02 -0.14705926475E+01 -0.67743405798E+00  0.14433259003E+02  0.51100000000E-03 0. -1.
        -11    1    3    3    0    0  0.73390684429E+01  0.22723297234E+01  0.35060451764E+01  0.84449843707E+01  0.51100000000E-03 0.  1.
         12    1    3    3    0    0  0.66223828021E+01  0.21936963883E+02  0.15474914266E+02  0.27650665633E+02  0.00000000000E+00 0. -1.
</event>
<event>
 7    1  0.4871930E-013  0.5052884E+02  0.7816164E-02  0.1300439E+00
        -11   -1    0    0    0    0  0.00000000000E+00  0.00000000000E+00  0.45593999997E+02  0.45594000000E+02  0.51100000000E-03 0.  1.
         11   -1    0    0    0    0 -0.00000000000E+00 -0.00000000000E+00 -0.45593999997E+02  0.45594000000E+02  0.51100000000E-03 0. -1.
    9900012    2    1    2    0    0  0.36788473958E+02 -0.15660698876E+02 -0.73836364120E+01  0.50528838768E+02  0.29999935918E+02 0.  0.
         12    1    1    2    0    0 -0.36788473958E+02  0.15660698876E+02  0.73836364120E+01  0.40659161232E+02  0.00000000000E+00 0. -1.
         11    1    3    3    0    0  0.19259338522E+02  0.56136950380E+00 -0.72684343957E+01  0.20592896709E+02  0.51100000000E-03 0. -1.
        -11    1    3    3    0    0  0.67684820083E+01  0.14067932753E+01  0.51515298344E+01  0.86214659956E+01  0.51100000000E-03 0.  1.
         12    1    3    3    0    0  0.10760653428E+02 -0.17628861656E+02 -0.52667318507E+01  0.21314476063E+02  0.00000000000E+00 0. -1.
</event>
<event>
 7    1  0.4871930E-013  0.5052886E+02  0.7816164E-02  0.1300439E+00
        -11   -1    0    0    0    0  0.00000000000E+00  0.00000000000E+00  0.45593999997E+02  0.45594000000E+02  0.51100000000E-03 0. -1.
         11   -1    0    0    0    0 -0.00000000000E+00 -0.00000000000E+00 -0.45593999997E+02  0.45594000000E+02  0.51100000000E-03 0.  1.
    9900012    2    1    2    0    0 -0.93188558682E+01 -0.23977197523E+02  0.31486804160E+02  0.50528856969E+02  0.29999991244E+02 0.  0.
         12    1    1    2    0    0  0.93188558682E+01  0.23977197523E+02 -0.31486804160E+02  0.40659143031E+02  0.00000000000E+00 0. -1.
         11    1    3    3    0    0 -0.12947728024E+02 -0.16069815864E+02  0.20824446022E+02  0.29317915944E+02  0.51100000000E-03 0. -1.
        -11    1    3    3    0    0 -0.26192179267E+01 -0.62686580855E+01 -0.19264173922E+01  0.70616896682E+01  0.51100000000E-03 0.  1.
        -12    1    3    3    0    0  0.62480900827E+01 -0.16387235743E+01  0.12588775530E+02  0.14149251358E+02  0.00000000000E+00 0.  1.
</event>
<event>
 7    1  0.4871930E-013  0.5052886E+02  0.7816164E-02  0.1300439E+00
        -11   -1    0    0    0    0  0.00000000000E+00  0.00000000000E+00  0.45593999997E+02  0.45594000000E+02  0.51100000000E-03 0. -1.
         11   -1    0    0    0    0 -0.00000000000E+00 -0.00000000000E+00 -0.45593999997E+02  0.45594000000E+02  0.51100000000E-03 0.  1.
    9900012    2    1    2    0    0  0.89614058880E+01  0.31114550820E+02 -0.24591537716E+02  0.50528858403E+02  0.29999995602E+02 0.  0.
         12    1    1    2    0    0 -0.89614058880E+01 -0.31114550820E+02  0.24591537716E+02  0.40659141597E+02  0.00000000000E+00 0. -1.
         11    1    3    3    0    0 -0.30863635804E+01 -0.13348261093E+01 -0.90733471333E+01  0.96764161421E+01  0.51100000000E-03 0. -1.
        -11    1    3    3    0    0 -0.27314868852E+01  0.12112478035E+02 -0.72988170173E+01  0.14402981458E+02  0.51100000000E-03 0.  1.
         12    1    3    3    0    0  0.14779256354E+02  0.20336898894E+02 -0.82193735650E+01  0.26449460803E+02  0.00000000000E+00 0. -1.
</event>
<event>
 7    1  0.4871930E-013  0.5052885E+02  0.7816164E-02  0.1300439E+00
        -11   -1    0    0    0    0  0.00000000000E+00  0.00000000000E+00  0.45593999997E+02  0.45594000000E+02  0.51100000000E-03 0. -1.
         11   -1    0    0    0    0 -0.00000000000E+00 -0.00000000000E+00 -0.45593999997E+02  0.45594000000E+02  0.51100000000E-03 0.  1.
    9900012    2    1    2    0    0 -0.36166501219E+02 -0.16975804159E+02  0.75480100047E+01  0.50528853522E+02  0.29999980766E+02 0.  0.
         12    1    1    2    0    0  0.36166501219E+02  0.16975804159E+02 -0.75480100047E+01  0.40659146478E+02  0.00000000000E+00 0. -1.
         11    1    3    3    0    0 -0.24938403543E+02 -0.45639250953E+01  0.57355143716E+01  0.25993258913E+02  0.51100000000E-03 0. -1.
        -11    1    3    3    0    0 -0.64094804780E+01  0.55462681088E-01 -0.62282243093E+01  0.89372979370E+01  0.51100000000E-03 0.  1.
         12    1    3    3    0    0 -0.48186171985E+01 -0.12467341745E+02  0.80407199425E+01  0.15598296672E+02  0.00000000000E+00 0. -1.
</event>
<event>
 7    1  0.4871930E-013  0.5052885E+02  0.7816164E-02  0.1300439E+00
        -11   -1    0    0    0    0  0.00000000000E+00  0.00000000000E+00  0.45593999997E+02  0.45594000000E+02  0.51100000000E-03 0. -1.
         11   -1    0    0    0    0 -0.00000000000E+00 -0.00000000000E+00 -0.45593999997E+02  0.45594000000E+02  0.51100000000E-03 0.  1.
    9900012    2    1    2    0    0 -0.34286362159E+02 -0.20711060299E+02  0.69759408214E+01  0.50528850979E+02  0.29999973035E+02 0.  0.
         12    1    1    2    0    0  0.34286362159E+02  0.20711060299E+02 -0.69759408214E+01  0.40659149021E+02  0.00000000000E+00 0. -1.
         11    1    3    3    0    0  0.68770937149E+00  0.33251291482E+00 -0.41814597135E+01  0.42506604916E+01  0.51100000000E-03 0. -1.
        -11    1    3    3    0    0 -0.18830608851E+02 -0.26153063022E+01 -0.77595214318E+00  0.19027184730E+02  0.51100000000E-03 0.  1.
         12    1    3    3    0    0 -0.16143462679E+02 -0.18428266912E+02  0.11933352678E+02  0.27251005757E+02  0.00000000000E+00 0. -1.
</event>
<event>
 7    1  0.4871930E-013  0.5052886E+02  0.7816164E-02  0.1300439E+00
        -11   -1    0    0    0    0  0.00000000000E+00  0.00000000000E+00  0.45593999997E+02  0.45594000000E+02  0.51100000000E-03 0.  1.
         11   -1    0    0    0    0 -0.00000000000E+00 -0.00000000000E+00 -0.45593999997E+02  0.45594000000E+02  0.51100000000E-03 0. -1.
    9900012    2    1    2    0    0 -0.28153194992E+02  0.20700248101E+02  0.20786117278E+02  0.50528864112E+02  0.30000012954E+02 0.  0.
         12    1    1    2    0    0  0.28153194992E+02 -0.20700248101E+02 -0.20786117278E+02  0.40659135888E+02  0.00000000000E+00 0. -1.
         11    1    3    3    0    0 -0.13088583337E+02 -0.30876520262E+01  0.83002142089E+01  0.15803106182E+02  0.51100000000E-03 0. -1.
        -11    1    3    3    0    0 -0.56725918713E+01  0.47556579197E+01  0.11249267740E+02  0.13466276610E+02  0.51100000000E-03 0.  1.
         12    1    3    3    0    0 -0.93920197837E+01  0.19032242207E+02  0.12366353284E+01  0.21259481320E+02  0.00000000000E+00 0. -1.
</event>
<event>
 7    1  0.4871930E-013  0.5052886E+02  0.7816164E-02  0.1300439E+00
        -11   -1    0    0    0    0  0.00000000000E+00  0.00000000000E+00  0.45593999997E+02  0.45594000000E+02  0.51100000000E-03 0. -1.
         11   -1    0    0    0    0 -0.00000000000E+00 -0.00000000000E+00 -0.45593999997E+02  0.45594000000E+02  0.51100000000E-03 0.  1.
    9900012    2    1    2    0    0 -0.29080121227E+01 -0.27389108001E+02 -0.29908956675E+02  0.50528862515E+02  0.30000008101E+02 0.  0.
         12    1    1    2    0    0  0.29080121227E+01  0.27389108001E+02  0.29908956675E+02  0.40659137485E+02  0.00000000000E+00 0. -1.
         11    1    3    3    0    0  0.11607252493E+01 -0.10649168002E+02 -0.16797846940E+02  0.19922844283E+02  0.51100000000E-03 0. -1.
        -11    1    3    3    0    0 -0.63301072431E+01  0.24564012681E+01 -0.82313522715E+01  0.10670488526E+02  0.51100000000E-03 0.  1.
         12    1    3    3    0    0  0.22613698711E+01 -0.19196341268E+02 -0.48797574635E+01  0.19935529706E+02  0.00000000000E+00 0. -1.
</event>
<event>
 7    1  0.4871930E-013  0.5052893E+02  0.7816164E-02  0.1300439E+00
        -11   -1    0    0    0    0  0.00000000000E+00  0.00000000000E+00  0.45593999997E+02  0.45594000000E+02  0.51100000000E-03 0. -1.
         11   -1    0    0    0    0 -0.00000000000E+00 -0.00000000000E+00 -0.45593999997E+02  0.45594000000E+02  0.51100000000E-03 0.  1.
    9900012    2    1    2    0    0  0.24810852627E+02  0.11303427976E+02  0.30163124052E+02  0.50528930352E+02  0.30000214296E+02 0.  0.
         12    1    1    2    0    0 -0.24810852627E+02 -0.11303427976E+02 -0.30163124052E+02  0.40659069648E+02  0.00000000000E+00 0. -1.
         11    1    3    3    0    0  0.21138924464E+02  0.97409693042E+01  0.12189607120E+02  0.26274077196E+02  0.51100000000E-03 0. -1.
        -11    1    3    3    0    0  0.14995646954E+01  0.86305418172E+01  0.81969926109E+01  0.11996901036E+02  0.51100000000E-03 0.  1.
         12    1    3    3    0    0  0.21723634672E+01 -0.70680831452E+01  0.97765243212E+01  0.12257952120E+02  0.00000000000E+00 0. -1.
</event>
<event>
 7    1  0.4871930E-013  0.5052887E+02  0.7816164E-02  0.1300439E+00
        -11   -1    0    0    0    0  0.00000000000E+00  0.00000000000E+00  0.45593999997E+02  0.45594000000E+02  0.51100000000E-03 0.  1.
         11   -1    0    0    0    0 -0.00000000000E+00 -0.00000000000E+00 -0.45593999997E+02  0.45594000000E+02  0.51100000000E-03 0. -1.
    9900012    2    1    2    0    0  0.20840909979E+00 -0.39887854476E+01  0.40462461794E+02  0.50528872389E+02  0.30000038112E+02 0.  0.
         12    1    1    2    0    0 -0.20840909979E+00  0.39887854476E+01 -0.40462461794E+02  0.40659127611E+02  0.00000000000E+00 0. -1.
         11    1    3    3    0    0 -0.20691067058E+01  0.79450506161E+01  0.10486654137E+02  0.13318218616E+02  0.51100000000E-03 0. -1.
        -11    1    3    3    0    0 -0.35403856179E+01 -0.89549413414E-01  0.20892688052E+02  0.21190723530E+02  0.51100000000E-03 0.  1.
        -12    1    3    3    0    0  0.58179014234E+01 -0.11844286650E+02  0.90831196048E+01  0.16019930243E+02  0.00000000000E+00 0.  1.
</event>
<event>
 7    1  0.4871930E-013  0.5052886E+02  0.7816164E-02  0.1300439E+00
        -11   -1    0    0    0    0  0.00000000000E+00  0.00000000000E+00  0.45593999997E+02  0.45594000000E+02  0.51100000000E-03 0. -1.
         11   -1    0    0    0    0 -0.00000000000E+00 -0.00000000000E+00 -0.45593999997E+02  0.45594000000E+02  0.51100000000E-03 0.  1.
    9900012    2    1    2    0    0 -0.23222015717E+02  0.28680756975E+02 -0.17068046020E+02  0.50528855523E+02  0.29999986849E+02 0.  0.
         12    1    1    2    0    0  0.23222015717E+02 -0.28680756975E+02  0.17068046020E+02  0.40659144477E+02  0.00000000000E+00 0. -1.
         11    1    3    3    0    0 -0.11074250910E+02  0.13129226177E+02 -0.75588457668E+00  0.17192643048E+02  0.51100000000E-03 0. -1.
        -11    1    3    3    0    0 -0.16784267089E+02  0.16986803246E+02 -0.15350192778E+02  0.28388228631E+02  0.51100000000E-03 0.  1.
        -12    1    3    3    0    0  0.46365022818E+01 -0.14352724480E+01 -0.96196866574E+00  0.49479838443E+01  0.00000000000E+00 0.  1.
</event>
<event>
 7    1  0.4871930E-013  0.5052886E+02  0.7816164E-02  0.1300439E+00
        -11   -1    0    0    0    0  0.00000000000E+00  0.00000000000E+00  0.45593999997E+02  0.45594000000E+02  0.51100000000E-03 0.  1.
         11   -1    0    0    0    0 -0.00000000000E+00 -0.00000000000E+00 -0.45593999997E+02  0.45594000000E+02  0.51100000000E-03 0. -1.
    9900012    2    1    2    0    0  0.40598351790E+02 -0.22198038659E+01 -0.11008241801E+00  0.50528858157E+02  0.29999994854E+02 0.  0.
         12    1    1    2    0    0 -0.40598351790E+02  0.22198038659E+01  0.11008241801E+00  0.40659141843E+02  0.00000000000E+00 0. -1.
         11    1    3    3    0    0  0.11121123250E+02  0.44201801449E+01  0.11601272373E+02  0.16667540184E+02  0.51100000000E-03 0. -1.
        -11    1    3    3    0    0  0.40569649766E+01 -0.35654515858E+01 -0.50715516343E+01  0.74089166599E+01  0.51100000000E-03 0.  1.
        -12    1    3    3    0    0  0.25420263564E+02 -0.30745324249E+01 -0.66398031565E+01  0.26452401313E+02  0.00000000000E+00 0.  1.
</event>
<event>
 7    1  0.4871930E-013  0.5052886E+02  0.7816164E-02  0.1300439E+00
        -11   -1    0    0    0    0  0.00000000000E+00  0.00000000000E+00  0.45593999997E+02  0.45594000000E+02  0.51100000000E-03 0. -1.
         11   -1    0    0    0    0 -0.00000000000E+00 -0.00000000000E+00 -0.45593999997E+02  0.45594000000E+02  0.51100000000E-03 0.  1.
    9900012    2    1    2    0    0  0.35912483813E+02 -0.11825085515E+02 -0.14954149774E+02  0.50528859127E+02  0.29999997803E+02 0.  0.
         12    1    1    2    0    0 -0.35912483813E+02  0.11825085515E+02  0.14954149774E+02  0.40659140873E+02  0.00000000000E+00 0. -1.
         11    1    3    3    0    0  0.10953725088E+02 -0.42581683117E+01 -0.14415991935E+02  0.18599379409E+02  0.51100000000E-03 0. -1.
        -11    1    3    3    0    0  0.19329018902E+02  0.12116651437E+01 -0.58428944838E+01  0.20229150263E+02  0.51100000000E-03 0.  1.
         12    1    3    3    0    0  0.56297398227E+01 -0.87785823467E+01  0.53047366445E+01  0.11700329455E+02  0.00000000000E+00 0. -1.
</event>
<event>
 7    1  0.4871930E-013  0.5052886E+02  0.7816164E-02  0.1300439E+00
        -11   -1    0    0    0    0  0.00000000000E+00  0.00000000000E+00  0.45593999997E+02  0.45594000000E+02  0.51100000000E-03 0.  1.
         11   -1    0    0    0    0 -0.00000000000E+00 -0.00000000000E+00 -0.45593999997E+02  0.45594000000E+02  0.51100000000E-03 0. -1.
    9900012    2    1    2    0    0  0.31826584263E+02 -0.10685254035E+02  0.22935990751E+02  0.50528858452E+02  0.29999995752E+02 0.  0.
         12    1    1    2    0    0 -0.31826584263E+02  0.10685254035E+02 -0.22935990751E+02  0.40659141548E+02  0.00000000000E+00 0. -1.
         11    1    3    3    0    0  0.86891190305E+01 -0.21424652017E+01  0.18389847719E+01  0.91363456546E+01  0.51100000000E-03 0. -1.
        -11    1    3    3    0    0  0.15816527117E+02 -0.91686188267E+01  0.26554909890E+02  0.32239561734E+02  0.51100000000E-03 0.  1.
         12    1    3    3    0    0  0.73209381157E+01  0.62582999330E+00 -0.54579039113E+01  0.91529510640E+01  0.00000000000E+00 0. -1.
</event>
<event>
 7    1  0.4871930E-013  0.5052886E+02  0.7816164E-02  0.1300439E+00
        -11   -1    0    0    0    0  0.00000000000E+00  0.00000000000E+00  0.45593999997E+02  0.45594000000E+02  0.51100000000E-03 0.  1.
         11   -1    0    0    0    0 -0.00000000000E+00 -0.00000000000E+00 -0.45593999997E+02  0.45594000000E+02  0.51100000000E-03 0. -1.
    9900012    2    1    2    0    0 -0.39540621451E+02 -0.82805134833E+01  0.45976079263E+01  0.50528860229E+02  0.30000001153E+02 0.  0.
         12    1    1    2    0    0  0.39540621451E+02  0.82805134833E+01 -0.45976079263E+01  0.40659139771E+02  0.00000000000E+00 0. -1.
         11    1    3    3    0    0 -0.17249500877E+02 -0.10565479397E+02  0.53508779530E+01  0.20923826861E+02  0.51100000000E-03 0. -1.
        -11    1    3    3    0    0 -0.23805756696E+02 -0.28687287746E+01 -0.20920008757E+01  0.24069069874E+02  0.51100000000E-03 0.  1.
        -12    1    3    3    0    0  0.15146361226E+01  0.51536946884E+01  0.13387308490E+01  0.55359634944E+01  0.00000000000E+00 0.  1.
</event>
<event>
 7    1  0.4871930E-013  0.5052887E+02  0.7816164E-02  0.1300439E+00
        -11   -1    0    0    0    0  0.00000000000E+00  0.00000000000E+00  0.45593999997E+02  0.45594000000E+02  0.51100000000E-03 0.  1.
         11   -1    0    0    0    0 -0.00000000000E+00 -0.00000000000E+00 -0.45593999997E+02  0.45594000000E+02  0.51100000000E-03 0. -1.
    9900012    2    1    2    0    0 -0.24164354480E+02  0.77880368168E+01  0.31758395710E+02  0.50528865197E+02  0.30000016253E+02 0.  0.
         12    1    1    2    0    0  0.24164354480E+02 -0.77880368168E+01 -0.31758395710E+02  0.40659134803E+02  0.00000000000E+00 0. -1.
         11    1    3    3    0    0 -0.16877135654E+02  0.13169807840E+02  0.26693013077E+02  0.34216932852E+02  0.51100000000E-03 0.  1.
        -11    1    3    3    0    0 -0.75594750581E+01  0.22321088135E+01  0.23762065472E+01  0.82325166702E+01  0.51100000000E-03 0. -1.
        -12    1    3    3    0    0  0.27225623245E+00 -0.76138798366E+01  0.26891760854E+01  0.80794156745E+01  0.00000000000E+00 0.  1.
</event>
<event>
 7    1  0.4871930E-013  0.5052886E+02  0.7816164E-02  0.1300439E+00
        -11   -1    0    0    0    0  0.00000000000E+00  0.00000000000E+00  0.45593999997E+02  0.45594000000E+02  0.51100000000E-03 0.  1.
         11   -1    0    0    0    0 -0.00000000000E+00 -0.00000000000E+00 -0.45593999997E+02  0.45594000000E+02  0.51100000000E-03 0. -1.
    9900012    2    1    2    0    0 -0.17735959025E+02  0.23678404823E+02  0.27891479218E+02  0.50528859448E+02  0.29999998778E+02 0.  0.
         12    1    1    2    0    0  0.17735959025E+02 -0.23678404823E+02 -0.27891479218E+02  0.40659140552E+02  0.00000000000E+00 0. -1.
         11    1    3    3    0    0 -0.54571709019E+01  0.17882473921E+01 -0.10043308757E+01  0.58298562381E+01  0.51100000000E-03 0. -1.
        -11    1    3    3    0    0 -0.14450655269E+02  0.32392112464E+01  0.16643130611E+02  0.22277964987E+02  0.51100000000E-03 0.  1.
         12    1    3    3    0    0  0.21718671456E+01  0.18650946184E+02  0.12252679483E+02  0.22421038222E+02  0.00000000000E+00 0. -1.
</event>
<event>
 7    1  0.4871930E-013  0.5052886E+02  0.7816164E-02  0.1300439E+00
        -11   -1    0    0    0    0  0.00000000000E+00  0.00000000000E+00  0.45593999997E+02  0.45594000000E+02  0.51100000000E-03 0.  1.
         11   -1    0    0    0    0 -0.00000000000E+00 -0.00000000000E+00 -0.45593999997E+02  0.45594000000E+02  0.51100000000E-03 0. -1.
    9900012    2    1    2    0    0 -0.23105163212E+02 -0.18382062490E+02  0.27953837906E+02  0.50528857828E+02  0.29999993855E+02 0.  0.
         12    1    1    2    0    0  0.23105163212E+02  0.18382062490E+02 -0.27953837906E+02  0.40659142172E+02  0.00000000000E+00 0. -1.
         11    1    3    3    0    0 -0.11591283435E+02 -0.24985765842E+01  0.47786482962E+01  0.12784217474E+02  0.51100000000E-03 0.  1.
        -11    1    3    3    0    0 -0.54086046006E+01  0.48792473264E+01  0.10123859351E+02  0.12472072266E+02  0.51100000000E-03 0. -1.
         12    1    3    3    0    0 -0.61052751769E+01 -0.20762733232E+02  0.13051330259E+02  0.25272568089E+02  0.00000000000E+00 0. -1.
</event>
<event>
 7    1  0.4871930E-013  0.5052885E+02  0.7816164E-02  0.1300439E+00
        -11   -1    0    0    0    0  0.00000000000E+00  0.00000000000E+00  0.45593999997E+02  0.45594000000E+02  0.51100000000E-03 0.  1.
         11   -1    0    0    0    0 -0.00000000000E+00 -0.00000000000E+00 -0.45593999997E+02  0.45594000000E+02  0.51100000000E-03 0. -1.
    9900012    2    1    2    0    0  0.15837037625E+02 -0.36293417746E+02  0.92272534538E+01  0.50528854181E+02  0.29999982768E+02 0.  0.
         12    1    1    2    0    0 -0.15837037625E+02  0.36293417746E+02 -0.92272534538E+01  0.40659145819E+02  0.00000000000E+00 0. -1.
         11    1    3    3    0    0  0.11423622917E+02 -0.21833418842E+02  0.62557588633E+01  0.25423057607E+02  0.51100000000E-03 0. -1.
        -11    1    3    3    0    0  0.93170263252E+01 -0.54670484469E+00 -0.19877908519E+01  0.95423885093E+01  0.51100000000E-03 0.  1.
         12    1    3    3    0    0 -0.49036116173E+01 -0.13913294059E+02  0.49592854424E+01  0.15563408064E+02  0.00000000000E+00 0. -1.
</event>
<event>
 7    1  0.4871930E-013  0.5052886E+02  0.7816164E-02  0.1300439E+00
        -11   -1    0    0    0    0  0.00000000000E+00  0.00000000000E+00  0.45593999997E+02  0.45594000000E+02  0.51100000000E-03 0.  1.
         11   -1    0    0    0    0 -0.00000000000E+00 -0.00000000000E+00 -0.45593999997E+02  0.45594000000E+02  0.51100000000E-03 0. -1.
    9900012    2    1    2    0    0  0.23511497853E+02 -0.33105434484E+02 -0.20988083950E+01  0.50528864245E+02  0.30000013359E+02 0.  0.
         12    1    1    2    0    0 -0.23511497853E+02  0.33105434484E+02  0.20988083950E+01  0.40659135755E+02  0.00000000000E+00 0. -1.
         11    1    3    3    0    0  0.24863268192E+01 -0.43864503169E+01 -0.19419063299E+01  0.54031257518E+01  0.51100000000E-03 0. -1.
        -11    1    3    3    0    0  0.23857625589E+02 -0.30747180261E+02 -0.49170903954E+01  0.39226944451E+02  0.51100000000E-03 0.  1.
         12    1    3    3    0    0 -0.28324545559E+01  0.20281960938E+01  0.47601883303E+01  0.58987940417E+01  0.00000000000E+00 0. -1.
</event>
<event>
 7    1  0.4871930E-013  0.5052882E+02  0.7816164E-02  0.1300439E+00
        -11   -1    0    0    0    0  0.00000000000E+00  0.00000000000E+00  0.45593999997E+02  0.45594000000E+02  0.51100000000E-03 0. -1.
         11   -1    0    0    0    0 -0.00000000000E+00 -0.00000000000E+00 -0.45593999997E+02  0.45594000000E+02  0.51100000000E-03 0.  1.
    9900012    2    1    2    0    0 -0.23652310850E+02 -0.27080099303E+02 -0.18984352844E+02  0.50528816047E+02  0.29999866856E+02 0.  0.
         12    1    1    2    0    0  0.23652310850E+02  0.27080099303E+02  0.18984352844E+02  0.40659183953E+02  0.00000000000E+00 0. -1.
         11    1    3    3    0    0 -0.16681758589E+01 -0.99348228362E+01 -0.75200795493E-01  0.10074183386E+02  0.51100000000E-03 0. -1.
        -11    1    3    3    0    0 -0.23663800740E+02 -0.13889283240E+02 -0.74618125077E+01  0.28435300254E+02  0.51100000000E-03 0.  1.
        -12    1    3    3    0    0  0.16796657488E+01 -0.32559932272E+01 -0.11447339541E+02  0.12019332406E+02  0.00000000000E+00 0.  1.
</event>
<event>
 7    1  0.4871930E-013  0.5052885E+02  0.7816164E-02  0.1300439E+00
        -11   -1    0    0    0    0  0.00000000000E+00  0.00000000000E+00  0.45593999997E+02  0.45594000000E+02  0.51100000000E-03 0. -1.
         11   -1    0    0    0    0 -0.00000000000E+00 -0.00000000000E+00 -0.45593999997E+02  0.45594000000E+02  0.51100000000E-03 0.  1.
    9900012    2    1    2    0    0 -0.32515030349E+02 -0.23051095298E+02 -0.80365595811E+01  0.50528849948E+02  0.29999969902E+02 0.  0.
         12    1    1    2    0    0  0.32515030349E+02  0.23051095298E+02  0.80365595811E+01  0.40659150052E+02  0.00000000000E+00 0. -1.
         11    1    3    3    0    0  0.18526096918E+01 -0.14070130602E+01  0.10175486392E+00  0.23285623752E+01  0.51100000000E-03 0. -1.
        -11    1    3    3    0    0 -0.14602934180E+02  0.39334476846E+01 -0.14629104658E+01  0.15194005550E+02  0.51100000000E-03 0.  1.
        -12    1    3    3    0    0 -0.19764705861E+02 -0.25577529923E+02 -0.66754039793E+01  0.33006282023E+02  0.00000000000E+00 0.  1.
</event>
<event>
 7    1  0.4871930E-013  0.5052883E+02  0.7816164E-02  0.1300439E+00
        -11   -1    0    0    0    0  0.00000000000E+00  0.00000000000E+00  0.45593999997E+02  0.45594000000E+02  0.51100000000E-03 0.  1.
         11   -1    0    0    0    0 -0.00000000000E+00 -0.00000000000E+00 -0.45593999997E+02  0.45594000000E+02  0.51100000000E-03 0. -1.
    9900012    2    1    2    0    0  0.17821823365E+01 -0.23047913151E+02  0.33448256865E+02  0.50528826844E+02  0.29999899673E+02 0.  0.
         12    1    1    2    0    0 -0.17821823365E+01  0.23047913151E+02 -0.33448256865E+02  0.40659173156E+02  0.00000000000E+00 0. -1.
         11    1    3    3    0    0 -0.51884370206E+01  0.22072440409E+01  0.29743300960E+00  0.56462617393E+01  0.51100000000E-03 0. -1.
        -11    1    3    3    0    0  0.36821510234E+01 -0.22421352056E+02  0.17610330258E+02  0.28747156315E+02  0.51100000000E-03 0.  1.
        -12    1    3    3    0    0  0.32884683337E+01 -0.28338051354E+01  0.15540493597E+02  0.16135408789E+02  0.00000000000E+00 0.  1.
</event>
<event>
 7    1  0.4871930E-013  0.5052886E+02  0.7816164E-02  0.1300439E+00
        -11   -1    0    0    0    0  0.00000000000E+00  0.00000000000E+00  0.45593999997E+02  0.45594000000E+02  0.51100000000E-03 0. -1.
         11   -1    0    0    0    0 -0.00000000000E+00 -0.00000000000E+00 -0.45593999997E+02  0.45594000000E+02  0.51100000000E-03 0.  1.
    9900012    2    1    2    0    0 -0.28670118648E+02 -0.26628036416E+02  0.11051571642E+02  0.50528864957E+02  0.30000015524E+02 0.  0.
         12    1    1    2    0    0  0.28670118648E+02  0.26628036416E+02 -0.11051571642E+02  0.40659135043E+02  0.00000000000E+00 0. -1.
         11    1    3    3    0    0 -0.75448488589E+00  0.49521232111E+00  0.53305834941E+01  0.54064409119E+01  0.51100000000E-03 0. -1.
        -11    1    3    3    0    0 -0.15097487378E+02 -0.22194514725E+02  0.12725278063E+02  0.29706284033E+02  0.51100000000E-03 0.  1.
        -12    1    3    3    0    0 -0.12818146384E+02 -0.49287340125E+01 -0.70042899145E+01  0.15416140012E+02  0.00000000000E+00 0.  1.
</event>
<event>
 7    1  0.4871930E-013  0.5052886E+02  0.7816164E-02  0.1300439E+00
        -11   -1    0    0    0    0  0.00000000000E+00  0.00000000000E+00  0.45593999997E+02  0.45594000000E+02  0.51100000000E-03 0. -1.
         11   -1    0    0    0    0 -0.00000000000E+00 -0.00000000000E+00 -0.45593999997E+02  0.45594000000E+02  0.51100000000E-03 0.  1.
    9900012    2    1    2    0    0 -0.29124892992E+02  0.27867491585E+02 -0.53206113920E+01  0.50528863455E+02  0.30000010958E+02 0.  0.
         12    1    1    2    0    0  0.29124892992E+02 -0.27867491585E+02  0.53206113920E+01  0.40659136545E+02  0.00000000000E+00 0. -1.
         11    1    3    3    0    0 -0.59839256426E+01 -0.42070004169E+01  0.34088919638E+00  0.73227333906E+01  0.51100000000E-03 0. -1.
        -11    1    3    3    0    0 -0.23446364343E+02  0.20313861937E+02 -0.50026175633E+01  0.31423099313E+02  0.51100000000E-03 0.  1.
         12    1    3    3    0    0  0.30539699392E+00  0.11760630065E+02 -0.65888302501E+00  0.11783030752E+02  0.00000000000E+00 0. -1.
</event>
<event>
 7    1  0.4871930E-013  0.5052878E+02  0.7816164E-02  0.1300439E+00
        -11   -1    0    0    0    0  0.00000000000E+00  0.00000000000E+00  0.45593999997E+02  0.45594000000E+02  0.51100000000E-03 0.  1.
         11   -1    0    0    0    0 -0.00000000000E+00 -0.00000000000E+00 -0.45593999997E+02  0.45594000000E+02  0.51100000000E-03 0. -1.
    9900012    2    1    2    0    0  0.32358579122E+02 -0.89325822586E+01  0.22941297707E+02  0.50528784451E+02  0.29999770817E+02 0.  0.
         12    1    1    2    0    0 -0.32358579122E+02  0.89325822586E+01 -0.22941297707E+02  0.40659215549E+02  0.00000000000E+00 0. -1.
         11    1    3    3    0    0  0.20656615607E+02 -0.12962167842E+02  0.15178179866E+02  0.28724392209E+02  0.51100000000E-03 0. -1.
        -11    1    3    3    0    0  0.62304319579E+01 -0.42270481717E+00 -0.44723728896E+01  0.76810859434E+01  0.51100000000E-03 0.  1.
        -12    1    3    3    0    0  0.54715315566E+01  0.44522904001E+01  0.12235490730E+02  0.14123306298E+02  0.00000000000E+00 0.  1.
</event>
<event>
 7    1  0.5033039E-013  0.5052885E+02  0.7816164E-02  0.1300439E+00
        -11   -1    0    0    0    0  0.00000000000E+00  0.00000000000E+00  0.45593999997E+02  0.45594000000E+02  0.51100000000E-03 0.  1.
         11   -1    0    0    0    0 -0.00000000000E+00 -0.00000000000E+00 -0.45593999997E+02  0.45594000000E+02  0.51100000000E-03 0. -1.
    9900012    2    1    2    0    0 -0.21472059155E+02 -0.19989075859E+02 -0.28152336126E+02  0.50528849647E+02  0.29999968988E+02 0.  0.
         12    1    1    2    0    0  0.21472059155E+02  0.19989075859E+02  0.28152336126E+02  0.40659150353E+02  0.00000000000E+00 0. -1.
         11    1    3    3    0    0 -0.18603484793E+01  0.44464415097E+01 -0.33179114126E+01  0.58515190307E+01  0.51100000000E-03 0. -1.
        -11    1    3    3    0    0 -0.23040634773E+02 -0.23257893744E+02 -0.19128504358E+02  0.37917016647E+02  0.51100000000E-03 0.  1.
         12    1    3    3    0    0  0.34289240974E+01 -0.11776236242E+01 -0.57059203558E+01  0.67603139700E+01  0.00000000000E+00 0. -1.
</event>
<event>
 7    1  0.4871930E-013  0.5052885E+02  0.7816164E-02  0.1300439E+00
        -11   -1    0    0    0    0  0.00000000000E+00  0.00000000000E+00  0.45593999997E+02  0.45594000000E+02  0.51100000000E-03 0. -1.
         11   -1    0    0    0    0 -0.00000000000E+00 -0.00000000000E+00 -0.45593999997E+02  0.45594000000E+02  0.51100000000E-03 0.  1.
    9900012    2    1    2    0    0 -0.14712246960E+02  0.45875793764E+01 -0.37625392507E+02  0.50528852733E+02  0.29999978367E+02 0.  0.
         12    1    1    2    0    0  0.14712246960E+02 -0.45875793764E+01  0.37625392507E+02  0.40659147267E+02  0.00000000000E+00 0. -1.
         11    1    3    3    0    0 -0.20455123828E+02  0.35120810231E+01 -0.23736538946E+02  0.31530462815E+02  0.51100000000E-03 0.  1.
        -11    1    3    3    0    0  0.52363804233E+00  0.32568266843E-01  0.20908212888E+01  0.21556417638E+01  0.51100000000E-03 0. -1.
        -12    1    3    3    0    0  0.52192388251E+01  0.10429300865E+01 -0.15979674850E+02  0.16842748154E+02  0.00000000000E+00 0.  1.
</event>
<event>
 7    1  0.4871930E-013  0.5052887E+02  0.7816164E-02  0.1300439E+00
        -11   -1    0    0    0    0  0.00000000000E+00  0.00000000000E+00  0.45593999997E+02  0.45594000000E+02  0.51100000000E-03 0.  1.
         11   -1    0    0    0    0 -0.00000000000E+00 -0.00000000000E+00 -0.45593999997E+02  0.45594000000E+02  0.51100000000E-03 0. -1.
    9900012    2    1    2    0    0 -0.24375077101E+02 -0.32432676873E+02  0.26724654015E+01  0.50528868379E+02  0.30000025925E+02 0.  0.
         12    1    1    2    0    0  0.24375077101E+02  0.32432676873E+02 -0.26724654015E+01  0.40659131621E+02  0.00000000000E+00 0. -1.
         11    1    3    3    0    0  0.21944254400E+01 -0.13753746200E+01  0.21056190666E+01  0.33377822385E+01  0.51100000000E-03 0. -1.
        -11    1    3    3    0    0 -0.26515828818E+02 -0.34052068318E+02 -0.20596860316E+01  0.43207347077E+02  0.51100000000E-03 0.  1.
         12    1    3    3    0    0 -0.53673723673E-01  0.29947660650E+01  0.26265323664E+01  0.39837390633E+01  0.00000000000E+00 0. -1.
</event>
<event>
 7    1  0.4871930E-013  0.5052886E+02  0.7816164E-02  0.1300439E+00
        -11   -1    0    0    0    0  0.00000000000E+00  0.00000000000E+00  0.45593999997E+02  0.45594000000E+02  0.51100000000E-03 0. -1.
         11   -1    0    0    0    0 -0.00000000000E+00 -0.00000000000E+00 -0.45593999997E+02  0.45594000000E+02  0.51100000000E-03 0.  1.
    9900012    2    1    2    0    0  0.73037249581E+01  0.33422301071E+01 -0.39857882093E+02  0.50528860003E+02  0.30000000464E+02 0.  0.
         12    1    1    2    0    0 -0.73037249581E+01 -0.33422301071E+01  0.39857882093E+02  0.40659139997E+02  0.00000000000E+00 0. -1.
         11    1    3    3    0    0  0.13977996085E+02 -0.11130726983E+01 -0.98763931216E+01  0.17151281198E+02  0.51100000000E-03 0. -1.
        -11    1    3    3    0    0 -0.15744582256E+01 -0.14447142260E+01  0.25459693925E+00  0.21519613755E+01  0.51100000000E-03 0.  1.
        -12    1    3    3    0    0 -0.50998129014E+01  0.59000170314E+01 -0.30236085911E+02  0.31225617429E+02  0.00000000000E+00 0.  1.
</event>
<event>
 7    1  0.4871930E-013  0.5052892E+02  0.7816164E-02  0.1300439E+00
        -11   -1    0    0    0    0  0.00000000000E+00  0.00000000000E+00  0.45593999997E+02  0.45594000000E+02  0.51100000000E-03 0. -1.
         11   -1    0    0    0    0 -0.00000000000E+00 -0.00000000000E+00 -0.45593999997E+02  0.45594000000E+02  0.51100000000E-03 0.  1.
    9900012    2    1    2    0    0  0.20099021674E+02 -0.35312885983E+02  0.14800224792E+01  0.50528916694E+02  0.30000172783E+02 0.  0.
         12    1    1    2    0    0 -0.20099021674E+02  0.35312885983E+02 -0.14800224792E+01  0.40659083306E+02  0.00000000000E+00 0. -1.
         11    1    3    3    0    0  0.69039632835E+01 -0.49833024103E+01 -0.98600258347E+01  0.13027590785E+02  0.51100000000E-03 0. -1.
        -11    1    3    3    0    0  0.12333813961E+02 -0.13553412150E+02  0.93877546639E+01  0.20589994795E+02  0.51100000000E-03 0.  1.
        -12    1    3    3    0    0  0.86124442950E+00 -0.16776171423E+02  0.19522936500E+01  0.16911331115E+02  0.00000000000E+00 0.  1.
</event>
<event>
 7    1  0.4871930E-013  0.5052887E+02  0.7816164E-02  0.1300439E+00
        -11   -1    0    0    0    0  0.00000000000E+00  0.00000000000E+00  0.45593999997E+02  0.45594000000E+02  0.51100000000E-03 0.  1.
         11   -1    0    0    0    0 -0.00000000000E+00 -0.00000000000E+00 -0.45593999997E+02  0.45594000000E+02  0.51100000000E-03 0. -1.
    9900012    2    1    2    0    0  0.24626660403E+02  0.93905076427E-01  0.32352491561E+02  0.50528869033E+02  0.30000027913E+02 0.  0.
         12    1    1    2    0    0 -0.24626660403E+02 -0.93905076427E-01 -0.32352491561E+02  0.40659130967E+02  0.00000000000E+00 0. -1.
         11    1    3    3    0    0  0.12606397134E+02  0.30594665024E+01  0.11198662172E+02  0.17137433258E+02  0.51100000000E-03 0. -1.
        -11    1    3    3    0    0  0.20348403858E+01  0.53261675257E+01 -0.26435558118E+01  0.62846657428E+01  0.51100000000E-03 0.  1.
         12    1    3    3    0    0  0.99854228825E+01 -0.82917289517E+01  0.23797385201E+02  0.27106770032E+02  0.00000000000E+00 0. -1.
</event>
<event>
 7    1  0.5476239E-013  0.5052886E+02  0.7816164E-02  0.1300439E+00
        -11   -1    0    0    0    0  0.00000000000E+00  0.00000000000E+00  0.45593999997E+02  0.45594000000E+02  0.51100000000E-03 0. -1.
         11   -1    0    0    0    0 -0.00000000000E+00 -0.00000000000E+00 -0.45593999997E+02  0.45594000000E+02  0.51100000000E-03 0.  1.
    9900012    2    1    2    0    0 -0.21663926790E+02 -0.20705490883E+02 -0.27479493718E+02  0.50528860171E+02  0.30000000976E+02 0.  0.
         12    1    1    2    0    0  0.21663926790E+02  0.20705490883E+02  0.27479493718E+02  0.40659139829E+02  0.00000000000E+00 0. -1.
         11    1    3    3    0    0 -0.31329519135E+01 -0.73383957869E+01  0.25995125033E+01  0.83919548339E+01  0.51100000000E-03 0. -1.
        -11    1    3    3    0    0 -0.99097780912E+00  0.43000813283E+01 -0.64370042662E+01  0.78043424216E+01  0.51100000000E-03 0.  1.
        -12    1    3    3    0    0 -0.17539997067E+02 -0.17667176424E+02 -0.23642001955E+02  0.34332562916E+02  0.00000000000E+00 0.  1.
</event>
<event>
 7    1  0.4871930E-013  0.5052892E+02  0.7816164E-02  0.1300439E+00
        -11   -1    0    0    0    0  0.00000000000E+00  0.00000000000E+00  0.45593999997E+02  0.45594000000E+02  0.51100000000E-03 0. -1.
         11   -1    0    0    0    0 -0.00000000000E+00 -0.00000000000E+00 -0.45593999997E+02  0.45594000000E+02  0.51100000000E-03 0.  1.
    9900012    2    1    2    0    0 -0.53284048982E+01  0.40299800300E+02 -0.83373578836E+00  0.50528918378E+02  0.30000177900E+02 0.  0.
         12    1    1    2    0    0  0.53284048982E+01 -0.40299800300E+02  0.83373578836E+00  0.40659081622E+02  0.00000000000E+00 0. -1.
         11    1    3    3    0    0 -0.13734774266E+01  0.55246626555E+01  0.66283975771E+01  0.87375049299E+01  0.51100000000E-03 0. -1.
        -11    1    3    3    0    0 -0.11121502254E+02  0.93771557712E+01 -0.77571164861E+00  0.14567792955E+02  0.51100000000E-03 0.  1.
         12    1    3    3    0    0  0.71665747828E+01  0.25397981874E+02 -0.66864217169E+01  0.27223620493E+02  0.00000000000E+00 0. -1.
</event>
<event>
 7    1  0.5318208E-013  0.5052885E+02  0.7816164E-02  0.1300439E+00
        -11   -1    0    0    0    0  0.00000000000E+00  0.00000000000E+00  0.45593999997E+02  0.45594000000E+02  0.51100000000E-03 0.  1.
         11   -1    0    0    0    0 -0.00000000000E+00 -0.00000000000E+00 -0.45593999997E+02  0.45594000000E+02  0.51100000000E-03 0. -1.
    9900012    2    1    2    0    0 -0.18181153904E+02  0.21766452381E+02  0.29134752678E+02  0.50528848261E+02  0.29999964773E+02 0.  0.
         12    1    1    2    0    0  0.18181153904E+02 -0.21766452381E+02 -0.29134752678E+02  0.40659151739E+02  0.00000000000E+00 0. -1.
         11    1    3    3    0    0  0.25564564126E+01  0.73655716617E+00 -0.20766114598E+01  0.33749520388E+01  0.51100000000E-03 0. -1.
        -11    1    3    3    0    0 -0.14979483578E+02  0.86927033939E+01  0.56929306085E+01  0.18230674144E+02  0.51100000000E-03 0.  1.
        -12    1    3    3    0    0 -0.57581267376E+01  0.12337191821E+02  0.25518433530E+02  0.28923222078E+02  0.00000000000E+00 0.  1.
</event>
<event>
 7    1  0.4871930E-013  0.5052883E+02  0.7816164E-02  0.1300439E+00
        -11   -1    0    0    0    0  0.00000000000E+00  0.00000000000E+00  0.45593999997E+02  0.45594000000E+02  0.51100000000E-03 0. -1.
         11   -1    0    0    0    0 -0.00000000000E+00 -0.00000000000E+00 -0.45593999997E+02  0.45594000000E+02  0.51100000000E-03 0.  1.
    9900012    2    1    2    0    0 -0.18253834710E+02 -0.63169459894E+01 -0.35777955746E+02  0.50528826304E+02  0.29999898035E+02 0.  0.
         12    1    1    2    0    0  0.18253834710E+02  0.63169459894E+01  0.35777955746E+02  0.40659173696E+02  0.00000000000E+00 0. -1.
         11    1    3    3    0    0  0.41882562630E+00  0.22686230901E+01 -0.14581723356E+02  0.14763086463E+02  0.51100000000E-03 0. -1.
        -11    1    3    3    0    0 -0.25707572897E+01 -0.92771253911E+01 -0.16284506899E+02  0.18917161885E+02  0.51100000000E-03 0.  1.
         12    1    3    3    0    0 -0.16101903047E+02  0.69155631155E+00 -0.49117254909E+01  0.16848577957E+02  0.00000000000E+00 0. -1.
</event>
<event>
 7    1  0.4871930E-013  0.5052886E+02  0.7816164E-02  0.1300439E+00
        -11   -1    0    0    0    0  0.00000000000E+00  0.00000000000E+00  0.45593999997E+02  0.45594000000E+02  0.51100000000E-03 0.  1.
         11   -1    0    0    0    0 -0.00000000000E+00 -0.00000000000E+00 -0.45593999997E+02  0.45594000000E+02  0.51100000000E-03 0. -1.
    9900012    2    1    2    0    0 -0.21891829871E+02 -0.21955208613E+02  0.26303650106E+02  0.50528863152E+02  0.30000010038E+02 0.  0.
         12    1    1    2    0    0  0.21891829871E+02  0.21955208613E+02 -0.26303650106E+02  0.40659136848E+02  0.00000000000E+00 0. -1.
         11    1    3    3    0    0  0.39404737953E+01  0.17436955034E+01  0.38206162964E+01  0.57588989300E+01  0.51100000000E-03 0. -1.
        -11    1    3    3    0    0 -0.49674261977E+01 -0.45363572691E+01  0.13444822177E+02  0.15033865236E+02  0.51100000000E-03 0.  1.
         12    1    3    3    0    0 -0.20864877468E+02 -0.19162546847E+02  0.90382116326E+01  0.29736098987E+02  0.00000000000E+00 0. -1.
</event>
<event>
 7    1  0.4871930E-013  0.5052891E+02  0.7816164E-02  0.1300439E+00
        -11   -1    0    0    0    0  0.00000000000E+00  0.00000000000E+00  0.45593999997E+02  0.45594000000E+02  0.51100000000E-03 0.  1.
         11   -1    0    0    0    0 -0.00000000000E+00 -0.00000000000E+00 -0.45593999997E+02  0.45594000000E+02  0.51100000000E-03 0. -1.
    9900012    2    1    2    0    0  0.12682984093E+01  0.15784700045E+02  0.37448580078E+02  0.50528911395E+02  0.30000156675E+02 0.  0.
         12    1    1    2    0    0 -0.12682984093E+01 -0.15784700045E+02 -0.37448580078E+02  0.40659088605E+02  0.00000000000E+00 0. -1.
         11    1    3    3    0    0  0.26694396242E+01  0.75428103222E+01 -0.10108858756E+01  0.80648487883E+01  0.51100000000E-03 0. -1.
        -11    1    3    3    0    0  0.41054590835E+01 -0.31419727779E+01  0.14097963615E+02  0.15015970351E+02  0.51100000000E-03 0.  1.
        -12    1    3    3    0    0 -0.55066002983E+01  0.11383862500E+02  0.24361502339E+02  0.27448092255E+02  0.00000000000E+00 0.  1.
</event>
<event>
 7    1  0.4871930E-013  0.5052886E+02  0.7816164E-02  0.1300439E+00
        -11   -1    0    0    0    0  0.00000000000E+00  0.00000000000E+00  0.45593999997E+02  0.45594000000E+02  0.51100000000E-03 0.  1.
         11   -1    0    0    0    0 -0.00000000000E+00 -0.00000000000E+00 -0.45593999997E+02  0.45594000000E+02  0.51100000000E-03 0. -1.
    9900012    2    1    2    0    0 -0.20576294929E+02 -0.27575694120E+02  0.21664780802E+02  0.50528861465E+02  0.30000004908E+02 0.  0.
         12    1    1    2    0    0  0.20576294929E+02  0.27575694120E+02 -0.21664780802E+02  0.40659138535E+02  0.00000000000E+00 0. -1.
         11    1    3    3    0    0 -0.57866573513E+01  0.29476613809E+01  0.42226746220E+01  0.77462953818E+01  0.51100000000E-03 0. -1.
        -11    1    3    3    0    0 -0.16720606565E+02 -0.12751592981E+02  0.74872821678E+01  0.22321317210E+02  0.51100000000E-03 0.  1.
        -12    1    3    3    0    0  0.19309689878E+01 -0.17771762520E+02  0.99548240126E+01  0.20461248872E+02  0.00000000000E+00 0.  1.
</event>
<event>
 7    1  0.4871930E-013  0.5052886E+02  0.7816164E-02  0.1300439E+00
        -11   -1    0    0    0    0  0.00000000000E+00  0.00000000000E+00  0.45593999997E+02  0.45594000000E+02  0.51100000000E-03 0. -1.
         11   -1    0    0    0    0 -0.00000000000E+00 -0.00000000000E+00 -0.45593999997E+02  0.45594000000E+02  0.51100000000E-03 0.  1.
    9900012    2    1    2    0    0  0.11864712954E+02 -0.25583213414E+02 -0.29289818904E+02  0.50528859410E+02  0.29999998662E+02 0.  0.
         12    1    1    2    0    0 -0.11864712954E+02  0.25583213414E+02  0.29289818904E+02  0.40659140590E+02  0.00000000000E+00 0. -1.
         11    1    3    3    0    0 -0.11512568042E+01  0.79812732946E+00 -0.30269323222E+01  0.33353738932E+01  0.51100000000E-03 0. -1.
        -11    1    3    3    0    0  0.95759295991E+01 -0.30030824247E+02 -0.27715002551E+02  0.41972255113E+02  0.51100000000E-03 0.  1.
         12    1    3    3    0    0  0.34400401595E+01  0.36494835030E+01  0.14521159693E+01  0.52212304034E+01  0.00000000000E+00 0. -1.
</event>
<event>
 7    1  0.4871930E-013  0.5052886E+02  0.7816164E-02  0.1300439E+00
        -11   -1    0    0    0    0  0.00000000000E+00  0.00000000000E+00  0.45593999997E+02  0.45594000000E+02  0.51100000000E-03 0.  1.
         11   -1    0    0    0    0 -0.00000000000E+00 -0.00000000000E+00 -0.45593999997E+02  0.45594000000E+02  0.51100000000E-03 0. -1.
    9900012    2    1    2    0    0  0.23314766626E+02 -0.32053081995E+02  0.90657163588E+01  0.50528860544E+02  0.30000002108E+02 0.  0.
         12    1    1    2    0    0 -0.23314766626E+02  0.32053081995E+02 -0.90657163588E+01  0.40659139456E+02  0.00000000000E+00 0. -1.
         11    1    3    3    0    0  0.34693435855E+01 -0.40217010998E+01  0.65776089526E+01  0.84543104062E+01  0.51100000000E-03 0. -1.
        -11    1    3    3    0    0  0.14670847792E+02 -0.11135908462E+02  0.12023670038E+02  0.21995701254E+02  0.51100000000E-03 0.  1.
         12    1    3    3    0    0  0.51745752492E+01 -0.16895472434E+02 -0.95355626323E+01  0.20078848883E+02  0.00000000000E+00 0. -1.
</event>
<event>
 7    1  0.4871930E-013  0.5052886E+02  0.7816164E-02  0.1300439E+00
        -11   -1    0    0    0    0  0.00000000000E+00  0.00000000000E+00  0.45593999997E+02  0.45594000000E+02  0.51100000000E-03 0. -1.
         11   -1    0    0    0    0 -0.00000000000E+00 -0.00000000000E+00 -0.45593999997E+02  0.45594000000E+02  0.51100000000E-03 0.  1.
    9900012    2    1    2    0    0 -0.34546067873E+01 -0.25537789127E+02 -0.31449209721E+02  0.50528858671E+02  0.29999996415E+02 0.  0.
         12    1    1    2    0    0  0.34546067873E+01  0.25537789127E+02  0.31449209721E+02  0.40659141329E+02  0.00000000000E+00 0. -1.
         11    1    3    3    0    0 -0.50443598280E+01 -0.22805861659E+02 -0.16821841200E+02  0.28784149001E+02  0.51100000000E-03 0. -1.
        -11    1    3    3    0    0  0.35505864906E+01 -0.24108429646E+01 -0.17629630912E+02  0.18144495435E+02  0.51100000000E-03 0.  1.
         12    1    3    3    0    0 -0.19608334499E+01 -0.32108450355E+00  0.30022623907E+01  0.36002142352E+01  0.00000000000E+00 0. -1.
</event>
<event>
 7    1  0.4871930E-013  0.5052886E+02  0.7816164E-02  0.1300439E+00
        -11   -1    0    0    0    0  0.00000000000E+00  0.00000000000E+00  0.45593999997E+02  0.45594000000E+02  0.51100000000E-03 0.  1.
         11   -1    0    0    0    0 -0.00000000000E+00 -0.00000000000E+00 -0.45593999997E+02  0.45594000000E+02  0.51100000000E-03 0. -1.
    9900012    2    1    2    0    0  0.44428321043E+01 -0.35652940550E+02  0.19034043933E+02  0.50528858895E+02  0.29999997096E+02 0.  0.
         12    1    1    2    0    0 -0.44428321043E+01  0.35652940550E+02 -0.19034043933E+02  0.40659141105E+02  0.00000000000E+00 0. -1.
         11    1    3    3    0    0  0.98700993562E+01 -0.10268499600E+02  0.45527646003E+00  0.14250200779E+02  0.51100000000E-03 0. -1.
        -11    1    3    3    0    0  0.54353314624E+01 -0.13280993772E+02  0.12106873057E+02  0.18775089857E+02  0.51100000000E-03 0.  1.
         12    1    3    3    0    0 -0.10862598714E+02 -0.12103447179E+02  0.64718944163E+01  0.17503568259E+02  0.00000000000E+00 0. -1.
</event>
<event>
 7    1  0.4871930E-013  0.5052885E+02  0.7816164E-02  0.1300439E+00
        -11   -1    0    0    0    0  0.00000000000E+00  0.00000000000E+00  0.45593999997E+02  0.45594000000E+02  0.51100000000E-03 0.  1.
         11   -1    0    0    0    0 -0.00000000000E+00 -0.00000000000E+00 -0.45593999997E+02  0.45594000000E+02  0.51100000000E-03 0. -1.
    9900012    2    1    2    0    0 -0.46760480728E+01 -0.35862315794E+02 -0.18579439825E+02  0.50528847231E+02  0.29999961644E+02 0.  0.
         12    1    1    2    0    0  0.46760480728E+01  0.35862315794E+02  0.18579439825E+02  0.40659152769E+02  0.00000000000E+00 0. -1.
         11    1    3    3    0    0  0.17375518698E+01 -0.71953374786E+01 -0.86092101554E+01  0.11353874567E+02  0.51100000000E-03 0. -1.
        -11    1    3    3    0    0  0.51632214173E+01 -0.25195669491E+02 -0.55906621527E+01  0.26319880701E+02  0.51100000000E-03 0.  1.
        -12    1    3    3    0    0 -0.11576821360E+02 -0.34713088238E+01 -0.43795675165E+01  0.12855091963E+02  0.00000000000E+00 0.  1.
</event>
<event>
 7    1  0.4871930E-013  0.5052886E+02  0.7816164E-02  0.1300439E+00
        -11   -1    0    0    0    0  0.00000000000E+00  0.00000000000E+00  0.45593999997E+02  0.45594000000E+02  0.51100000000E-03 0.  1.
         11   -1    0    0    0    0 -0.00000000000E+00 -0.00000000000E+00 -0.45593999997E+02  0.45594000000E+02  0.51100000000E-03 0. -1.
    9900012    2    1    2    0    0  0.11530692968E+02 -0.18600507916E+02  0.34267037872E+02  0.50528860074E+02  0.30000000679E+02 0.  0.
         12    1    1    2    0    0 -0.11530692968E+02  0.18600507916E+02 -0.34267037872E+02  0.40659139926E+02  0.00000000000E+00 0. -1.
         11    1    3    3    0    0  0.15458133604E+02 -0.14943963491E+02  0.10863762065E+02  0.24089360013E+02  0.51100000000E-03 0. -1.
        -11    1    3    3    0    0 -0.39290998752E+01 -0.42410944881E+01  0.40066236157E+01  0.70340416082E+01  0.51100000000E-03 0.  1.
        -12    1    3    3    0    0  0.16592385449E-02  0.58455006386E+00  0.19396652191E+02  0.19405458452E+02  0.00000000000E+00 0.  1.
</event>
<event>
 7    1  0.4871930E-013  0.5052886E+02  0.7816164E-02  0.1300439E+00
        -11   -1    0    0    0    0  0.00000000000E+00  0.00000000000E+00  0.45593999997E+02  0.45594000000E+02  0.51100000000E-03 0. -1.
         11   -1    0    0    0    0 -0.00000000000E+00 -0.00000000000E+00 -0.45593999997E+02  0.45594000000E+02  0.51100000000E-03 0.  1.
    9900012    2    1    2    0    0 -0.36423771071E+02  0.46785956558E-01 -0.18068539952E+02  0.50528862971E+02  0.30000009487E+02 0.  0.
         12    1    1    2    0    0  0.36423771071E+02 -0.46785956558E-01  0.18068539952E+02  0.40659137029E+02  0.00000000000E+00 0. -1.
         11    1    3    3    0    0 -0.21985830221E+02  0.74502223722E-01  0.34724429862E+00  0.21988698460E+02  0.51100000000E-03 0. -1.
        -11    1    3    3    0    0 -0.17006311330E+02 -0.10244752628E+01 -0.10159419217E+02  0.19836279230E+02  0.51100000000E-03 0.  1.
        -12    1    3    3    0    0  0.25683704802E+01  0.99675899561E+00 -0.82563650333E+01  0.87038852809E+01  0.00000000000E+00 0.  1.
</event>
<event>
 7    1  0.4871930E-013  0.5052886E+02  0.7816164E-02  0.1300439E+00
        -11   -1    0    0    0    0  0.00000000000E+00  0.00000000000E+00  0.45593999997E+02  0.45594000000E+02  0.51100000000E-03 0.  1.
         11   -1    0    0    0    0 -0.00000000000E+00 -0.00000000000E+00 -0.45593999997E+02  0.45594000000E+02  0.51100000000E-03 0. -1.
    9900012    2    1    2    0    0 -0.50864388163E+01 -0.14353613518E+02  0.37699701810E+02  0.50528860838E+02  0.30000003002E+02 0.  0.
         12    1    1    2    0    0  0.50864388163E+01  0.14353613518E+02 -0.37699701810E+02  0.40659139162E+02  0.00000000000E+00 0. -1.
         11    1    3    3    0    0 -0.78882962586E+01 -0.67682845726E+01  0.11661855307E+02  0.15621580054E+02  0.51100000000E-03 0.  1.
        -11    1    3    3    0    0  0.18918253855E+01 -0.15332711727E+02  0.17259574547E+02  0.23163850414E+02  0.51100000000E-03 0. -1.
        -12    1    3    3    0    0  0.91003205671E+00  0.77473827817E+01  0.87782719559E+01  0.11743430369E+02  0.00000000000E+00 0.  1.
</event>
<event>
 7    1  0.4871930E-013  0.5052884E+02  0.7816164E-02  0.1300439E+00
        -11   -1    0    0    0    0  0.00000000000E+00  0.00000000000E+00  0.45593999997E+02  0.45594000000E+02  0.51100000000E-03 0.  1.
         11   -1    0    0    0    0 -0.00000000000E+00 -0.00000000000E+00 -0.45593999997E+02  0.45594000000E+02  0.51100000000E-03 0. -1.
    9900012    2    1    2    0    0 -0.17223869135E+02  0.18161873660E+02  0.32041413059E+02  0.50528837765E+02  0.29999932871E+02 0.  0.
         12    1    1    2    0    0  0.17223869135E+02 -0.18161873660E+02 -0.32041413059E+02  0.40659162235E+02  0.00000000000E+00 0. -1.
         11    1    3    3    0    0  0.32977075892E+00 -0.34644705329E+01 -0.17919503313E+01  0.39143825921E+01  0.51100000000E-03 0. -1.
        -11    1    3    3    0    0 -0.64866744056E+01  0.56872063377E+01  0.12866351940E+01  0.87221953174E+01  0.51100000000E-03 0.  1.
        -12    1    3    3    0    0 -0.11066965489E+02  0.15939137855E+02  0.32546728196E+02  0.37892259856E+02  0.00000000000E+00 0.  1.
</event>
<event>
 7    1  0.4871930E-013  0.5052886E+02  0.7816164E-02  0.1300439E+00
        -11   -1    0    0    0    0  0.00000000000E+00  0.00000000000E+00  0.45593999997E+02  0.45594000000E+02  0.51100000000E-03 0. -1.
         11   -1    0    0    0    0 -0.00000000000E+00 -0.00000000000E+00 -0.45593999997E+02  0.45594000000E+02  0.51100000000E-03 0.  1.
    9900012    2    1    2    0    0 -0.37475379351E+02  0.95947001095E+01 -0.12518110786E+02  0.50528862954E+02  0.30000009434E+02 0.  0.
         12    1    1    2    0    0  0.37475379351E+02 -0.95947001095E+01  0.12518110786E+02  0.40659137046E+02  0.00000000000E+00 0. -1.
         11    1    3    3    0    0 -0.62094836591E+01  0.71569818641E+01 -0.24706066967E+01  0.97920362758E+01  0.51100000000E-03 0. -1.
        -11    1    3    3    0    0 -0.62585760834E+01  0.11105301247E+02 -0.10844196876E+01  0.12793492749E+02  0.51100000000E-03 0.  1.
        -12    1    3    3    0    0 -0.25007319608E+02 -0.86675830021E+01 -0.89630844021E+01  0.27943333929E+02  0.00000000000E+00 0.  1.
</event>
<event>
 7    1  0.4871930E-013  0.5052886E+02  0.7816164E-02  0.1300439E+00
        -11   -1    0    0    0    0  0.00000000000E+00  0.00000000000E+00  0.45593999997E+02  0.45594000000E+02  0.51100000000E-03 0. -1.
         11   -1    0    0    0    0 -0.00000000000E+00 -0.00000000000E+00 -0.45593999997E+02  0.45594000000E+02  0.51100000000E-03 0.  1.
    9900012    2    1    2    0    0  0.16227989063E+02 -0.33636290036E+02 -0.16075382812E+02  0.50528861188E+02  0.30000004067E+02 0.  0.
         12    1    1    2    0    0 -0.16227989063E+02  0.33636290036E+02  0.16075382812E+02  0.40659138812E+02  0.00000000000E+00 0. -1.
         11    1    3    3    0    0 -0.61735523162E+01 -0.56785001040E+01 -0.46402482148E+01  0.95859279878E+01  0.51100000000E-03 0. -1.
        -11    1    3    3    0    0  0.71507756022E+01 -0.20670054236E+02 -0.30790716185E+01  0.22087675661E+02  0.51100000000E-03 0.  1.
         12    1    3    3    0    0  0.15250765777E+02 -0.72877356954E+01 -0.83560629791E+01  0.18855257539E+02  0.00000000000E+00 0. -1.
</event>
<event>
 7    1  0.4871930E-013  0.5052887E+02  0.7816164E-02  0.1300439E+00
        -11   -1    0    0    0    0  0.00000000000E+00  0.00000000000E+00  0.45593999997E+02  0.45594000000E+02  0.51100000000E-03 0.  1.
         11   -1    0    0    0    0 -0.00000000000E+00 -0.00000000000E+00 -0.45593999997E+02  0.45594000000E+02  0.51100000000E-03 0. -1.
    9900012    2    1    2    0    0  0.15471614805E+02  0.37110130500E+02  0.60524690502E+01  0.50528867791E+02  0.30000024137E+02 0.  0.
         12    1    1    2    0    0 -0.15471614805E+02 -0.37110130500E+02 -0.60524690502E+01  0.40659132209E+02  0.00000000000E+00 0. -1.
         11    1    3    3    0    0  0.31864252036E+01  0.27092117481E+02  0.50270550643E+01  0.27738194210E+02  0.51100000000E-03 0.  1.
        -11    1    3    3    0    0 -0.41991291193E+00 -0.13659170713E+01  0.50625418803E+01  0.52603599545E+01  0.51100000000E-03 0. -1.
        -12    1    3    3    0    0  0.12705102514E+02  0.11383930091E+02 -0.40371278944E+01  0.17530313626E+02  0.00000000000E+00 0.  1.
</event>
<event>
 7    1  0.4871930E-013  0.5052886E+02  0.7816164E-02  0.1300439E+00
        -11   -1    0    0    0    0  0.00000000000E+00  0.00000000000E+00  0.45593999997E+02  0.45594000000E+02  0.51100000000E-03 0.  1.
         11   -1    0    0    0    0 -0.00000000000E+00 -0.00000000000E+00 -0.45593999997E+02  0.45594000000E+02  0.51100000000E-03 0. -1.
    9900012    2    1    2    0    0  0.40610488445E+02 -0.79023970977E+00 -0.18246879217E+01  0.50528859127E+02  0.29999997803E+02 0.  0.
         12    1    1    2    0    0 -0.40610488445E+02  0.79023970977E+00  0.18246879217E+01  0.40659140873E+02  0.00000000000E+00 0. -1.
         11    1    3    3    0    0  0.15134055306E+02 -0.93379998359E+01 -0.17859122949E+01  0.17872530709E+02  0.51100000000E-03 0. -1.
        -11    1    3    3    0    0  0.17387128374E+02  0.10658873704E+01 -0.78931990425E+01  0.19124616085E+02  0.51100000000E-03 0.  1.
        -12    1    3    3    0    0  0.80893047640E+01  0.74818727558E+01  0.78544234157E+01  0.13531712334E+02  0.00000000000E+00 0.  1.
</event>
<event>
 7    1  0.4871930E-013  0.5052884E+02  0.7816164E-02  0.1300439E+00
        -11   -1    0    0    0    0  0.00000000000E+00  0.00000000000E+00  0.45593999997E+02  0.45594000000E+02  0.51100000000E-03 0. -1.
         11   -1    0    0    0    0 -0.00000000000E+00 -0.00000000000E+00 -0.45593999997E+02  0.45594000000E+02  0.51100000000E-03 0.  1.
    9900012    2    1    2    0    0 -0.25200684774E+00  0.11078657175E+02 -0.39119905237E+02  0.50528841893E+02  0.29999945417E+02 0.  0.
         12    1    1    2    0    0  0.25200684774E+00 -0.11078657175E+02  0.39119905237E+02  0.40659158107E+02  0.00000000000E+00 0. -1.
         11    1    3    3    0    0  0.10535722934E+01  0.42640401534E+01 -0.17167399305E+02  0.17720373929E+02  0.51100000000E-03 0. -1.
        -11    1    3    3    0    0  0.80634638914E+01 -0.37647440568E+01 -0.14011244833E+02  0.16598425521E+02  0.51100000000E-03 0.  1.
         12    1    3    3    0    0 -0.93690430325E+01  0.10579361078E+02 -0.79412610981E+01  0.16210042443E+02  0.00000000000E+00 0. -1.
</event>
<event>
 7    1  0.5035027E-013  0.5052886E+02  0.7816164E-02  0.1300439E+00
        -11   -1    0    0    0    0  0.00000000000E+00  0.00000000000E+00  0.45593999997E+02  0.45594000000E+02  0.51100000000E-03 0. -1.
         11   -1    0    0    0    0 -0.00000000000E+00 -0.00000000000E+00 -0.45593999997E+02  0.45594000000E+02  0.51100000000E-03 0.  1.
    9900012    2    1    2    0    0 -0.30412436458E+01  0.39029383177E+02  0.10982892446E+02  0.50528857847E+02  0.29999993912E+02 0.  0.
         12    1    1    2    0    0  0.30412436458E+01 -0.39029383177E+02 -0.10982892446E+02  0.40659142153E+02  0.00000000000E+00 0. -1.
         11    1    3    3    0    0  0.33266051518E+01  0.33577020670E+01  0.83708526545E+01  0.96130972861E+01  0.51100000000E-03 0. -1.
        -11    1    3    3    0    0  0.13445617163E+01  0.19511355414E+02  0.94842559692E+01  0.21735959787E+02  0.51100000000E-03 0.  1.
         12    1    3    3    0    0 -0.77124105139E+01  0.16160325696E+02 -0.68722161777E+01  0.19179800774E+02  0.00000000000E+00 0. -1.
</event>
<event>
 7    1  0.4871930E-013  0.5052886E+02  0.7816164E-02  0.1300439E+00
        -11   -1    0    0    0    0  0.00000000000E+00  0.00000000000E+00  0.45593999997E+02  0.45594000000E+02  0.51100000000E-03 0.  1.
         11   -1    0    0    0    0 -0.00000000000E+00 -0.00000000000E+00 -0.45593999997E+02  0.45594000000E+02  0.51100000000E-03 0. -1.
    9900012    2    1    2    0    0  0.34286074514E+01 -0.19657242397E+02  0.35426026457E+02  0.50528857385E+02  0.29999992506E+02 0.  0.
         12    1    1    2    0    0 -0.34286074514E+01  0.19657242397E+02 -0.35426026457E+02  0.40659142615E+02  0.00000000000E+00 0. -1.
         11    1    3    3    0    0  0.23574979409E+01  0.22469805600E+01  0.53197272449E+01  0.62374847815E+01  0.51100000000E-03 0. -1.
        -11    1    3    3    0    0 -0.10475553463E+02 -0.44641009260E+01  0.84198483169E+01  0.14161894766E+02  0.51100000000E-03 0.  1.
        -12    1    3    3    0    0  0.11546662974E+02 -0.17440122031E+02  0.21686450895E+02  0.30129477837E+02  0.00000000000E+00 0.  1.
</event>
<event>
 7    1  0.4871930E-013  0.5052885E+02  0.7816164E-02  0.1300439E+00
        -11   -1    0    0    0    0  0.00000000000E+00  0.00000000000E+00  0.45593999997E+02  0.45594000000E+02  0.51100000000E-03 0.  1.
         11   -1    0    0    0    0 -0.00000000000E+00 -0.00000000000E+00 -0.45593999997E+02  0.45594000000E+02  0.51100000000E-03 0. -1.
    9900012    2    1    2    0    0  0.31493315284E+02  0.11587079142E+02  0.22958160306E+02  0.50528850534E+02  0.29999971685E+02 0.  0.
         12    1    1    2    0    0 -0.31493315284E+02 -0.11587079142E+02 -0.22958160306E+02  0.40659149466E+02  0.00000000000E+00 0. -1.
         11    1    3    3    0    0  0.15280679605E+02  0.13908220349E+02  0.14938243709E+02  0.25496840742E+02  0.51100000000E-03 0. -1.
        -11    1    3    3    0    0  0.49382888313E+01  0.57188964432E+01 -0.21445790535E+01  0.78544059410E+01  0.51100000000E-03 0.  1.
        -12    1    3    3    0    0  0.11274346848E+02 -0.80400376496E+01  0.10164495650E+02  0.17177603851E+02  0.00000000000E+00 0.  1.
</event>
<event>
 7    1  0.4871930E-013  0.5052886E+02  0.7816164E-02  0.1300439E+00
        -11   -1    0    0    0    0  0.00000000000E+00  0.00000000000E+00  0.45593999997E+02  0.45594000000E+02  0.51100000000E-03 0.  1.
         11   -1    0    0    0    0 -0.00000000000E+00 -0.00000000000E+00 -0.45593999997E+02  0.45594000000E+02  0.51100000000E-03 0. -1.
    9900012    2    1    2    0    0  0.34086635992E+01 -0.11732896564E+02  0.38779965891E+02  0.50528860759E+02  0.30000002762E+02 0.  0.
         12    1    1    2    0    0 -0.34086635992E+01  0.11732896564E+02 -0.38779965891E+02  0.40659139241E+02  0.00000000000E+00 0. -1.
         11    1    3    3    0    0  0.38051712042E+01 -0.97761632551E+01  0.29672826525E+02  0.31472675929E+02  0.51100000000E-03 0. -1.
        -11    1    3    3    0    0  0.55415844426E+00  0.44413895113E+01  0.11357445387E+02  0.12207563162E+02  0.51100000000E-03 0.  1.
         12    1    3    3    0    0 -0.95066604925E+00 -0.63981228202E+01 -0.22503060207E+01  0.68486216677E+01  0.00000000000E+00 0. -1.
</event>
<event>
 7    1  0.4871930E-013  0.5052886E+02  0.7816164E-02  0.1300439E+00
        -11   -1    0    0    0    0  0.00000000000E+00  0.00000000000E+00  0.45593999997E+02  0.45594000000E+02  0.51100000000E-03 0. -1.
         11   -1    0    0    0    0 -0.00000000000E+00 -0.00000000000E+00 -0.45593999997E+02  0.45594000000E+02  0.51100000000E-03 0.  1.
    9900012    2    1    2    0    0 -0.13368195545E+02  0.48404356337E+01 -0.38092355189E+02  0.50528855972E+02  0.29999988211E+02 0.  0.
         12    1    1    2    0    0  0.13368195545E+02 -0.48404356337E+01  0.38092355189E+02  0.40659144028E+02  0.00000000000E+00 0. -1.
         11    1    3    3    0    0  0.18794423230E+01  0.46777262321E+01 -0.95445591482E+00  0.51307321605E+01  0.51100000000E-03 0. -1.
        -11    1    3    3    0    0  0.11101756927E+00  0.55771330112E+01 -0.87510510431E+00  0.56464632054E+01  0.51100000000E-03 0.  1.
        -12    1    3    3    0    0 -0.15358655438E+02 -0.54144236096E+01 -0.36262794170E+02  0.39751660606E+02  0.00000000000E+00 0.  1.
</event>
<event>
 7    1  0.4871930E-013  0.5052887E+02  0.7816164E-02  0.1300439E+00
        -11   -1    0    0    0    0  0.00000000000E+00  0.00000000000E+00  0.45593999997E+02  0.45594000000E+02  0.51100000000E-03 0.  1.
         11   -1    0    0    0    0 -0.00000000000E+00 -0.00000000000E+00 -0.45593999997E+02  0.45594000000E+02  0.51100000000E-03 0. -1.
    9900012    2    1    2    0    0  0.30418420871E+01 -0.72313184253E+01  0.39895115139E+02  0.50528868413E+02  0.30000026028E+02 0.  0.
         12    1    1    2    0    0 -0.30418420871E+01  0.72313184253E+01 -0.39895115139E+02  0.40659131587E+02  0.00000000000E+00 0. -1.
         11    1    3    3    0    0 -0.74964331076E+00  0.12537209898E+00  0.24253584728E+02  0.24265491045E+02  0.51100000000E-03 0. -1.
        -11    1    3    3    0    0 -0.66519103062E+01  0.21249676255E+01  0.55415980010E+01  0.89147465918E+01  0.51100000000E-03 0.  1.
        -12    1    3    3    0    0  0.10443395704E+02 -0.94816581498E+01  0.10099932411E+02  0.17348630776E+02  0.00000000000E+00 0.  1.
</event>
<event>
 7    1  0.4871930E-013  0.5052886E+02  0.7816164E-02  0.1300439E+00
        -11   -1    0    0    0    0  0.00000000000E+00  0.00000000000E+00  0.45593999997E+02  0.45594000000E+02  0.51100000000E-03 0.  1.
         11   -1    0    0    0    0 -0.00000000000E+00 -0.00000000000E+00 -0.45593999997E+02  0.45594000000E+02  0.51100000000E-03 0. -1.
    9900012    2    1    2    0    0 -0.66968086302E+01 -0.14870847536E+02  0.37244813433E+02  0.50528862283E+02  0.30000007394E+02 0.  0.
         12    1    1    2    0    0  0.66968086302E+01  0.14870847536E+02 -0.37244813433E+02  0.40659137717E+02  0.00000000000E+00 0. -1.
         11    1    3    3    0    0 -0.72889542467E+01  0.19409748790E+01  0.73632978566E+01  0.10541081210E+02  0.51100000000E-03 0. -1.
        -11    1    3    3    0    0  0.41063628669E+00 -0.37881201944E+01  0.26167756927E+02  0.26443713424E+02  0.51100000000E-03 0.  1.
         12    1    3    3    0    0  0.18150932975E+00 -0.13023702221E+02  0.37137586491E+01  0.13544067649E+02  0.00000000000E+00 0. -1.
</event>
<event>
 7    1  0.4871930E-013  0.5052886E+02  0.7816164E-02  0.1300439E+00
        -11   -1    0    0    0    0  0.00000000000E+00  0.00000000000E+00  0.45593999997E+02  0.45594000000E+02  0.51100000000E-03 0. -1.
         11   -1    0    0    0    0 -0.00000000000E+00 -0.00000000000E+00 -0.45593999997E+02  0.45594000000E+02  0.51100000000E-03 0.  1.
    9900012    2    1    2    0    0  0.33235325976E+02  0.22756183558E+02 -0.55438996184E+01  0.50528860734E+02  0.30000002688E+02 0.  0.
         12    1    1    2    0    0 -0.33235325976E+02 -0.22756183558E+02  0.55438996184E+01  0.40659139266E+02  0.00000000000E+00 0. -1.
         11    1    3    3    0    0 -0.11636116436E+01 -0.43241949922E+00  0.10401473455E+01  0.16195324763E+01  0.51100000000E-03 0. -1.
        -11    1    3    3    0    0  0.99173269862E+01  0.15580926878E+02 -0.12872813234E+02  0.22512840286E+02  0.51100000000E-03 0.  1.
        -12    1    3    3    0    0  0.24481610633E+02  0.76076761800E+01  0.62887662702E+01  0.26396487972E+02  0.00000000000E+00 0.  1.
</event>
<event>
 7    1  0.4871930E-013  0.5052886E+02  0.7816164E-02  0.1300439E+00
        -11   -1    0    0    0    0  0.00000000000E+00  0.00000000000E+00  0.45593999997E+02  0.45594000000E+02  0.51100000000E-03 0.  1.
         11   -1    0    0    0    0 -0.00000000000E+00 -0.00000000000E+00 -0.45593999997E+02  0.45594000000E+02  0.51100000000E-03 0. -1.
    9900012    2    1    2    0    0  0.81099117942E+01  0.10715020628E+01  0.39827715234E+02  0.50528859739E+02  0.29999999663E+02 0.  0.
         12    1    1    2    0    0 -0.81099117942E+01 -0.10715020628E+01 -0.39827715234E+02  0.40659140261E+02  0.00000000000E+00 0. -1.
         11    1    3    3    0    0  0.77462760694E+00  0.10569629311E+02  0.35403195556E+01  0.11173673278E+02  0.51100000000E-03 0. -1.
        -11    1    3    3    0    0  0.40251752123E+00  0.13114410818E+01  0.10055452032E+02  0.10148596647E+02  0.51100000000E-03 0.  1.
         12    1    3    3    0    0  0.69327666661E+01 -0.10809568330E+02  0.26231943647E+02  0.29206589815E+02  0.00000000000E+00 0. -1.
</event>
<event>
 7    1  0.4871930E-013  0.5052886E+02  0.7816164E-02  0.1300439E+00
        -11   -1    0    0    0    0  0.00000000000E+00  0.00000000000E+00  0.45593999997E+02  0.45594000000E+02  0.51100000000E-03 0.  1.
         11   -1    0    0    0    0 -0.00000000000E+00 -0.00000000000E+00 -0.45593999997E+02  0.45594000000E+02  0.51100000000E-03 0. -1.
    9900012    2    1    2    0    0 -0.10091570326E+02 -0.22629352021E+01  0.39321817215E+02  0.50528856177E+02  0.29999988835E+02 0.  0.
         12    1    1    2    0    0  0.10091570326E+02  0.22629352021E+01 -0.39321817215E+02  0.40659143823E+02  0.00000000000E+00 0. -1.
         11    1    3    3    0    0 -0.71840911451E+01  0.28923681112E+01  0.33467052988E+01  0.84366696919E+01  0.51100000000E-03 0. -1.
        -11    1    3    3    0    0  0.32087299941E+01 -0.10976076864E+01  0.34423520076E+02  0.34590163710E+02  0.51100000000E-03 0.  1.
         12    1    3    3    0    0 -0.61162091754E+01 -0.40576956270E+01  0.15515918398E+01  0.75020227749E+01  0.00000000000E+00 0. -1.
</event>
<event>
 7    1  0.4871930E-013  0.5052887E+02  0.7816164E-02  0.1300439E+00
        -11   -1    0    0    0    0  0.00000000000E+00  0.00000000000E+00  0.45593999997E+02  0.45594000000E+02  0.51100000000E-03 0. -1.
         11   -1    0    0    0    0 -0.00000000000E+00 -0.00000000000E+00 -0.45593999997E+02  0.45594000000E+02  0.51100000000E-03 0.  1.
    9900012    2    1    2    0    0  0.35980745630E+02  0.18821338102E+02  0.20756731873E+01  0.50528865194E+02  0.30000016243E+02 0.  0.
         12    1    1    2    0    0 -0.35980745630E+02 -0.18821338102E+02 -0.20756731873E+01  0.40659134806E+02  0.00000000000E+00 0. -1.
         11    1    3    3    0    0  0.19647008726E+02  0.31612155335E+01 -0.50579318471E+01  0.20532435568E+02  0.51100000000E-03 0. -1.
        -11    1    3    3    0    0  0.99508907895E+01  0.14491556392E+01 -0.40274234795E+01  0.10832378304E+02  0.51100000000E-03 0.  1.
         12    1    3    3    0    0  0.63828461143E+01  0.14210966929E+02  0.11161028514E+02  0.19164051322E+02  0.00000000000E+00 0. -1.
</event>
<event>
 7    1  0.4871930E-013  0.5052886E+02  0.7816164E-02  0.1300439E+00
        -11   -1    0    0    0    0  0.00000000000E+00  0.00000000000E+00  0.45593999997E+02  0.45594000000E+02  0.51100000000E-03 0.  1.
         11   -1    0    0    0    0 -0.00000000000E+00 -0.00000000000E+00 -0.45593999997E+02  0.45594000000E+02  0.51100000000E-03 0. -1.
    9900012    2    1    2    0    0  0.10816421129E+02  0.15292380287E+01  0.39164169745E+02  0.50528859247E+02  0.29999998168E+02 0.  0.
         12    1    1    2    0    0 -0.10816421129E+02 -0.15292380287E+01 -0.39164169745E+02  0.40659140753E+02  0.00000000000E+00 0. -1.
         11    1    3    3    0    0  0.92141028678E+01  0.10356589546E+02  0.24436622017E+02  0.28094610418E+02  0.51100000000E-03 0. -1.
        -11    1    3    3    0    0 -0.58934566989E-01 -0.27808909260E+01  0.15825712184E+02  0.16068291571E+02  0.51100000000E-03 0.  1.
        -12    1    3    3    0    0  0.16612528277E+01 -0.60464605913E+01 -0.10981644561E+01  0.63659572581E+01  0.00000000000E+00 0.  1.
</event>
<event>
 7    1  0.4871930E-013  0.5052887E+02  0.7816164E-02  0.1300439E+00
        -11   -1    0    0    0    0  0.00000000000E+00  0.00000000000E+00  0.45593999997E+02  0.45594000000E+02  0.51100000000E-03 0.  1.
         11   -1    0    0    0    0 -0.00000000000E+00 -0.00000000000E+00 -0.45593999997E+02  0.45594000000E+02  0.51100000000E-03 0. -1.
    9900012    2    1    2    0    0  0.12847720181E+02 -0.12599950986E+02  0.36460145396E+02  0.50528869648E+02  0.30000029782E+02 0.  0.
         12    1    1    2    0    0 -0.12847720181E+02  0.12599950986E+02 -0.36460145396E+02  0.40659130352E+02  0.00000000000E+00 0. -1.
         11    1    3    3    0    0  0.44072938324E+01 -0.49435970950E+01 -0.28635793616E+01  0.72155026286E+01  0.51100000000E-03 0. -1.
        -11    1    3    3    0    0 -0.21966125284E+01 -0.71810345869E+01  0.16141895117E+02  0.17803177879E+02  0.51100000000E-03 0.  1.
         12    1    3    3    0    0  0.10637038877E+02 -0.47531930383E+00  0.23181829640E+02  0.25510189140E+02  0.00000000000E+00 0. -1.
</event>
<event>
 7    1  0.4871930E-013  0.5052886E+02  0.7816164E-02  0.1300439E+00
        -11   -1    0    0    0    0  0.00000000000E+00  0.00000000000E+00  0.45593999997E+02  0.45594000000E+02  0.51100000000E-03 0. -1.
         11   -1    0    0    0    0 -0.00000000000E+00 -0.00000000000E+00 -0.45593999997E+02  0.45594000000E+02  0.51100000000E-03 0.  1.
    9900012    2    1    2    0    0  0.14830676476E+02  0.37098740504E+02 -0.75432152219E+01  0.50528860712E+02  0.30000002621E+02 0.  0.
         12    1    1    2    0    0 -0.14830676476E+02 -0.37098740504E+02  0.75432152219E+01  0.40659139288E+02  0.00000000000E+00 0. -1.
         11    1    3    3    0    0 -0.71981116360E+01  0.64408261669E+01 -0.35642285571E+01  0.10295667939E+02  0.51100000000E-03 0. -1.
        -11    1    3    3    0    0  0.66045419018E+01  0.18436265436E+02  0.19492537293E+01  0.19680331484E+02  0.51100000000E-03 0.  1.
        -12    1    3    3    0    0  0.15424246210E+02  0.12221648901E+02 -0.59282403941E+01  0.20552861289E+02  0.00000000000E+00 0.  1.
</event>
<event>
 7    1  0.4871930E-013  0.5052887E+02  0.7816164E-02  0.1300439E+00
        -11   -1    0    0    0    0  0.00000000000E+00  0.00000000000E+00  0.45593999997E+02  0.45594000000E+02  0.51100000000E-03 0.  1.
         11   -1    0    0    0    0 -0.00000000000E+00 -0.00000000000E+00 -0.45593999997E+02  0.45594000000E+02  0.51100000000E-03 0. -1.
    9900012    2    1    2    0    0  0.40250486183E+02  0.39260315383E+01  0.42011273044E+01  0.50528870247E+02  0.30000031603E+02 0.  0.
         12    1    1    2    0    0 -0.40250486183E+02 -0.39260315383E+01 -0.42011273044E+01  0.40659129753E+02  0.00000000000E+00 0. -1.
         11    1    3    3    0    0  0.96356844388E+00  0.10386376054E+01  0.41449234152E+01  0.43803678613E+01  0.51100000000E-03 0. -1.
        -11    1    3    3    0    0  0.41224696452E+02  0.33555194680E+00  0.35854639600E+01  0.41381683687E+02  0.51100000000E-03 0.  1.
         12    1    3    3    0    0 -0.19377787127E+01  0.25518419860E+01 -0.35292600708E+01  0.47668186989E+01  0.00000000000E+00 0. -1.
</event>
<event>
 7    1  0.4871930E-013  0.5052888E+02  0.7816164E-02  0.1300439E+00
        -11   -1    0    0    0    0  0.00000000000E+00  0.00000000000E+00  0.45593999997E+02  0.45594000000E+02  0.51100000000E-03 0. -1.
         11   -1    0    0    0    0 -0.00000000000E+00 -0.00000000000E+00 -0.45593999997E+02  0.45594000000E+02  0.51100000000E-03 0.  1.
    9900012    2    1    2    0    0  0.32986089616E+02  0.23333725355E+02 -0.45408559338E+01  0.50528877780E+02  0.30000054499E+02 0.  0.
         12    1    1    2    0    0 -0.32986089616E+02 -0.23333725355E+02  0.45408559338E+01  0.40659122220E+02  0.00000000000E+00 0. -1.
         11    1    3    3    0    0  0.14690162158E+02  0.45379426348E+01 -0.99506539585E+01  0.18314183084E+02  0.51100000000E-03 0. -1.
        -11    1    3    3    0    0  0.14682122204E+02  0.14005107122E+02 -0.43556704434E+01  0.20752821572E+02  0.51100000000E-03 0.  1.
        -12    1    3    3    0    0  0.36138052541E+01  0.47906755984E+01  0.97654684681E+01  0.11461873124E+02  0.00000000000E+00 0.  1.
</event>
<event>
 7    1  0.4871930E-013  0.5052882E+02  0.7816164E-02  0.1300439E+00
        -11   -1    0    0    0    0  0.00000000000E+00  0.00000000000E+00  0.45593999997E+02  0.45594000000E+02  0.51100000000E-03 0.  1.
         11   -1    0    0    0    0 -0.00000000000E+00 -0.00000000000E+00 -0.45593999997E+02  0.45594000000E+02  0.51100000000E-03 0. -1.
    9900012    2    1    2    0    0  0.10665606180E+02 -0.22828813825E+02  0.31910168843E+02  0.50528821805E+02  0.29999884359E+02 0.  0.
         12    1    1    2    0    0 -0.10665606180E+02  0.22828813825E+02 -0.31910168843E+02  0.40659178195E+02  0.00000000000E+00 0. -1.
         11    1    3    3    0    0 -0.42009596576E+01  0.32956186743E+01  0.85346323924E+01  0.10067229749E+02  0.51100000000E-03 0. -1.
        -11    1    3    3    0    0 -0.15184461342E+01 -0.97281457791E+01  0.68896245823E+01  0.12017047312E+02  0.51100000000E-03 0.  1.
         12    1    3    3    0    0  0.16385011972E+02 -0.16396286721E+02  0.16485911869E+02  0.28444544744E+02  0.00000000000E+00 0. -1.
</event>
<event>
 7    1  0.4871930E-013  0.5052886E+02  0.7816164E-02  0.1300439E+00
        -11   -1    0    0    0    0  0.00000000000E+00  0.00000000000E+00  0.45593999997E+02  0.45594000000E+02  0.51100000000E-03 0.  1.
         11   -1    0    0    0    0 -0.00000000000E+00 -0.00000000000E+00 -0.45593999997E+02  0.45594000000E+02  0.51100000000E-03 0. -1.
    9900012    2    1    2    0    0 -0.38831700056E+02  0.65246055945E+01  0.10133815273E+02  0.50528860567E+02  0.30000002181E+02 0.  0.
         12    1    1    2    0    0  0.38831700056E+02 -0.65246055945E+01 -0.10133815273E+02  0.40659139433E+02  0.00000000000E+00 0. -1.
         11    1    3    3    0    0 -0.14554177670E+01 -0.80062037277E+00  0.36723790401E+01  0.40305833242E+01  0.51100000000E-03 0. -1.
        -11    1    3    3    0    0 -0.66257546462E+01  0.75139657142E+01  0.11593146251E+02  0.15321923692E+02  0.51100000000E-03 0.  1.
         12    1    3    3    0    0 -0.30750527643E+02 -0.18873974691E+00 -0.51317100179E+01  0.31176353551E+02  0.00000000000E+00 0. -1.
</event>
<event>
 7    1  0.4871930E-013  0.5052886E+02  0.7816164E-02  0.1300439E+00
        -11   -1    0    0    0    0  0.00000000000E+00  0.00000000000E+00  0.45593999997E+02  0.45594000000E+02  0.51100000000E-03 0. -1.
         11   -1    0    0    0    0 -0.00000000000E+00 -0.00000000000E+00 -0.45593999997E+02  0.45594000000E+02  0.51100000000E-03 0.  1.
    9900012    2    1    2    0    0 -0.11468446930E+02  0.14603778622E+02 -0.36171395689E+02  0.50528862145E+02  0.30000006975E+02 0.  0.
         12    1    1    2    0    0  0.11468446930E+02 -0.14603778622E+02  0.36171395689E+02  0.40659137855E+02  0.00000000000E+00 0. -1.
         11    1    3    3    0    0  0.71963526129E+01  0.24382625785E+01 -0.68838558520E+01  0.10252808736E+02  0.51100000000E-03 0. -1.
        -11    1    3    3    0    0 -0.27528877851E+01  0.93548674869E+01 -0.46275756540E+01  0.10793812744E+02  0.51100000000E-03 0.  1.
         12    1    3    3    0    0 -0.15911911757E+02  0.28106485562E+01 -0.24659964183E+02  0.29482240665E+02  0.00000000000E+00 0. -1.
</event>
<event>
 7    1  0.4871930E-013  0.5052886E+02  0.7816164E-02  0.1300439E+00
        -11   -1    0    0    0    0  0.00000000000E+00  0.00000000000E+00  0.45593999997E+02  0.45594000000E+02  0.51100000000E-03 0. -1.
         11   -1    0    0    0    0 -0.00000000000E+00 -0.00000000000E+00 -0.45593999997E+02  0.45594000000E+02  0.51100000000E-03 0.  1.
    9900012    2    1    2    0    0  0.34680917275E+02 -0.14952407679E+02 -0.15060708324E+02  0.50528862606E+02  0.30000008377E+02 0.  0.
         12    1    1    2    0    0 -0.34680917275E+02  0.14952407679E+02  0.15060708324E+02  0.40659137394E+02  0.00000000000E+00 0. -1.
         11    1    3    3    0    0  0.13702849814E+02  0.57715272402E+01 -0.25743843662E+01  0.15089932897E+02  0.51100000000E-03 0. -1.
        -11    1    3    3    0    0  0.13049754878E+02 -0.56470425576E+01  0.16539393290E+00  0.14220145831E+02  0.51100000000E-03 0.  1.
         12    1    3    3    0    0  0.79283125822E+01 -0.15076892362E+02 -0.12651717890E+02  0.21218783878E+02  0.00000000000E+00 0. -1.
</event>
<event>
 7    1  0.4871930E-013  0.5052886E+02  0.7816164E-02  0.1300439E+00
        -11   -1    0    0    0    0  0.00000000000E+00  0.00000000000E+00  0.45593999997E+02  0.45594000000E+02  0.51100000000E-03 0.  1.
         11   -1    0    0    0    0 -0.00000000000E+00 -0.00000000000E+00 -0.45593999997E+02  0.45594000000E+02  0.51100000000E-03 0. -1.
    9900012    2    1    2    0    0 -0.16751933320E+02 -0.10475983032E+02  0.35535783840E+02  0.50528862976E+02  0.30000009501E+02 0.  0.
         12    1    1    2    0    0  0.16751933320E+02  0.10475983032E+02 -0.35535783840E+02  0.40659137024E+02  0.00000000000E+00 0. -1.
         11    1    3    3    0    0 -0.59694920776E+01  0.38751560636E+01  0.69348561664E+01  0.99369965528E+01  0.51100000000E-03 0. -1.
        -11    1    3    3    0    0  0.72638475927E+00 -0.15558845251E+00 -0.35409298946E+01  0.36180142847E+01  0.51100000000E-03 0.  1.
        -12    1    3    3    0    0 -0.11508826002E+02 -0.14195550643E+02  0.32141857568E+02  0.36973852138E+02  0.00000000000E+00 0.  1.
</event>
<event>
 7    1  0.4871930E-013  0.5052886E+02  0.7816164E-02  0.1300439E+00
        -11   -1    0    0    0    0  0.00000000000E+00  0.00000000000E+00  0.45593999997E+02  0.45594000000E+02  0.51100000000E-03 0.  1.
         11   -1    0    0    0    0 -0.00000000000E+00 -0.00000000000E+00 -0.45593999997E+02  0.45594000000E+02  0.51100000000E-03 0. -1.
    9900012    2    1    2    0    0  0.13485859169E+02 -0.24143303739E+02  0.29806010023E+02  0.50528859005E+02  0.29999997432E+02 0.  0.
         12    1    1    2    0    0 -0.13485859169E+02  0.24143303739E+02 -0.29806010023E+02  0.40659140995E+02  0.00000000000E+00 0. -1.
         11    1    3    3    0    0  0.13564756263E+02 -0.52351648543E+01  0.10560915961E+02  0.17970601263E+02  0.51100000000E-03 0. -1.
        -11    1    3    3    0    0  0.25637094200E+00 -0.16879431379E+02  0.42303298531E+01  0.17403350846E+02  0.51100000000E-03 0.  1.
         12    1    3    3    0    0 -0.33526803663E+00 -0.20287075058E+01  0.15014764208E+02  0.15154906896E+02  0.00000000000E+00 0. -1.
</event>
<event>
 7    1  0.4871930E-013  0.5052885E+02  0.7816164E-02  0.1300439E+00
        -11   -1    0    0    0    0  0.00000000000E+00  0.00000000000E+00  0.45593999997E+02  0.45594000000E+02  0.51100000000E-03 0.  1.
         11   -1    0    0    0    0 -0.00000000000E+00 -0.00000000000E+00 -0.45593999997E+02  0.45594000000E+02  0.51100000000E-03 0. -1.
    9900012    2    1    2    0    0 -0.69595938460E+01 -0.33170353105E+02  0.22460138554E+02  0.50528854713E+02  0.29999984385E+02 0.  0.
         12    1    1    2    0    0  0.69595938460E+01  0.33170353105E+02 -0.22460138554E+02  0.40659145287E+02  0.00000000000E+00 0. -1.
         11    1    3    3    0    0 -0.38231192168E+01  0.20826632738E+00  0.29785306407E+00  0.38403557280E+01  0.51100000000E-03 0. -1.
        -11    1    3    3    0    0 -0.41828033370E+01 -0.19120348894E+02 -0.85656598529E+00  0.19591255476E+02  0.51100000000E-03 0.  1.
        -12    1    3    3    0    0  0.10463287078E+01 -0.14258270538E+02  0.23018851475E+02  0.27097243508E+02  0.00000000000E+00 0.  1.
</event>
<event>
 7    1  0.4871930E-013  0.5052886E+02  0.7816164E-02  0.1300439E+00
        -11   -1    0    0    0    0  0.00000000000E+00  0.00000000000E+00  0.45593999997E+02  0.45594000000E+02  0.51100000000E-03 0. -1.
         11   -1    0    0    0    0 -0.00000000000E+00 -0.00000000000E+00 -0.45593999997E+02  0.45594000000E+02  0.51100000000E-03 0.  1.
    9900012    2    1    2    0    0  0.18429383911E+02  0.34489799301E+02 -0.11134506072E+02  0.50528859913E+02  0.30000000190E+02 0.  0.
         12    1    1    2    0    0 -0.18429383911E+02 -0.34489799301E+02  0.11134506072E+02  0.40659140087E+02  0.00000000000E+00 0. -1.
         11    1    3    3    0    0  0.40666320262E+00  0.14291106660E+01  0.42739016663E+01  0.45248168991E+01  0.51100000000E-03 0. -1.
        -11    1    3    3    0    0 -0.19831690016E+01  0.12876186213E+02 -0.11384641974E+02  0.17301422017E+02  0.51100000000E-03 0.  1.
        -12    1    3    3    0    0  0.20005889710E+02  0.20184502423E+02 -0.40237657637E+01  0.28702620996E+02  0.00000000000E+00 0.  1.
</event>
<event>
 7    1  0.4871930E-013  0.5052885E+02  0.7816164E-02  0.1300439E+00
        -11   -1    0    0    0    0  0.00000000000E+00  0.00000000000E+00  0.45593999997E+02  0.45594000000E+02  0.51100000000E-03 0. -1.
         11   -1    0    0    0    0 -0.00000000000E+00 -0.00000000000E+00 -0.45593999997E+02  0.45594000000E+02  0.51100000000E-03 0.  1.
    9900012    2    1    2    0    0  0.36787193475E+02  0.17316127757E+02 -0.14365262975E+00  0.50528849488E+02  0.29999968503E+02 0.  0.
         12    1    1    2    0    0 -0.36787193475E+02 -0.17316127757E+02  0.14365262975E+00  0.40659150512E+02  0.00000000000E+00 0. -1.
         11    1    3    3    0    0  0.24752007888E+02  0.56186181219E+01 -0.18568098826E+01  0.25449528626E+02  0.51100000000E-03 0. -1.
        -11    1    3    3    0    0  0.15813824073E+02  0.38014728355E+01  0.12931480964E+01  0.16315650762E+02  0.51100000000E-03 0.  1.
         12    1    3    3    0    0 -0.37786384848E+01  0.78960367997E+01  0.42000915648E+00  0.87636701006E+01  0.00000000000E+00 0. -1.
</event>
<event>
 7    1  0.4871930E-013  0.5052886E+02  0.7816164E-02  0.1300439E+00
        -11   -1    0    0    0    0  0.00000000000E+00  0.00000000000E+00  0.45593999997E+02  0.45594000000E+02  0.51100000000E-03 0.  1.
         11   -1    0    0    0    0 -0.00000000000E+00 -0.00000000000E+00 -0.45593999997E+02  0.45594000000E+02  0.51100000000E-03 0. -1.
    9900012    2    1    2    0    0 -0.28167301300E+02 -0.64746326382E+01  0.28598041833E+02  0.50528859244E+02  0.29999998159E+02 0.  0.
         12    1    1    2    0    0  0.28167301300E+02  0.64746326382E+01 -0.28598041833E+02  0.40659140756E+02  0.00000000000E+00 0. -1.
         11    1    3    3    0    0 -0.10066793308E+02 -0.44929105514E+01 -0.18247858523E+00  0.11025419331E+02  0.51100000000E-03 0. -1.
        -11    1    3    3    0    0 -0.10527592115E+02 -0.10860785038E+02  0.18938138227E+02  0.24237160047E+02  0.51100000000E-03 0.  1.
         12    1    3    3    0    0 -0.75729158775E+01  0.88790629512E+01  0.98423821906E+01  0.15266279867E+02  0.00000000000E+00 0. -1.
</event>
<event>
 7    1  0.4871930E-013  0.5052888E+02  0.7816164E-02  0.1300439E+00
        -11   -1    0    0    0    0  0.00000000000E+00  0.00000000000E+00  0.45593999997E+02  0.45594000000E+02  0.51100000000E-03 0.  1.
         11   -1    0    0    0    0 -0.00000000000E+00 -0.00000000000E+00 -0.45593999997E+02  0.45594000000E+02  0.51100000000E-03 0. -1.
    9900012    2    1    2    0    0 -0.21949104498E+01 -0.14278729129E+02  0.38006109320E+02  0.50528879460E+02  0.30000059608E+02 0.  0.
         12    1    1    2    0    0  0.21949104498E+01  0.14278729129E+02 -0.38006109320E+02  0.40659120540E+02  0.00000000000E+00 0. -1.
         11    1    3    3    0    0 -0.61185962748E+01  0.29865007384E+01  0.12224070419E+02  0.13992294483E+02  0.51100000000E-03 0. -1.
        -11    1    3    3    0    0 -0.71711288711E+01 -0.10836574733E+02  0.14329971536E+02  0.19344366769E+02  0.51100000000E-03 0.  1.
        -12    1    3    3    0    0  0.11094814696E+02 -0.64286551345E+01  0.11452067365E+02  0.17192218208E+02  0.00000000000E+00 0.  1.
</event>
<event>
 7    1  0.4871930E-013  0.5052889E+02  0.7816164E-02  0.1300439E+00
        -11   -1    0    0    0    0  0.00000000000E+00  0.00000000000E+00  0.45593999997E+02  0.45594000000E+02  0.51100000000E-03 0.  1.
         11   -1    0    0    0    0 -0.00000000000E+00 -0.00000000000E+00 -0.45593999997E+02  0.45594000000E+02  0.51100000000E-03 0. -1.
    9900012    2    1    2    0    0  0.12577309482E+02  0.24466951174E+02  0.29938984049E+02  0.50528890572E+02  0.30000093383E+02 0.  0.
         12    1    1    2    0    0 -0.12577309482E+02 -0.24466951174E+02 -0.29938984049E+02  0.40659109428E+02  0.00000000000E+00 0. -1.
         11    1    3    3    0    0  0.17865141298E+01  0.89544467140E+01  0.42058499041E+01  0.10053005638E+02  0.51100000000E-03 0. -1.
        -11    1    3    3    0    0 -0.36368794140E+01  0.11732924945E+02  0.21846793700E+02  0.25063336068E+02  0.51100000000E-03 0.  1.
        -12    1    3    3    0    0  0.14427674767E+02  0.37795795150E+01  0.38863404450E+01  0.15412548866E+02  0.00000000000E+00 0.  1.
</event>
<event>
 7    1  0.4871930E-013  0.5052886E+02  0.7816164E-02  0.1300439E+00
        -11   -1    0    0    0    0  0.00000000000E+00  0.00000000000E+00  0.45593999997E+02  0.45594000000E+02  0.51100000000E-03 0.  1.
         11   -1    0    0    0    0 -0.00000000000E+00 -0.00000000000E+00 -0.45593999997E+02  0.45594000000E+02  0.51100000000E-03 0. -1.
    9900012    2    1    2    0    0 -0.67132914441E+01 -0.39682257448E+02 -0.57806337301E+01  0.50528861243E+02  0.30000004234E+02 0.  0.
         12    1    1    2    0    0  0.67132914441E+01  0.39682257448E+02  0.57806337301E+01  0.40659138757E+02  0.00000000000E+00 0. -1.
         11    1    3    3    0    0  0.14753486416E+01  0.15137162886E+01 -0.23319790633E+01  0.31473984859E+01  0.51100000000E-03 0. -1.
        -11    1    3    3    0    0  0.50248250257E+01 -0.27813675528E+02 -0.41223922509E+01  0.28562974828E+02  0.51100000000E-03 0.  1.
        -12    1    3    3    0    0 -0.13213465111E+02 -0.13382298208E+02  0.67373758405E+00  0.18818487929E+02  0.00000000000E+00 0.  1.
</event>
<event>
 7    1  0.4871930E-013  0.5052895E+02  0.7816164E-02  0.1300438E+00
        -11   -1    0    0    0    0  0.00000000000E+00  0.00000000000E+00  0.45593999997E+02  0.45594000000E+02  0.51100000000E-03 0. -1.
         11   -1    0    0    0    0 -0.00000000000E+00 -0.00000000000E+00 -0.45593999997E+02  0.45594000000E+02  0.51100000000E-03 0.  1.
    9900012    2    1    2    0    0 -0.38862755977E+02  0.84802833158E+01  0.84219691220E+01  0.50528947242E+02  0.30000265637E+02 0.  0.
         12    1    1    2    0    0  0.38862755977E+02 -0.84802833158E+01 -0.84219691220E+01  0.40659052758E+02  0.00000000000E+00 0. -1.
         11    1    3    3    0    0 -0.13601551804E+02 -0.25886518017E+00  0.14628233975E+02  0.19976347317E+02  0.51100000000E-03 0. -1.
        -11    1    3    3    0    0 -0.19320122827E+02  0.16004458828E-01 -0.47788229908E+01  0.19902375527E+02  0.51100000000E-03 0.  1.
        -12    1    3    3    0    0 -0.59410813470E+01  0.87231440371E+01 -0.14274418623E+01  0.10650224398E+02  0.00000000000E+00 0.  1.
</event>
<event>
 7    1  0.4871930E-013  0.5052889E+02  0.7816164E-02  0.1300439E+00
        -11   -1    0    0    0    0  0.00000000000E+00  0.00000000000E+00  0.45593999997E+02  0.45594000000E+02  0.51100000000E-03 0.  1.
         11   -1    0    0    0    0 -0.00000000000E+00 -0.00000000000E+00 -0.45593999997E+02  0.45594000000E+02  0.51100000000E-03 0. -1.
    9900012    2    1    2    0    0  0.18883693820E+02 -0.34369509275E+02  0.10738055217E+02  0.50528894133E+02  0.30000104205E+02 0.  0.
         12    1    1    2    0    0 -0.18883693820E+02  0.34369509275E+02 -0.10738055217E+02  0.40659105867E+02  0.00000000000E+00 0. -1.
         11    1    3    3    0    0 -0.91375352625E+00 -0.20876502213E+02  0.14857973366E+01  0.20949245431E+02  0.51100000000E-03 0. -1.
        -11    1    3    3    0    0  0.20135678919E+01 -0.71637842659E+01  0.75911193753E+01  0.10630115441E+02  0.51100000000E-03 0.  1.
         12    1    3    3    0    0  0.17783879454E+02 -0.63292227967E+01  0.16611385049E+01  0.18949533260E+02  0.00000000000E+00 0. -1.
</event>
<event>
 7    1  0.4871930E-013  0.5052886E+02  0.7816164E-02  0.1300439E+00
        -11   -1    0    0    0    0  0.00000000000E+00  0.00000000000E+00  0.45593999997E+02  0.45594000000E+02  0.51100000000E-03 0.  1.
         11   -1    0    0    0    0 -0.00000000000E+00 -0.00000000000E+00 -0.45593999997E+02  0.45594000000E+02  0.51100000000E-03 0. -1.
    9900012    2    1    2    0    0 -0.11133314429E+02 -0.23574382265E+02  0.31200379570E+02  0.50528857428E+02  0.29999992637E+02 0.  0.
         12    1    1    2    0    0  0.11133314429E+02  0.23574382265E+02 -0.31200379570E+02  0.40659142572E+02  0.00000000000E+00 0. -1.
         11    1    3    3    0    0  0.38014600724E+01  0.45947101976E+01  0.51824537107E+01  0.79006510622E+01  0.51100000000E-03 0.  1.
        -11    1    3    3    0    0 -0.41769255149E+01 -0.40034421821E+01  0.10423589050E+02  0.11921638520E+02  0.51100000000E-03 0. -1.
        -12    1    3    3    0    0 -0.10757848987E+02 -0.24165650281E+02  0.15594336810E+02  0.30706567846E+02  0.00000000000E+00 0.  1.
</event>
<event>
 7    1  0.4871930E-013  0.5052885E+02  0.7816164E-02  0.1300439E+00
        -11   -1    0    0    0    0  0.00000000000E+00  0.00000000000E+00  0.45593999997E+02  0.45594000000E+02  0.51100000000E-03 0.  1.
         11   -1    0    0    0    0 -0.00000000000E+00 -0.00000000000E+00 -0.45593999997E+02  0.45594000000E+02  0.51100000000E-03 0. -1.
    9900012    2    1    2    0    0 -0.14470168587E+02 -0.23138953723E+02  0.30139163473E+02  0.50528854249E+02  0.29999982975E+02 0.  0.
         12    1    1    2    0    0  0.14470168587E+02  0.23138953723E+02 -0.30139163473E+02  0.40659145751E+02  0.00000000000E+00 0. -1.
         11    1    3    3    0    0 -0.83534394171E+01 -0.18769805081E+02  0.43020464397E+01  0.20990310544E+02  0.51100000000E-03 0. -1.
        -11    1    3    3    0    0 -0.11377871218E+01  0.30781159140E+01  0.15061296774E+01  0.36107871691E+01  0.51100000000E-03 0.  1.
        -12    1    3    3    0    0 -0.49789420479E+01 -0.74472645557E+01  0.24330987356E+02  0.25927756536E+02  0.00000000000E+00 0.  1.
</event>
<event>
 7    1  0.4871930E-013  0.5052882E+02  0.7816164E-02  0.1300439E+00
        -11   -1    0    0    0    0  0.00000000000E+00  0.00000000000E+00  0.45593999997E+02  0.45594000000E+02  0.51100000000E-03 0.  1.
         11   -1    0    0    0    0 -0.00000000000E+00 -0.00000000000E+00 -0.45593999997E+02  0.45594000000E+02  0.51100000000E-03 0. -1.
    9900012    2    1    2    0    0 -0.35748184235E+02 -0.89738974794E+01  0.17166984421E+02  0.50528820640E+02  0.29999880818E+02 0.  0.
         12    1    1    2    0    0  0.35748184235E+02  0.89738974794E+01 -0.17166984421E+02  0.40659179360E+02  0.00000000000E+00 0. -1.
         11    1    3    3    0    0 -0.10327884887E+01 -0.98418188545E+00  0.36883695427E+01  0.39546600600E+01  0.51100000000E-03 0. -1.
        -11    1    3    3    0    0 -0.24316998310E+02  0.54011039243E+01 -0.88705143022E-02  0.24909604761E+02  0.51100000000E-03 0.  1.
        -12    1    3    3    0    0 -0.10398397437E+02 -0.13390819518E+02  0.13487485393E+02  0.21664555819E+02  0.00000000000E+00 0.  1.
</event>
<event>
 7    1  0.4871930E-013  0.5052887E+02  0.7816164E-02  0.1300439E+00
        -11   -1    0    0    0    0  0.00000000000E+00  0.00000000000E+00  0.45593999997E+02  0.45594000000E+02  0.51100000000E-03 0.  1.
         11   -1    0    0    0    0 -0.00000000000E+00 -0.00000000000E+00 -0.45593999997E+02  0.45594000000E+02  0.51100000000E-03 0. -1.
    9900012    2    1    2    0    0 -0.22575704496E+02  0.33807087307E+02 -0.76346801303E+00  0.50528874713E+02  0.30000045178E+02 0.  0.
         12    1    1    2    0    0  0.22575704496E+02 -0.33807087307E+02  0.76346801303E+00  0.40659125287E+02  0.00000000000E+00 0. -1.
         11    1    3    3    0    0 -0.39567656556E+01  0.45781997526E+01 -0.48952480036E+01  0.77832744205E+01  0.51100000000E-03 0. -1.
        -11    1    3    3    0    0 -0.17736668183E+02  0.32866270524E+02  0.24205552718E+00  0.37347553166E+02  0.51100000000E-03 0.  1.
         12    1    3    3    0    0 -0.88227065728E+00 -0.36373829692E+01  0.38897244634E+01  0.53980471264E+01  0.00000000000E+00 0. -1.
</event>
<event>
 7    1  0.4871930E-013  0.5052883E+02  0.7816164E-02  0.1300439E+00
        -11   -1    0    0    0    0  0.00000000000E+00  0.00000000000E+00  0.45593999997E+02  0.45594000000E+02  0.51100000000E-03 0.  1.
         11   -1    0    0    0    0 -0.00000000000E+00 -0.00000000000E+00 -0.45593999997E+02  0.45594000000E+02  0.51100000000E-03 0. -1.
    9900012    2    1    2    0    0 -0.35205888851E+02 -0.23816558430E+01  0.20200024180E+02  0.50528832876E+02  0.29999918009E+02 0.  0.
         12    1    1    2    0    0  0.35205888851E+02  0.23816558430E+01 -0.20200024180E+02  0.40659167124E+02  0.00000000000E+00 0. -1.
         11    1    3    3    0    0  0.20147527965E+01  0.11007064132E+01  0.44192870295E+01  0.49800483481E+01  0.51100000000E-03 0. -1.
        -11    1    3    3    0    0 -0.13082146337E+02 -0.10283072236E+02  0.15440722967E+01  0.16711322118E+02  0.51100000000E-03 0.  1.
        -12    1    3    3    0    0 -0.24138495310E+02  0.68007099798E+01  0.14236664854E+02  0.28837462410E+02  0.00000000000E+00 0.  1.
</event>
<event>
 7    1  0.4871930E-013  0.5052886E+02  0.7816164E-02  0.1300439E+00
        -11   -1    0    0    0    0  0.00000000000E+00  0.00000000000E+00  0.45593999997E+02  0.45594000000E+02  0.51100000000E-03 0. -1.
         11   -1    0    0    0    0 -0.00000000000E+00 -0.00000000000E+00 -0.45593999997E+02  0.45594000000E+02  0.51100000000E-03 0.  1.
    9900012    2    1    2    0    0 -0.57486515251E+01  0.34826479147E+02 -0.20180065745E+02  0.50528859606E+02  0.29999999257E+02 0.  0.
         12    1    1    2    0    0  0.57486515251E+01 -0.34826479147E+02  0.20180065745E+02  0.40659140394E+02  0.00000000000E+00 0. -1.
         11    1    3    3    0    0  0.35604489994E+01  0.36040349092E+01  0.16322729220E+01  0.53226102484E+01  0.51100000000E-03 0. -1.
        -11    1    3    3    0    0 -0.76647204737E+01  0.34059503765E+02 -0.15719600998E+02  0.38287120451E+02  0.51100000000E-03 0.  1.
         12    1    3    3    0    0 -0.16443800508E+01 -0.28370595272E+01 -0.60927376688E+01  0.69191289057E+01  0.00000000000E+00 0. -1.
</event>
<event>
 7    1  0.4871930E-013  0.5052886E+02  0.7816164E-02  0.1300439E+00
        -11   -1    0    0    0    0  0.00000000000E+00  0.00000000000E+00  0.45593999997E+02  0.45594000000E+02  0.51100000000E-03 0. -1.
         11   -1    0    0    0    0 -0.00000000000E+00 -0.00000000000E+00 -0.45593999997E+02  0.45594000000E+02  0.51100000000E-03 0.  1.
    9900012    2    1    2    0    0  0.30275804725E+02 -0.29069936579E+00 -0.27137737926E+02  0.50528859852E+02  0.30000000005E+02 0.  0.
         12    1    1    2    0    0 -0.30275804725E+02  0.29069936579E+00  0.27137737926E+02  0.40659140148E+02  0.00000000000E+00 0. -1.
         11    1    3    3    0    0  0.90969635122E+01 -0.95935009922E+01 -0.11304989240E+02  0.17395194406E+02  0.51100000000E-03 0.  1.
        -11    1    3    3    0    0  0.16997405984E+02  0.65997116467E+01 -0.18933904939E+01  0.18331746557E+02  0.51100000000E-03 0. -1.
         12    1    3    3    0    0  0.41814352292E+01  0.27030899797E+01 -0.13939358191E+02  0.14801918889E+02  0.00000000000E+00 0. -1.
</event>
<event>
 7    1  0.4871930E-013  0.5052888E+02  0.7816164E-02  0.1300439E+00
        -11   -1    0    0    0    0  0.00000000000E+00  0.00000000000E+00  0.45593999997E+02  0.45594000000E+02  0.51100000000E-03 0.  1.
         11   -1    0    0    0    0 -0.00000000000E+00 -0.00000000000E+00 -0.45593999997E+02  0.45594000000E+02  0.51100000000E-03 0. -1.
    9900012    2    1    2    0    0  0.93098159614E+01  0.34067476697E+02  0.20146910334E+02  0.50528884936E+02  0.30000076252E+02 0.  0.
         12    1    1    2    0    0 -0.93098159614E+01 -0.34067476697E+02 -0.20146910334E+02  0.40659115064E+02  0.00000000000E+00 0. -1.
         11    1    3    3    0    0 -0.43505192756E+01  0.13505960483E+01 -0.24960921664E+01  0.51943819668E+01  0.51100000000E-03 0. -1.
        -11    1    3    3    0    0  0.69352522171E+01  0.10316862233E+02  0.17369355748E+02  0.21359538596E+02  0.51100000000E-03 0.  1.
        -12    1    3    3    0    0  0.67250830199E+01  0.22400018416E+02  0.52736467526E+01  0.23974964374E+02  0.00000000000E+00 0.  1.
</event>
<event>
 7    1  0.4871930E-013  0.5052881E+02  0.7816164E-02  0.1300439E+00
        -11   -1    0    0    0    0  0.00000000000E+00  0.00000000000E+00  0.45593999997E+02  0.45594000000E+02  0.51100000000E-03 0.  1.
         11   -1    0    0    0    0 -0.00000000000E+00 -0.00000000000E+00 -0.45593999997E+02  0.45594000000E+02  0.51100000000E-03 0. -1.
    9900012    2    1    2    0    0 -0.28083935144E+02  0.21526493352E+02  0.20026798202E+02  0.50528807000E+02  0.29999839357E+02 0.  0.
         12    1    1    2    0    0  0.28083935144E+02 -0.21526493352E+02 -0.20026798202E+02  0.40659193000E+02  0.00000000000E+00 0. -1.
         11    1    3    3    0    0 -0.12658240040E+02  0.10667572079E+02  0.21180951067E+00  0.16555150211E+02  0.51100000000E-03 0. -1.
        -11    1    3    3    0    0  0.22245201653E+00  0.80827337850E+01 -0.59299592358E+00  0.81075097758E+01  0.51100000000E-03 0.  1.
        -12    1    3    3    0    0 -0.15648147121E+02  0.27761874873E+01  0.20407984615E+02  0.25866147013E+02  0.00000000000E+00 0.  1.
</event>
<event>
 7    1  0.4871930E-013  0.5052885E+02  0.7816164E-02  0.1300439E+00
        -11   -1    0    0    0    0  0.00000000000E+00  0.00000000000E+00  0.45593999997E+02  0.45594000000E+02  0.51100000000E-03 0.  1.
         11   -1    0    0    0    0 -0.00000000000E+00 -0.00000000000E+00 -0.45593999997E+02  0.45594000000E+02  0.51100000000E-03 0. -1.
    9900012    2    1    2    0    0 -0.34966268253E+02 -0.32442899753E+01  0.20493925976E+02  0.50528851769E+02  0.29999975436E+02 0.  0.
         12    1    1    2    0    0  0.34966268253E+02  0.32442899753E+01 -0.20493925976E+02  0.40659148231E+02  0.00000000000E+00 0. -1.
         11    1    3    3    0    0 -0.88840093044E+01  0.16313687302E+01 -0.36365564147E+01  0.97371211388E+01  0.51100000000E-03 0. -1.
        -11    1    3    3    0    0 -0.87098819659E+00  0.42838017204E+01  0.89744265008E+01  0.99824800975E+01  0.51100000000E-03 0.  1.
        -12    1    3    3    0    0 -0.25211270752E+02 -0.91594604259E+01  0.15156055890E+02  0.30809250532E+02  0.00000000000E+00 0.  1.
</event>
<event>
 7    1  0.4871930E-013  0.5052886E+02  0.7816164E-02  0.1300439E+00
        -11   -1    0    0    0    0  0.00000000000E+00  0.00000000000E+00  0.45593999997E+02  0.45594000000E+02  0.51100000000E-03 0. -1.
         11   -1    0    0    0    0 -0.00000000000E+00 -0.00000000000E+00 -0.45593999997E+02  0.45594000000E+02  0.51100000000E-03 0.  1.
    9900012    2    1    2    0    0 -0.39372221201E+02  0.14309513060E+01  0.10047184472E+02  0.50528864007E+02  0.30000012634E+02 0.  0.
         12    1    1    2    0    0  0.39372221201E+02 -0.14309513060E+01 -0.10047184472E+02  0.40659135993E+02  0.00000000000E+00 0. -1.
         11    1    3    3    0    0  0.24896029507E+01 -0.43288178645E-01  0.29193292588E+01  0.38369884416E+01  0.51100000000E-03 0. -1.
        -11    1    3    3    0    0 -0.21059687810E+02 -0.85391478039E+01  0.63351015913E+01  0.23591545272E+02  0.51100000000E-03 0.  1.
        -12    1    3    3    0    0 -0.20802136341E+02  0.10013387289E+02  0.79275362232E+00  0.23100330293E+02  0.00000000000E+00 0.  1.
</event>
<event>
 7    1  0.4871930E-013  0.5052887E+02  0.7816164E-02  0.1300439E+00
        -11   -1    0    0    0    0  0.00000000000E+00  0.00000000000E+00  0.45593999997E+02  0.45594000000E+02  0.51100000000E-03 0.  1.
         11   -1    0    0    0    0 -0.00000000000E+00 -0.00000000000E+00 -0.45593999997E+02  0.45594000000E+02  0.51100000000E-03 0. -1.
    9900012    2    1    2    0    0 -0.31243590407E+02 -0.65159652162E+01  0.25190183668E+02  0.50528866986E+02  0.30000021691E+02 0.  0.
         12    1    1    2    0    0  0.31243590407E+02  0.65159652162E+01 -0.25190183668E+02  0.40659133014E+02  0.00000000000E+00 0. -1.
         11    1    3    3    0    0 -0.37686958096E+01  0.10591551639E+01  0.69917530863E+01  0.80130823812E+01  0.51100000000E-03 0. -1.
        -11    1    3    3    0    0 -0.41572525695E+01 -0.13096366273E+02  0.10675880115E+02  0.17400344105E+02  0.51100000000E-03 0.  1.
         12    1    3    3    0    0 -0.23317642028E+02  0.55212458932E+01  0.75225504668E+01  0.25115440500E+02  0.00000000000E+00 0. -1.
</event>
<event>
 7    1  0.4871930E-013  0.5052889E+02  0.7816164E-02  0.1300439E+00
        -11   -1    0    0    0    0  0.00000000000E+00  0.00000000000E+00  0.45593999997E+02  0.45594000000E+02  0.51100000000E-03 0.  1.
         11   -1    0    0    0    0 -0.00000000000E+00 -0.00000000000E+00 -0.45593999997E+02  0.45594000000E+02  0.51100000000E-03 0. -1.
    9900012    2    1    2    0    0 -0.17497396507E+02 -0.36820994798E+01  0.36516385380E+02  0.50528891029E+02  0.30000094772E+02 0.  0.
         12    1    1    2    0    0  0.17497396507E+02  0.36820994798E+01 -0.36516385380E+02  0.40659108971E+02  0.00000000000E+00 0. -1.
         11    1    3    3    0    0 -0.12181812030E+02 -0.10084052308E+02  0.13786267705E+02  0.20979652828E+02  0.51100000000E-03 0. -1.
        -11    1    3    3    0    0 -0.45935603478E+01 -0.23300465159E+01  0.19567616457E+02  0.20234167329E+02  0.51100000000E-03 0.  1.
        -12    1    3    3    0    0 -0.72202412937E+00  0.87319993445E+01  0.31625012176E+01  0.93150708718E+01  0.00000000000E+00 0.  1.
</event>
<event>
 7    1  0.4871930E-013  0.5052885E+02  0.7816164E-02  0.1300439E+00
        -11   -1    0    0    0    0  0.00000000000E+00  0.00000000000E+00  0.45593999997E+02  0.45594000000E+02  0.51100000000E-03 0.  1.
         11   -1    0    0    0    0 -0.00000000000E+00 -0.00000000000E+00 -0.45593999997E+02  0.45594000000E+02  0.51100000000E-03 0. -1.
    9900012    2    1    2    0    0  0.25549278330E+02 -0.10624424605E+02  0.29791313238E+02  0.50528851388E+02  0.29999974280E+02 0.  0.
         12    1    1    2    0    0 -0.25549278330E+02  0.10624424605E+02 -0.29791313238E+02  0.40659148612E+02  0.00000000000E+00 0. -1.
         11    1    3    3    0    0  0.29020511048E+00 -0.55476289080E+01 -0.38028825723E+00  0.55682155962E+01  0.51100000000E-03 0. -1.
        -11    1    3    3    0    0  0.25196949822E+02 -0.87595471154E+01  0.17842621835E+02  0.32093225145E+02  0.51100000000E-03 0.  1.
         12    1    3    3    0    0  0.62123398175E-01  0.36827514180E+01  0.12328979659E+02  0.12867410647E+02  0.00000000000E+00 0. -1.
</event>
<event>
 7    1  0.4871930E-013  0.5052886E+02  0.7816164E-02  0.1300439E+00
        -11   -1    0    0    0    0  0.00000000000E+00  0.00000000000E+00  0.45593999997E+02  0.45594000000E+02  0.51100000000E-03 0.  1.
         11   -1    0    0    0    0 -0.00000000000E+00 -0.00000000000E+00 -0.45593999997E+02  0.45594000000E+02  0.51100000000E-03 0. -1.
    9900012    2    1    2    0    0 -0.35222286956E+02 -0.92149253901E+01  0.18100862960E+02  0.50528860951E+02  0.30000003346E+02 0.  0.
         12    1    1    2    0    0  0.35222286956E+02  0.92149253901E+01 -0.18100862960E+02  0.40659139049E+02  0.00000000000E+00 0. -1.
         11    1    3    3    0    0 -0.10780370911E+02  0.55516750109E+01  0.31811546242E+01  0.12536236972E+02  0.51100000000E-03 0. -1.
        -11    1    3    3    0    0 -0.97660375181E+00 -0.10290837565E+02  0.81501961755E+01  0.13163616168E+02  0.51100000000E-03 0.  1.
         12    1    3    3    0    0 -0.23465312292E+02 -0.44757628364E+01  0.67695121606E+01  0.24829007810E+02  0.00000000000E+00 0. -1.
</event>
<event>
 7    1  0.4871930E-013  0.5052890E+02  0.7816164E-02  0.1300439E+00
        -11   -1    0    0    0    0  0.00000000000E+00  0.00000000000E+00  0.45593999997E+02  0.45594000000E+02  0.51100000000E-03 0. -1.
         11   -1    0    0    0    0 -0.00000000000E+00 -0.00000000000E+00 -0.45593999997E+02  0.45594000000E+02  0.51100000000E-03 0.  1.
    9900012    2    1    2    0    0  0.38319566276E+02  0.12420881952E+02  0.55222535007E+01  0.50528895831E+02  0.30000109369E+02 0.  0.
         12    1    1    2    0    0 -0.38319566276E+02 -0.12420881952E+02 -0.55222535007E+01  0.40659104169E+02  0.00000000000E+00 0. -1.
         11    1    3    3    0    0  0.19141311971E+02  0.11077999630E+02 -0.10636420722E+02  0.24540687558E+02  0.51100000000E-03 0. -1.
        -11    1    3    3    0    0  0.16210078690E+01  0.30258487855E+00  0.47398348510E+01  0.50184916854E+01  0.51100000000E-03 0.  1.
        -12    1    3    3    0    0  0.17557246436E+02  0.10402974432E+01  0.11418839371E+02  0.20969716588E+02  0.00000000000E+00 0.  1.
</event>
<event>
 7    1  0.4871930E-013  0.5052886E+02  0.7816164E-02  0.1300439E+00
        -11   -1    0    0    0    0  0.00000000000E+00  0.00000000000E+00  0.45593999997E+02  0.45594000000E+02  0.51100000000E-03 0.  1.
         11   -1    0    0    0    0 -0.00000000000E+00 -0.00000000000E+00 -0.45593999997E+02  0.45594000000E+02  0.51100000000E-03 0. -1.
    9900012    2    1    2    0    0 -0.94994094273E+01  0.23322547761E+02  0.31921558893E+02  0.50528856677E+02  0.29999990356E+02 0.  0.
         12    1    1    2    0    0  0.94994094273E+01 -0.23322547761E+02 -0.31921558893E+02  0.40659143323E+02  0.00000000000E+00 0. -1.
         11    1    3    3    0    0 -0.81625514209E+01  0.14799449447E+02  0.94457688694E+01  0.19361650225E+02  0.51100000000E-03 0.  1.
        -11    1    3    3    0    0  0.42771859338E+01  0.40499002861E+01  0.23215367655E+02  0.23950977172E+02  0.51100000000E-03 0. -1.
         12    1    3    3    0    0 -0.56140439401E+01  0.44731980281E+01 -0.73957763123E+00  0.72162292808E+01  0.00000000000E+00 0. -1.
</event>
<event>
 7    1  0.4871930E-013  0.5052885E+02  0.7816164E-02  0.1300439E+00
        -11   -1    0    0    0    0  0.00000000000E+00  0.00000000000E+00  0.45593999997E+02  0.45594000000E+02  0.51100000000E-03 0.  1.
         11   -1    0    0    0    0 -0.00000000000E+00 -0.00000000000E+00 -0.45593999997E+02  0.45594000000E+02  0.51100000000E-03 0. -1.
    9900012    2    1    2    0    0 -0.16725203197E+02  0.16109600571E+01  0.37024838517E+02  0.50528852425E+02  0.29999977431E+02 0.  0.
         12    1    1    2    0    0  0.16725203197E+02 -0.16109600571E+01 -0.37024838517E+02  0.40659147575E+02  0.00000000000E+00 0. -1.
         11    1    3    3    0    0 -0.62139662792E+01  0.40870936915E+01  0.36907992426E+01  0.83029941029E+01  0.51100000000E-03 0. -1.
        -11    1    3    3    0    0 -0.15077055265E+02 -0.82871578544E+01  0.16485640023E+02  0.23827943847E+02  0.51100000000E-03 0.  1.
        -12    1    3    3    0    0  0.45658183472E+01  0.58110242200E+01  0.16848399252E+02  0.18397914475E+02  0.00000000000E+00 0.  1.
</event>
<event>
 7    1  0.4871930E-013  0.5052885E+02  0.7816164E-02  0.1300439E+00
        -11   -1    0    0    0    0  0.00000000000E+00  0.00000000000E+00  0.45593999997E+02  0.45594000000E+02  0.51100000000E-03 0.  1.
         11   -1    0    0    0    0 -0.00000000000E+00 -0.00000000000E+00 -0.45593999997E+02  0.45594000000E+02  0.51100000000E-03 0. -1.
    9900012    2    1    2    0    0 -0.32877366219E+02 -0.18862014453E+02  0.14712913810E+02  0.50528848121E+02  0.29999964350E+02 0.  0.
         12    1    1    2    0    0  0.32877366219E+02  0.18862014453E+02 -0.14712913810E+02  0.40659151879E+02  0.00000000000E+00 0. -1.
         11    1    3    3    0    0 -0.86062859261E+01 -0.94839609015E+01 -0.54192527258E+01  0.13906184674E+02  0.51100000000E-03 0. -1.
        -11    1    3    3    0    0 -0.38503698127E+01 -0.17417706902E+01 -0.27303712215E+01  0.50313060034E+01  0.51100000000E-03 0.  1.
        -12    1    3    3    0    0 -0.20420710480E+02 -0.76362828615E+01  0.22862537757E+02  0.31591357444E+02  0.00000000000E+00 0.  1.
</event>
<event>
 7    1  0.4871930E-013  0.5052887E+02  0.7816164E-02  0.1300439E+00
        -11   -1    0    0    0    0  0.00000000000E+00  0.00000000000E+00  0.45593999997E+02  0.45594000000E+02  0.51100000000E-03 0.  1.
         11   -1    0    0    0    0 -0.00000000000E+00 -0.00000000000E+00 -0.45593999997E+02  0.45594000000E+02  0.51100000000E-03 0. -1.
    9900012    2    1    2    0    0 -0.16973972436E+02  0.31812722584E+01  0.36809358912E+02  0.50528866501E+02  0.30000020215E+02 0.  0.
         12    1    1    2    0    0  0.16973972436E+02 -0.31812722584E+01 -0.36809358912E+02  0.40659133499E+02  0.00000000000E+00 0. -1.
         11    1    3    3    0    0 -0.11816057646E+02 -0.17080612657E+01  0.10221309025E+02  0.15716610641E+02  0.51100000000E-03 0. -1.
        -11    1    3    3    0    0 -0.10003735242E+02  0.66830325242E+01  0.27069683766E+02  0.29622718004E+02  0.51100000000E-03 0.  1.
         12    1    3    3    0    0  0.48458204525E+01 -0.17936990000E+01 -0.48163387918E+00  0.51895378556E+01  0.00000000000E+00 0. -1.
</event>
<event>
 7    1  0.4871930E-013  0.5052886E+02  0.7816164E-02  0.1300439E+00
        -11   -1    0    0    0    0  0.00000000000E+00  0.00000000000E+00  0.45593999997E+02  0.45594000000E+02  0.51100000000E-03 0.  1.
         11   -1    0    0    0    0 -0.00000000000E+00 -0.00000000000E+00 -0.45593999997E+02  0.45594000000E+02  0.51100000000E-03 0. -1.
    9900012    2    1    2    0    0  0.19473016883E+02 -0.11855277254E+02  0.33666299483E+02  0.50528859500E+02  0.29999998938E+02 0.  0.
         12    1    1    2    0    0 -0.19473016883E+02  0.11855277254E+02 -0.33666299483E+02  0.40659140500E+02  0.00000000000E+00 0. -1.
         11    1    3    3    0    0  0.98605833310E+01 -0.15867146428E+02  0.14179448473E+02  0.23453234290E+02  0.51100000000E-03 0. -1.
        -11    1    3    3    0    0  0.10865491242E+02 -0.15140676746E+01  0.61307889851E+01  0.12567333635E+02  0.51100000000E-03 0.  1.
         12    1    3    3    0    0 -0.12530576904E+01  0.55259368486E+01  0.13356062025E+02  0.14508291575E+02  0.00000000000E+00 0. -1.
</event>
<event>
 7    1  0.4871930E-013  0.5052891E+02  0.7816164E-02  0.1300439E+00
        -11   -1    0    0    0    0  0.00000000000E+00  0.00000000000E+00  0.45593999997E+02  0.45594000000E+02  0.51100000000E-03 0.  1.
         11   -1    0    0    0    0 -0.00000000000E+00 -0.00000000000E+00 -0.45593999997E+02  0.45594000000E+02  0.51100000000E-03 0. -1.
    9900012    2    1    2    0    0 -0.27581928923E+02  0.17199353722E+02  0.24425003674E+02  0.50528912750E+02  0.30000160794E+02 0.  0.
         12    1    1    2    0    0  0.27581928923E+02 -0.17199353722E+02 -0.24425003674E+02  0.40659087250E+02  0.00000000000E+00 0. -1.
         11    1    3    3    0    0 -0.34979381303E+01  0.46228722674E+01 -0.49508705444E+00  0.58182154151E+01  0.51100000000E-03 0. -1.
        -11    1    3    3    0    0 -0.27004049411E+02  0.55484287199E+01  0.12789495442E+02  0.30390375775E+02  0.51100000000E-03 0.  1.
        -12    1    3    3    0    0  0.29200586178E+01  0.70280527346E+01  0.12130595286E+02  0.14320321559E+02  0.00000000000E+00 0.  1.
</event>
<event>
 7    1  0.4871930E-013  0.5052886E+02  0.7816164E-02  0.1300439E+00
        -11   -1    0    0    0    0  0.00000000000E+00  0.00000000000E+00  0.45593999997E+02  0.45594000000E+02  0.51100000000E-03 0.  1.
         11   -1    0    0    0    0 -0.00000000000E+00 -0.00000000000E+00 -0.45593999997E+02  0.45594000000E+02  0.51100000000E-03 0. -1.
    9900012    2    1    2    0    0 -0.24260974047E+02 -0.18647082919E+02  0.26774182516E+02  0.50528863112E+02  0.30000009914E+02 0.  0.
         12    1    1    2    0    0  0.24260974047E+02  0.18647082919E+02 -0.26774182516E+02  0.40659136888E+02  0.00000000000E+00 0. -1.
         11    1    3    3    0    0 -0.73036718886E+01 -0.12570399114E+01 -0.21000519794E+01  0.77028560270E+01  0.51100000000E-03 0. -1.
        -11    1    3    3    0    0 -0.13956354796E+02 -0.19479903441E+02  0.14533216373E+02  0.28026074568E+02  0.51100000000E-03 0.  1.
        -12    1    3    3    0    0 -0.30009473627E+01  0.20898604341E+01  0.14341018123E+02  0.14799932517E+02  0.00000000000E+00 0.  1.
</event>
<event>
 7    1  0.4871930E-013  0.5052885E+02  0.7816164E-02  0.1300439E+00
        -11   -1    0    0    0    0  0.00000000000E+00  0.00000000000E+00  0.45593999997E+02  0.45594000000E+02  0.51100000000E-03 0.  1.
         11   -1    0    0    0    0 -0.00000000000E+00 -0.00000000000E+00 -0.45593999997E+02  0.45594000000E+02  0.51100000000E-03 0. -1.
    9900012    2    1    2    0    0 -0.18596119776E+02 -0.33774628563E+02 -0.12908330095E+02  0.50528853537E+02  0.29999980811E+02 0.  0.
         12    1    1    2    0    0  0.18596119776E+02  0.33774628563E+02  0.12908330095E+02  0.40659146463E+02  0.00000000000E+00 0. -1.
         11    1    3    3    0    0 -0.41503631810E+01 -0.16604759035E+02 -0.14312206847E+02  0.22311046642E+02  0.51100000000E-03 0. -1.
        -11    1    3    3    0    0 -0.13680344479E+02 -0.17558193290E+02 -0.41123358194E+01  0.22635222173E+02  0.51100000000E-03 0.  1.
         12    1    3    3    0    0 -0.76541211640E+00  0.38832376216E+00  0.55162125714E+01  0.55825847226E+01  0.00000000000E+00 0. -1.
</event>
<event>
 7    1  0.4871930E-013  0.5052886E+02  0.7816164E-02  0.1300439E+00
        -11   -1    0    0    0    0  0.00000000000E+00  0.00000000000E+00  0.45593999997E+02  0.45594000000E+02  0.51100000000E-03 0.  1.
         11   -1    0    0    0    0 -0.00000000000E+00 -0.00000000000E+00 -0.45593999997E+02  0.45594000000E+02  0.51100000000E-03 0. -1.
    9900012    2    1    2    0    0  0.34225720132E+02 -0.34866523874E+01  0.21670458895E+02  0.50528862625E+02  0.30000008435E+02 0.  0.
         12    1    1    2    0    0 -0.34225720132E+02  0.34866523874E+01 -0.21670458895E+02  0.40659137375E+02  0.00000000000E+00 0. -1.
         11    1    3    3    0    0 -0.13683603819E+01  0.34828826300E+01  0.70957733901E+01  0.80220247951E+01  0.51100000000E-03 0. -1.
        -11    1    3    3    0    0  0.94982922048E+01 -0.86579399520E+01  0.92111599053E+01  0.15812113903E+02  0.51100000000E-03 0.  1.
        -12    1    3    3    0    0  0.26095788309E+02  0.16884049346E+01  0.53635255991E+01  0.26694723927E+02  0.00000000000E+00 0.  1.
</event>
<event>
 7    1  0.4871930E-013  0.5052884E+02  0.7816164E-02  0.1300439E+00
        -11   -1    0    0    0    0  0.00000000000E+00  0.00000000000E+00  0.45593999997E+02  0.45594000000E+02  0.51100000000E-03 0.  1.
         11   -1    0    0    0    0 -0.00000000000E+00 -0.00000000000E+00 -0.45593999997E+02  0.45594000000E+02  0.51100000000E-03 0. -1.
    9900012    2    1    2    0    0  0.31422183833E+02  0.43012589282E+01  0.25442336321E+02  0.50528844294E+02  0.29999952717E+02 0.  0.
         12    1    1    2    0    0 -0.31422183833E+02 -0.43012589282E+01 -0.25442336321E+02  0.40659155706E+02  0.00000000000E+00 0. -1.
         11    1    3    3    0    0  0.10878171765E+02 -0.10299693271E+02  0.65008095332E+01  0.16330303955E+02  0.51100000000E-03 0. -1.
        -11    1    3    3    0    0  0.13054170609E+02  0.11938333432E+01  0.91224139426E+01  0.15970442847E+02  0.51100000000E-03 0.  1.
        -12    1    3    3    0    0  0.74898414593E+01  0.13407118856E+02  0.98191128453E+01  0.18228097492E+02  0.00000000000E+00 0.  1.
</event>
<event>
 7    1  0.4871930E-013  0.5052884E+02  0.7816164E-02  0.1300439E+00
        -11   -1    0    0    0    0  0.00000000000E+00  0.00000000000E+00  0.45593999997E+02  0.45594000000E+02  0.51100000000E-03 0.  1.
         11   -1    0    0    0    0 -0.00000000000E+00 -0.00000000000E+00 -0.45593999997E+02  0.45594000000E+02  0.51100000000E-03 0. -1.
    9900012    2    1    2    0    0  0.15956414188E+02 -0.13798758185E+02  0.34758515995E+02  0.50528839711E+02  0.29999938787E+02 0.  0.
         12    1    1    2    0    0 -0.15956414188E+02  0.13798758185E+02 -0.34758515995E+02  0.40659160289E+02  0.00000000000E+00 0. -1.
         11    1    3    3    0    0 -0.14051125728E+01 -0.70935484686E+01  0.11023094067E+02  0.13183374921E+02  0.51100000000E-03 0. -1.
        -11    1    3    3    0    0  0.75175515320E+01 -0.12549456295E+02  0.51341400591E+01  0.15503606959E+02  0.51100000000E-03 0.  1.
         12    1    3    3    0    0  0.98439752286E+01  0.58442465785E+01  0.18601281869E+02  0.21841857831E+02  0.00000000000E+00 0. -1.
</event>
<event>
 7    1  0.4871930E-013  0.5052886E+02  0.7816164E-02  0.1300439E+00
        -11   -1    0    0    0    0  0.00000000000E+00  0.00000000000E+00  0.45593999997E+02  0.45594000000E+02  0.51100000000E-03 0. -1.
         11   -1    0    0    0    0 -0.00000000000E+00 -0.00000000000E+00 -0.45593999997E+02  0.45594000000E+02  0.51100000000E-03 0.  1.
    9900012    2    1    2    0    0 -0.17828632369E+02  0.35472445273E+02  0.87756009420E+01  0.50528859850E+02  0.30000000001E+02 0.  0.
         12    1    1    2    0    0  0.17828632369E+02 -0.35472445273E+02 -0.87756009420E+01  0.40659140150E+02  0.00000000000E+00 0. -1.
         11    1    3    3    0    0 -0.51126113412E+01  0.13396721763E+01 -0.20399972897E+01  0.56652542281E+01  0.51100000000E-03 0. -1.
        -11    1    3    3    0    0 -0.17853979247E+02  0.31151396313E+02  0.44878484641E+01  0.36184455934E+02  0.51100000000E-03 0.  1.
         12    1    3    3    0    0  0.51379582185E+01  0.29813767840E+01  0.63277497675E+01  0.86791496879E+01  0.00000000000E+00 0. -1.
</event>
<event>
 7    1  0.4871930E-013  0.5052885E+02  0.7816164E-02  0.1300439E+00
        -11   -1    0    0    0    0  0.00000000000E+00  0.00000000000E+00  0.45593999997E+02  0.45594000000E+02  0.51100000000E-03 0.  1.
         11   -1    0    0    0    0 -0.00000000000E+00 -0.00000000000E+00 -0.45593999997E+02  0.45594000000E+02  0.51100000000E-03 0. -1.
    9900012    2    1    2    0    0 -0.28135384509E+02  0.26544120062E+02  0.12529023223E+02  0.50528848579E+02  0.29999965741E+02 0.  0.
         12    1    1    2    0    0  0.28135384509E+02 -0.26544120062E+02 -0.12529023223E+02  0.40659151421E+02  0.00000000000E+00 0. -1.
         11    1    3    3    0    0 -0.14041321390E+02  0.23731231565E+02  0.17977358087E+01  0.27632624057E+02  0.51100000000E-03 0. -1.
        -11    1    3    3    0    0 -0.11631403736E+02  0.82322353920E+01  0.70653676775E+01  0.15905303301E+02  0.51100000000E-03 0.  1.
         12    1    3    3    0    0 -0.24626593834E+01 -0.54193468949E+01  0.36659197370E+01  0.69909212214E+01  0.00000000000E+00 0. -1.
</event>
<event>
 7    1  0.4871930E-013  0.5052886E+02  0.7816164E-02  0.1300439E+00
        -11   -1    0    0    0    0  0.00000000000E+00  0.00000000000E+00  0.45593999997E+02  0.45594000000E+02  0.51100000000E-03 0.  1.
         11   -1    0    0    0    0 -0.00000000000E+00 -0.00000000000E+00 -0.45593999997E+02  0.45594000000E+02  0.51100000000E-03 0. -1.
    9900012    2    1    2    0    0  0.34567776732E+02  0.17856429713E+02  0.11806025426E+02  0.50528861954E+02  0.30000006395E+02 0.  0.
         12    1    1    2    0    0 -0.34567776732E+02 -0.17856429713E+02 -0.11806025426E+02  0.40659138046E+02  0.00000000000E+00 0. -1.
         11    1    3    3    0    0  0.11871728502E+02 -0.89910148581E+00 -0.58802856228E+01  0.13278707782E+02  0.51100000000E-03 0. -1.
        -11    1    3    3    0    0 -0.21971738546E+00  0.48352482044E+01  0.67202254477E+01  0.82818676188E+01  0.51100000000E-03 0.  1.
         12    1    3    3    0    0  0.22915765616E+02  0.13920282995E+02  0.10966085601E+02  0.28968286553E+02  0.00000000000E+00 0. -1.
</event>
<event>
 7    1  0.4871930E-013  0.5052885E+02  0.7816164E-02  0.1300439E+00
        -11   -1    0    0    0    0  0.00000000000E+00  0.00000000000E+00  0.45593999997E+02  0.45594000000E+02  0.51100000000E-03 0. -1.
         11   -1    0    0    0    0 -0.00000000000E+00 -0.00000000000E+00 -0.45593999997E+02  0.45594000000E+02  0.51100000000E-03 0.  1.
    9900012    2    1    2    0    0 -0.14214065019E+02 -0.11383015531E+02 -0.36353176077E+02  0.50528854684E+02  0.29999984298E+02 0.  0.
         12    1    1    2    0    0  0.14214065019E+02  0.11383015531E+02  0.36353176077E+02  0.40659145316E+02  0.00000000000E+00 0. -1.
         11    1    3    3    0    0 -0.73531768023E+01 -0.80769817805E+01 -0.23011830818E+02  0.25472557815E+02  0.51100000000E-03 0.  1.
        -11    1    3    3    0    0 -0.13167713706E+02 -0.13814889628E+01 -0.44111672780E+01  0.13955486126E+02  0.51100000000E-03 0. -1.
         12    1    3    3    0    0  0.63068254895E+01 -0.19245447878E+01 -0.89301779807E+01  0.11100810743E+02  0.00000000000E+00 0. -1.
</event>
<event>
 7    1  0.4871930E-013  0.5052886E+02  0.7816164E-02  0.1300439E+00
        -11   -1    0    0    0    0  0.00000000000E+00  0.00000000000E+00  0.45593999997E+02  0.45594000000E+02  0.51100000000E-03 0. -1.
         11   -1    0    0    0    0 -0.00000000000E+00 -0.00000000000E+00 -0.45593999997E+02  0.45594000000E+02  0.51100000000E-03 0.  1.
    9900012    2    1    2    0    0  0.87558831346E+00 -0.40297360635E+02 -0.53405481143E+01  0.50528863472E+02  0.30000011009E+02 0.  0.
         12    1    1    2    0    0 -0.87558831346E+00  0.40297360635E+02  0.53405481143E+01  0.40659136528E+02  0.00000000000E+00 0. -1.
         11    1    3    3    0    0  0.53007263906E+01 -0.24841159728E+02 -0.70284080352E+01  0.26354875008E+02  0.51100000000E-03 0. -1.
        -11    1    3    3    0    0  0.69449465945E+01 -0.74493759021E+01  0.12466641358E+01  0.10260587520E+02  0.51100000000E-03 0.  1.
         12    1    3    3    0    0 -0.11370084672E+02 -0.80068250050E+01  0.44119578512E+00  0.13913400944E+02  0.00000000000E+00 0. -1.
</event>
<event>
 7    1  0.4871930E-013  0.5052886E+02  0.7816164E-02  0.1300439E+00
        -11   -1    0    0    0    0  0.00000000000E+00  0.00000000000E+00  0.45593999997E+02  0.45594000000E+02  0.51100000000E-03 0.  1.
         11   -1    0    0    0    0 -0.00000000000E+00 -0.00000000000E+00 -0.45593999997E+02  0.45594000000E+02  0.51100000000E-03 0. -1.
    9900012    2    1    2    0    0 -0.29463897949E+02 -0.30902953207E+01  0.27847699570E+02  0.50528861065E+02  0.30000003694E+02 0.  0.
         12    1    1    2    0    0  0.29463897949E+02  0.30902953207E+01 -0.27847699570E+02  0.40659138935E+02  0.00000000000E+00 0. -1.
         11    1    3    3    0    0 -0.41035310463E+00 -0.81233940197E+01  0.27452122301E+01  0.85845273906E+01  0.51100000000E-03 0. -1.
        -11    1    3    3    0    0 -0.14341354925E+02 -0.33232553203E+01  0.18824853538E+02  0.23897564687E+02  0.51100000000E-03 0.  1.
        -12    1    3    3    0    0 -0.14712189920E+02  0.83563540193E+01  0.62776338027E+01  0.18046768988E+02  0.00000000000E+00 0.  1.
</event>
<event>
 7    1  0.4871930E-013  0.5052885E+02  0.7816164E-02  0.1300439E+00
        -11   -1    0    0    0    0  0.00000000000E+00  0.00000000000E+00  0.45593999997E+02  0.45594000000E+02  0.51100000000E-03 0.  1.
         11   -1    0    0    0    0 -0.00000000000E+00 -0.00000000000E+00 -0.45593999997E+02  0.45594000000E+02  0.51100000000E-03 0. -1.
    9900012    2    1    2    0    0  0.12791699147E+02 -0.11006832755E+02  0.36991734526E+02  0.50528851490E+02  0.29999974588E+02 0.  0.
         12    1    1    2    0    0 -0.12791699147E+02  0.11006832755E+02 -0.36991734526E+02  0.40659148510E+02  0.00000000000E+00 0. -1.
         11    1    3    3    0    0  0.43654120127E+01 -0.68880791174E+01  0.71166138200E+01  0.10823522924E+02  0.51100000000E-03 0.  1.
        -11    1    3    3    0    0  0.10872147088E+02 -0.31816933084E+00  0.15084923398E+01  0.10980909044E+02  0.51100000000E-03 0. -1.
         12    1    3    3    0    0 -0.24458599539E+01 -0.38005843072E+01  0.28366628366E+02  0.28724419521E+02  0.00000000000E+00 0. -1.
</event>
<event>
 7    1  0.4871930E-013  0.5052886E+02  0.7816164E-02  0.1300439E+00
        -11   -1    0    0    0    0  0.00000000000E+00  0.00000000000E+00  0.45593999997E+02  0.45594000000E+02  0.51100000000E-03 0.  1.
         11   -1    0    0    0    0 -0.00000000000E+00 -0.00000000000E+00 -0.45593999997E+02  0.45594000000E+02  0.51100000000E-03 0. -1.
    9900012    2    1    2    0    0 -0.30051195908E+02  0.26231641424E+02  0.78734986005E+01  0.50528863665E+02  0.30000011595E+02 0.  0.
         12    1    1    2    0    0  0.30051195908E+02 -0.26231641424E+02 -0.78734986005E+01  0.40659136335E+02  0.00000000000E+00 0. -1.
         11    1    3    3    0    0 -0.32196420200E+01 -0.12279690547E+01 -0.48351751208E+01  0.59374170686E+01  0.51100000000E-03 0. -1.
        -11    1    3    3    0    0 -0.19931805982E+02  0.70270207986E+01  0.72753180135E+01  0.22351424194E+02  0.51100000000E-03 0.  1.
        -12    1    3    3    0    0 -0.68997479056E+01  0.20432589681E+02  0.54333557079E+01  0.22240022402E+02  0.00000000000E+00 0.  1.
</event>
<event>
 7    1  0.4871930E-013  0.5052887E+02  0.7816164E-02  0.1300439E+00
        -11   -1    0    0    0    0  0.00000000000E+00  0.00000000000E+00  0.45593999997E+02  0.45594000000E+02  0.51100000000E-03 0.  1.
         11   -1    0    0    0    0 -0.00000000000E+00 -0.00000000000E+00 -0.45593999997E+02  0.45594000000E+02  0.51100000000E-03 0. -1.
    9900012    2    1    2    0    0  0.16517190907E+02 -0.20104803457E+02  0.31243308817E+02  0.50528867406E+02  0.30000022966E+02 0.  0.
         12    1    1    2    0    0 -0.16517190907E+02  0.20104803457E+02 -0.31243308817E+02  0.40659132594E+02  0.00000000000E+00 0. -1.
         11    1    3    3    0    0  0.61422736755E+01 -0.77987207018E+01 -0.23389251124E+01  0.10198928445E+02  0.51100000000E-03 0. -1.
        -11    1    3    3    0    0 -0.32487593755E+01 -0.64665759836E+01  0.81998097411E+01  0.10936540700E+02  0.51100000000E-03 0.  1.
         12    1    3    3    0    0  0.13623676606E+02 -0.58395067712E+01  0.25382424188E+02  0.29393398260E+02  0.00000000000E+00 0. -1.
</event>
<event>
 7    1  0.4871930E-013  0.5052886E+02  0.7816164E-02  0.1300439E+00
        -11   -1    0    0    0    0  0.00000000000E+00  0.00000000000E+00  0.45593999997E+02  0.45594000000E+02  0.51100000000E-03 0. -1.
         11   -1    0    0    0    0 -0.00000000000E+00 -0.00000000000E+00 -0.45593999997E+02  0.45594000000E+02  0.51100000000E-03 0.  1.
    9900012    2    1    2    0    0  0.81891561337E+01 -0.32189436958E+02 -0.23450881661E+02  0.50528856126E+02  0.29999988681E+02 0.  0.
         12    1    1    2    0    0 -0.81891561337E+01  0.32189436958E+02  0.23450881661E+02  0.40659143874E+02  0.00000000000E+00 0. -1.
         11    1    3    3    0    0  0.58675655026E+01 -0.37939485681E+01 -0.46088291317E+00  0.70024841296E+01  0.51100000000E-03 0. -1.
        -11    1    3    3    0    0  0.10195002996E+02 -0.14130922135E+02 -0.20724691600E+02  0.27076445273E+02  0.51100000000E-03 0.  1.
         12    1    3    3    0    0 -0.78734123648E+01 -0.14264566256E+02 -0.22653071483E+01  0.16449926723E+02  0.00000000000E+00 0. -1.
</event>
<event>
 7    1  0.4871930E-013  0.5052886E+02  0.7816164E-02  0.1300439E+00
        -11   -1    0    0    0    0  0.00000000000E+00  0.00000000000E+00  0.45593999997E+02  0.45594000000E+02  0.51100000000E-03 0.  1.
         11   -1    0    0    0    0 -0.00000000000E+00 -0.00000000000E+00 -0.45593999997E+02  0.45594000000E+02  0.51100000000E-03 0. -1.
    9900012    2    1    2    0    0  0.51767080980E+01 -0.14908758788E+02  0.37471274848E+02  0.50528857927E+02  0.29999994156E+02 0.  0.
         12    1    1    2    0    0 -0.51767080980E+01  0.14908758788E+02 -0.37471274848E+02  0.40659142073E+02  0.00000000000E+00 0. -1.
         11    1    3    3    0    0  0.13937458745E+01  0.50594384180E+01  0.18160790748E+02  0.18903829388E+02  0.51100000000E-03 0.  1.
        -11    1    3    3    0    0  0.33855280440E+01  0.13653610972E+01  0.36082775457E+01  0.51328041236E+01  0.51100000000E-03 0. -1.
         12    1    3    3    0    0  0.39743417946E+00 -0.21333558303E+02  0.15702206554E+02  0.26492224416E+02  0.00000000000E+00 0. -1.
</event>
<event>
 7    1  0.4871930E-013  0.5052886E+02  0.7816164E-02  0.1300439E+00
        -11   -1    0    0    0    0  0.00000000000E+00  0.00000000000E+00  0.45593999997E+02  0.45594000000E+02  0.51100000000E-03 0.  1.
         11   -1    0    0    0    0 -0.00000000000E+00 -0.00000000000E+00 -0.45593999997E+02  0.45594000000E+02  0.51100000000E-03 0. -1.
    9900012    2    1    2    0    0 -0.40893897807E+01 -0.19114269345E+02  0.35652315693E+02  0.50528855695E+02  0.29999987370E+02 0.  0.
         12    1    1    2    0    0  0.40893897807E+01  0.19114269345E+02 -0.35652315693E+02  0.40659144305E+02  0.00000000000E+00 0. -1.
         11    1    3    3    0    0 -0.29781544273E+01 -0.20183133710E+02  0.21550077046E+02  0.29675479964E+02  0.51100000000E-03 0. -1.
        -11    1    3    3    0    0 -0.66309868159E+01 -0.31685469382E+01  0.34234074572E+01  0.81073666953E+01  0.51100000000E-03 0.  1.
         12    1    3    3    0    0  0.55197514625E+01  0.42374113029E+01  0.10678831190E+02  0.12746009036E+02  0.00000000000E+00 0. -1.
</event>
<event>
 7    1  0.4871930E-013  0.5052885E+02  0.7816164E-02  0.1300439E+00
        -11   -1    0    0    0    0  0.00000000000E+00  0.00000000000E+00  0.45593999997E+02  0.45594000000E+02  0.51100000000E-03 0.  1.
         11   -1    0    0    0    0 -0.00000000000E+00 -0.00000000000E+00 -0.45593999997E+02  0.45594000000E+02  0.51100000000E-03 0. -1.
    9900012    2    1    2    0    0 -0.85077461571E+01  0.91661170763E+01  0.38688075179E+02  0.50528848410E+02  0.29999965227E+02 0.  0.
         12    1    1    2    0    0  0.85077461571E+01 -0.91661170763E+01 -0.38688075179E+02  0.40659151590E+02  0.00000000000E+00 0. -1.
         11    1    3    3    0    0 -0.10933326093E+02  0.64821681846E+01  0.34580740617E+01  0.13172486489E+02  0.51100000000E-03 0. -1.
        -11    1    3    3    0    0  0.79096968300E+00 -0.37463117795E+01  0.44550914737E+01  0.58743787151E+01  0.51100000000E-03 0.  1.
         12    1    3    3    0    0  0.16346102530E+01  0.64302606712E+01  0.30774909644E+02  0.31481983206E+02  0.00000000000E+00 0. -1.
</event>
<event>
 7    1  0.4871930E-013  0.5052886E+02  0.7816164E-02  0.1300439E+00
        -11   -1    0    0    0    0  0.00000000000E+00  0.00000000000E+00  0.45593999997E+02  0.45594000000E+02  0.51100000000E-03 0.  1.
         11   -1    0    0    0    0 -0.00000000000E+00 -0.00000000000E+00 -0.45593999997E+02  0.45594000000E+02  0.51100000000E-03 0. -1.
    9900012    2    1    2    0    0 -0.20880246971E+02 -0.60921730793E+01  0.34352094892E+02  0.50528859456E+02  0.29999998801E+02 0.  0.
         12    1    1    2    0    0  0.20880246971E+02  0.60921730793E+01 -0.34352094892E+02  0.40659140544E+02  0.00000000000E+00 0. -1.
         11    1    3    3    0    0 -0.91723628162E+01 -0.10284317710E+02  0.40646743643E+01  0.14367359129E+02  0.51100000000E-03 0. -1.
        -11    1    3    3    0    0 -0.48035976454E+01 -0.76332037950E+00  0.16877556418E+00  0.48667950227E+01  0.51100000000E-03 0.  1.
        -12    1    3    3    0    0 -0.69042865089E+01  0.49554650098E+01  0.30118644963E+02  0.31294705304E+02  0.00000000000E+00 0.  1.
</event>
<event>
 7    1  0.4871930E-013  0.5052886E+02  0.7816164E-02  0.1300439E+00
        -11   -1    0    0    0    0  0.00000000000E+00  0.00000000000E+00  0.45593999997E+02  0.45594000000E+02  0.51100000000E-03 0.  1.
         11   -1    0    0    0    0 -0.00000000000E+00 -0.00000000000E+00 -0.45593999997E+02  0.45594000000E+02  0.51100000000E-03 0. -1.
    9900012    2    1    2    0    0 -0.16055167117E+02  0.36516199706E+02  0.78717425792E+01  0.50528861256E+02  0.30000004275E+02 0.  0.
         12    1    1    2    0    0  0.16055167117E+02 -0.36516199706E+02 -0.78717425792E+01  0.40659138744E+02  0.00000000000E+00 0. -1.
         11    1    3    3    0    0 -0.26739879317E+01  0.11429312641E+02  0.48129482510E+01  0.12686365517E+02  0.51100000000E-03 0. -1.
        -11    1    3    3    0    0 -0.12998573734E+02  0.82508061259E+01  0.11295950089E+02  0.19095476153E+02  0.51100000000E-03 0.  1.
         12    1    3    3    0    0 -0.38260545069E+00  0.16836080939E+02 -0.82371557607E+01  0.18747019586E+02  0.00000000000E+00 0. -1.
</event>
<event>
 7    1  0.4871930E-013  0.5052885E+02  0.7816164E-02  0.1300439E+00
        -11   -1    0    0    0    0  0.00000000000E+00  0.00000000000E+00  0.45593999997E+02  0.45594000000E+02  0.51100000000E-03 0. -1.
         11   -1    0    0    0    0 -0.00000000000E+00 -0.00000000000E+00 -0.45593999997E+02  0.45594000000E+02  0.51100000000E-03 0.  1.
    9900012    2    1    2    0    0  0.25266712926E+02 -0.72316517368E+01 -0.31023582447E+02  0.50528852975E+02  0.29999979104E+02 0.  0.
         12    1    1    2    0    0 -0.25266712926E+02  0.72316517368E+01  0.31023582447E+02  0.40659147025E+02  0.00000000000E+00 0. -1.
         11    1    3    3    0    0 -0.39798886041E+01  0.39665218015E+01 -0.18242227919E+01  0.59076727701E+01  0.51100000000E-03 0. -1.
        -11    1    3    3    0    0  0.42559934003E+01 -0.32491815516E+00 -0.11133251271E+02  0.11923436407E+02  0.51100000000E-03 0.  1.
        -12    1    3    3    0    0  0.24990608130E+02 -0.10873255383E+02 -0.18066108384E+02  0.32697743798E+02  0.00000000000E+00 0.  1.
</event>
<event>
 7    1  0.4871930E-013  0.5052895E+02  0.7816164E-02  0.1300438E+00
        -11   -1    0    0    0    0  0.00000000000E+00  0.00000000000E+00  0.45593999997E+02  0.45594000000E+02  0.51100000000E-03 0.  1.
         11   -1    0    0    0    0 -0.00000000000E+00 -0.00000000000E+00 -0.45593999997E+02  0.45594000000E+02  0.51100000000E-03 0. -1.
    9900012    2    1    2    0    0 -0.13837639673E+02 -0.24657962675E+02  0.29217505362E+02  0.50528954087E+02  0.30000286441E+02 0.  0.
         12    1    1    2    0    0  0.13837639673E+02  0.24657962675E+02 -0.29217505362E+02  0.40659045913E+02  0.00000000000E+00 0. -1.
         11    1    3    3    0    0 -0.85202524366E+00 -0.18192362952E+02  0.20883979416E+02  0.27709720556E+02  0.51100000000E-03 0.  1.
        -11    1    3    3    0    0  0.27592945509E+01 -0.14777172976E+00 -0.15668472698E+01  0.31765631634E+01  0.51100000000E-03 0. -1.
         12    1    3    3    0    0 -0.15744908980E+02 -0.63178279931E+01  0.99003732159E+01  0.19642670368E+02  0.00000000000E+00 0. -1.
</event>
<event>
 7    1  0.4871930E-013  0.5052886E+02  0.7816164E-02  0.1300439E+00
        -11   -1    0    0    0    0  0.00000000000E+00  0.00000000000E+00  0.45593999997E+02  0.45594000000E+02  0.51100000000E-03 0.  1.
         11   -1    0    0    0    0 -0.00000000000E+00 -0.00000000000E+00 -0.45593999997E+02  0.45594000000E+02  0.51100000000E-03 0. -1.
    9900012    2    1    2    0    0  0.29088260897E+02  0.18098825122E+02  0.21896829882E+02  0.50528861400E+02  0.30000004711E+02 0.  0.
         12    1    1    2    0    0 -0.29088260897E+02 -0.18098825122E+02 -0.21896829882E+02  0.40659138600E+02  0.00000000000E+00 0. -1.
         11    1    3    3    0    0  0.68648881181E+01  0.64179277132E+01  0.12028819237E+00  0.93984549005E+01  0.51100000000E-03 0. -1.
        -11    1    3    3    0    0  0.16683733493E+02  0.75550949444E+01  0.26891269677E+02  0.32535623676E+02  0.51100000000E-03 0.  1.
         12    1    3    3    0    0  0.55396392860E+01  0.41258024643E+01 -0.51147279873E+01  0.85947828232E+01  0.00000000000E+00 0. -1.
</event>
<event>
 7    1  0.4871930E-013  0.5052886E+02  0.7816164E-02  0.1300439E+00
        -11   -1    0    0    0    0  0.00000000000E+00  0.00000000000E+00  0.45593999997E+02  0.45594000000E+02  0.51100000000E-03 0. -1.
         11   -1    0    0    0    0 -0.00000000000E+00 -0.00000000000E+00 -0.45593999997E+02  0.45594000000E+02  0.51100000000E-03 0.  1.
    9900012    2    1    2    0    0  0.14974719899E+02  0.32270344961E+02  0.19686240165E+02  0.50528862628E+02  0.30000008445E+02 0.  0.
         12    1    1    2    0    0 -0.14974719899E+02 -0.32270344961E+02 -0.19686240165E+02  0.40659137372E+02  0.00000000000E+00 0. -1.
         11    1    3    3    0    0  0.83449964827E+01  0.16565668288E+02  0.10419262473E+02  0.21274899832E+02  0.51100000000E-03 0. -1.
        -11    1    3    3    0    0  0.97539880202E+01  0.11624280866E+02 -0.34292080022E+01  0.15557109492E+02  0.51100000000E-03 0.  1.
         12    1    3    3    0    0 -0.31242646044E+01  0.40803958075E+01  0.12696185694E+02  0.13696853305E+02  0.00000000000E+00 0. -1.
</event>
<event>
 7    1  0.4871930E-013  0.5052886E+02  0.7816164E-02  0.1300439E+00
        -11   -1    0    0    0    0  0.00000000000E+00  0.00000000000E+00  0.45593999997E+02  0.45594000000E+02  0.51100000000E-03 0.  1.
         11   -1    0    0    0    0 -0.00000000000E+00 -0.00000000000E+00 -0.45593999997E+02  0.45594000000E+02  0.51100000000E-03 0. -1.
    9900012    2    1    2    0    0 -0.38026879952E+02 -0.12603845625E+02  0.69472928367E+01  0.50528863251E+02  0.30000010336E+02 0.  0.
         12    1    1    2    0    0  0.38026879952E+02  0.12603845625E+02 -0.69472928367E+01  0.40659136749E+02  0.00000000000E+00 0. -1.
         11    1    3    3    0    0 -0.29981549147E+02  0.10231727784E-01 -0.36677286383E+01  0.30205059635E+02  0.51100000000E-03 0.  1.
        -11    1    3    3    0    0 -0.70438992770E+00  0.95369359928E+00  0.27788730911E+01  0.30212303072E+01  0.51100000000E-03 0. -1.
        -12    1    3    3    0    0 -0.73409408775E+01 -0.13567770952E+02  0.78361483839E+01  0.17302573308E+02  0.00000000000E+00 0.  1.
</event>
<event>
 7    1  0.4871930E-013  0.5052886E+02  0.7816164E-02  0.1300439E+00
        -11   -1    0    0    0    0  0.00000000000E+00  0.00000000000E+00  0.45593999997E+02  0.45594000000E+02  0.51100000000E-03 0. -1.
         11   -1    0    0    0    0 -0.00000000000E+00 -0.00000000000E+00 -0.45593999997E+02  0.45594000000E+02  0.51100000000E-03 0.  1.
    9900012    2    1    2    0    0 -0.39017583206E+02  0.96277365836E+01 -0.61725339121E+01  0.50528864669E+02  0.30000014649E+02 0.  0.
         12    1    1    2    0    0  0.39017583206E+02 -0.96277365836E+01  0.61725339121E+01  0.40659135331E+02  0.00000000000E+00 0. -1.
         11    1    3    3    0    0 -0.15478666390E+02  0.16180359687E+02 -0.54386801576E+00  0.22398413906E+02  0.51100000000E-03 0. -1.
        -11    1    3    3    0    0  0.45951242379E+00 -0.21510010784E+00 -0.31446627803E+01  0.31853294943E+01  0.51100000000E-03 0.  1.
        -12    1    3    3    0    0 -0.23998429239E+02 -0.63375229955E+01 -0.24840031160E+01  0.24945121269E+02  0.00000000000E+00 0.  1.
</event>
<event>
 7    1  0.4871930E-013  0.5052887E+02  0.7816164E-02  0.1300439E+00
        -11   -1    0    0    0    0  0.00000000000E+00  0.00000000000E+00  0.45593999997E+02  0.45594000000E+02  0.51100000000E-03 0.  1.
         11   -1    0    0    0    0 -0.00000000000E+00 -0.00000000000E+00 -0.45593999997E+02  0.45594000000E+02  0.51100000000E-03 0. -1.
    9900012    2    1    2    0    0  0.39007672752E+02 -0.15892042541E+01  0.11359616458E+02  0.50528868311E+02  0.30000025717E+02 0.  0.
         12    1    1    2    0    0 -0.39007672752E+02  0.15892042541E+01 -0.11359616458E+02  0.40659131689E+02  0.00000000000E+00 0. -1.
         11    1    3    3    0    0  0.23690079793E+01 -0.65100419675E+01 -0.28176364876E+01  0.74787646616E+01  0.51100000000E-03 0. -1.
        -11    1    3    3    0    0  0.11986309950E+02 -0.60266368084E+01  0.70255749828E+01  0.15144328362E+02  0.51100000000E-03 0.  1.
        -12    1    3    3    0    0  0.24652354822E+02  0.10947474522E+02  0.71516779630E+01  0.27905775287E+02  0.00000000000E+00 0.  1.
</event>
<event>
 7    1  0.4871930E-013  0.5052887E+02  0.7816164E-02  0.1300439E+00
        -11   -1    0    0    0    0  0.00000000000E+00  0.00000000000E+00  0.45593999997E+02  0.45594000000E+02  0.51100000000E-03 0.  1.
         11   -1    0    0    0    0 -0.00000000000E+00 -0.00000000000E+00 -0.45593999997E+02  0.45594000000E+02  0.51100000000E-03 0. -1.
    9900012    2    1    2    0    0 -0.11655019368E+02  0.69063529806E+01  0.38335724959E+02  0.50528868233E+02  0.30000025480E+02 0.  0.
         12    1    1    2    0    0  0.11655019368E+02 -0.69063529806E+01 -0.38335724959E+02  0.40659131767E+02  0.00000000000E+00 0. -1.
         11    1    3    3    0    0 -0.97548185578E+01  0.92390270555E+01  0.14950087427E+02  0.20100279111E+02  0.51100000000E-03 0. -1.
        -11    1    3    3    0    0 -0.69247979199E+01 -0.61690923462E+01  0.22114298837E+02  0.23980257295E+02  0.51100000000E-03 0.  1.
        -12    1    3    3    0    0  0.50245971097E+01  0.38364182713E+01  0.12713386950E+01  0.64483318265E+01  0.00000000000E+00 0.  1.
</event>
<event>
 7    1  0.4871930E-013  0.5052885E+02  0.7816164E-02  0.1300439E+00
        -11   -1    0    0    0    0  0.00000000000E+00  0.00000000000E+00  0.45593999997E+02  0.45594000000E+02  0.51100000000E-03 0.  1.
         11   -1    0    0    0    0 -0.00000000000E+00 -0.00000000000E+00 -0.45593999997E+02  0.45594000000E+02  0.51100000000E-03 0. -1.
    9900012    2    1    2    0    0  0.77392606290E+01  0.36817530517E+02 -0.15418802228E+02  0.50528853789E+02  0.29999981577E+02 0.  0.
         12    1    1    2    0    0 -0.77392606290E+01 -0.36817530517E+02  0.15418802228E+02  0.40659146211E+02  0.00000000000E+00 0. -1.
         11    1    3    3    0    0 -0.61402008935E+01  0.12918480574E+02 -0.11809019691E+02  0.18548373343E+02  0.51100000000E-03 0. -1.
        -11    1    3    3    0    0  0.86356126242E+01  0.74188611483E+01 -0.82673831294E+01  0.14069930000E+02  0.51100000000E-03 0.  1.
        -12    1    3    3    0    0  0.52438488983E+01  0.16480188795E+02  0.46576005923E+01  0.17910550446E+02  0.00000000000E+00 0.  1.
</event>
<event>
 7    1  0.4871930E-013  0.5052887E+02  0.7816164E-02  0.1300439E+00
        -11   -1    0    0    0    0  0.00000000000E+00  0.00000000000E+00  0.45593999997E+02  0.45594000000E+02  0.51100000000E-03 0. -1.
         11   -1    0    0    0    0 -0.00000000000E+00 -0.00000000000E+00 -0.45593999997E+02  0.45594000000E+02  0.51100000000E-03 0.  1.
    9900012    2    1    2    0    0 -0.11038047086E+02 -0.37282974643E+02  0.11887236579E+02  0.50528867259E+02  0.30000022522E+02 0.  0.
         12    1    1    2    0    0  0.11038047086E+02  0.37282974643E+02 -0.11887236579E+02  0.40659132741E+02  0.00000000000E+00 0. -1.
         11    1    3    3    0    0  0.74427398414E+01 -0.11851589236E+02 -0.13675769772E+01  0.14061465458E+02  0.51100000000E-03 0. -1.
        -11    1    3    3    0    0 -0.30343429594E+01 -0.14518938859E+02  0.37416885369E+01  0.15297289176E+02  0.51100000000E-03 0.  1.
         12    1    3    3    0    0 -0.15446443968E+02 -0.10912446548E+02  0.95131250196E+01  0.21170112625E+02  0.00000000000E+00 0. -1.
</event>
<event>
 7    1  0.4871930E-013  0.5052886E+02  0.7816164E-02  0.1300439E+00
        -11   -1    0    0    0    0  0.00000000000E+00  0.00000000000E+00  0.45593999997E+02  0.45594000000E+02  0.51100000000E-03 0. -1.
         11   -1    0    0    0    0 -0.00000000000E+00 -0.00000000000E+00 -0.45593999997E+02  0.45594000000E+02  0.51100000000E-03 0.  1.
    9900012    2    1    2    0    0  0.34475330467E+02 -0.10360633053E+02 -0.18901702559E+02  0.50528862187E+02  0.30000007104E+02 0.  0.
         12    1    1    2    0    0 -0.34475330467E+02  0.10360633053E+02  0.18901702559E+02  0.40659137813E+02  0.00000000000E+00 0. -1.
         11    1    3    3    0    0  0.15722508748E+02  0.46799021368E+01 -0.35973935946E+01  0.16794046751E+02  0.51100000000E-03 0. -1.
        -11    1    3    3    0    0  0.17756658780E+02 -0.49867474060E+01 -0.14750549823E+02  0.23616631874E+02  0.51100000000E-03 0.  1.
        -12    1    3    3    0    0  0.99616293895E+00 -0.10053787784E+02 -0.55375914131E+00  0.10118183562E+02  0.00000000000E+00 0.  1.
</event>
<event>
 7    1  0.4871930E-013  0.5052879E+02  0.7816164E-02  0.1300439E+00
        -11   -1    0    0    0    0  0.00000000000E+00  0.00000000000E+00  0.45593999997E+02  0.45594000000E+02  0.51100000000E-03 0. -1.
         11   -1    0    0    0    0 -0.00000000000E+00 -0.00000000000E+00 -0.45593999997E+02  0.45594000000E+02  0.51100000000E-03 0.  1.
    9900012    2    1    2    0    0 -0.20199419637E+02 -0.33103969833E+02  0.12218090638E+02  0.50528793033E+02  0.29999796901E+02 0.  0.
         12    1    1    2    0    0  0.20199419637E+02  0.33103969833E+02 -0.12218090638E+02  0.40659206967E+02  0.00000000000E+00 0. -1.
         11    1    3    3    0    0  0.40968651659E+01 -0.79827812016E+01 -0.23668082951E+01  0.92795949086E+01  0.51100000000E-03 0. -1.
        -11    1    3    3    0    0 -0.14902298998E+02 -0.46584676092E+01  0.28954115781E+01  0.15879648748E+02  0.51100000000E-03 0.  1.
        -12    1    3    3    0    0 -0.93939858057E+01 -0.20462721022E+02  0.11689487355E+02  0.25369549376E+02  0.00000000000E+00 0.  1.
</event>
<event>
 7    1  0.4871930E-013  0.5052886E+02  0.7816164E-02  0.1300439E+00
        -11   -1    0    0    0    0  0.00000000000E+00  0.00000000000E+00  0.45593999997E+02  0.45594000000E+02  0.51100000000E-03 0.  1.
         11   -1    0    0    0    0 -0.00000000000E+00 -0.00000000000E+00 -0.45593999997E+02  0.45594000000E+02  0.51100000000E-03 0. -1.
    9900012    2    1    2    0    0  0.12329619363E+01  0.39249412353E+02  0.10541762049E+02  0.50528864344E+02  0.30000013661E+02 0.  0.
         12    1    1    2    0    0 -0.12329619363E+01 -0.39249412353E+02 -0.10541762049E+02  0.40659135656E+02  0.00000000000E+00 0. -1.
         11    1    3    3    0    0  0.19125907076E+01  0.22076652767E+01 -0.34572114801E+01  0.45259364411E+01  0.51100000000E-03 0. -1.
        -11    1    3    3    0    0 -0.24702859333E+01  0.40310962346E+01 -0.57888467627E+01  0.74741418603E+01  0.51100000000E-03 0.  1.
        -12    1    3    3    0    0  0.17906571620E+01  0.33010650841E+02  0.19787820292E+02  0.38528786043E+02  0.00000000000E+00 0.  1.
</event>
<event>
 7    1  0.4871930E-013  0.5052885E+02  0.7816164E-02  0.1300439E+00
        -11   -1    0    0    0    0  0.00000000000E+00  0.00000000000E+00  0.45593999997E+02  0.45594000000E+02  0.51100000000E-03 0. -1.
         11   -1    0    0    0    0 -0.00000000000E+00 -0.00000000000E+00 -0.45593999997E+02  0.45594000000E+02  0.51100000000E-03 0.  1.
    9900012    2    1    2    0    0  0.30113059131E+01  0.40148000180E+02 -0.56777257331E+01  0.50528850337E+02  0.29999971085E+02 0.  0.
         12    1    1    2    0    0 -0.30113059131E+01 -0.40148000180E+02  0.56777257331E+01  0.40659149663E+02  0.00000000000E+00 0. -1.
         11    1    3    3    0    0 -0.24185390355E+01  0.25174229559E+01  0.32417854087E+01  0.47640237512E+01  0.51100000000E-03 0. -1.
        -11    1    3    3    0    0  0.10985383024E+02  0.89100797327E+01 -0.85137116133E+01  0.16509132222E+02  0.51100000000E-03 0.  1.
         12    1    3    3    0    0 -0.55555380752E+01  0.28720497492E+02 -0.40579952849E+00  0.29255694364E+02  0.00000000000E+00 0. -1.
</event>
<event>
 7    1  0.4871930E-013  0.5052879E+02  0.7816164E-02  0.1300439E+00
        -11   -1    0    0    0    0  0.00000000000E+00  0.00000000000E+00  0.45593999997E+02  0.45594000000E+02  0.51100000000E-03 0. -1.
         11   -1    0    0    0    0 -0.00000000000E+00 -0.00000000000E+00 -0.45593999997E+02  0.45594000000E+02  0.51100000000E-03 0.  1.
    9900012    2    1    2    0    0  0.22551086038E+02  0.29262449591E+02 -0.16980241339E+02  0.50528793988E+02  0.29999799806E+02 0.  0.
         12    1    1    2    0    0 -0.22551086038E+02 -0.29262449591E+02  0.16980241339E+02  0.40659206012E+02  0.00000000000E+00 0. -1.
         11    1    3    3    0    0  0.10053519570E+02  0.45984019758E+01 -0.31628448614E+01  0.11498788821E+02  0.51100000000E-03 0. -1.
        -11    1    3    3    0    0  0.27846135855E+01 -0.30994506440E+00 -0.11833161401E+02  0.12160339131E+02  0.51100000000E-03 0.  1.
        -12    1    3    3    0    0  0.97129528825E+01  0.24973992680E+02 -0.19842350767E+01  0.26869666036E+02  0.00000000000E+00 0.  1.
</event>
<event>
 7    1  0.4871930E-013  0.5052886E+02  0.7816164E-02  0.1300439E+00
        -11   -1    0    0    0    0  0.00000000000E+00  0.00000000000E+00  0.45593999997E+02  0.45594000000E+02  0.51100000000E-03 0.  1.
         11   -1    0    0    0    0 -0.00000000000E+00 -0.00000000000E+00 -0.45593999997E+02  0.45594000000E+02  0.51100000000E-03 0. -1.
    9900012    2    1    2    0    0  0.13093165972E+02 -0.13771780649E+02  0.35945410328E+02  0.50528862514E+02  0.30000008099E+02 0.  0.
         12    1    1    2    0    0 -0.13093165972E+02  0.13771780649E+02 -0.35945410328E+02  0.40659137486E+02  0.00000000000E+00 0. -1.
         11    1    3    3    0    0  0.16272987605E+02 -0.12117290175E+02  0.21126433424E+02  0.29291040204E+02  0.51100000000E-03 0. -1.
        -11    1    3    3    0    0  0.47286427180E+01  0.33829376662E+01  0.62390799713E+01  0.85282148400E+01  0.51100000000E-03 0.  1.
         12    1    3    3    0    0 -0.79084643513E+01 -0.50374281398E+01  0.85798969330E+01  0.12709607470E+02  0.00000000000E+00 0. -1.
</event>
<event>
 7    1  0.4871930E-013  0.5052884E+02  0.7816164E-02  0.1300439E+00
        -11   -1    0    0    0    0  0.00000000000E+00  0.00000000000E+00  0.45593999997E+02  0.45594000000E+02  0.51100000000E-03 0. -1.
         11   -1    0    0    0    0 -0.00000000000E+00 -0.00000000000E+00 -0.45593999997E+02  0.45594000000E+02  0.51100000000E-03 0.  1.
    9900012    2    1    2    0    0  0.37117707667E+01 -0.39785479257E+02  0.75170097436E+01  0.50528843129E+02  0.29999949176E+02 0.  0.
         12    1    1    2    0    0 -0.37117707667E+01  0.39785479257E+02 -0.75170097436E+01  0.40659156871E+02  0.00000000000E+00 0. -1.
         11    1    3    3    0    0  0.87150652820E+01 -0.20827890214E+02  0.28843154685E+01  0.22761209318E+02  0.51100000000E-03 0.  1.
        -11    1    3    3    0    0  0.50027868919E+01 -0.48095311959E+01  0.74833417107E+01  0.10205874310E+02  0.51100000000E-03 0. -1.
        -12    1    3    3    0    0 -0.10006081407E+02 -0.14148057847E+02 -0.28506474355E+01  0.17561759501E+02  0.00000000000E+00 0.  1.
</event>
<event>
 7    1  0.4871930E-013  0.5052877E+02  0.7816164E-02  0.1300439E+00
        -11   -1    0    0    0    0  0.00000000000E+00  0.00000000000E+00  0.45593999997E+02  0.45594000000E+02  0.51100000000E-03 0.  1.
         11   -1    0    0    0    0 -0.00000000000E+00 -0.00000000000E+00 -0.45593999997E+02  0.45594000000E+02  0.51100000000E-03 0. -1.
    9900012    2    1    2    0    0  0.67973640023E+01  0.16062954530E+02  0.36728061298E+02  0.50528767932E+02  0.29999720606E+02 0.  0.
         12    1    1    2    0    0 -0.67973640023E+01 -0.16062954530E+02 -0.36728061298E+02  0.40659232068E+02  0.00000000000E+00 0. -1.
         11    1    3    3    0    0  0.35529151861E+01 -0.37069332662E+01  0.20332059048E+02  0.20970388312E+02  0.51100000000E-03 0. -1.
        -11    1    3    3    0    0 -0.40801422912E+01  0.10269651539E+02  0.13058689854E+02  0.17106802296E+02  0.51100000000E-03 0.  1.
        -12    1    3    3    0    0  0.73245911075E+01  0.95002362573E+01  0.33373123968E+01  0.12451577325E+02  0.00000000000E+00 0.  1.
</event>
<event>
 7    1  0.4871930E-013  0.5052886E+02  0.7816164E-02  0.1300439E+00
        -11   -1    0    0    0    0  0.00000000000E+00  0.00000000000E+00  0.45593999997E+02  0.45594000000E+02  0.51100000000E-03 0.  1.
         11   -1    0    0    0    0 -0.00000000000E+00 -0.00000000000E+00 -0.45593999997E+02  0.45594000000E+02  0.51100000000E-03 0. -1.
    9900012    2    1    2    0    0  0.13278950903E+02 -0.27214321387E+02  0.27133291762E+02  0.50528863911E+02  0.30000012344E+02 0.  0.
         12    1    1    2    0    0 -0.13278950903E+02  0.27214321387E+02 -0.27133291762E+02  0.40659136089E+02  0.00000000000E+00 0. -1.
         11    1    3    3    0    0  0.99378755999E+01 -0.23398163276E+02  0.98872396990E+01  0.27276233707E+02  0.51100000000E-03 0. -1.
        -11    1    3    3    0    0 -0.24666583427E+01 -0.78671078752E+01  0.71032138855E+01  0.10882620891E+02  0.51100000000E-03 0.  1.
         12    1    3    3    0    0  0.58077336460E+01  0.40509497642E+01  0.10142838178E+02  0.12370009313E+02  0.00000000000E+00 0. -1.
</event>
<event>
 7    1  0.4871930E-013  0.5052885E+02  0.7816164E-02  0.1300439E+00
        -11   -1    0    0    0    0  0.00000000000E+00  0.00000000000E+00  0.45593999997E+02  0.45594000000E+02  0.51100000000E-03 0.  1.
         11   -1    0    0    0    0 -0.00000000000E+00 -0.00000000000E+00 -0.45593999997E+02  0.45594000000E+02  0.51100000000E-03 0. -1.
    9900012    2    1    2    0    0  0.39053719321E+02  0.49266531789E+01  0.10183399386E+02  0.50528849401E+02  0.29999968240E+02 0.  0.
         12    1    1    2    0    0 -0.39053719321E+02 -0.49266531789E+01 -0.10183399386E+02  0.40659150599E+02  0.00000000000E+00 0. -1.
         11    1    3    3    0    0  0.23626565621E+00 -0.36999030552E+01 -0.48118928361E+00  0.37385354708E+01  0.51100000000E-03 0. -1.
        -11    1    3    3    0    0  0.32583952173E+02 -0.25227321786E+01  0.62376663527E+01  0.33271408125E+02  0.51100000000E-03 0.  1.
        -12    1    3    3    0    0  0.62335014919E+01  0.11149288413E+02  0.44269223172E+01  0.13518905805E+02  0.00000000000E+00 0.  1.
</event>
<event>
 7    1  0.4871930E-013  0.5052886E+02  0.7816164E-02  0.1300439E+00
        -11   -1    0    0    0    0  0.00000000000E+00  0.00000000000E+00  0.45593999997E+02  0.45594000000E+02  0.51100000000E-03 0.  1.
         11   -1    0    0    0    0 -0.00000000000E+00 -0.00000000000E+00 -0.45593999997E+02  0.45594000000E+02  0.51100000000E-03 0. -1.
    9900012    2    1    2    0    0 -0.23857433882E+01  0.23406311287E+02  0.33160497793E+02  0.50528858427E+02  0.29999995674E+02 0.  0.
         12    1    1    2    0    0  0.23857433882E+01 -0.23406311287E+02 -0.33160497793E+02  0.40659141573E+02  0.00000000000E+00 0. -1.
         11    1    3    3    0    0 -0.17205161242E+01  0.26062603937E+00 -0.39854454452E+01  0.43487788314E+01  0.51100000000E-03 0. -1.
        -11    1    3    3    0    0  0.64660737090E+00  0.16747921788E+02  0.13127285816E+02  0.21289354581E+02  0.51100000000E-03 0.  1.
        -12    1    3    3    0    0 -0.13118346350E+01  0.63977634602E+01  0.24018657422E+02  0.24890725015E+02  0.00000000000E+00 0.  1.
</event>
<event>
 7    1  0.4871930E-013  0.5052887E+02  0.7816164E-02  0.1300439E+00
        -11   -1    0    0    0    0  0.00000000000E+00  0.00000000000E+00  0.45593999997E+02  0.45594000000E+02  0.51100000000E-03 0. -1.
         11   -1    0    0    0    0 -0.00000000000E+00 -0.00000000000E+00 -0.45593999997E+02  0.45594000000E+02  0.51100000000E-03 0.  1.
    9900012    2    1    2    0    0 -0.37813741122E+02  0.14084254434E+02  0.49919608663E+01  0.50528869243E+02  0.30000028551E+02 0.  0.
         12    1    1    2    0    0  0.37813741122E+02 -0.14084254434E+02 -0.49919608663E+01  0.40659130757E+02  0.00000000000E+00 0. -1.
         11    1    3    3    0    0 -0.67990179210E+01  0.13738478594E+02  0.54914353465E+01  0.16282760859E+02  0.51100000000E-03 0. -1.
        -11    1    3    3    0    0 -0.56272327509E+01 -0.10165158196E+00  0.58032073659E+01  0.80841386350E+01  0.51100000000E-03 0.  1.
        -12    1    3    3    0    0 -0.25387490450E+02  0.44742742165E+00 -0.63026818461E+01  0.26161969748E+02  0.00000000000E+00 0.  1.
</event>
<event>
 7    1  0.4871930E-013  0.5052890E+02  0.7816164E-02  0.1300439E+00
        -11   -1    0    0    0    0  0.00000000000E+00  0.00000000000E+00  0.45593999997E+02  0.45594000000E+02  0.51100000000E-03 0.  1.
         11   -1    0    0    0    0 -0.00000000000E+00 -0.00000000000E+00 -0.45593999997E+02  0.45594000000E+02  0.51100000000E-03 0. -1.
    9900012    2    1    2    0    0  0.23487487020E+02 -0.45445374387E+01  0.32876245335E+02  0.50528900473E+02  0.30000123477E+02 0.  0.
         12    1    1    2    0    0 -0.23487487020E+02  0.45445374387E+01 -0.32876245335E+02  0.40659099527E+02  0.00000000000E+00 0. -1.
         11    1    3    3    0    0  0.15091521290E+02 -0.94388943741E+01  0.25250314157E+02  0.30893771333E+02  0.51100000000E-03 0. -1.
        -11    1    3    3    0    0  0.65697969966E+01 -0.12932215597E+01  0.10594816895E+02  0.12533347513E+02  0.51100000000E-03 0.  1.
         12    1    3    3    0    0  0.18261687331E+01  0.61875784951E+01 -0.29688857173E+01  0.71017816270E+01  0.00000000000E+00 0. -1.
</event>
<event>
 7    1  0.4871930E-013  0.5052887E+02  0.7816164E-02  0.1300439E+00
        -11   -1    0    0    0    0  0.00000000000E+00  0.00000000000E+00  0.45593999997E+02  0.45594000000E+02  0.51100000000E-03 0.  1.
         11   -1    0    0    0    0 -0.00000000000E+00 -0.00000000000E+00 -0.45593999997E+02  0.45594000000E+02  0.51100000000E-03 0. -1.
    9900012    2    1    2    0    0  0.10970642585E+02  0.86853937750E+01  0.38175569881E+02  0.50528865731E+02  0.30000017875E+02 0.  0.
         12    1    1    2    0    0 -0.10970642585E+02 -0.86853937750E+01 -0.38175569881E+02  0.40659134269E+02  0.00000000000E+00 0. -1.
         11    1    3    3    0    0  0.57274596974E+01  0.56378583242E-01  0.51450739973E+01  0.76992700842E+01  0.51100000000E-03 0. -1.
        -11    1    3    3    0    0 -0.18445534117E+00  0.21193306981E+01  0.34206714071E+02  0.34272800793E+02  0.51100000000E-03 0.  1.
         12    1    3    3    0    0  0.54276382285E+01  0.65096844937E+01 -0.11762181869E+01  0.85567948538E+01  0.00000000000E+00 0. -1.
</event>
<event>
 7    1  0.4871930E-013  0.5052891E+02  0.7816164E-02  0.1300439E+00
        -11   -1    0    0    0    0  0.00000000000E+00  0.00000000000E+00  0.45593999997E+02  0.45594000000E+02  0.51100000000E-03 0.  1.
         11   -1    0    0    0    0 -0.00000000000E+00 -0.00000000000E+00 -0.45593999997E+02  0.45594000000E+02  0.51100000000E-03 0. -1.
    9900012    2    1    2    0    0 -0.11003057797E+02  0.34726284165E+01  0.38987629028E+02  0.50528909427E+02  0.30000150695E+02 0.  0.
         12    1    1    2    0    0  0.11003057797E+02 -0.34726284165E+01 -0.38987629028E+02  0.40659090573E+02  0.00000000000E+00 0. -1.
         11    1    3    3    0    0 -0.85553780227E+01 -0.35531875650E+01  0.10114862167E+02  0.13716051615E+02  0.51100000000E-03 0. -1.
        -11    1    3    3    0    0 -0.30751889128E+00  0.16454228580E+01  0.30696443135E+02  0.30742049471E+02  0.51100000000E-03 0.  1.
        -12    1    3    3    0    0 -0.21401608826E+01  0.53803931236E+01 -0.18236762745E+01  0.60708083417E+01  0.00000000000E+00 0.  1.
</event>
<event>
 7    1  0.4871930E-013  0.5052886E+02  0.7816164E-02  0.1300439E+00
        -11   -1    0    0    0    0  0.00000000000E+00  0.00000000000E+00  0.45593999997E+02  0.45594000000E+02  0.51100000000E-03 0.  1.
         11   -1    0    0    0    0 -0.00000000000E+00 -0.00000000000E+00 -0.45593999997E+02  0.45594000000E+02  0.51100000000E-03 0. -1.
    9900012    2    1    2    0    0 -0.80532794043E+01 -0.30030064146E+02  0.26201256664E+02  0.50528856963E+02  0.29999991224E+02 0.  0.
         12    1    1    2    0    0  0.80532794043E+01  0.30030064146E+02 -0.26201256664E+02  0.40659143037E+02  0.00000000000E+00 0. -1.
         11    1    3    3    0    0  0.39797420013E+01 -0.93139373906E+00 -0.16911455620E+01  0.44233261542E+01  0.51100000000E-03 0.  1.
        -11    1    3    3    0    0 -0.11267529017E+02 -0.57385878370E+01  0.56808648148E+01  0.13862208548E+02  0.51100000000E-03 0. -1.
        -12    1    3    3    0    0 -0.76549238852E+00 -0.23360082570E+02  0.22211537411E+02  0.32243322261E+02  0.00000000000E+00 0.  1.
</event>
<event>
 7    1  0.4871930E-013  0.5052887E+02  0.7816164E-02  0.1300439E+00
        -11   -1    0    0    0    0  0.00000000000E+00  0.00000000000E+00  0.45593999997E+02  0.45594000000E+02  0.51100000000E-03 0.  1.
         11   -1    0    0    0    0 -0.00000000000E+00 -0.00000000000E+00 -0.45593999997E+02  0.45594000000E+02  0.51100000000E-03 0. -1.
    9900012    2    1    2    0    0  0.33192260284E+02  0.12954569254E+02  0.19586170293E+02  0.50528867274E+02  0.30000022566E+02 0.  0.
         12    1    1    2    0    0 -0.33192260284E+02 -0.12954569254E+02 -0.19586170293E+02  0.40659132726E+02  0.00000000000E+00 0. -1.
         11    1    3    3    0    0 -0.48681837069E+00 -0.32530890460E+00  0.34757605630E+01  0.35247311617E+01  0.51100000000E-03 0. -1.
        -11    1    3    3    0    0 -0.19125639386E+01  0.47830416797E+01 -0.27482237881E+01  0.58385034709E+01  0.51100000000E-03 0.  1.
        -12    1    3    3    0    0  0.35591642593E+02  0.84968364787E+01  0.18858633518E+02  0.41165632641E+02  0.00000000000E+00 0.  1.
</event>
<event>
 7    1  0.4871930E-013  0.5052885E+02  0.7816164E-02  0.1300439E+00
        -11   -1    0    0    0    0  0.00000000000E+00  0.00000000000E+00  0.45593999997E+02  0.45594000000E+02  0.51100000000E-03 0.  1.
         11   -1    0    0    0    0 -0.00000000000E+00 -0.00000000000E+00 -0.45593999997E+02  0.45594000000E+02  0.51100000000E-03 0. -1.
    9900012    2    1    2    0    0 -0.22170288108E+02  0.12041175629E+02  0.31885031660E+02  0.50528845689E+02  0.29999956958E+02 0.  0.
         12    1    1    2    0    0  0.22170288108E+02 -0.12041175629E+02 -0.31885031660E+02  0.40659154311E+02  0.00000000000E+00 0. -1.
         11    1    3    3    0    0 -0.11143663428E+02 -0.78203895248E+01  0.76862317311E+01  0.15633869815E+02  0.51100000000E-03 0. -1.
        -11    1    3    3    0    0  0.19542455935E+01  0.45153181887E+01  0.34658501321E+01  0.60182465539E+01  0.51100000000E-03 0.  1.
        -12    1    3    3    0    0 -0.12980870273E+02  0.15346246965E+02  0.20732949797E+02  0.28876729320E+02  0.00000000000E+00 0.  1.
</event>
<event>
 7    1  0.4871930E-013  0.5052887E+02  0.7816164E-02  0.1300439E+00
        -11   -1    0    0    0    0  0.00000000000E+00  0.00000000000E+00  0.45593999997E+02  0.45594000000E+02  0.51100000000E-03 0.  1.
         11   -1    0    0    0    0 -0.00000000000E+00 -0.00000000000E+00 -0.45593999997E+02  0.45594000000E+02  0.51100000000E-03 0. -1.
    9900012    2    1    2    0    0  0.17354363341E+02  0.25514663805E+02  0.26476275244E+02  0.50528866379E+02  0.30000019846E+02 0.  0.
         12    1    1    2    0    0 -0.17354363341E+02 -0.25514663805E+02 -0.26476275244E+02  0.40659133621E+02  0.00000000000E+00 0. -1.
         11    1    3    3    0    0 -0.34437306393E+01  0.10987404737E+01  0.33367071201E+01  0.49193623582E+01  0.51100000000E-03 0. -1.
        -11    1    3    3    0    0  0.33114080534E+01  0.17990475505E+02  0.19293385320E+02  0.26586789004E+02  0.51100000000E-03 0.  1.
         12    1    3    3    0    0  0.17486685926E+02  0.64254478265E+01  0.38461828038E+01  0.19022715017E+02  0.00000000000E+00 0. -1.
</event>
<event>
 7    1  0.9475167E-013  0.5052886E+02  0.7816164E-02  0.1300439E+00
        -11   -1    0    0    0    0  0.00000000000E+00  0.00000000000E+00  0.45593999997E+02  0.45594000000E+02  0.51100000000E-03 0. -1.
         11   -1    0    0    0    0 -0.00000000000E+00 -0.00000000000E+00 -0.45593999997E+02  0.45594000000E+02  0.51100000000E-03 0.  1.
    9900012    2    1    2    0    0 -0.50540472273E+01  0.16898555950E+02 -0.36634148324E+02  0.50528863143E+02  0.30000010009E+02 0.  0.
         12    1    1    2    0    0  0.50540472273E+01 -0.16898555950E+02  0.36634148324E+02  0.40659136857E+02  0.00000000000E+00 0. -1.
         11    1    3    3    0    0  0.46350001552E+01 -0.13799378870E+01 -0.33817350105E+01  0.59011513244E+01  0.51100000000E-03 0. -1.
        -11    1    3    3    0    0 -0.43069775140E+01  0.12282274518E+02 -0.30488179984E+01  0.13367857498E+02  0.51100000000E-03 0.  1.
        -12    1    3    3    0    0 -0.53820698685E+01  0.59962193184E+01 -0.30203595315E+02  0.31259854320E+02  0.00000000000E+00 0.  1.
</event>
<event>
 7    1  0.4871930E-013  0.5052886E+02  0.7816164E-02  0.1300439E+00
        -11   -1    0    0    0    0  0.00000000000E+00  0.00000000000E+00  0.45593999997E+02  0.45594000000E+02  0.51100000000E-03 0. -1.
         11   -1    0    0    0    0 -0.00000000000E+00 -0.00000000000E+00 -0.45593999997E+02  0.45594000000E+02  0.51100000000E-03 0.  1.
    9900012    2    1    2    0    0 -0.18660222326E+02  0.18640293420E+02 -0.30943518628E+02  0.50528858579E+02  0.29999996136E+02 0.  0.
         12    1    1    2    0    0  0.18660222326E+02 -0.18640293420E+02  0.30943518628E+02  0.40659141421E+02  0.00000000000E+00 0. -1.
         11    1    3    3    0    0 -0.66783789436E+01  0.93198956922E+01 -0.14031379270E+02  0.18120176752E+02  0.51100000000E-03 0. -1.
        -11    1    3    3    0    0 -0.17931725453E+02  0.26449893812E+01 -0.14315616963E+02  0.23097178093E+02  0.51100000000E-03 0.  1.
         12    1    3    3    0    0  0.59498820707E+01  0.66754083468E+01 -0.25965223947E+01  0.93115037346E+01  0.00000000000E+00 0. -1.
</event>
<event>
 7    1  0.4871930E-013  0.5052891E+02  0.7816164E-02  0.1300439E+00
        -11   -1    0    0    0    0  0.00000000000E+00  0.00000000000E+00  0.45593999997E+02  0.45594000000E+02  0.51100000000E-03 0. -1.
         11   -1    0    0    0    0 -0.00000000000E+00 -0.00000000000E+00 -0.45593999997E+02  0.45594000000E+02  0.51100000000E-03 0.  1.
    9900012    2    1    2    0    0 -0.20241850526E+02  0.97766210022E+01 -0.33879889212E+02  0.50528908471E+02  0.30000147789E+02 0.  0.
         12    1    1    2    0    0  0.20241850526E+02 -0.97766210022E+01  0.33879889212E+02  0.40659091529E+02  0.00000000000E+00 0. -1.
         11    1    3    3    0    0 -0.29532323458E+01 -0.83508744101E+01 -0.73608146168E+01  0.11516956056E+02  0.51100000000E-03 0. -1.
        -11    1    3    3    0    0 -0.11907506983E+02  0.52770376463E+01 -0.63263494157E+01  0.14479590673E+02  0.51100000000E-03 0.  1.
        -12    1    3    3    0    0 -0.53811111976E+01  0.12850457766E+02 -0.20192725179E+02  0.24532361743E+02  0.00000000000E+00 0.  1.
</event>
<event>
 7    1  0.4871930E-013  0.5052887E+02  0.7816164E-02  0.1300439E+00
        -11   -1    0    0    0    0  0.00000000000E+00  0.00000000000E+00  0.45593999997E+02  0.45594000000E+02  0.51100000000E-03 0. -1.
         11   -1    0    0    0    0 -0.00000000000E+00 -0.00000000000E+00 -0.45593999997E+02  0.45594000000E+02  0.51100000000E-03 0.  1.
    9900012    2    1    2    0    0  0.39344595072E+01  0.13404699830E+02 -0.38183753397E+02  0.50528868521E+02  0.30000026357E+02 0.  0.
         12    1    1    2    0    0 -0.39344595072E+01 -0.13404699830E+02  0.38183753397E+02  0.40659131479E+02  0.00000000000E+00 0. -1.
         11    1    3    3    0    0  0.22579236739E+01 -0.34819372067E+01 -0.45410936906E+01  0.61517183125E+01  0.51100000000E-03 0. -1.
        -11    1    3    3    0    0  0.89617183607E+01  0.76599057384E+01 -0.29737889069E+02  0.31989507631E+02  0.51100000000E-03 0.  1.
         12    1    3    3    0    0 -0.72851825274E+01  0.92267312987E+01 -0.39047706367E+01  0.12387642578E+02  0.00000000000E+00 0. -1.
</event>
<event>
 7    1  0.4871930E-013  0.5052886E+02  0.7816164E-02  0.1300439E+00
        -11   -1    0    0    0    0  0.00000000000E+00  0.00000000000E+00  0.45593999997E+02  0.45594000000E+02  0.51100000000E-03 0.  1.
         11   -1    0    0    0    0 -0.00000000000E+00 -0.00000000000E+00 -0.45593999997E+02  0.45594000000E+02  0.51100000000E-03 0. -1.
    9900012    2    1    2    0    0 -0.16155544849E+02 -0.17846715108E+02  0.32766728180E+02  0.50528863940E+02  0.30000012432E+02 0.  0.
         12    1    1    2    0    0  0.16155544849E+02  0.17846715108E+02 -0.32766728180E+02  0.40659136060E+02  0.00000000000E+00 0. -1.
         11    1    3    3    0    0  0.38178833553E+01  0.32089881325E+01  0.11048072612E+01  0.51082714782E+01  0.51100000000E-03 0. -1.
        -11    1    3    3    0    0 -0.97032718778E+00 -0.54204720939E+01  0.14244637494E+02  0.15271959605E+02  0.51100000000E-03 0.  1.
        -12    1    3    3    0    0 -0.19003101016E+02 -0.15635231147E+02  0.17417283425E+02  0.30148632857E+02  0.00000000000E+00 0.  1.
</event>
<event>
 7    1  0.4871930E-013  0.5052886E+02  0.7816164E-02  0.1300439E+00
        -11   -1    0    0    0    0  0.00000000000E+00  0.00000000000E+00  0.45593999997E+02  0.45594000000E+02  0.51100000000E-03 0.  1.
         11   -1    0    0    0    0 -0.00000000000E+00 -0.00000000000E+00 -0.45593999997E+02  0.45594000000E+02  0.51100000000E-03 0. -1.
    9900012    2    1    2    0    0  0.60646140075E+01 -0.29194738853E+02  0.27641520814E+02  0.50528855977E+02  0.29999988228E+02 0.  0.
         12    1    1    2    0    0 -0.60646140075E+01  0.29194738853E+02 -0.27641520814E+02  0.40659144023E+02  0.00000000000E+00 0. -1.
         11    1    3    3    0    0  0.43698812368E+00 -0.48642600718E+01  0.65770098202E+01  0.81920109315E+01  0.51100000000E-03 0. -1.
        -11    1    3    3    0    0  0.22417047310E+01  0.17127213634E+01  0.15158220869E+02  0.15418505593E+02  0.51100000000E-03 0.  1.
         12    1    3    3    0    0  0.33859211528E+01 -0.26043200145E+02  0.59062901252E+01  0.26918339452E+02  0.00000000000E+00 0. -1.
</event>
<event>
 7    1  0.4871930E-013  0.5052885E+02  0.7816164E-02  0.1300439E+00
        -11   -1    0    0    0    0  0.00000000000E+00  0.00000000000E+00  0.45593999997E+02  0.45594000000E+02  0.51100000000E-03 0.  1.
         11   -1    0    0    0    0 -0.00000000000E+00 -0.00000000000E+00 -0.45593999997E+02  0.45594000000E+02  0.51100000000E-03 0. -1.
    9900012    2    1    2    0    0  0.82963940459E+00 -0.15801895318E+02  0.37453679457E+02  0.50528852172E+02  0.29999976663E+02 0.  0.
         12    1    1    2    0    0 -0.82963940459E+00  0.15801895318E+02 -0.37453679457E+02  0.40659147828E+02  0.00000000000E+00 0. -1.
         11    1    3    3    0    0 -0.83766700295E+01 -0.85409205693E+01  0.25669643677E+02  0.28320426051E+02  0.51100000000E-03 0. -1.
        -11    1    3    3    0    0  0.35018235459E+01  0.41491663705E+01  0.63169851980E+01  0.83296249597E+01  0.51100000000E-03 0.  1.
        -12    1    3    3    0    0  0.57044858882E+01 -0.11410141119E+02  0.54670505824E+01  0.13878801162E+02  0.00000000000E+00 0.  1.
</event>
<event>
 7    1  0.4871930E-013  0.5052887E+02  0.7816164E-02  0.1300439E+00
        -11   -1    0    0    0    0  0.00000000000E+00  0.00000000000E+00  0.45593999997E+02  0.45594000000E+02  0.51100000000E-03 0. -1.
         11   -1    0    0    0    0 -0.00000000000E+00 -0.00000000000E+00 -0.45593999997E+02  0.45594000000E+02  0.51100000000E-03 0.  1.
    9900012    2    1    2    0    0  0.27399853468E+02  0.13791296713E+02 -0.26687322136E+02  0.50528868211E+02  0.30000025414E+02 0.  0.
         12    1    1    2    0    0 -0.27399853468E+02 -0.13791296713E+02  0.26687322136E+02  0.40659131789E+02  0.00000000000E+00 0. -1.
         11    1    3    3    0    0  0.18157101925E+02 -0.47029709989E+01 -0.13828699996E+02  0.23303030498E+02  0.51100000000E-03 0. -1.
        -11    1    3    3    0    0 -0.25788995190E+01  0.10062014769E+01 -0.24203880302E+01  0.36771514273E+01  0.51100000000E-03 0.  1.
         12    1    3    3    0    0  0.11821651061E+02  0.17488066235E+02 -0.10438234109E+02  0.23548686286E+02  0.00000000000E+00 0. -1.
</event>
<event>
 7    1  0.5330096E-013  0.5052886E+02  0.7816164E-02  0.1300439E+00
        -11   -1    0    0    0    0  0.00000000000E+00  0.00000000000E+00  0.45593999997E+02  0.45594000000E+02  0.51100000000E-03 0. -1.
         11   -1    0    0    0    0 -0.00000000000E+00 -0.00000000000E+00 -0.45593999997E+02  0.45594000000E+02  0.51100000000E-03 0.  1.
    9900012    2    1    2    0    0 -0.89186856109E+01  0.24463504499E+02 -0.31227543577E+02  0.50528862242E+02  0.30000007270E+02 0.  0.
         12    1    1    2    0    0  0.89186856109E+01 -0.24463504499E+02  0.31227543577E+02  0.40659137758E+02  0.00000000000E+00 0. -1.
         11    1    3    3    0    0  0.71531197203E+01  0.23203004289E+01 -0.95661149310E+01  0.12168051239E+02  0.51100000000E-03 0. -1.
        -11    1    3    3    0    0 -0.49383912106E+01  0.42185415037E+01 -0.14816443423E+02  0.16177478052E+02  0.51100000000E-03 0.  1.
         12    1    3    3    0    0 -0.11133414121E+02  0.17924662567E+02 -0.68449852232E+01  0.22183332951E+02  0.00000000000E+00 0. -1.
</event>
<event>
 7    1  0.4871930E-013  0.5052886E+02  0.7816164E-02  0.1300439E+00
        -11   -1    0    0    0    0  0.00000000000E+00  0.00000000000E+00  0.45593999997E+02  0.45594000000E+02  0.51100000000E-03 0. -1.
         11   -1    0    0    0    0 -0.00000000000E+00 -0.00000000000E+00 -0.45593999997E+02  0.45594000000E+02  0.51100000000E-03 0.  1.
    9900012    2    1    2    0    0  0.17878709796E+02 -0.43565367042E+01 -0.36256562366E+02  0.50528856002E+02  0.29999988303E+02 0.  0.
         12    1    1    2    0    0 -0.17878709796E+02  0.43565367042E+01  0.36256562366E+02  0.40659143998E+02  0.00000000000E+00 0. -1.
         11    1    3    3    0    0 -0.11239806116E+00  0.50716178990E+01 -0.98680657179E+01  0.11095614571E+02  0.51100000000E-03 0. -1.
        -11    1    3    3    0    0 -0.14984707401E+00  0.60818421506E+00  0.32241909068E+01  0.32844709543E+01  0.51100000000E-03 0.  1.
        -12    1    3    3    0    0  0.18140954931E+02 -0.10036338818E+02 -0.29612687555E+02  0.36148770476E+02  0.00000000000E+00 0.  1.
</event>
<event>
 7    1  0.4871930E-013  0.5052884E+02  0.7816164E-02  0.1300439E+00
        -11   -1    0    0    0    0  0.00000000000E+00  0.00000000000E+00  0.45593999997E+02  0.45594000000E+02  0.51100000000E-03 0. -1.
         11   -1    0    0    0    0 -0.00000000000E+00 -0.00000000000E+00 -0.45593999997E+02  0.45594000000E+02  0.51100000000E-03 0.  1.
    9900012    2    1    2    0    0  0.30442492969E+02 -0.12259406311E+02 -0.24002676637E+02  0.50528844734E+02  0.29999954052E+02 0.  0.
         12    1    1    2    0    0 -0.30442492969E+02  0.12259406311E+02  0.24002676637E+02  0.40659155266E+02  0.00000000000E+00 0. -1.
         11    1    3    3    0    0  0.12961329476E+02 -0.18583933966E+02 -0.18519766563E+02  0.29263294709E+02  0.51100000000E-03 0.  1.
        -11    1    3    3    0    0 -0.68750119690E+00  0.15686821192E+01 -0.44938808939E-01  0.17133129441E+01  0.51100000000E-03 0. -1.
        -12    1    3    3    0    0  0.18168664689E+02  0.47558455360E+01 -0.54379712648E+01  0.19552237080E+02  0.00000000000E+00 0.  1.
</event>
<event>
 7    1  0.4871930E-013  0.5052892E+02  0.7816164E-02  0.1300439E+00
        -11   -1    0    0    0    0  0.00000000000E+00  0.00000000000E+00  0.45593999997E+02  0.45594000000E+02  0.51100000000E-03 0.  1.
         11   -1    0    0    0    0 -0.00000000000E+00 -0.00000000000E+00 -0.45593999997E+02  0.45594000000E+02  0.51100000000E-03 0. -1.
    9900012    2    1    2    0    0  0.95259657024E+01 -0.35314287731E+02  0.17757182647E+02  0.50528923817E+02  0.30000194434E+02 0.  0.
         12    1    1    2    0    0 -0.95259657024E+01  0.35314287731E+02 -0.17757182647E+02  0.40659076183E+02  0.00000000000E+00 0. -1.
         11    1    3    3    0    0  0.16195682958E+01  0.19263361303E+01  0.31135597517E+01  0.40035018346E+01  0.51100000000E-03 0.  1.
        -11    1    3    3    0    0 -0.22271146405E+01 -0.15114490952E+02  0.16036949262E+02  0.22149302884E+02  0.51100000000E-03 0. -1.
        -12    1    3    3    0    0  0.10133512047E+02 -0.22126132909E+02 -0.13933263667E+01  0.24376119098E+02  0.00000000000E+00 0.  1.
</event>
<event>
 7    1  0.4871930E-013  0.5052885E+02  0.7816164E-02  0.1300439E+00
        -11   -1    0    0    0    0  0.00000000000E+00  0.00000000000E+00  0.45593999997E+02  0.45594000000E+02  0.51100000000E-03 0.  1.
         11   -1    0    0    0    0 -0.00000000000E+00 -0.00000000000E+00 -0.45593999997E+02  0.45594000000E+02  0.51100000000E-03 0. -1.
    9900012    2    1    2    0    0  0.29551108120E+02  0.30104089910E+01  0.27763933433E+02  0.50528849086E+02  0.29999967281E+02 0.  0.
         12    1    1    2    0    0 -0.29551108120E+02 -0.30104089910E+01 -0.27763933433E+02  0.40659150914E+02  0.00000000000E+00 0. -1.
         11    1    3    3    0    0  0.18083175002E+02  0.17680405207E+01  0.28268955458E+02  0.33604479290E+02  0.51100000000E-03 0. -1.
        -11    1    3    3    0    0  0.11339748945E+01 -0.33895807761E+01  0.34121701704E+01  0.49414635921E+01  0.51100000000E-03 0.  1.
         12    1    3    3    0    0  0.10333958223E+02  0.46319492463E+01 -0.39171921954E+01  0.11982906203E+02  0.00000000000E+00 0. -1.
</event>
<event>
 7    1  0.4871930E-013  0.5052886E+02  0.7816164E-02  0.1300439E+00
        -11   -1    0    0    0    0  0.00000000000E+00  0.00000000000E+00  0.45593999997E+02  0.45594000000E+02  0.51100000000E-03 0.  1.
         11   -1    0    0    0    0 -0.00000000000E+00 -0.00000000000E+00 -0.45593999997E+02  0.45594000000E+02  0.51100000000E-03 0. -1.
    9900012    2    1    2    0    0  0.18729322467E+02  0.22211195872E+02  0.28443647797E+02  0.50528857828E+02  0.29999993855E+02 0.  0.
         12    1    1    2    0    0 -0.18729322467E+02 -0.22211195872E+02 -0.28443647797E+02  0.40659142172E+02  0.00000000000E+00 0. -1.
         11    1    3    3    0    0 -0.68592820599E+00 -0.23707892026E+01 -0.21400934531E+01  0.32666709654E+01  0.51100000000E-03 0. -1.
        -11    1    3    3    0    0  0.13863006776E+02  0.60792946344E+01  0.67266850569E+01  0.16564693545E+02  0.51100000000E-03 0.  1.
         12    1    3    3    0    0  0.55522438972E+01  0.18502690440E+02  0.23857056193E+02  0.30697493318E+02  0.00000000000E+00 0. -1.
</event>
<event>
 7    1  0.4871930E-013  0.5052887E+02  0.7816164E-02  0.1300439E+00
        -11   -1    0    0    0    0  0.00000000000E+00  0.00000000000E+00  0.45593999997E+02  0.45594000000E+02  0.51100000000E-03 0. -1.
         11   -1    0    0    0    0 -0.00000000000E+00 -0.00000000000E+00 -0.45593999997E+02  0.45594000000E+02  0.51100000000E-03 0.  1.
    9900012    2    1    2    0    0  0.21130997342E+02  0.31599532377E+02  0.14426196842E+02  0.50528872483E+02  0.30000038399E+02 0.  0.
         12    1    1    2    0    0 -0.21130997342E+02 -0.31599532377E+02 -0.14426196842E+02  0.40659127517E+02  0.00000000000E+00 0. -1.
         11    1    3    3    0    0  0.64388443596E+01  0.11394716381E+02 -0.47940740796E+01  0.13938487171E+02  0.51100000000E-03 0. -1.
        -11    1    3    3    0    0  0.16268542123E+02  0.18674094799E+02  0.93408819638E+01  0.26469593036E+02  0.51100000000E-03 0.  1.
         12    1    3    3    0    0 -0.15763891408E+01  0.15307211981E+01  0.98793889579E+01  0.10120792276E+02  0.00000000000E+00 0. -1.
</event>
<event>
 7    1  0.4871930E-013  0.5052886E+02  0.7816164E-02  0.1300439E+00
        -11   -1    0    0    0    0  0.00000000000E+00  0.00000000000E+00  0.45593999997E+02  0.45594000000E+02  0.51100000000E-03 0.  1.
         11   -1    0    0    0    0 -0.00000000000E+00 -0.00000000000E+00 -0.45593999997E+02  0.45594000000E+02  0.51100000000E-03 0. -1.
    9900012    2    1    2    0    0  0.11671748670E+02 -0.10658100453E+02  0.37461189549E+02  0.50528861487E+02  0.30000004974E+02 0.  0.
         12    1    1    2    0    0 -0.11671748670E+02  0.10658100453E+02 -0.37461189549E+02  0.40659138513E+02  0.00000000000E+00 0. -1.
         11    1    3    3    0    0  0.10059307499E+02  0.56159477333E+01  0.16010313944E+02  0.19724570696E+02  0.51100000000E-03 0. -1.
        -11    1    3    3    0    0  0.51567251998E+01 -0.63678362165E+01  0.17923287342E+02  0.19707495586E+02  0.51100000000E-03 0.  1.
         12    1    3    3    0    0 -0.35442840288E+01 -0.99062119695E+01  0.35275882625E+01  0.11096795205E+02  0.00000000000E+00 0. -1.
</event>
<event>
 7    1  0.4871930E-013  0.5052886E+02  0.7816164E-02  0.1300439E+00
        -11   -1    0    0    0    0  0.00000000000E+00  0.00000000000E+00  0.45593999997E+02  0.45594000000E+02  0.51100000000E-03 0. -1.
         11   -1    0    0    0    0 -0.00000000000E+00 -0.00000000000E+00 -0.45593999997E+02  0.45594000000E+02  0.51100000000E-03 0.  1.
    9900012    2    1    2    0    0  0.15057918921E+02 -0.28534139414E+02 -0.24743230627E+02  0.50528862082E+02  0.30000006786E+02 0.  0.
         12    1    1    2    0    0 -0.15057918921E+02  0.28534139414E+02  0.24743230627E+02  0.40659137918E+02  0.00000000000E+00 0. -1.
         11    1    3    3    0    0  0.55029721998E+01 -0.15266962239E+02 -0.80539355865E+01  0.18117083588E+02  0.51100000000E-03 0. -1.
        -11    1    3    3    0    0  0.10073215769E+01 -0.12372760031E+02 -0.19717343321E+02  0.23299646251E+02  0.51100000000E-03 0.  1.
         12    1    3    3    0    0  0.85476251447E+01 -0.89441714450E+00  0.30280482801E+01  0.91121322439E+01  0.00000000000E+00 0. -1.
</event>
<event>
 7    1  0.4871930E-013  0.5052886E+02  0.7816164E-02  0.1300439E+00
        -11   -1    0    0    0    0  0.00000000000E+00  0.00000000000E+00  0.45593999997E+02  0.45594000000E+02  0.51100000000E-03 0.  1.
         11   -1    0    0    0    0 -0.00000000000E+00 -0.00000000000E+00 -0.45593999997E+02  0.45594000000E+02  0.51100000000E-03 0. -1.
    9900012    2    1    2    0    0  0.28414163283E+02 -0.12781517783E+02  0.26123426588E+02  0.50528864636E+02  0.30000014547E+02 0.  0.
         12    1    1    2    0    0 -0.28414163283E+02  0.12781517783E+02 -0.26123426588E+02  0.40659135364E+02  0.00000000000E+00 0. -1.
         11    1    3    3    0    0 -0.31810817926E+01 -0.11651980860E+01  0.87667637584E+01  0.93985698384E+01  0.51100000000E-03 0. -1.
        -11    1    3    3    0    0  0.47855429635E+01 -0.88787163914E+01  0.69148000494E+01  0.12228960962E+02  0.51100000000E-03 0.  1.
         12    1    3    3    0    0  0.26809702112E+02 -0.27376033053E+01  0.10441862780E+02  0.28901333836E+02  0.00000000000E+00 0. -1.
</event>
<event>
 7    1  0.4871930E-013  0.5052886E+02  0.7816164E-02  0.1300439E+00
        -11   -1    0    0    0    0  0.00000000000E+00  0.00000000000E+00  0.45593999997E+02  0.45594000000E+02  0.51100000000E-03 0.  1.
         11   -1    0    0    0    0 -0.00000000000E+00 -0.00000000000E+00 -0.45593999997E+02  0.45594000000E+02  0.51100000000E-03 0. -1.
    9900012    2    1    2    0    0 -0.38192453433E+02 -0.86914887928E+01  0.10906872764E+02  0.50528863879E+02  0.30000012246E+02 0.  0.
         12    1    1    2    0    0  0.38192453433E+02  0.86914887928E+01 -0.10906872764E+02  0.40659136121E+02  0.00000000000E+00 0. -1.
         11    1    3    3    0    0 -0.13472722328E+01  0.21383482526E+01  0.86308943190E+01  0.89933315699E+01  0.51100000000E-03 0. -1.
        -11    1    3    3    0    0 -0.12289965563E+02  0.34760658089E+01 -0.15291644474E+01  0.12863305610E+02  0.51100000000E-03 0.  1.
        -12    1    3    3    0    0 -0.24555215637E+02 -0.14305902854E+02  0.38051428925E+01  0.28672226699E+02  0.00000000000E+00 0.  1.
</event>
<event>
 7    1  0.4871930E-013  0.5052888E+02  0.7816164E-02  0.1300439E+00
        -11   -1    0    0    0    0  0.00000000000E+00  0.00000000000E+00  0.45593999997E+02  0.45594000000E+02  0.51100000000E-03 0.  1.
         11   -1    0    0    0    0 -0.00000000000E+00 -0.00000000000E+00 -0.45593999997E+02  0.45594000000E+02  0.51100000000E-03 0. -1.
    9900012    2    1    2    0    0 -0.11294562020E+02 -0.36069245900E+02  0.14986884326E+02  0.50528876389E+02  0.30000050273E+02 0.  0.
         12    1    1    2    0    0  0.11294562020E+02  0.36069245900E+02 -0.14986884326E+02  0.40659123611E+02  0.00000000000E+00 0. -1.
         11    1    3    3    0    0  0.17782451253E+01 -0.49830044903E+01 -0.16900978028E+00  0.52934916684E+01  0.51100000000E-03 0. -1.
        -11    1    3    3    0    0  0.92857105161E+00 -0.28133719975E+02  0.81627947070E+01  0.29308696006E+02  0.51100000000E-03 0.  1.
        -12    1    3    3    0    0 -0.14001378197E+02 -0.29525214340E+01  0.69930993989E+01  0.15926688715E+02  0.00000000000E+00 0.  1.
</event>
<event>
 7    1  0.4871930E-013  0.5052886E+02  0.7816164E-02  0.1300439E+00
        -11   -1    0    0    0    0  0.00000000000E+00  0.00000000000E+00  0.45593999997E+02  0.45594000000E+02  0.51100000000E-03 0.  1.
         11   -1    0    0    0    0 -0.00000000000E+00 -0.00000000000E+00 -0.45593999997E+02  0.45594000000E+02  0.51100000000E-03 0. -1.
    9900012    2    1    2    0    0 -0.10463267533E+00 -0.37604339454E+01  0.40484740787E+02  0.50528855296E+02  0.29999986159E+02 0.  0.
         12    1    1    2    0    0  0.10463267533E+00  0.37604339454E+01 -0.40484740787E+02  0.40659144704E+02  0.00000000000E+00 0. -1.
         11    1    3    3    0    0  0.75738146008E+01 -0.11613068567E+02  0.20404753530E+02  0.24669414181E+02  0.51100000000E-03 0. -1.
        -11    1    3    3    0    0 -0.53861631281E+01 -0.18089660447E+01  0.11107520656E+02  0.12476382760E+02  0.51100000000E-03 0.  1.
        -12    1    3    3    0    0 -0.22922841480E+01  0.96616006660E+01  0.89724666005E+01  0.13383058355E+02  0.00000000000E+00 0.  1.
</event>
<event>
 7    1  0.5949995E-013  0.5052884E+02  0.7816164E-02  0.1300439E+00
        -11   -1    0    0    0    0  0.00000000000E+00  0.00000000000E+00  0.45593999997E+02  0.45594000000E+02  0.51100000000E-03 0.  1.
         11   -1    0    0    0    0 -0.00000000000E+00 -0.00000000000E+00 -0.45593999997E+02  0.45594000000E+02  0.51100000000E-03 0. -1.
    9900012    2    1    2    0    0 -0.17866244178E+02 -0.19835713969E+02  0.30667717358E+02  0.50528842143E+02  0.29999946178E+02 0.  0.
         12    1    1    2    0    0  0.17866244178E+02  0.19835713969E+02 -0.30667717358E+02  0.40659157857E+02  0.00000000000E+00 0. -1.
         11    1    3    3    0    0 -0.36650876736E+01 -0.33544751306E+01 -0.49839591408E+01  0.70374157214E+01  0.51100000000E-03 0. -1.
        -11    1    3    3    0    0 -0.10570760405E+02 -0.13372747780E+02  0.16396593327E+02  0.23652053436E+02  0.51100000000E-03 0.  1.
        -12    1    3    3    0    0 -0.36303960989E+01 -0.31084910579E+01  0.19255083172E+02  0.19839372986E+02  0.00000000000E+00 0.  1.
</event>
<event>
 7    1  0.4871930E-013  0.5052885E+02  0.7816164E-02  0.1300439E+00
        -11   -1    0    0    0    0  0.00000000000E+00  0.00000000000E+00  0.45593999997E+02  0.45594000000E+02  0.51100000000E-03 0.  1.
         11   -1    0    0    0    0 -0.00000000000E+00 -0.00000000000E+00 -0.45593999997E+02  0.45594000000E+02  0.51100000000E-03 0. -1.
    9900012    2    1    2    0    0 -0.78474528051E+01  0.11843447842E+02  0.38096146134E+02  0.50528854380E+02  0.29999983373E+02 0.  0.
         12    1    1    2    0    0  0.78474528051E+01 -0.11843447842E+02 -0.38096146134E+02  0.40659145620E+02  0.00000000000E+00 0. -1.
         11    1    3    3    0    0 -0.10537729287E+02 -0.61832555026E+01  0.11725397206E+02  0.16934028671E+02  0.51100000000E-03 0. -1.
        -11    1    3    3    0    0 -0.29708708434E+01  0.81995406912E+01  0.71494053501E+01  0.11277080218E+02  0.51100000000E-03 0.  1.
        -12    1    3    3    0    0  0.56611473255E+01  0.98271626536E+01  0.19221343578E+02  0.22317745491E+02  0.00000000000E+00 0.  1.
</event>
<event>
 7    1  0.4871930E-013  0.5052886E+02  0.7816164E-02  0.1300439E+00
        -11   -1    0    0    0    0  0.00000000000E+00  0.00000000000E+00  0.45593999997E+02  0.45594000000E+02  0.51100000000E-03 0.  1.
         11   -1    0    0    0    0 -0.00000000000E+00 -0.00000000000E+00 -0.45593999997E+02  0.45594000000E+02  0.51100000000E-03 0. -1.
    9900012    2    1    2    0    0  0.14222370103E+02 -0.13714581827E+02  0.35535901293E+02  0.50528857772E+02  0.29999993682E+02 0.  0.
         12    1    1    2    0    0 -0.14222370103E+02  0.13714581827E+02 -0.35535901293E+02  0.40659142228E+02  0.00000000000E+00 0. -1.
         11    1    3    3    0    0  0.82342011390E+01  0.26037880588E-01  0.52256614471E+01  0.97524501634E+01  0.51100000000E-03 0. -1.
        -11    1    3    3    0    0  0.64074479280E+01 -0.14456083348E+02  0.67357266136E+01  0.17187313577E+02  0.51100000000E-03 0.  1.
        -12    1    3    3    0    0 -0.41927896419E+00  0.71546364029E+00  0.23574513233E+02  0.23589094031E+02  0.00000000000E+00 0.  1.
</event>
<event>
 7    1  0.4871930E-013  0.5052886E+02  0.7816164E-02  0.1300439E+00
        -11   -1    0    0    0    0  0.00000000000E+00  0.00000000000E+00  0.45593999997E+02  0.45594000000E+02  0.51100000000E-03 0.  1.
         11   -1    0    0    0    0 -0.00000000000E+00 -0.00000000000E+00 -0.45593999997E+02  0.45594000000E+02  0.51100000000E-03 0. -1.
    9900012    2    1    2    0    0 -0.39877932293E+02 -0.70269431685E+01  0.36794307500E+01  0.50528860500E+02  0.30000001974E+02 0.  0.
         12    1    1    2    0    0  0.39877932293E+02  0.70269431685E+01 -0.36794307500E+01  0.40659139500E+02  0.00000000000E+00 0. -1.
         11    1    3    3    0    0 -0.65769864865E+01 -0.70995299614E+01 -0.54212582023E+01  0.11092795755E+02  0.51100000000E-03 0. -1.
        -11    1    3    3    0    0 -0.21431416287E+02 -0.18149684052E+01 -0.37592346545E+01  0.21834183287E+02  0.51100000000E-03 0.  1.
        -12    1    3    3    0    0 -0.11869529520E+02  0.18875551980E+01  0.12859923607E+02  0.17601881457E+02  0.00000000000E+00 0.  1.
</event>
<event>
 7    1  0.4871930E-013  0.5052885E+02  0.7816164E-02  0.1300439E+00
        -11   -1    0    0    0    0  0.00000000000E+00  0.00000000000E+00  0.45593999997E+02  0.45594000000E+02  0.51100000000E-03 0.  1.
         11   -1    0    0    0    0 -0.00000000000E+00 -0.00000000000E+00 -0.45593999997E+02  0.45594000000E+02  0.51100000000E-03 0. -1.
    9900012    2    1    2    0    0 -0.26360261687E+02 -0.30311099585E+02 -0.62880797032E+01  0.50528854650E+02  0.29999984193E+02 0.  0.
         12    1    1    2    0    0  0.26360261687E+02  0.30311099585E+02  0.62880797032E+01  0.40659145350E+02  0.00000000000E+00 0. -1.
         11    1    3    3    0    0 -0.10733178112E+02 -0.72077440470E+01  0.44075812900E+01  0.13659409201E+02  0.51100000000E-03 0. -1.
        -11    1    3    3    0    0 -0.27061508577E+01 -0.19519940321E+02  0.17440927550E-01  0.19706639161E+02  0.51100000000E-03 0.  1.
         12    1    3    3    0    0 -0.12920932717E+02 -0.35834152179E+01 -0.10713101921E+02  0.17162806287E+02  0.00000000000E+00 0. -1.
</event>
<event>
 7    1  0.4871930E-013  0.5052886E+02  0.7816164E-02  0.1300439E+00
        -11   -1    0    0    0    0  0.00000000000E+00  0.00000000000E+00  0.45593999997E+02  0.45594000000E+02  0.51100000000E-03 0.  1.
         11   -1    0    0    0    0 -0.00000000000E+00 -0.00000000000E+00 -0.45593999997E+02  0.45594000000E+02  0.51100000000E-03 0. -1.
    9900012    2    1    2    0    0  0.15587257226E+02 -0.18755875031E+02  0.32533369423E+02  0.50528861273E+02  0.30000004325E+02 0.  0.
         12    1    1    2    0    0 -0.15587257226E+02  0.18755875031E+02 -0.32533369423E+02  0.40659138727E+02  0.00000000000E+00 0. -1.
         11    1    3    3    0    0  0.12972518030E+01  0.32734905132E+01 -0.30166552249E+01  0.46366810745E+01  0.51100000000E-03 0. -1.
        -11    1    3    3    0    0 -0.23819649136E+00  0.65295953428E+00 -0.52451513199E+00  0.87075260936E+00  0.51100000000E-03 0.  1.
        -12    1    3    3    0    0  0.14528201914E+02 -0.22682325078E+02  0.36074539780E+02  0.45021427589E+02  0.00000000000E+00 0.  1.
</event>
<event>
 7    1  0.4871930E-013  0.5052888E+02  0.7816164E-02  0.1300439E+00
        -11   -1    0    0    0    0  0.00000000000E+00  0.00000000000E+00  0.45593999997E+02  0.45594000000E+02  0.51100000000E-03 0. -1.
         11   -1    0    0    0    0 -0.00000000000E+00 -0.00000000000E+00 -0.45593999997E+02  0.45594000000E+02  0.51100000000E-03 0.  1.
    9900012    2    1    2    0    0 -0.23282003675E+02  0.13376559630E+02 -0.30531628917E+02  0.50528875477E+02  0.30000047498E+02 0.  0.
         12    1    1    2    0    0  0.23282003675E+02 -0.13376559630E+02  0.30531628917E+02  0.40659124523E+02  0.00000000000E+00 0. -1.
         11    1    3    3    0    0 -0.16126346203E+02  0.35624424382E+00 -0.46584502452E+01  0.16789494059E+02  0.51100000000E-03 0. -1.
        -11    1    3    3    0    0 -0.93258284389E+01  0.16239455016E+01 -0.15579067594E+02  0.18229526117E+02  0.51100000000E-03 0.  1.
        -12    1    3    3    0    0  0.21701709666E+01  0.11396369884E+02 -0.10294111078E+02  0.15509855301E+02  0.00000000000E+00 0.  1.
</event>
<event>
 7    1  0.4871930E-013  0.5052886E+02  0.7816164E-02  0.1300439E+00
        -11   -1    0    0    0    0  0.00000000000E+00  0.00000000000E+00  0.45593999997E+02  0.45594000000E+02  0.51100000000E-03 0.  1.
         11   -1    0    0    0    0 -0.00000000000E+00 -0.00000000000E+00 -0.45593999997E+02  0.45594000000E+02  0.51100000000E-03 0. -1.
    9900012    2    1    2    0    0  0.23147437393E+02 -0.32108394323E+01  0.33272396902E+02  0.50528859043E+02  0.29999997548E+02 0.  0.
         12    1    1    2    0    0 -0.23147437393E+02  0.32108394323E+01 -0.33272396902E+02  0.40659140957E+02  0.00000000000E+00 0. -1.
         11    1    3    3    0    0  0.85116680974E+01 -0.10802127160E+02  0.12497050220E+02  0.18582537756E+02  0.51100000000E-03 0. -1.
        -11    1    3    3    0    0 -0.31527865769E+01  0.32639703028E+00 -0.57640038987E+00  0.32216200725E+01  0.51100000000E-03 0.  1.
        -12    1    3    3    0    0  0.17788555873E+02  0.72648906974E+01  0.21351747072E+02  0.28724701215E+02  0.00000000000E+00 0.  1.
</event>
<event>
 7    1  0.4871930E-013  0.5052885E+02  0.7816164E-02  0.1300439E+00
        -11   -1    0    0    0    0  0.00000000000E+00  0.00000000000E+00  0.45593999997E+02  0.45594000000E+02  0.51100000000E-03 0. -1.
         11   -1    0    0    0    0 -0.00000000000E+00 -0.00000000000E+00 -0.45593999997E+02  0.45594000000E+02  0.51100000000E-03 0.  1.
    9900012    2    1    2    0    0 -0.20033190569E+02 -0.97872480027E+01 -0.34000699686E+02  0.50528849407E+02  0.29999968256E+02 0.  0.
         12    1    1    2    0    0  0.20033190569E+02  0.97872480027E+01  0.34000699686E+02  0.40659150593E+02  0.00000000000E+00 0. -1.
         11    1    3    3    0    0 -0.10423432422E+02  0.58721865755E+01 -0.80458751078E+01  0.14417580419E+02  0.51100000000E-03 0. -1.
        -11    1    3    3    0    0 -0.43433119407E+01 -0.37123067353E+01 -0.21607476545E+02  0.22350136975E+02  0.51100000000E-03 0.  1.
         12    1    3    3    0    0 -0.52664462056E+01 -0.11947127843E+02 -0.43473480336E+01  0.13761132012E+02  0.00000000000E+00 0. -1.
</event>
<event>
 7    1  0.4871930E-013  0.5052887E+02  0.7816164E-02  0.1300439E+00
        -11   -1    0    0    0    0  0.00000000000E+00  0.00000000000E+00  0.45593999997E+02  0.45594000000E+02  0.51100000000E-03 0. -1.
         11   -1    0    0    0    0 -0.00000000000E+00 -0.00000000000E+00 -0.45593999997E+02  0.45594000000E+02  0.51100000000E-03 0.  1.
    9900012    2    1    2    0    0  0.20993160904E+02 -0.94864500686E+01 -0.33503124398E+02  0.50528869610E+02  0.30000029666E+02 0.  0.
         12    1    1    2    0    0 -0.20993160904E+02  0.94864500686E+01  0.33503124398E+02  0.40659130390E+02  0.00000000000E+00 0. -1.
         11    1    3    3    0    0  0.91640028328E+01  0.22166109994E+01 -0.27884171408E+02  0.29435001743E+02  0.51100000000E-03 0. -1.
        -11    1    3    3    0    0 -0.14488415809E+01 -0.51002364217E+01 -0.20048227991E+00  0.53058219805E+01  0.51100000000E-03 0.  1.
        -12    1    3    3    0    0  0.13277999652E+02 -0.66028246463E+01 -0.54184707106E+01  0.15788045886E+02  0.00000000000E+00 0.  1.
</event>
<event>
 7    1  0.4871930E-013  0.5052886E+02  0.7816164E-02  0.1300439E+00
        -11   -1    0    0    0    0  0.00000000000E+00  0.00000000000E+00  0.45593999997E+02  0.45594000000E+02  0.51100000000E-03 0.  1.
         11   -1    0    0    0    0 -0.00000000000E+00 -0.00000000000E+00 -0.45593999997E+02  0.45594000000E+02  0.51100000000E-03 0. -1.
    9900012    2    1    2    0    0  0.26641969153E+02  0.30614732269E+02  0.24717242788E+01  0.50528858676E+02  0.29999996433E+02 0.  0.
         12    1    1    2    0    0 -0.26641969153E+02 -0.30614732269E+02 -0.24717242788E+01  0.40659141324E+02  0.00000000000E+00 0. -1.
         11    1    3    3    0    0  0.50010769529E+01  0.10213825502E+02 -0.52285997957E+01  0.12516838984E+02  0.51100000000E-03 0. -1.
        -11    1    3    3    0    0  0.15635714301E+02  0.20869650417E+02  0.13745612450E+02  0.29478122941E+02  0.51100000000E-03 0.  1.
         12    1    3    3    0    0  0.60051778996E+01 -0.46874364997E+00 -0.60452883757E+01  0.85338967512E+01  0.00000000000E+00 0. -1.
</event>
<event>
 7    1  0.4871930E-013  0.5052888E+02  0.7816164E-02  0.1300439E+00
        -11   -1    0    0    0    0  0.00000000000E+00  0.00000000000E+00  0.45593999997E+02  0.45594000000E+02  0.51100000000E-03 0.  1.
         11   -1    0    0    0    0 -0.00000000000E+00 -0.00000000000E+00 -0.45593999997E+02  0.45594000000E+02  0.51100000000E-03 0. -1.
    9900012    2    1    2    0    0  0.26120496083E+01  0.42747517255E+01  0.40349321677E+02  0.50528879679E+02  0.30000060272E+02 0.  0.
         12    1    1    2    0    0 -0.26120496083E+01 -0.42747517255E+01 -0.40349321677E+02  0.40659120321E+02  0.00000000000E+00 0. -1.
         11    1    3    3    0    0  0.51823750974E+01 -0.66649136755E+01  0.14130712718E+02  0.16460714691E+02  0.51100000000E-03 0. -1.
        -11    1    3    3    0    0 -0.19851939436E+01  0.56120682858E+01  0.27839474424E+02  0.28468801202E+02  0.51100000000E-03 0.  1.
         12    1    3    3    0    0 -0.58513154553E+00  0.53275971152E+01 -0.16208654649E+01  0.55993637855E+01  0.00000000000E+00 0. -1.
</event>
<event>
 7    1  0.4871930E-013  0.5052886E+02  0.7816164E-02  0.1300439E+00
        -11   -1    0    0    0    0  0.00000000000E+00  0.00000000000E+00  0.45593999997E+02  0.45594000000E+02  0.51100000000E-03 0.  1.
         11   -1    0    0    0    0 -0.00000000000E+00 -0.00000000000E+00 -0.45593999997E+02  0.45594000000E+02  0.51100000000E-03 0. -1.
    9900012    2    1    2    0    0  0.32929454490E+02 -0.20699867360E+02  0.11846177661E+02  0.50528863181E+02  0.30000010124E+02 0.  0.
         12    1    1    2    0    0 -0.32929454490E+02  0.20699867360E+02 -0.11846177661E+02  0.40659136819E+02  0.00000000000E+00 0. -1.
         11    1    3    3    0    0  0.11962575983E+02 -0.46850397123E+01  0.10073779525E+02  0.16325864615E+02  0.51100000000E-03 0. -1.
        -11    1    3    3    0    0 -0.21750523564E+01 -0.85161686684E+01  0.42267025910E+01  0.97529993641E+01  0.51100000000E-03 0.  1.
         12    1    3    3    0    0  0.23141930864E+02 -0.74986589796E+01 -0.24543044557E+01  0.24449999201E+02  0.00000000000E+00 0. -1.
</event>
<event>
 7    1  0.4871930E-013  0.5052887E+02  0.7816164E-02  0.1300439E+00
        -11   -1    0    0    0    0  0.00000000000E+00  0.00000000000E+00  0.45593999997E+02  0.45594000000E+02  0.51100000000E-03 0.  1.
         11   -1    0    0    0    0 -0.00000000000E+00 -0.00000000000E+00 -0.45593999997E+02  0.45594000000E+02  0.51100000000E-03 0. -1.
    9900012    2    1    2    0    0 -0.46543147967E+00 -0.56079693112E+01  0.40267841666E+02  0.50528867955E+02  0.30000024635E+02 0.  0.
         12    1    1    2    0    0  0.46543147967E+00  0.56079693112E+01 -0.40267841666E+02  0.40659132045E+02  0.00000000000E+00 0. -1.
         11    1    3    3    0    0  0.32850348637E+01 -0.35309497543E+01  0.29686605152E+01  0.56632151415E+01  0.51100000000E-03 0. -1.
        -11    1    3    3    0    0  0.31737400319E+01  0.96645433100E+01  0.95664868539E+01  0.13964014257E+02  0.51100000000E-03 0.  1.
         12    1    3    3    0    0 -0.69242063753E+01 -0.11741562867E+02  0.27732694297E+02  0.30901638556E+02  0.00000000000E+00 0. -1.
</event>
<event>
 7    1  0.4871930E-013  0.5052885E+02  0.7816164E-02  0.1300439E+00
        -11   -1    0    0    0    0  0.00000000000E+00  0.00000000000E+00  0.45593999997E+02  0.45594000000E+02  0.51100000000E-03 0. -1.
         11   -1    0    0    0    0 -0.00000000000E+00 -0.00000000000E+00 -0.45593999997E+02  0.45594000000E+02  0.51100000000E-03 0.  1.
    9900012    2    1    2    0    0 -0.38071204865E+02  0.11184573753E+02  0.88687853610E+01  0.50528847480E+02  0.29999962399E+02 0.  0.
         12    1    1    2    0    0  0.38071204865E+02 -0.11184573753E+02 -0.88687853610E+01  0.40659152520E+02  0.00000000000E+00 0. -1.
         11    1    3    3    0    0 -0.97071122744E+00  0.11777165775E+01 -0.19931503502E+01  0.25103675436E+01  0.51100000000E-03 0. -1.
        -11    1    3    3    0    0 -0.33595401593E+02  0.10708663496E+02  0.18328807776E+02  0.39740051294E+02  0.51100000000E-03 0.  1.
        -12    1    3    3    0    0 -0.35050920444E+01 -0.70180632037E+00 -0.74668720649E+01  0.82784286422E+01  0.00000000000E+00 0.  1.
</event>
<event>
 7    1  0.4871930E-013  0.5052890E+02  0.7816164E-02  0.1300439E+00
        -11   -1    0    0    0    0  0.00000000000E+00  0.00000000000E+00  0.45593999997E+02  0.45594000000E+02  0.51100000000E-03 0.  1.
         11   -1    0    0    0    0 -0.00000000000E+00 -0.00000000000E+00 -0.45593999997E+02  0.45594000000E+02  0.51100000000E-03 0. -1.
    9900012    2    1    2    0    0  0.22779341662E+02  0.14997898381E+02  0.30155052016E+02  0.50528898627E+02  0.30000117866E+02 0.  0.
         12    1    1    2    0    0 -0.22779341662E+02 -0.14997898381E+02 -0.30155052016E+02  0.40659101373E+02  0.00000000000E+00 0. -1.
         11    1    3    3    0    0  0.12174468102E+02 -0.26351479961E+01  0.54182368401E+01  0.13583775957E+02  0.51100000000E-03 0. -1.
        -11    1    3    3    0    0  0.32558426520E+00 -0.28254297507E+01  0.82629167486E+01  0.87386985213E+01  0.51100000000E-03 0.  1.
        -12    1    3    3    0    0  0.10279289295E+02  0.20458476128E+02  0.16473898427E+02  0.28206424149E+02  0.00000000000E+00 0.  1.
</event>
<event>
 7    1  0.4871930E-013  0.5052888E+02  0.7816164E-02  0.1300439E+00
        -11   -1    0    0    0    0  0.00000000000E+00  0.00000000000E+00  0.45593999997E+02  0.45594000000E+02  0.51100000000E-03 0. -1.
         11   -1    0    0    0    0 -0.00000000000E+00 -0.00000000000E+00 -0.45593999997E+02  0.45594000000E+02  0.51100000000E-03 0.  1.
    9900012    2    1    2    0    0 -0.36685654828E+02 -0.15023351467E+02 -0.90347085954E+01  0.50528876561E+02  0.30000050795E+02 0.  0.
         12    1    1    2    0    0  0.36685654828E+02  0.15023351467E+02  0.90347085954E+01  0.40659123439E+02  0.00000000000E+00 0. -1.
         11    1    3    3    0    0 -0.52969837677E+01 -0.95832806547E+01 -0.10128639498E+02  0.14915986172E+02  0.51100000000E-03 0. -1.
        -11    1    3    3    0    0 -0.82703973114E+01 -0.81075229600E+01  0.37893224176E+01  0.12185662267E+02  0.51100000000E-03 0.  1.
         12    1    3    3    0    0 -0.23118273748E+02  0.26674521475E+01 -0.26953915150E+01  0.23427228122E+02  0.00000000000E+00 0. -1.
</event>
<event>
 7    1  0.4871930E-013  0.5052886E+02  0.7816164E-02  0.1300439E+00
        -11   -1    0    0    0    0  0.00000000000E+00  0.00000000000E+00  0.45593999997E+02  0.45594000000E+02  0.51100000000E-03 0.  1.
         11   -1    0    0    0    0 -0.00000000000E+00 -0.00000000000E+00 -0.45593999997E+02  0.45594000000E+02  0.51100000000E-03 0. -1.
    9900012    2    1    2    0    0  0.16064042465E+02 -0.27684034780E+02  0.25074022855E+02  0.50528857558E+02  0.29999993033E+02 0.  0.
         12    1    1    2    0    0 -0.16064042465E+02  0.27684034780E+02 -0.25074022855E+02  0.40659142442E+02  0.00000000000E+00 0. -1.
         11    1    3    3    0    0  0.15989864678E+02 -0.12905072743E+02  0.28625494088E+01  0.20746345807E+02  0.51100000000E-03 0. -1.
        -11    1    3    3    0    0  0.43259564169E+01 -0.32681328527E+00  0.78509801335E+01  0.89698715243E+01  0.51100000000E-03 0.  1.
         12    1    3    3    0    0 -0.42517786306E+01 -0.14452148751E+02  0.14360493313E+02  0.20812640227E+02  0.00000000000E+00 0. -1.
</event>
<event>
 7    1  0.4871930E-013  0.5052887E+02  0.7816164E-02  0.1300439E+00
        -11   -1    0    0    0    0  0.00000000000E+00  0.00000000000E+00  0.45593999997E+02  0.45594000000E+02  0.51100000000E-03 0. -1.
         11   -1    0    0    0    0 -0.00000000000E+00 -0.00000000000E+00 -0.45593999997E+02  0.45594000000E+02  0.51100000000E-03 0.  1.
    9900012    2    1    2    0    0 -0.13231040855E+02 -0.36647752661E+02 -0.11620955318E+02  0.50528870401E+02  0.30000032071E+02 0.  0.
         12    1    1    2    0    0  0.13231040855E+02  0.36647752661E+02  0.11620955318E+02  0.40659129599E+02  0.00000000000E+00 0. -1.
         11    1    3    3    0    0 -0.22204497056E+01 -0.49300310476E+01 -0.11363009063E+02  0.12583861817E+02  0.51100000000E-03 0. -1.
        -11    1    3    3    0    0 -0.43167173966E+01 -0.30247082995E+02 -0.26923926492E+01  0.30671958810E+02  0.51100000000E-03 0.  1.
         12    1    3    3    0    0 -0.66938737531E+01 -0.14706386185E+01  0.24344463933E+01  0.72730497736E+01  0.00000000000E+00 0. -1.
</event>
<event>
 7    1  0.4871930E-013  0.5052886E+02  0.7816164E-02  0.1300439E+00
        -11   -1    0    0    0    0  0.00000000000E+00  0.00000000000E+00  0.45593999997E+02  0.45594000000E+02  0.51100000000E-03 0. -1.
         11   -1    0    0    0    0 -0.00000000000E+00 -0.00000000000E+00 -0.45593999997E+02  0.45594000000E+02  0.51100000000E-03 0.  1.
    9900012    2    1    2    0    0  0.59507383324E+01  0.27423653467E+02  0.29422738324E+02  0.50528860970E+02  0.30000003404E+02 0.  0.
         12    1    1    2    0    0 -0.59507383324E+01 -0.27423653467E+02 -0.29422738324E+02  0.40659139030E+02  0.00000000000E+00 0. -1.
         11    1    3    3    0    0  0.52030408398E+01  0.93953601415E+00  0.32086382888E+01  0.61846359498E+01  0.51100000000E-03 0.  1.
        -11    1    3    3    0    0 -0.96799254746E+01  0.12704675411E+02  0.20821537312E+02  0.26242068340E+02  0.51100000000E-03 0. -1.
         12    1    3    3    0    0  0.10427622967E+02  0.13779442042E+02  0.53925627234E+01  0.18102156680E+02  0.00000000000E+00 0. -1.
</event>
<event>
 7    1  0.4871930E-013  0.5052891E+02  0.7816164E-02  0.1300439E+00
        -11   -1    0    0    0    0  0.00000000000E+00  0.00000000000E+00  0.45593999997E+02  0.45594000000E+02  0.51100000000E-03 0. -1.
         11   -1    0    0    0    0 -0.00000000000E+00 -0.00000000000E+00 -0.45593999997E+02  0.45594000000E+02  0.51100000000E-03 0.  1.
    9900012    2    1    2    0    0 -0.26084545089E+02  0.29883057923E+02 -0.89309161861E+01  0.50528906217E+02  0.30000140938E+02 0.  0.
         12    1    1    2    0    0  0.26084545089E+02 -0.29883057923E+02  0.89309161861E+01  0.40659093783E+02  0.00000000000E+00 0. -1.
         11    1    3    3    0    0  0.28698643286E+01  0.67478195286E+01  0.26978900085E+00  0.73377091807E+01  0.51100000000E-03 0. -1.
        -11    1    3    3    0    0 -0.10407253795E+02  0.14878729321E+02 -0.13264828098E+02  0.22486511123E+02  0.51100000000E-03 0.  1.
         12    1    3    3    0    0 -0.18547155622E+02  0.82565090731E+01  0.40641229108E+01  0.20704685913E+02  0.00000000000E+00 0. -1.
</event>
<event>
 7    1  0.4871930E-013  0.5052888E+02  0.7816164E-02  0.1300439E+00
        -11   -1    0    0    0    0  0.00000000000E+00  0.00000000000E+00  0.45593999997E+02  0.45594000000E+02  0.51100000000E-03 0. -1.
         11   -1    0    0    0    0 -0.00000000000E+00 -0.00000000000E+00 -0.45593999997E+02  0.45594000000E+02  0.51100000000E-03 0.  1.
    9900012    2    1    2    0    0  0.16171603192E+02 -0.22306271219E+02 -0.29901056352E+02  0.50528884706E+02  0.30000075551E+02 0.  0.
         12    1    1    2    0    0 -0.16171603192E+02  0.22306271219E+02  0.29901056352E+02  0.40659115294E+02  0.00000000000E+00 0. -1.
         11    1    3    3    0    0  0.86067402736E+01 -0.11652991419E+02 -0.38982940446E+01  0.15002162640E+02  0.51100000000E-03 0. -1.
        -11    1    3    3    0    0  0.11367134180E+02 -0.14694422840E+02 -0.21198916239E+02  0.28187441389E+02  0.51100000000E-03 0.  1.
        -12    1    3    3    0    0 -0.38022712609E+01  0.40411430398E+01 -0.48038460686E+01  0.73392806773E+01  0.00000000000E+00 0.  1.
</event>
<event>
 7    1  0.4871930E-013  0.5052887E+02  0.7816164E-02  0.1300439E+00
        -11   -1    0    0    0    0  0.00000000000E+00  0.00000000000E+00  0.45593999997E+02  0.45594000000E+02  0.51100000000E-03 0.  1.
         11   -1    0    0    0    0 -0.00000000000E+00 -0.00000000000E+00 -0.45593999997E+02  0.45594000000E+02  0.51100000000E-03 0. -1.
    9900012    2    1    2    0    0  0.57379523116E+01 -0.27417020196E+02  0.29471133449E+02  0.50528870645E+02  0.30000032812E+02 0.  0.
         12    1    1    2    0    0 -0.57379523116E+01  0.27417020196E+02 -0.29471133449E+02  0.40659129355E+02  0.00000000000E+00 0. -1.
         11    1    3    3    0    0 -0.43556121913E+01 -0.93025907472E+01  0.65561552026E+01  0.12185759044E+02  0.51100000000E-03 0. -1.
        -11    1    3    3    0    0 -0.33070747940E+01  0.43859577251E+00  0.12964915317E+02  0.13387237930E+02  0.51100000000E-03 0.  1.
        -12    1    3    3    0    0  0.13400639297E+02 -0.18553025221E+02  0.99500629292E+01  0.24955873672E+02  0.00000000000E+00 0.  1.
</event>
<event>
 7    1  0.4871930E-013  0.5052886E+02  0.7816164E-02  0.1300439E+00
        -11   -1    0    0    0    0  0.00000000000E+00  0.00000000000E+00  0.45593999997E+02  0.45594000000E+02  0.51100000000E-03 0.  1.
         11   -1    0    0    0    0 -0.00000000000E+00 -0.00000000000E+00 -0.45593999997E+02  0.45594000000E+02  0.51100000000E-03 0. -1.
    9900012    2    1    2    0    0  0.37288043205E+02  0.49188473736E+00 -0.16202636889E+02  0.50528861313E+02  0.30000004446E+02 0.  0.
         12    1    1    2    0    0 -0.37288043205E+02 -0.49188473736E+00  0.16202636889E+02  0.40659138687E+02  0.00000000000E+00 0. -1.
         11    1    3    3    0    0  0.13889695164E+01 -0.16543684042E+00 -0.91782150168E+01  0.92841928471E+01  0.51100000000E-03 0. -1.
        -11    1    3    3    0    0  0.41160505463E+01  0.64112197824E+01  0.16607942805E+01  0.77976822903E+01  0.51100000000E-03 0.  1.
         12    1    3    3    0    0  0.31783023142E+02 -0.57538982046E+01 -0.86852161522E+01  0.33446986175E+02  0.00000000000E+00 0. -1.
</event>
<event>
 7    1  0.4871930E-013  0.5052886E+02  0.7816164E-02  0.1300439E+00
        -11   -1    0    0    0    0  0.00000000000E+00  0.00000000000E+00  0.45593999997E+02  0.45594000000E+02  0.51100000000E-03 0.  1.
         11   -1    0    0    0    0 -0.00000000000E+00 -0.00000000000E+00 -0.45593999997E+02  0.45594000000E+02  0.51100000000E-03 0. -1.
    9900012    2    1    2    0    0  0.14189847575E+02  0.98410552053E+01  0.36809886304E+02  0.50528857468E+02  0.29999992759E+02 0.  0.
         12    1    1    2    0    0 -0.14189847575E+02 -0.98410552053E+01 -0.36809886304E+02  0.40659142532E+02  0.00000000000E+00 0. -1.
         11    1    3    3    0    0  0.12992553611E+02 -0.35100768237E+01  0.24986294443E+02  0.28380310057E+02  0.51100000000E-03 0. -1.
        -11    1    3    3    0    0  0.45384608919E+01  0.78590225798E+01  0.12753652625E+02  0.15653035448E+02  0.51100000000E-03 0.  1.
         12    1    3    3    0    0 -0.33411669278E+01  0.54921094492E+01 -0.93006076485E+00  0.64955119635E+01  0.00000000000E+00 0. -1.
</event>
<event>
 7    1  0.4871930E-013  0.5052886E+02  0.7816164E-02  0.1300439E+00
        -11   -1    0    0    0    0  0.00000000000E+00  0.00000000000E+00  0.45593999997E+02  0.45594000000E+02  0.51100000000E-03 0. -1.
         11   -1    0    0    0    0 -0.00000000000E+00 -0.00000000000E+00 -0.45593999997E+02  0.45594000000E+02  0.51100000000E-03 0.  1.
    9900012    2    1    2    0    0  0.30339686630E+02 -0.24071925389E+02 -0.12377866218E+02  0.50528858975E+02  0.29999997342E+02 0.  0.
         12    1    1    2    0    0 -0.30339686630E+02  0.24071925389E+02  0.12377866218E+02  0.40659141025E+02  0.00000000000E+00 0. -1.
         11    1    3    3    0    0  0.12337972959E+01  0.23648096359E+01 -0.48979294892E+01  0.55771223694E+01  0.51100000000E-03 0. -1.
        -11    1    3    3    0    0  0.40941027928E+01 -0.16690011497E+02 -0.54631553589E+01  0.18032310672E+02  0.51100000000E-03 0.  1.
        -12    1    3    3    0    0  0.25011786541E+02 -0.97467235279E+01 -0.20167813700E+01  0.26919425934E+02  0.00000000000E+00 0.  1.
</event>
<event>
 7    1  0.4871930E-013  0.5052886E+02  0.7816164E-02  0.1300439E+00
        -11   -1    0    0    0    0  0.00000000000E+00  0.00000000000E+00  0.45593999997E+02  0.45594000000E+02  0.51100000000E-03 0.  1.
         11   -1    0    0    0    0 -0.00000000000E+00 -0.00000000000E+00 -0.45593999997E+02  0.45594000000E+02  0.51100000000E-03 0. -1.
    9900012    2    1    2    0    0  0.14010548958E+02  0.17997696195E+00  0.38168543985E+02  0.50528860514E+02  0.30000002018E+02 0.  0.
         12    1    1    2    0    0 -0.14010548958E+02 -0.17997696195E+00 -0.38168543985E+02  0.40659139486E+02  0.00000000000E+00 0. -1.
         11    1    3    3    0    0 -0.35384055711E+01 -0.12167774349E+01 -0.14689907431E+01  0.40198004150E+01  0.51100000000E-03 0. -1.
        -11    1    3    3    0    0  0.12924148658E+02 -0.21116145866E+01  0.10461462655E+02  0.16761107835E+02  0.51100000000E-03 0.  1.
        -12    1    3    3    0    0  0.46248058705E+01  0.35083689834E+01  0.29176072074E+02  0.29747952264E+02  0.00000000000E+00 0.  1.
</event>
<event>
 7    1  0.4871930E-013  0.5052886E+02  0.7816164E-02  0.1300439E+00
        -11   -1    0    0    0    0  0.00000000000E+00  0.00000000000E+00  0.45593999997E+02  0.45594000000E+02  0.51100000000E-03 0.  1.
         11   -1    0    0    0    0 -0.00000000000E+00 -0.00000000000E+00 -0.45593999997E+02  0.45594000000E+02  0.51100000000E-03 0. -1.
    9900012    2    1    2    0    0 -0.12501557124E+02  0.34950781526E+02  0.16592757383E+02  0.50528860100E+02  0.30000000761E+02 0.  0.
         12    1    1    2    0    0  0.12501557124E+02 -0.34950781526E+02 -0.16592757383E+02  0.40659139900E+02  0.00000000000E+00 0. -1.
         11    1    3    3    0    0 -0.11903014194E+02  0.88612339247E+01  0.16639070268E+02  0.22294884463E+02  0.51100000000E-03 0. -1.
        -11    1    3    3    0    0 -0.54237016889E+01  0.13515130801E+02  0.16633316550E+01  0.14657488633E+02  0.51100000000E-03 0.  1.
         12    1    3    3    0    0  0.48251587587E+01  0.12574416800E+02 -0.17096445404E+01  0.13576487004E+02  0.00000000000E+00 0. -1.
</event>
<event>
 7    1  0.4871930E-013  0.5052887E+02  0.7816164E-02  0.1300439E+00
        -11   -1    0    0    0    0  0.00000000000E+00  0.00000000000E+00  0.45593999997E+02  0.45594000000E+02  0.51100000000E-03 0.  1.
         11   -1    0    0    0    0 -0.00000000000E+00 -0.00000000000E+00 -0.45593999997E+02  0.45594000000E+02  0.51100000000E-03 0. -1.
    9900012    2    1    2    0    0 -0.27785469029E+02 -0.22410228213E+02  0.19465710299E+02  0.50528874393E+02  0.30000044204E+02 0.  0.
         12    1    1    2    0    0  0.27785469029E+02  0.22410228213E+02 -0.19465710299E+02  0.40659125607E+02  0.00000000000E+00 0. -1.
         11    1    3    3    0    0  0.19534166423E+01 -0.32480678136E+01 -0.42833597416E+01  0.57195237597E+01  0.51100000000E-03 0. -1.
        -11    1    3    3    0    0 -0.16051113978E+02 -0.15612026652E+02  0.20369842447E+02  0.30270515649E+02  0.51100000000E-03 0.  1.
        -12    1    3    3    0    0 -0.13687771693E+02 -0.35501337476E+01  0.33792275933E+01  0.14538834984E+02  0.00000000000E+00 0.  1.
</event>
<event>
 7    1  0.4871930E-013  0.5052886E+02  0.7816164E-02  0.1300439E+00
        -11   -1    0    0    0    0  0.00000000000E+00  0.00000000000E+00  0.45593999997E+02  0.45594000000E+02  0.51100000000E-03 0. -1.
         11   -1    0    0    0    0 -0.00000000000E+00 -0.00000000000E+00 -0.45593999997E+02  0.45594000000E+02  0.51100000000E-03 0.  1.
    9900012    2    1    2    0    0  0.31336099366E+02 -0.17740852924E+02  0.18880580298E+02  0.50528864516E+02  0.30000014182E+02 0.  0.
         12    1    1    2    0    0 -0.31336099366E+02  0.17740852924E+02 -0.18880580298E+02  0.40659135484E+02  0.00000000000E+00 0. -1.
         11    1    3    3    0    0  0.15126827383E+02 -0.11847402139E+02  0.22636821646E+01  0.19346992049E+02  0.51100000000E-03 0. -1.
        -11    1    3    3    0    0  0.18556125907E+02 -0.89769891980E+01  0.87132275881E+01  0.22379376198E+02  0.51100000000E-03 0.  1.
         12    1    3    3    0    0 -0.23468539237E+01  0.30835384134E+01  0.79036705449E+01  0.88024962691E+01  0.00000000000E+00 0. -1.
</event>
<event>
 7    1  0.4871930E-013  0.5052891E+02  0.7816164E-02  0.1300439E+00
        -11   -1    0    0    0    0  0.00000000000E+00  0.00000000000E+00  0.45593999997E+02  0.45594000000E+02  0.51100000000E-03 0.  1.
         11   -1    0    0    0    0 -0.00000000000E+00 -0.00000000000E+00 -0.45593999997E+02  0.45594000000E+02  0.51100000000E-03 0. -1.
    9900012    2    1    2    0    0 -0.10259395619E+02  0.16382600511E+02  0.35770330307E+02  0.50528913337E+02  0.30000162579E+02 0.  0.
         12    1    1    2    0    0  0.10259395619E+02 -0.16382600511E+02 -0.35770330307E+02  0.40659086663E+02  0.00000000000E+00 0. -1.
         11    1    3    3    0    0  0.11010380311E+01  0.25174450511E+01 -0.24226338693E+01  0.36631911575E+01  0.51100000000E-03 0. -1.
        -11    1    3    3    0    0 -0.65696220907E+00 -0.51605202144E+01  0.92613842268E+01  0.10622419982E+02  0.51100000000E-03 0.  1.
        -12    1    3    3    0    0 -0.10703471441E+02  0.19025675675E+02  0.28931579950E+02  0.36243302197E+02  0.00000000000E+00 0.  1.
</event>
<event>
 7    1  0.4871930E-013  0.5052886E+02  0.7816164E-02  0.1300439E+00
        -11   -1    0    0    0    0  0.00000000000E+00  0.00000000000E+00  0.45593999997E+02  0.45594000000E+02  0.51100000000E-03 0. -1.
         11   -1    0    0    0    0 -0.00000000000E+00 -0.00000000000E+00 -0.45593999997E+02  0.45594000000E+02  0.51100000000E-03 0.  1.
    9900012    2    1    2    0    0  0.40209751374E+01  0.39651093645E+02 -0.80490931805E+01  0.50528863643E+02  0.30000011528E+02 0.  0.
         12    1    1    2    0    0 -0.40209751374E+01 -0.39651093645E+02  0.80490931805E+01  0.40659136357E+02  0.00000000000E+00 0. -1.
         11    1    3    3    0    0  0.16701374489E+01  0.88491259843E+01 -0.54972419083E+01  0.10550642570E+02  0.51100000000E-03 0. -1.
        -11    1    3    3    0    0  0.54981762250E+01  0.32919388353E+02  0.27171424923E+01  0.33485801990E+02  0.51100000000E-03 0.  1.
         12    1    3    3    0    0 -0.31473385365E+01 -0.21174206921E+01 -0.52689937645E+01  0.64924190824E+01  0.00000000000E+00 0. -1.
</event>
<event>
 7    1  0.4871930E-013  0.5052886E+02  0.7816164E-02  0.1300439E+00
        -11   -1    0    0    0    0  0.00000000000E+00  0.00000000000E+00  0.45593999997E+02  0.45594000000E+02  0.51100000000E-03 0.  1.
         11   -1    0    0    0    0 -0.00000000000E+00 -0.00000000000E+00 -0.45593999997E+02  0.45594000000E+02  0.51100000000E-03 0. -1.
    9900012    2    1    2    0    0 -0.21191579508E+02  0.20416266012E+02  0.28058124223E+02  0.50528864559E+02  0.30000014312E+02 0.  0.
         12    1    1    2    0    0  0.21191579508E+02 -0.20416266012E+02 -0.28058124223E+02  0.40659135441E+02  0.00000000000E+00 0. -1.
         11    1    3    3    0    0  0.58136994988E+01  0.48671764119E+01  0.23142233122E+01  0.79274294627E+01  0.51100000000E-03 0. -1.
        -11    1    3    3    0    0 -0.66287953424E+01  0.43980825546E+01  0.15064455608E+02  0.17035899767E+02  0.51100000000E-03 0.  1.
         12    1    3    3    0    0 -0.20376483664E+02  0.11151007046E+02  0.10679445303E+02  0.25565535328E+02  0.00000000000E+00 0. -1.
</event>
<event>
 7    1  0.4871930E-013  0.5052886E+02  0.7816164E-02  0.1300439E+00
        -11   -1    0    0    0    0  0.00000000000E+00  0.00000000000E+00  0.45593999997E+02  0.45594000000E+02  0.51100000000E-03 0. -1.
         11   -1    0    0    0    0 -0.00000000000E+00 -0.00000000000E+00 -0.45593999997E+02  0.45594000000E+02  0.51100000000E-03 0.  1.
    9900012    2    1    2    0    0  0.22319566941E+02 -0.33941342011E+02  0.17285093143E+01  0.50528861907E+02  0.30000006254E+02 0.  0.
         12    1    1    2    0    0 -0.22319566941E+02  0.33941342011E+02 -0.17285093143E+01  0.40659138093E+02  0.00000000000E+00 0. -1.
         11    1    3    3    0    0 -0.56006595147E+01 -0.10997222907E+02  0.75904304152E+00  0.12364564096E+02  0.51100000000E-03 0. -1.
        -11    1    3    3    0    0  0.45969022170E+01 -0.87605280788E+01 -0.35184348665E+01  0.10500368869E+02  0.51100000000E-03 0.  1.
         12    1    3    3    0    0  0.23323324239E+02 -0.14183591025E+02  0.44879011393E+01  0.27663928943E+02  0.00000000000E+00 0. -1.
</event>
<event>
 7    1  0.4871930E-013  0.5052886E+02  0.7816164E-02  0.1300439E+00
        -11   -1    0    0    0    0  0.00000000000E+00  0.00000000000E+00  0.45593999997E+02  0.45594000000E+02  0.51100000000E-03 0. -1.
         11   -1    0    0    0    0 -0.00000000000E+00 -0.00000000000E+00 -0.45593999997E+02  0.45594000000E+02  0.51100000000E-03 0.  1.
    9900012    2    1    2    0    0 -0.13264724135E+02  0.33859542916E+02  0.18186372840E+02  0.50528859454E+02  0.29999998798E+02 0.  0.
         12    1    1    2    0    0  0.13264724135E+02 -0.33859542916E+02 -0.18186372840E+02  0.40659140546E+02  0.00000000000E+00 0. -1.
         11    1    3    3    0    0 -0.67863630372E+01  0.14349268646E+02  0.71165558016E+01  0.17395447700E+02  0.51100000000E-03 0.  1.
        -11    1    3    3    0    0 -0.68714986628E+01  0.24883080022E+02  0.96816458294E+01  0.27570263536E+02  0.51100000000E-03 0. -1.
         12    1    3    3    0    0  0.39313756522E+00 -0.53728057518E+01  0.13881712091E+01  0.55631482182E+01  0.00000000000E+00 0. -1.
</event>
<event>
 7    1  0.4871930E-013  0.5052886E+02  0.7816164E-02  0.1300439E+00
        -11   -1    0    0    0    0  0.00000000000E+00  0.00000000000E+00  0.45593999997E+02  0.45594000000E+02  0.51100000000E-03 0.  1.
         11   -1    0    0    0    0 -0.00000000000E+00 -0.00000000000E+00 -0.45593999997E+02  0.45594000000E+02  0.51100000000E-03 0. -1.
    9900012    2    1    2    0    0 -0.23755316771E+02 -0.66277162808E+01  0.32325283986E+02  0.50528859788E+02  0.29999999812E+02 0.  0.
         12    1    1    2    0    0  0.23755316771E+02  0.66277162808E+01 -0.32325283986E+02  0.40659140212E+02  0.00000000000E+00 0. -1.
         11    1    3    3    0    0 -0.41993240335E+01  0.25209468167E+01  0.44756850916E+01  0.66348513541E+01  0.51100000000E-03 0. -1.
        -11    1    3    3    0    0  0.56268951418E+01  0.20687774378E+00  0.10498980041E+02  0.11913577527E+02  0.51100000000E-03 0.  1.
        -12    1    3    3    0    0 -0.25182887879E+02 -0.93555408413E+01  0.17350618853E+02  0.31980430907E+02  0.00000000000E+00 0.  1.
</event>
<event>
 7    1  0.4871930E-013  0.5052886E+02  0.7816164E-02  0.1300439E+00
        -11   -1    0    0    0    0  0.00000000000E+00  0.00000000000E+00  0.45593999997E+02  0.45594000000E+02  0.51100000000E-03 0.  1.
         11   -1    0    0    0    0 -0.00000000000E+00 -0.00000000000E+00 -0.45593999997E+02  0.45594000000E+02  0.51100000000E-03 0. -1.
    9900012    2    1    2    0    0  0.17979792309E+02  0.13443300723E+02  0.33899415268E+02  0.50528860544E+02  0.30000002110E+02 0.  0.
         12    1    1    2    0    0 -0.17979792309E+02 -0.13443300723E+02 -0.33899415268E+02  0.40659139456E+02  0.00000000000E+00 0. -1.
         11    1    3    3    0    0 -0.17393690461E+01  0.66299556861E+01  0.47514803424E+01  0.83401608368E+01  0.51100000000E-03 0. -1.
        -11    1    3    3    0    0  0.65785825006E+01  0.65101082753E+01  0.27409798714E+02  0.28930197429E+02  0.51100000000E-03 0.  1.
        -12    1    3    3    0    0  0.13140578855E+02  0.30323676136E+00  0.17381362111E+01  0.13258502278E+02  0.00000000000E+00 0.  1.
</event>
<event>
 7    1  0.4871930E-013  0.5052895E+02  0.7816164E-02  0.1300438E+00
        -11   -1    0    0    0    0  0.00000000000E+00  0.00000000000E+00  0.45593999997E+02  0.45594000000E+02  0.51100000000E-03 0.  1.
         11   -1    0    0    0    0 -0.00000000000E+00 -0.00000000000E+00 -0.45593999997E+02  0.45594000000E+02  0.51100000000E-03 0. -1.
    9900012    2    1    2    0    0  0.95503517070E+01 -0.57683996695E+01  0.39098271819E+02  0.50528947973E+02  0.30000267858E+02 0.  0.
         12    1    1    2    0    0 -0.95503517070E+01  0.57683996695E+01 -0.39098271819E+02  0.40659052027E+02  0.00000000000E+00 0. -1.
         11    1    3    3    0    0  0.23364105934E+01 -0.13975332608E+02  0.29344700238E+02  0.32586502855E+02  0.51100000000E-03 0. -1.
        -11    1    3    3    0    0  0.39607945447E+01  0.70828514262E+00 -0.12697690629E+01  0.42192268252E+01  0.51100000000E-03 0.  1.
        -12    1    3    3    0    0  0.32531465689E+01  0.74986477962E+01  0.11023340644E+02  0.13723218293E+02  0.00000000000E+00 0.  1.
</event>
<event>
 7    1  0.4871930E-013  0.5052886E+02  0.7816164E-02  0.1300439E+00
        -11   -1    0    0    0    0  0.00000000000E+00  0.00000000000E+00  0.45593999997E+02  0.45594000000E+02  0.51100000000E-03 0. -1.
         11   -1    0    0    0    0 -0.00000000000E+00 -0.00000000000E+00 -0.45593999997E+02  0.45594000000E+02  0.51100000000E-03 0.  1.
    9900012    2    1    2    0    0 -0.23984384044E+02  0.30107824817E+02  0.13093281645E+02  0.50528858133E+02  0.29999994780E+02 0.  0.
         12    1    1    2    0    0  0.23984384044E+02 -0.30107824817E+02 -0.13093281645E+02  0.40659141867E+02  0.00000000000E+00 0. -1.
         11    1    3    3    0    0 -0.15995519771E+02  0.14327476143E+02 -0.90356402458E+00  0.21493014065E+02  0.51100000000E-03 0.  1.
        -11    1    3    3    0    0  0.31497136200E+01  0.96332745243E+01  0.18926193310E-01  0.10135138500E+02  0.51100000000E-03 0. -1.
         12    1    3    3    0    0 -0.11138577892E+02  0.61470741489E+01  0.13977919477E+02  0.18900705568E+02  0.00000000000E+00 0. -1.
</event>
<event>
 7    1  0.4871930E-013  0.5052886E+02  0.7816164E-02  0.1300439E+00
        -11   -1    0    0    0    0  0.00000000000E+00  0.00000000000E+00  0.45593999997E+02  0.45594000000E+02  0.51100000000E-03 0.  1.
         11   -1    0    0    0    0 -0.00000000000E+00 -0.00000000000E+00 -0.45593999997E+02  0.45594000000E+02  0.51100000000E-03 0. -1.
    9900012    2    1    2    0    0  0.23625679531E+02 -0.31277057314E+02  0.10804578413E+02  0.50528856352E+02  0.29999989367E+02 0.  0.
         12    1    1    2    0    0 -0.23625679531E+02  0.31277057314E+02 -0.10804578413E+02  0.40659143648E+02  0.00000000000E+00 0. -1.
         11    1    3    3    0    0  0.22639303383E+02 -0.98581891675E+01  0.52631955247E+01  0.25247241012E+02  0.51100000000E-03 0. -1.
        -11    1    3    3    0    0  0.32112912637E+01 -0.43469071913E+01  0.59792171195E+01  0.80597165790E+01  0.51100000000E-03 0.  1.
         12    1    3    3    0    0 -0.22249151153E+01 -0.17071960955E+02 -0.43783423117E+00  0.17221898761E+02  0.00000000000E+00 0. -1.
</event>
<event>
 7    1  0.4871930E-013  0.5052886E+02  0.7816164E-02  0.1300439E+00
        -11   -1    0    0    0    0  0.00000000000E+00  0.00000000000E+00  0.45593999997E+02  0.45594000000E+02  0.51100000000E-03 0.  1.
         11   -1    0    0    0    0 -0.00000000000E+00 -0.00000000000E+00 -0.45593999997E+02  0.45594000000E+02  0.51100000000E-03 0. -1.
    9900012    2    1    2    0    0 -0.22754817042E+02  0.20647370498E+02  0.26628363345E+02  0.50528863985E+02  0.30000012568E+02 0.  0.
         12    1    1    2    0    0  0.22754817042E+02 -0.20647370498E+02 -0.26628363345E+02  0.40659136015E+02  0.00000000000E+00 0. -1.
         11    1    3    3    0    0 -0.38332661268E+00 -0.56062947947E+00 -0.12360768783E+01  0.14103655609E+01  0.51100000000E-03 0. -1.
        -11    1    3    3    0    0 -0.27118165342E+02  0.15972500882E+02  0.27889349028E+02  0.42051533449E+02  0.51100000000E-03 0.  1.
        -12    1    3    3    0    0  0.47466749132E+01  0.52354990949E+01 -0.24908804465E-01  0.70669649747E+01  0.00000000000E+00 0.  1.
</event>
<event>
 7    1  0.4871930E-013  0.5052888E+02  0.7816164E-02  0.1300439E+00
        -11   -1    0    0    0    0  0.00000000000E+00  0.00000000000E+00  0.45593999997E+02  0.45594000000E+02  0.51100000000E-03 0.  1.
         11   -1    0    0    0    0 -0.00000000000E+00 -0.00000000000E+00 -0.45593999997E+02  0.45594000000E+02  0.51100000000E-03 0. -1.
    9900012    2    1    2    0    0  0.16481520158E+02  0.12704126928E+02  0.34930341596E+02  0.50528879108E+02  0.30000058536E+02 0.  0.
         12    1    1    2    0    0 -0.16481520158E+02 -0.12704126928E+02 -0.34930341596E+02  0.40659120892E+02  0.00000000000E+00 0. -1.
         11    1    3    3    0    0  0.81457166258E+01  0.83280357155E+01  0.14175342686E+02  0.18348003127E+02  0.51100000000E-03 0. -1.
        -11    1    3    3    0    0  0.41424588261E+01 -0.34342589510E+01  0.22509795804E+02  0.23144005856E+02  0.51100000000E-03 0.  1.
         12    1    3    3    0    0  0.41933447062E+01  0.78103501636E+01 -0.17547968945E+01  0.90368701243E+01  0.00000000000E+00 0. -1.
</event>
<event>
 7    1  0.4871930E-013  0.5052885E+02  0.7816164E-02  0.1300439E+00
        -11   -1    0    0    0    0  0.00000000000E+00  0.00000000000E+00  0.45593999997E+02  0.45594000000E+02  0.51100000000E-03 0.  1.
         11   -1    0    0    0    0 -0.00000000000E+00 -0.00000000000E+00 -0.45593999997E+02  0.45594000000E+02  0.51100000000E-03 0. -1.
    9900012    2    1    2    0    0 -0.51990376386E+01  0.17860741239E+02  0.36154257559E+02  0.50528850850E+02  0.29999972643E+02 0.  0.
         12    1    1    2    0    0  0.51990376386E+01 -0.17860741239E+02 -0.36154257559E+02  0.40659149150E+02  0.00000000000E+00 0. -1.
         11    1    3    3    0    0  0.83095758371E+01  0.12969802012E+02  0.15786206947E+02  0.22056045540E+02  0.51100000000E-03 0. -1.
        -11    1    3    3    0    0 -0.25776997611E+01  0.51250698207E+01  0.15456620453E+02  0.16486903676E+02  0.51100000000E-03 0.  1.
         12    1    3    3    0    0 -0.10930913715E+02 -0.23413059374E+00  0.49114301587E+01  0.11985901634E+02  0.00000000000E+00 0. -1.
</event>
<event>
 7    1  0.4871930E-013  0.5052886E+02  0.7816164E-02  0.1300439E+00
        -11   -1    0    0    0    0  0.00000000000E+00  0.00000000000E+00  0.45593999997E+02  0.45594000000E+02  0.51100000000E-03 0.  1.
         11   -1    0    0    0    0 -0.00000000000E+00 -0.00000000000E+00 -0.45593999997E+02  0.45594000000E+02  0.51100000000E-03 0. -1.
    9900012    2    1    2    0    0 -0.27297453788E+02 -0.23039778263E+01  0.30045077576E+02  0.50528856088E+02  0.29999988566E+02 0.  0.
         12    1    1    2    0    0  0.27297453788E+02  0.23039778263E+01 -0.30045077576E+02  0.40659143912E+02  0.00000000000E+00 0. -1.
         11    1    3    3    0    0 -0.12907094417E+02 -0.72577065641E+01  0.35931022359E+01  0.15237380838E+02  0.51100000000E-03 0. -1.
        -11    1    3    3    0    0 -0.12702884318E+02 -0.30568714254E+01  0.85719166242E+01  0.15626435543E+02  0.51100000000E-03 0.  1.
         12    1    3    3    0    0 -0.16874750531E+01  0.80106001632E+01  0.17880058716E+02  0.19665039708E+02  0.00000000000E+00 0. -1.
</event>
<event>
 7    1  0.4871930E-013  0.5052888E+02  0.7816164E-02  0.1300439E+00
        -11   -1    0    0    0    0  0.00000000000E+00  0.00000000000E+00  0.45593999997E+02  0.45594000000E+02  0.51100000000E-03 0. -1.
         11   -1    0    0    0    0 -0.00000000000E+00 -0.00000000000E+00 -0.45593999997E+02  0.45594000000E+02  0.51100000000E-03 0.  1.
    9900012    2    1    2    0    0  0.22830312929E+02 -0.11221483805E+02 -0.31717806248E+02  0.50528879001E+02  0.30000058211E+02 0.  0.
         12    1    1    2    0    0 -0.22830312929E+02  0.11221483805E+02  0.31717806248E+02  0.40659120999E+02  0.00000000000E+00 0. -1.
         11    1    3    3    0    0 -0.54464889234E+01  0.12385238429E+01 -0.21080327089E+01  0.59700908757E+01  0.51100000000E-03 0. -1.
        -11    1    3    3    0    0  0.10682947839E+02  0.13692008488E+01 -0.11641178476E+02  0.15859291348E+02  0.51100000000E-03 0.  1.
         12    1    3    3    0    0  0.17593854013E+02 -0.13829208497E+02 -0.17968595063E+02  0.28699496777E+02  0.00000000000E+00 0. -1.
</event>
<event>
 7    1  0.4871930E-013  0.5052886E+02  0.7816164E-02  0.1300439E+00
        -11   -1    0    0    0    0  0.00000000000E+00  0.00000000000E+00  0.45593999997E+02  0.45594000000E+02  0.51100000000E-03 0.  1.
         11   -1    0    0    0    0 -0.00000000000E+00 -0.00000000000E+00 -0.45593999997E+02  0.45594000000E+02  0.51100000000E-03 0. -1.
    9900012    2    1    2    0    0 -0.20731185551E+02 -0.28145470808E+01  0.34863477583E+02  0.50528858361E+02  0.29999995475E+02 0.  0.
         12    1    1    2    0    0  0.20731185551E+02  0.28145470808E+01 -0.34863477583E+02  0.40659141639E+02  0.00000000000E+00 0. -1.
         11    1    3    3    0    0  0.36181937869E+01 -0.13922941764E+00  0.12072511127E+02  0.12603818321E+02  0.51100000000E-03 0. -1.
        -11    1    3    3    0    0  0.16535774983E+01 -0.46206367348E+00 -0.14944947624E+01  0.22762548708E+01  0.51100000000E-03 0.  1.
        -12    1    3    3    0    0 -0.26002956836E+02 -0.22132539896E+01  0.24285461219E+02  0.35648785169E+02  0.00000000000E+00 0.  1.
</event>
<event>
 7    1  0.4871930E-013  0.5052895E+02  0.7816164E-02  0.1300438E+00
        -11   -1    0    0    0    0  0.00000000000E+00  0.00000000000E+00  0.45593999997E+02  0.45594000000E+02  0.51100000000E-03 0. -1.
         11   -1    0    0    0    0 -0.00000000000E+00 -0.00000000000E+00 -0.45593999997E+02  0.45594000000E+02  0.51100000000E-03 0.  1.
    9900012    2    1    2    0    0  0.12922295343E+02 -0.14015905256E+02 -0.35912772640E+02  0.50528947432E+02  0.30000266212E+02 0.  0.
         12    1    1    2    0    0 -0.12922295343E+02  0.14015905256E+02  0.35912772640E+02  0.40659052568E+02  0.00000000000E+00 0. -1.
         11    1    3    3    0    0  0.82656552398E+01 -0.84197817393E+01 -0.18142113790E+02  0.21641397231E+02  0.51100000000E-03 0. -1.
        -11    1    3    3    0    0 -0.43518873582E+01 -0.11288004417E+02 -0.10065834291E+02  0.15737820291E+02  0.51100000000E-03 0.  1.
         12    1    3    3    0    0  0.90085274615E+01  0.56918809002E+01 -0.77048245583E+01  0.13149729909E+02  0.00000000000E+00 0. -1.
</event>
<event>
 7    1  0.4871930E-013  0.5052885E+02  0.7816164E-02  0.1300439E+00
        -11   -1    0    0    0    0  0.00000000000E+00  0.00000000000E+00  0.45593999997E+02  0.45594000000E+02  0.51100000000E-03 0.  1.
         11   -1    0    0    0    0 -0.00000000000E+00 -0.00000000000E+00 -0.45593999997E+02  0.45594000000E+02  0.51100000000E-03 0. -1.
    9900012    2    1    2    0    0  0.21890960400E+01  0.40512232977E+02 -0.26707575540E+01  0.50528854557E+02  0.29999983912E+02 0.  0.
         12    1    1    2    0    0 -0.21890960400E+01 -0.40512232977E+02  0.26707575540E+01  0.40659145443E+02  0.00000000000E+00 0. -1.
         11    1    3    3    0    0 -0.14302001193E+01  0.16251595246E+02 -0.14592902659E+02  0.21888641545E+02  0.51100000000E-03 0. -1.
        -11    1    3    3    0    0  0.47645323596E+01  0.17581815155E+02  0.48605705493E+01  0.18853279266E+02  0.51100000000E-03 0.  1.
        -12    1    3    3    0    0 -0.11452362003E+01  0.66788225763E+01  0.70615745555E+01  0.97869337467E+01  0.00000000000E+00 0.  1.
</event>
<event>
 7    1  0.4871930E-013  0.5052886E+02  0.7816164E-02  0.1300439E+00
        -11   -1    0    0    0    0  0.00000000000E+00  0.00000000000E+00  0.45593999997E+02  0.45594000000E+02  0.51100000000E-03 0.  1.
         11   -1    0    0    0    0 -0.00000000000E+00 -0.00000000000E+00 -0.45593999997E+02  0.45594000000E+02  0.51100000000E-03 0. -1.
    9900012    2    1    2    0    0  0.38589903081E+01 -0.35976127101E+02  0.18547030146E+02  0.50528857675E+02  0.29999993389E+02 0.  0.
         12    1    1    2    0    0 -0.38589903081E+01  0.35976127101E+02 -0.18547030146E+02  0.40659142325E+02  0.00000000000E+00 0. -1.
         11    1    3    3    0    0  0.63254074390E+01 -0.12057381786E+02 -0.24314305244E+01  0.13831236006E+02  0.51100000000E-03 0. -1.
        -11    1    3    3    0    0  0.29284311754E+01 -0.24244761224E+02  0.15100313298E+02  0.28712429676E+02  0.51100000000E-03 0.  1.
        -12    1    3    3    0    0 -0.53948483062E+01  0.32601590938E+00  0.58781473731E+01  0.79851919927E+01  0.00000000000E+00 0.  1.
</event>
<event>
 7    1  0.4871930E-013  0.5052886E+02  0.7816164E-02  0.1300439E+00
        -11   -1    0    0    0    0  0.00000000000E+00  0.00000000000E+00  0.45593999997E+02  0.45594000000E+02  0.51100000000E-03 0. -1.
         11   -1    0    0    0    0 -0.00000000000E+00 -0.00000000000E+00 -0.45593999997E+02  0.45594000000E+02  0.51100000000E-03 0.  1.
    9900012    2    1    2    0    0 -0.27905706319E+02  0.13076658936E+02 -0.26522407127E+02  0.50528861619E+02  0.30000005376E+02 0.  0.
         12    1    1    2    0    0  0.27905706319E+02 -0.13076658936E+02  0.26522407127E+02  0.40659138381E+02  0.00000000000E+00 0. -1.
         11    1    3    3    0    0 -0.16740066892E+02 -0.39304965499E+01 -0.15696712217E+02  0.23282298370E+02  0.51100000000E-03 0.  1.
        -11    1    3    3    0    0 -0.11207420122E+02  0.62458859729E+01 -0.10333127703E+02  0.16473945665E+02  0.51100000000E-03 0. -1.
         12    1    3    3    0    0  0.41780695536E-01  0.10761269513E+02 -0.49256720708E+00  0.10772617584E+02  0.00000000000E+00 0. -1.
</event>
<event>
 7    1  0.4871930E-013  0.5052891E+02  0.7816164E-02  0.1300439E+00
        -11   -1    0    0    0    0  0.00000000000E+00  0.00000000000E+00  0.45593999997E+02  0.45594000000E+02  0.51100000000E-03 0. -1.
         11   -1    0    0    0    0 -0.00000000000E+00 -0.00000000000E+00 -0.45593999997E+02  0.45594000000E+02  0.51100000000E-03 0.  1.
    9900012    2    1    2    0    0  0.19749506767E+02 -0.10008988580E+02 -0.34101892927E+02  0.50528905431E+02  0.30000138549E+02 0.  0.
         12    1    1    2    0    0 -0.19749506767E+02  0.10008988580E+02  0.34101892927E+02  0.40659094569E+02  0.00000000000E+00 0. -1.
         11    1    3    3    0    0 -0.11477918481E+01  0.57439068384E+01 -0.45728329999E+00  0.58752872417E+01  0.51100000000E-03 0. -1.
        -11    1    3    3    0    0  0.43783320809E+01 -0.44385639696E+01 -0.93764273149E+00  0.63047455203E+01  0.51100000000E-03 0.  1.
        -12    1    3    3    0    0  0.16518966535E+02 -0.11314331449E+02 -0.32706966895E+02  0.38348872669E+02  0.00000000000E+00 0.  1.
</event>
<event>
 7    1  0.4871930E-013  0.5052886E+02  0.7816164E-02  0.1300439E+00
        -11   -1    0    0    0    0  0.00000000000E+00  0.00000000000E+00  0.45593999997E+02  0.45594000000E+02  0.51100000000E-03 0.  1.
         11   -1    0    0    0    0 -0.00000000000E+00 -0.00000000000E+00 -0.45593999997E+02  0.45594000000E+02  0.51100000000E-03 0. -1.
    9900012    2    1    2    0    0 -0.75847005625E+01  0.69468196374E+01  0.39336751172E+02  0.50528856152E+02  0.29999988758E+02 0.  0.
         12    1    1    2    0    0  0.75847005625E+01 -0.69468196374E+01 -0.39336751172E+02  0.40659143848E+02  0.00000000000E+00 0. -1.
         11    1    3    3    0    0 -0.66448236286E+01  0.16557984428E+01 -0.87916367761E+00  0.69042217933E+01  0.51100000000E-03 0. -1.
        -11    1    3    3    0    0  0.42284795982E+01  0.62013068120E+01  0.79447954583E+01  0.10929593818E+02  0.51100000000E-03 0.  1.
         12    1    3    3    0    0 -0.51683565321E+01 -0.91028561742E+00  0.32271119392E+02  0.32695040540E+02  0.00000000000E+00 0. -1.
</event>
<event>
 7    1  0.4871930E-013  0.5052885E+02  0.7816164E-02  0.1300439E+00
        -11   -1    0    0    0    0  0.00000000000E+00  0.00000000000E+00  0.45593999997E+02  0.45594000000E+02  0.51100000000E-03 0.  1.
         11   -1    0    0    0    0 -0.00000000000E+00 -0.00000000000E+00 -0.45593999997E+02  0.45594000000E+02  0.51100000000E-03 0. -1.
    9900012    2    1    2    0    0 -0.21932995931E+02 -0.29535535399E+02  0.17313654052E+02  0.50528846314E+02  0.29999958856E+02 0.  0.
         12    1    1    2    0    0  0.21932995931E+02  0.29535535399E+02 -0.17313654052E+02  0.40659153686E+02  0.00000000000E+00 0. -1.
         11    1    3    3    0    0 -0.21343808468E+01 -0.10905860883E+02  0.15259722467E+02  0.18877301535E+02  0.51100000000E-03 0. -1.
        -11    1    3    3    0    0 -0.12736101131E+02 -0.48593062403E+01  0.71051648952E+01  0.15372198854E+02  0.51100000000E-03 0.  1.
         12    1    3    3    0    0 -0.70625139538E+01 -0.13770368276E+02 -0.50512333105E+01  0.16279345926E+02  0.00000000000E+00 0. -1.
</event>
<event>
 7    1  0.4871930E-013  0.5052888E+02  0.7816164E-02  0.1300439E+00
        -11   -1    0    0    0    0  0.00000000000E+00  0.00000000000E+00  0.45593999997E+02  0.45594000000E+02  0.51100000000E-03 0. -1.
         11   -1    0    0    0    0 -0.00000000000E+00 -0.00000000000E+00 -0.45593999997E+02  0.45594000000E+02  0.51100000000E-03 0.  1.
    9900012    2    1    2    0    0 -0.34943101562E+02  0.19675352608E+02 -0.67099835909E+01  0.50528883841E+02  0.30000072923E+02 0.  0.
         12    1    1    2    0    0  0.34943101562E+02 -0.19675352608E+02  0.67099835909E+01  0.40659116159E+02  0.00000000000E+00 0. -1.
         11    1    3    3    0    0  0.26841876449E+00  0.94985586731E+00 -0.26494428637E+01  0.28273348848E+01  0.51100000000E-03 0. -1.
        -11    1    3    3    0    0 -0.13048489977E+02  0.11050307349E+02  0.10528162394E+02  0.20080203855E+02  0.51100000000E-03 0.  1.
         12    1    3    3    0    0 -0.22163030349E+02  0.76751893921E+01 -0.14588703121E+02  0.27621345102E+02  0.00000000000E+00 0. -1.
</event>
<event>
 7    1  0.4871930E-013  0.5052889E+02  0.7816164E-02  0.1300439E+00
        -11   -1    0    0    0    0  0.00000000000E+00  0.00000000000E+00  0.45593999997E+02  0.45594000000E+02  0.51100000000E-03 0. -1.
         11   -1    0    0    0    0 -0.00000000000E+00 -0.00000000000E+00 -0.45593999997E+02  0.45594000000E+02  0.51100000000E-03 0.  1.
    9900012    2    1    2    0    0  0.22141784659E+02  0.21246076789E+02 -0.26674116037E+02  0.50528894339E+02  0.30000104833E+02 0.  0.
         12    1    1    2    0    0 -0.22141784659E+02 -0.21246076789E+02  0.26674116037E+02  0.40659105661E+02  0.00000000000E+00 0. -1.
         11    1    3    3    0    0  0.77990473452E+01  0.18238429358E+02 -0.18751177172E+02  0.27296008693E+02  0.51100000000E-03 0. -1.
        -11    1    3    3    0    0  0.11693157000E+02  0.46906150156E+01 -0.12457563240E+02  0.17717863076E+02  0.51100000000E-03 0.  1.
         12    1    3    3    0    0  0.26495803130E+01 -0.16829675851E+01  0.45346243747E+01  0.55150225699E+01  0.00000000000E+00 0. -1.
</event>
<event>
 7    1  0.4871930E-013  0.5052886E+02  0.7816164E-02  0.1300439E+00
        -11   -1    0    0    0    0  0.00000000000E+00  0.00000000000E+00  0.45593999997E+02  0.45594000000E+02  0.51100000000E-03 0.  1.
         11   -1    0    0    0    0 -0.00000000000E+00 -0.00000000000E+00 -0.45593999997E+02  0.45594000000E+02  0.51100000000E-03 0. -1.
    9900012    2    1    2    0    0  0.10173267775E+02 -0.26405147843E+02 -0.29196543386E+02  0.50528863812E+02  0.30000012044E+02 0.  0.
         12    1    1    2    0    0 -0.10173267775E+02  0.26405147843E+02  0.29196543386E+02  0.40659136188E+02  0.00000000000E+00 0. -1.
         11    1    3    3    0    0  0.79310998032E+01 -0.15849552313E+02 -0.30224587526E+02  0.35037641815E+02  0.51100000000E-03 0. -1.
        -11    1    3    3    0    0  0.36605950439E+01 -0.10173676925E+02 -0.29859123173E+01  0.11216921631E+02  0.51100000000E-03 0.  1.
        -12    1    3    3    0    0 -0.14184270724E+01 -0.38191860548E+00  0.40139564569E+01  0.42743003660E+01  0.00000000000E+00 0.  1.
</event>
<event>
 7    1  0.4871930E-013  0.5052897E+02  0.7816164E-02  0.1300438E+00
        -11   -1    0    0    0    0  0.00000000000E+00  0.00000000000E+00  0.45593999997E+02  0.45594000000E+02  0.51100000000E-03 0.  1.
         11   -1    0    0    0    0 -0.00000000000E+00 -0.00000000000E+00 -0.45593999997E+02  0.45594000000E+02  0.51100000000E-03 0. -1.
    9900012    2    1    2    0    0 -0.18532141961E+02  0.31358540960E+02  0.18065394086E+02  0.50528968527E+02  0.30000330333E+02 0.  0.
         12    1    1    2    0    0  0.18532141961E+02 -0.31358540960E+02 -0.18065394086E+02  0.40659031473E+02  0.00000000000E+00 0. -1.
         11    1    3    3    0    0 -0.96339065983E+01  0.22122519986E+02  0.14130040872E+02  0.27962047532E+02  0.51100000000E-03 0. -1.
        -11    1    3    3    0    0 -0.14405019042E+02  0.51247482948E+01  0.34745028873E+01  0.15679278978E+02  0.51100000000E-03 0.  1.
         12    1    3    3    0    0  0.55067836790E+01  0.41112726790E+01  0.46085032625E+00  0.68876420168E+01  0.00000000000E+00 0. -1.
</event>
<event>
 7    1  0.4871930E-013  0.5052886E+02  0.7816164E-02  0.1300439E+00
        -11   -1    0    0    0    0  0.00000000000E+00  0.00000000000E+00  0.45593999997E+02  0.45594000000E+02  0.51100000000E-03 0. -1.
         11   -1    0    0    0    0 -0.00000000000E+00 -0.00000000000E+00 -0.45593999997E+02  0.45594000000E+02  0.51100000000E-03 0.  1.
    9900012    2    1    2    0    0  0.10179431810E+02 -0.26081725377E+02 -0.29483697492E+02  0.50528860210E+02  0.30000001095E+02 0.  0.
         12    1    1    2    0    0 -0.10179431810E+02  0.26081725377E+02  0.29483697492E+02  0.40659139790E+02  0.00000000000E+00 0. -1.
         11    1    3    3    0    0 -0.25409529643E+01 -0.10689523711E+02 -0.31631618607E+01  0.11433632509E+02  0.51100000000E-03 0. -1.
        -11    1    3    3    0    0 -0.49576465207E+01 -0.74038430045E+01 -0.47971546303E+01  0.10119676036E+02  0.51100000000E-03 0.  1.
        -12    1    3    3    0    0  0.17678031296E+02 -0.79883586618E+01 -0.21523381001E+02  0.28975551666E+02  0.00000000000E+00 0.  1.
</event>
<event>
 7    1  0.4871930E-013  0.5052886E+02  0.7816164E-02  0.1300439E+00
        -11   -1    0    0    0    0  0.00000000000E+00  0.00000000000E+00  0.45593999997E+02  0.45594000000E+02  0.51100000000E-03 0.  1.
         11   -1    0    0    0    0 -0.00000000000E+00 -0.00000000000E+00 -0.45593999997E+02  0.45594000000E+02  0.51100000000E-03 0. -1.
    9900012    2    1    2    0    0  0.24563246373E+02  0.23965870046E+02  0.21804810423E+02  0.50528858875E+02  0.29999997036E+02 0.  0.
         12    1    1    2    0    0 -0.24563246373E+02 -0.23965870046E+02 -0.21804810423E+02  0.40659141125E+02  0.00000000000E+00 0. -1.
         11    1    3    3    0    0  0.42417720020E+01 -0.52695293718E+01  0.65786525097E+01  0.94360605456E+01  0.51100000000E-03 0. -1.
        -11    1    3    3    0    0  0.14706990110E+02  0.18830183046E+02  0.16739078359E+02  0.29173071422E+02  0.51100000000E-03 0.  1.
         12    1    3    3    0    0  0.56144842609E+01  0.10405216372E+02 -0.15129204456E+01  0.11919726907E+02  0.00000000000E+00 0. -1.
</event>
<event>
 7    1  0.4871930E-013  0.5052886E+02  0.7816164E-02  0.1300439E+00
        -11   -1    0    0    0    0  0.00000000000E+00  0.00000000000E+00  0.45593999997E+02  0.45594000000E+02  0.51100000000E-03 0.  1.
         11   -1    0    0    0    0 -0.00000000000E+00 -0.00000000000E+00 -0.45593999997E+02  0.45594000000E+02  0.51100000000E-03 0. -1.
    9900012    2    1    2    0    0 -0.31008052951E+02 -0.12948567728E+02  0.22891067785E+02  0.50528859105E+02  0.29999997735E+02 0.  0.
         12    1    1    2    0    0  0.31008052951E+02  0.12948567728E+02 -0.22891067785E+02  0.40659140895E+02  0.00000000000E+00 0. -1.
         11    1    3    3    0    0 -0.20386143622E+02 -0.83053118484E+01  0.20623598039E+02  0.30164645747E+02  0.51100000000E-03 0. -1.
        -11    1    3    3    0    0 -0.65012281080E+01 -0.96422678407E+01  0.57890779731E+01  0.12990485752E+02  0.51100000000E-03 0.  1.
         12    1    3    3    0    0 -0.41206812204E+01  0.49990119611E+01 -0.35216082275E+01  0.73737276066E+01  0.00000000000E+00 0. -1.
</event>
<event>
 7    1  0.4871930E-013  0.5052885E+02  0.7816164E-02  0.1300439E+00
        -11   -1    0    0    0    0  0.00000000000E+00  0.00000000000E+00  0.45593999997E+02  0.45594000000E+02  0.51100000000E-03 0.  1.
         11   -1    0    0    0    0 -0.00000000000E+00 -0.00000000000E+00 -0.45593999997E+02  0.45594000000E+02  0.51100000000E-03 0. -1.
    9900012    2    1    2    0    0  0.35289315638E+02  0.18717874178E+02  0.75809999363E+01  0.50528853772E+02  0.29999981526E+02 0.  0.
         12    1    1    2    0    0 -0.35289315638E+02 -0.18717874178E+02 -0.75809999363E+01  0.40659146228E+02  0.00000000000E+00 0. -1.
         11    1    3    3    0    0  0.12719218712E+02  0.12715278721E+02 -0.41651010262E+01  0.18460902048E+02  0.51100000000E-03 0. -1.
        -11    1    3    3    0    0  0.41394402157E+01  0.75580075585E+01  0.10423801342E+02  0.13524573125E+02  0.51100000000E-03 0.  1.
        -12    1    3    3    0    0  0.18430656710E+02 -0.15554121020E+01  0.13222996208E+01  0.18543378599E+02  0.00000000000E+00 0.  1.
</event>
<event>
 7    1  0.4871930E-013  0.5052886E+02  0.7816164E-02  0.1300439E+00
        -11   -1    0    0    0    0  0.00000000000E+00  0.00000000000E+00  0.45593999997E+02  0.45594000000E+02  0.51100000000E-03 0.  1.
         11   -1    0    0    0    0 -0.00000000000E+00 -0.00000000000E+00 -0.45593999997E+02  0.45594000000E+02  0.51100000000E-03 0. -1.
    9900012    2    1    2    0    0 -0.34152062413E+02  0.18338798608E+01  0.21987252499E+02  0.50528858902E+02  0.29999997118E+02 0.  0.
         12    1    1    2    0    0  0.34152062413E+02 -0.18338798608E+01 -0.21987252499E+02  0.40659141098E+02  0.00000000000E+00 0. -1.
         11    1    3    3    0    0  0.35953924609E+01  0.23218165029E+01 -0.10505155993E+00  0.42812048436E+01  0.51100000000E-03 0. -1.
        -11    1    3    3    0    0 -0.78929250235E+01  0.23630460426E+01  0.12095575376E+02  0.14635067337E+02  0.51100000000E-03 0.  1.
        -12    1    3    3    0    0 -0.29854529850E+02 -0.28509826846E+01  0.99967286826E+01  0.31612586721E+02  0.00000000000E+00 0.  1.
</event>
<event>
 7    1  0.4871930E-013  0.5052886E+02  0.7816164E-02  0.1300439E+00
        -11   -1    0    0    0    0  0.00000000000E+00  0.00000000000E+00  0.45593999997E+02  0.45594000000E+02  0.51100000000E-03 0.  1.
         11   -1    0    0    0    0 -0.00000000000E+00 -0.00000000000E+00 -0.45593999997E+02  0.45594000000E+02  0.51100000000E-03 0. -1.
    9900012    2    1    2    0    0 -0.31365920024E+02 -0.13584833531E+02 -0.22018103574E+02  0.50528861715E+02  0.30000005670E+02 0.  0.
         12    1    1    2    0    0  0.31365920024E+02  0.13584833531E+02  0.22018103574E+02  0.40659138285E+02  0.00000000000E+00 0. -1.
         11    1    3    3    0    0 -0.11718347061E+02 -0.67387267696E+01 -0.17539979362E+02  0.22144547243E+02  0.51100000000E-03 0. -1.
        -11    1    3    3    0    0  0.35772089190E+01  0.23968130023E+00  0.43205397243E+00  0.36111690174E+01  0.51100000000E-03 0.  1.
        -12    1    3    3    0    0 -0.23224781883E+02 -0.70857880615E+01 -0.49101781847E+01  0.24773145455E+02  0.00000000000E+00 0.  1.
</event>
<event>
 7    1  0.4871930E-013  0.5052887E+02  0.7816164E-02  0.1300439E+00
        -11   -1    0    0    0    0  0.00000000000E+00  0.00000000000E+00  0.45593999997E+02  0.45594000000E+02  0.51100000000E-03 0. -1.
         11   -1    0    0    0    0 -0.00000000000E+00 -0.00000000000E+00 -0.45593999997E+02  0.45594000000E+02  0.51100000000E-03 0.  1.
    9900012    2    1    2    0    0  0.89107265964E+01  0.20601920241E+01 -0.39617157795E+02  0.50528872717E+02  0.30000039112E+02 0.  0.
         12    1    1    2    0    0 -0.89107265964E+01 -0.20601920241E+01  0.39617157795E+02  0.40659127283E+02  0.00000000000E+00 0. -1.
         11    1    3    3    0    0  0.76544227056E+01  0.10286517700E+00 -0.29023285751E+02  0.30015860545E+02  0.51100000000E-03 0. -1.
        -11    1    3    3    0    0  0.50266995364E+01 -0.63625329694E+01 -0.69470802455E+01  0.10677614819E+02  0.51100000000E-03 0.  1.
         12    1    3    3    0    0 -0.37703956455E+01  0.83198598166E+01 -0.36467917983E+01  0.98353973540E+01  0.00000000000E+00 0. -1.
</event>
<event>
 7    1  0.4871930E-013  0.5052887E+02  0.7816164E-02  0.1300439E+00
        -11   -1    0    0    0    0  0.00000000000E+00  0.00000000000E+00  0.45593999997E+02  0.45594000000E+02  0.51100000000E-03 0.  1.
         11   -1    0    0    0    0 -0.00000000000E+00 -0.00000000000E+00 -0.45593999997E+02  0.45594000000E+02  0.51100000000E-03 0. -1.
    9900012    2    1    2    0    0  0.35666966309E+02 -0.17103404608E+02  0.94077784274E+01  0.50528865358E+02  0.30000016743E+02 0.  0.
         12    1    1    2    0    0 -0.35666966309E+02  0.17103404608E+02 -0.94077784274E+01  0.40659134642E+02  0.00000000000E+00 0. -1.
         11    1    3    3    0    0  0.12824766785E+02 -0.13534700952E+02  0.46424967173E+01  0.19214982409E+02  0.51100000000E-03 0. -1.
        -11    1    3    3    0    0  0.26110828041E+02 -0.33452818682E+01  0.10286404383E+01  0.26344341957E+02  0.51100000000E-03 0.  1.
         12    1    3    3    0    0 -0.32686285164E+01 -0.22342178741E+00  0.37366412719E+01  0.49695409917E+01  0.00000000000E+00 0. -1.
</event>
<event>
 7    1  0.4871930E-013  0.5052886E+02  0.7816164E-02  0.1300439E+00
        -11   -1    0    0    0    0  0.00000000000E+00  0.00000000000E+00  0.45593999997E+02  0.45594000000E+02  0.51100000000E-03 0.  1.
         11   -1    0    0    0    0 -0.00000000000E+00 -0.00000000000E+00 -0.45593999997E+02  0.45594000000E+02  0.51100000000E-03 0. -1.
    9900012    2    1    2    0    0  0.30325399646E+02 -0.17548123713E+02  0.20630049611E+02  0.50528862571E+02  0.30000008269E+02 0.  0.
         12    1    1    2    0    0 -0.30325399646E+02  0.17548123713E+02 -0.20630049611E+02  0.40659137429E+02  0.00000000000E+00 0. -1.
         11    1    3    3    0    0 -0.16997331993E+01 -0.28148681700E+00 -0.10611277255E+01  0.20234426327E+01  0.51100000000E-03 0. -1.
        -11    1    3    3    0    0  0.15600688142E+02 -0.12319891494E+02  0.24037644679E+02  0.31192459969E+02  0.51100000000E-03 0.  1.
         12    1    3    3    0    0  0.16424444704E+02 -0.49467454017E+01 -0.23464673427E+01  0.17312959969E+02  0.00000000000E+00 0. -1.
</event>
<event>
 7    1  0.4871930E-013  0.5052886E+02  0.7816164E-02  0.1300439E+00
        -11   -1    0    0    0    0  0.00000000000E+00  0.00000000000E+00  0.45593999997E+02  0.45594000000E+02  0.51100000000E-03 0. -1.
         11   -1    0    0    0    0 -0.00000000000E+00 -0.00000000000E+00 -0.45593999997E+02  0.45594000000E+02  0.51100000000E-03 0.  1.
    9900012    2    1    2    0    0 -0.13026622806E+02 -0.17882937409E+02 -0.34112654880E+02  0.50528861113E+02  0.30000003839E+02 0.  0.
         12    1    1    2    0    0  0.13026622806E+02  0.17882937409E+02  0.34112654880E+02  0.40659138887E+02  0.00000000000E+00 0. -1.
         11    1    3    3    0    0 -0.18803890482E+01 -0.67569659661E+01  0.16025663787E+01  0.71944889532E+01  0.51100000000E-03 0. -1.
        -11    1    3    3    0    0 -0.15500021027E+02 -0.10904520336E+02 -0.33390579527E+02  0.38393879942E+02  0.51100000000E-03 0.  1.
         12    1    3    3    0    0  0.43537872687E+01 -0.22145110738E+00 -0.23246417315E+01  0.49404922178E+01  0.00000000000E+00 0. -1.
</event>
<event>
 7    1  0.4871930E-013  0.5052886E+02  0.7816164E-02  0.1300439E+00
        -11   -1    0    0    0    0  0.00000000000E+00  0.00000000000E+00  0.45593999997E+02  0.45594000000E+02  0.51100000000E-03 0. -1.
         11   -1    0    0    0    0 -0.00000000000E+00 -0.00000000000E+00 -0.45593999997E+02  0.45594000000E+02  0.51100000000E-03 0.  1.
    9900012    2    1    2    0    0 -0.31291781445E+02 -0.25959025798E+02 -0.34464534973E+00  0.50528863428E+02  0.30000010875E+02 0.  0.
         12    1    1    2    0    0  0.31291781445E+02  0.25959025798E+02  0.34464534973E+00  0.40659136572E+02  0.00000000000E+00 0. -1.
         11    1    3    3    0    0 -0.10926342175E+02  0.69273863209E+00 -0.51368598571E+01  0.12093476323E+02  0.51100000000E-03 0. -1.
        -11    1    3    3    0    0 -0.60114639181E+01 -0.53280683971E+01  0.93531079134E+01  0.12329097257E+02  0.51100000000E-03 0.  1.
        -12    1    3    3    0    0 -0.14353975352E+02 -0.21323696033E+02 -0.45608934061E+01  0.26106289847E+02  0.00000000000E+00 0.  1.
</event>
<event>
 7    1  0.6396907E-013  0.5052885E+02  0.7816164E-02  0.1300439E+00
        -11   -1    0    0    0    0  0.00000000000E+00  0.00000000000E+00  0.45593999997E+02  0.45594000000E+02  0.51100000000E-03 0. -1.
         11   -1    0    0    0    0 -0.00000000000E+00 -0.00000000000E+00 -0.45593999997E+02  0.45594000000E+02  0.51100000000E-03 0.  1.
    9900012    2    1    2    0    0  0.36708408902E+01  0.33656166832E+02 -0.22515631809E+02  0.50528852020E+02  0.29999976201E+02 0.  0.
         12    1    1    2    0    0 -0.36708408902E+01 -0.33656166832E+02  0.22515631809E+02  0.40659147980E+02  0.00000000000E+00 0. -1.
         11    1    3    3    0    0  0.46478616165E+01  0.35957460720E+01  0.39108098717E+01  0.70587847066E+01  0.51100000000E-03 0. -1.
        -11    1    3    3    0    0  0.42408174221E+01  0.15890646632E+02 -0.48729508867E+01  0.17153507903E+02  0.51100000000E-03 0.  1.
         12    1    3    3    0    0 -0.52178381484E+01  0.14169774128E+02 -0.21553490794E+02  0.26316559410E+02  0.00000000000E+00 0. -1.
</event>
<event>
 7    1  0.4871930E-013  0.5052888E+02  0.7816164E-02  0.1300439E+00
        -11   -1    0    0    0    0  0.00000000000E+00  0.00000000000E+00  0.45593999997E+02  0.45594000000E+02  0.51100000000E-03 0.  1.
         11   -1    0    0    0    0 -0.00000000000E+00 -0.00000000000E+00 -0.45593999997E+02  0.45594000000E+02  0.51100000000E-03 0. -1.
    9900012    2    1    2    0    0 -0.30989333884E+02 -0.88164595289E+01  0.24801116313E+02  0.50528878716E+02  0.30000057346E+02 0.  0.
         12    1    1    2    0    0  0.30989333884E+02  0.88164595289E+01 -0.24801116313E+02  0.40659121284E+02  0.00000000000E+00 0. -1.
         11    1    3    3    0    0 -0.18467008934E+02 -0.99930680550E+01  0.11882562831E+02  0.24126481878E+02  0.51100000000E-03 0. -1.
        -11    1    3    3    0    0 -0.81906383500E+01  0.28538385943E+01  0.17715604870E+02  0.19724948859E+02  0.51100000000E-03 0.  1.
         12    1    3    3    0    0 -0.43316865998E+01 -0.16772300681E+01 -0.47970513877E+01  0.66774479793E+01  0.00000000000E+00 0. -1.
</event>
<event>
 7    1  0.4871930E-013  0.5052887E+02  0.7816164E-02  0.1300439E+00
        -11   -1    0    0    0    0  0.00000000000E+00  0.00000000000E+00  0.45593999997E+02  0.45594000000E+02  0.51100000000E-03 0. -1.
         11   -1    0    0    0    0 -0.00000000000E+00 -0.00000000000E+00 -0.45593999997E+02  0.45594000000E+02  0.51100000000E-03 0.  1.
    9900012    2    1    2    0    0  0.10692324774E+02  0.33639345566E+02 -0.20180026321E+02  0.50528870133E+02  0.30000031257E+02 0.  0.
         12    1    1    2    0    0 -0.10692324774E+02 -0.33639345566E+02  0.20180026321E+02  0.40659129867E+02  0.00000000000E+00 0. -1.
         11    1    3    3    0    0  0.43302087201E+01  0.14594925623E+02 -0.88219574248E+01  0.17595155429E+02  0.51100000000E-03 0.  1.
        -11    1    3    3    0    0  0.14498944001E+02  0.65015560836E+01 -0.47262565772E+01  0.16577910307E+02  0.51100000000E-03 0. -1.
        -12    1    3    3    0    0 -0.81368279471E+01  0.12542863859E+02 -0.66318123190E+01  0.16355804397E+02  0.00000000000E+00 0.  1.
</event>
<event>
 7    1  0.4871930E-013  0.5052884E+02  0.7816164E-02  0.1300439E+00
        -11   -1    0    0    0    0  0.00000000000E+00  0.00000000000E+00  0.45593999997E+02  0.45594000000E+02  0.51100000000E-03 0.  1.
         11   -1    0    0    0    0 -0.00000000000E+00 -0.00000000000E+00 -0.45593999997E+02  0.45594000000E+02  0.51100000000E-03 0. -1.
    9900012    2    1    2    0    0 -0.64540905117E+01  0.35372788404E+02  0.18980993196E+02  0.50528836869E+02  0.29999930147E+02 0.  0.
         12    1    1    2    0    0  0.64540905117E+01 -0.35372788404E+02 -0.18980993196E+02  0.40659163131E+02  0.00000000000E+00 0. -1.
         11    1    3    3    0    0 -0.72297838118E+01  0.54831609279E+01  0.47076806108E+01  0.10222381558E+02  0.51100000000E-03 0. -1.
        -11    1    3    3    0    0 -0.68052503701E+01  0.20973372962E+02  0.26340121121E+00  0.22051376067E+02  0.51100000000E-03 0.  1.
         12    1    3    3    0    0  0.75809436702E+01  0.89162545139E+01  0.14009911374E+02  0.18255079244E+02  0.00000000000E+00 0. -1.
</event>
<event>
 7    1  0.4871930E-013  0.5052886E+02  0.7816164E-02  0.1300439E+00
        -11   -1    0    0    0    0  0.00000000000E+00  0.00000000000E+00  0.45593999997E+02  0.45594000000E+02  0.51100000000E-03 0.  1.
         11   -1    0    0    0    0 -0.00000000000E+00 -0.00000000000E+00 -0.45593999997E+02  0.45594000000E+02  0.51100000000E-03 0. -1.
    9900012    2    1    2    0    0 -0.69277816185E+00  0.38757440862E+02 -0.12269747395E+02  0.50528857548E+02  0.29999993004E+02 0.  0.
         12    1    1    2    0    0  0.69277816185E+00 -0.38757440862E+02  0.12269747395E+02  0.40659142452E+02  0.00000000000E+00 0. -1.
         11    1    3    3    0    0  0.52452777030E+01  0.15014370904E+02  0.44223960251E+00  0.15910369196E+02  0.51100000000E-03 0.  1.
        -11    1    3    3    0    0 -0.83049025405E+01  0.33505836267E+01 -0.10756133474E+02  0.13996150343E+02  0.51100000000E-03 0. -1.
         12    1    3    3    0    0  0.23668466757E+01  0.20392486331E+02 -0.19558535229E+01  0.20622338009E+02  0.00000000000E+00 0. -1.
</event>
<event>
 7    1  0.4871930E-013  0.5052888E+02  0.7816164E-02  0.1300439E+00
        -11   -1    0    0    0    0  0.00000000000E+00  0.00000000000E+00  0.45593999997E+02  0.45594000000E+02  0.51100000000E-03 0. -1.
         11   -1    0    0    0    0 -0.00000000000E+00 -0.00000000000E+00 -0.45593999997E+02  0.45594000000E+02  0.51100000000E-03 0.  1.
    9900012    2    1    2    0    0  0.99400304159E+01 -0.38700210399E+02 -0.75268697667E+01  0.50528877308E+02  0.30000053067E+02 0.  0.
         12    1    1    2    0    0 -0.99400304159E+01  0.38700210399E+02  0.75268697667E+01  0.40659122692E+02  0.00000000000E+00 0. -1.
         11    1    3    3    0    0 -0.41954412771E+01 -0.48312226574E+00 -0.44882499847E+01  0.61627528605E+01  0.51100000000E-03 0. -1.
        -11    1    3    3    0    0  0.72776623574E+01 -0.10186628004E+02 -0.83170957575E+01  0.15030164390E+02  0.51100000000E-03 0.  1.
        -12    1    3    3    0    0  0.68578093357E+01 -0.28030460128E+02  0.52784759756E+01  0.29335960058E+02  0.00000000000E+00 0.  1.
</event>
<event>
 7    1  0.4871930E-013  0.5052885E+02  0.7816164E-02  0.1300439E+00
        -11   -1    0    0    0    0  0.00000000000E+00  0.00000000000E+00  0.45593999997E+02  0.45594000000E+02  0.51100000000E-03 0.  1.
         11   -1    0    0    0    0 -0.00000000000E+00 -0.00000000000E+00 -0.45593999997E+02  0.45594000000E+02  0.51100000000E-03 0. -1.
    9900012    2    1    2    0    0  0.14006106851E+02  0.20383062369E+02  0.32272682659E+02  0.50528852116E+02  0.29999976491E+02 0.  0.
         12    1    1    2    0    0 -0.14006106851E+02 -0.20383062369E+02 -0.32272682659E+02  0.40659147884E+02  0.00000000000E+00 0. -1.
         11    1    3    3    0    0  0.90479535770E+01  0.14415939367E+02  0.29400087786E+02  0.33971310453E+02  0.51100000000E-03 0. -1.
        -11    1    3    3    0    0  0.73631916294E+01  0.75668437379E+01  0.61262346391E+01  0.12206738559E+02  0.51100000000E-03 0.  1.
         12    1    3    3    0    0 -0.24050383554E+01 -0.15997207365E+01 -0.32536397662E+01  0.43508031045E+01  0.00000000000E+00 0. -1.
</event>
<event>
 7    1  0.4871930E-013  0.5052892E+02  0.7816164E-02  0.1300439E+00
        -11   -1    0    0    0    0  0.00000000000E+00  0.00000000000E+00  0.45593999997E+02  0.45594000000E+02  0.51100000000E-03 0. -1.
         11   -1    0    0    0    0 -0.00000000000E+00 -0.00000000000E+00 -0.45593999997E+02  0.45594000000E+02  0.51100000000E-03 0.  1.
    9900012    2    1    2    0    0 -0.63737661606E+01 -0.39421695606E+02 -0.76462803811E+01  0.50528922500E+02  0.30000190429E+02 0.  0.
         12    1    1    2    0    0  0.63737661606E+01  0.39421695606E+02  0.76462803811E+01  0.40659077500E+02  0.00000000000E+00 0. -1.
         11    1    3    3    0    0  0.63690077768E+01 -0.42600061246E+01 -0.42115883446E+01  0.87435341189E+01  0.51100000000E-03 0. -1.
        -11    1    3    3    0    0 -0.12489250058E+02 -0.90824740223E+01 -0.28184921311E+01  0.15697662231E+02  0.51100000000E-03 0.  1.
         12    1    3    3    0    0 -0.25352387925E+00 -0.26079215459E+02 -0.61619990538E+00  0.26087726149E+02  0.00000000000E+00 0. -1.
</event>
<event>
 7    1  0.4871930E-013  0.5052886E+02  0.7816164E-02  0.1300439E+00
        -11   -1    0    0    0    0  0.00000000000E+00  0.00000000000E+00  0.45593999997E+02  0.45594000000E+02  0.51100000000E-03 0.  1.
         11   -1    0    0    0    0 -0.00000000000E+00 -0.00000000000E+00 -0.45593999997E+02  0.45594000000E+02  0.51100000000E-03 0. -1.
    9900012    2    1    2    0    0  0.25996546735E+02 -0.14430599457E+01  0.31229194806E+02  0.50528862375E+02  0.30000007676E+02 0.  0.
         12    1    1    2    0    0 -0.25996546735E+02  0.14430599457E+01 -0.31229194806E+02  0.40659137625E+02  0.00000000000E+00 0. -1.
         11    1    3    3    0    0  0.19460145921E+02  0.11526693896E+02  0.21072818644E+02  0.30913195197E+02  0.51100000000E-03 0.  1.
        -11    1    3    3    0    0 -0.43685804228E+00 -0.10771271535E+01 -0.12613474659E+01  0.17152392092E+01  0.51100000000E-03 0. -1.
        -12    1    3    3    0    0  0.69732588561E+01 -0.11892626688E+02  0.11417723628E+02  0.17900427969E+02  0.00000000000E+00 0.  1.
</event>
<event>
 7    1  0.4871930E-013  0.5052887E+02  0.7816164E-02  0.1300439E+00
        -11   -1    0    0    0    0  0.00000000000E+00  0.00000000000E+00  0.45593999997E+02  0.45594000000E+02  0.51100000000E-03 0.  1.
         11   -1    0    0    0    0 -0.00000000000E+00 -0.00000000000E+00 -0.45593999997E+02  0.45594000000E+02  0.51100000000E-03 0. -1.
    9900012    2    1    2    0    0  0.34324031131E+02 -0.39969348981E+01  0.21425463638E+02  0.50528867032E+02  0.30000021829E+02 0.  0.
         12    1    1    2    0    0 -0.34324031131E+02  0.39969348981E+01 -0.21425463638E+02  0.40659132968E+02  0.00000000000E+00 0. -1.
         11    1    3    3    0    0  0.89434414198E+01  0.90687779756E+01  0.16010753160E+02  0.20459034567E+02  0.51100000000E-03 0. -1.
        -11    1    3    3    0    0  0.45260731436E+01 -0.42886565880E+01  0.39820000589E+01  0.73982591304E+01  0.51100000000E-03 0.  1.
        -12    1    3    3    0    0  0.20854516567E+02 -0.87770562857E+01  0.14327104189E+01  0.22671573334E+02  0.00000000000E+00 0.  1.
</event>
<event>
 7    1  0.4871930E-013  0.5052886E+02  0.7816164E-02  0.1300439E+00
        -11   -1    0    0    0    0  0.00000000000E+00  0.00000000000E+00  0.45593999997E+02  0.45594000000E+02  0.51100000000E-03 0.  1.
         11   -1    0    0    0    0 -0.00000000000E+00 -0.00000000000E+00 -0.45593999997E+02  0.45594000000E+02  0.51100000000E-03 0. -1.
    9900012    2    1    2    0    0 -0.17731869391E+02  0.34994551681E+02  0.10683059486E+02  0.50528860813E+02  0.30000002927E+02 0.  0.
         12    1    1    2    0    0  0.17731869391E+02 -0.34994551681E+02 -0.10683059486E+02  0.40659139187E+02  0.00000000000E+00 0. -1.
         11    1    3    3    0    0 -0.95820517029E+01  0.13224494519E+01  0.26450607366E+01  0.10028007477E+02  0.51100000000E-03 0. -1.
        -11    1    3    3    0    0 -0.19647461641E+01 -0.22351331512E+01 -0.64383288842E+00  0.30447608678E+01  0.51100000000E-03 0.  1.
        -12    1    3    3    0    0 -0.61850715238E+01  0.35907235381E+02  0.86818316374E+01  0.37456092468E+02  0.00000000000E+00 0.  1.
</event>
<event>
 7    1  0.4871930E-013  0.5052883E+02  0.7816164E-02  0.1300439E+00
        -11   -1    0    0    0    0  0.00000000000E+00  0.00000000000E+00  0.45593999997E+02  0.45594000000E+02  0.51100000000E-03 0. -1.
         11   -1    0    0    0    0 -0.00000000000E+00 -0.00000000000E+00 -0.45593999997E+02  0.45594000000E+02  0.51100000000E-03 0.  1.
    9900012    2    1    2    0    0 -0.26180632717E+01  0.40572990760E+02 -0.38272809020E+00  0.50528827415E+02  0.29999901410E+02 0.  0.
         12    1    1    2    0    0  0.26180632717E+01 -0.40572990760E+02  0.38272809020E+00  0.40659172585E+02  0.00000000000E+00 0. -1.
         11    1    3    3    0    0  0.67289801635E+01  0.19363594456E+02 -0.15296895734E+01  0.20556456766E+02  0.51100000000E-03 0.  1.
        -11    1    3    3    0    0 -0.67344440366E-01 -0.34825899030E+01 -0.60798187857E+00  0.35359029868E+01  0.51100000000E-03 0. -1.
        -12    1    3    3    0    0 -0.92796989948E+01  0.24691986207E+02  0.17549433617E+01  0.26436467662E+02  0.00000000000E+00 0.  1.
</event>
<event>
 7    1  0.4871930E-013  0.5052885E+02  0.7816164E-02  0.1300439E+00
        -11   -1    0    0    0    0  0.00000000000E+00  0.00000000000E+00  0.45593999997E+02  0.45594000000E+02  0.51100000000E-03 0.  1.
         11   -1    0    0    0    0 -0.00000000000E+00 -0.00000000000E+00 -0.45593999997E+02  0.45594000000E+02  0.51100000000E-03 0. -1.
    9900012    2    1    2    0    0 -0.13700177029E+02 -0.22123873177E+02  0.31241095334E+02  0.50528847861E+02  0.29999963557E+02 0.  0.
         12    1    1    2    0    0  0.13700177029E+02  0.22123873177E+02 -0.31241095334E+02  0.40659152139E+02  0.00000000000E+00 0. -1.
         11    1    3    3    0    0 -0.19548068466E+02 -0.15443871420E+02  0.13874854895E+02  0.28515815679E+02  0.51100000000E-03 0. -1.
        -11    1    3    3    0    0  0.26590333167E+01  0.25634313530E+01  0.39016845295E+01  0.53725953607E+01  0.51100000000E-03 0.  1.
        -12    1    3    3    0    0  0.31888581196E+01 -0.92434331098E+01  0.13464555910E+02  0.16640436821E+02  0.00000000000E+00 0.  1.
</event>
<event>
 7    1  0.4871930E-013  0.5052887E+02  0.7816164E-02  0.1300439E+00
        -11   -1    0    0    0    0  0.00000000000E+00  0.00000000000E+00  0.45593999997E+02  0.45594000000E+02  0.51100000000E-03 0.  1.
         11   -1    0    0    0    0 -0.00000000000E+00 -0.00000000000E+00 -0.45593999997E+02  0.45594000000E+02  0.51100000000E-03 0. -1.
    9900012    2    1    2    0    0  0.32835063307E+02 -0.91217186525E+01  0.22176960721E+02  0.50528871623E+02  0.30000035785E+02 0.  0.
         12    1    1    2    0    0 -0.32835063307E+02  0.91217186525E+01 -0.22176960721E+02  0.40659128377E+02  0.00000000000E+00 0. -1.
         11    1    3    3    0    0 -0.74610062123E+00  0.30409833162E+01  0.19204612990E+01  0.36732026256E+01  0.51100000000E-03 0. -1.
        -11    1    3    3    0    0  0.24194154860E+02 -0.90092984661E+01  0.24944781988E+02  0.35899397445E+02  0.51100000000E-03 0.  1.
         12    1    3    3    0    0  0.93870090684E+01 -0.31534035026E+01 -0.46882825662E+01  0.10956271552E+02  0.00000000000E+00 0. -1.
</event>
<event>
 7    1  0.4871930E-013  0.5052886E+02  0.7816164E-02  0.1300439E+00
        -11   -1    0    0    0    0  0.00000000000E+00  0.00000000000E+00  0.45593999997E+02  0.45594000000E+02  0.51100000000E-03 0. -1.
         11   -1    0    0    0    0 -0.00000000000E+00 -0.00000000000E+00 -0.45593999997E+02  0.45594000000E+02  0.51100000000E-03 0.  1.
    9900012    2    1    2    0    0  0.36160347030E+02  0.15978680705E+02 -0.95013986223E+01  0.50528861911E+02  0.30000006264E+02 0.  0.
         12    1    1    2    0    0 -0.36160347030E+02 -0.15978680705E+02  0.95013986223E+01  0.40659138089E+02  0.00000000000E+00 0. -1.
         11    1    3    3    0    0  0.12853575358E+02  0.62973102004E+01 -0.37152069394E+00  0.14318119399E+02  0.51100000000E-03 0. -1.
        -11    1    3    3    0    0  0.11779539994E+02 -0.26395821076E+01  0.60605636878E+01  0.13507604845E+02  0.51100000000E-03 0.  1.
        -12    1    3    3    0    0  0.11527231677E+02  0.12320952612E+02 -0.15190441616E+02  0.22703137666E+02  0.00000000000E+00 0.  1.
</event>
<event>
 7    1  0.4871930E-013  0.5052885E+02  0.7816164E-02  0.1300439E+00
        -11   -1    0    0    0    0  0.00000000000E+00  0.00000000000E+00  0.45593999997E+02  0.45594000000E+02  0.51100000000E-03 0. -1.
         11   -1    0    0    0    0 -0.00000000000E+00 -0.00000000000E+00 -0.45593999997E+02  0.45594000000E+02  0.51100000000E-03 0.  1.
    9900012    2    1    2    0    0 -0.29347303226E+02  0.32159558932E+01 -0.27956392523E+02  0.50528850207E+02  0.29999970690E+02 0.  0.
         12    1    1    2    0    0  0.29347303226E+02 -0.32159558932E+01  0.27956392523E+02  0.40659149793E+02  0.00000000000E+00 0. -1.
         11    1    3    3    0    0  0.52129310849E+00 -0.21212972185E+01 -0.32619928847E+01  0.39258433789E+01  0.51100000000E-03 0. -1.
        -11    1    3    3    0    0 -0.13249257483E+02  0.13773625030E+02 -0.55884665480E+01  0.19911969489E+02  0.51100000000E-03 0.  1.
        -12    1    3    3    0    0 -0.16619338851E+02 -0.84363719180E+01 -0.19105933090E+02  0.26691037339E+02  0.00000000000E+00 0.  1.
</event>
<event>
 7    1  0.4871930E-013  0.5052886E+02  0.7816164E-02  0.1300439E+00
        -11   -1    0    0    0    0  0.00000000000E+00  0.00000000000E+00  0.45593999997E+02  0.45594000000E+02  0.51100000000E-03 0.  1.
         11   -1    0    0    0    0 -0.00000000000E+00 -0.00000000000E+00 -0.45593999997E+02  0.45594000000E+02  0.51100000000E-03 0. -1.
    9900012    2    1    2    0    0 -0.22008492660E+02 -0.83316150772E+01  0.33156845549E+02  0.50528856308E+02  0.29999989235E+02 0.  0.
         12    1    1    2    0    0  0.22008492660E+02  0.83316150772E+01 -0.33156845549E+02  0.40659143692E+02  0.00000000000E+00 0. -1.
         11    1    3    3    0    0  0.42623035346E+01 -0.44154731276E+01 -0.29877928176E+00  0.61443391575E+01  0.51100000000E-03 0. -1.
        -11    1    3    3    0    0 -0.11897146231E+02 -0.37602014202E+01  0.24372684403E+02  0.27380813510E+02  0.51100000000E-03 0.  1.
        -12    1    3    3    0    0 -0.14373649963E+02 -0.15594052942E+00  0.90829404279E+01  0.17003703641E+02  0.00000000000E+00 0.  1.
</event>
<event>
 7    1  0.4871930E-013  0.5052886E+02  0.7816164E-02  0.1300439E+00
        -11   -1    0    0    0    0  0.00000000000E+00  0.00000000000E+00  0.45593999997E+02  0.45594000000E+02  0.51100000000E-03 0. -1.
         11   -1    0    0    0    0 -0.00000000000E+00 -0.00000000000E+00 -0.45593999997E+02  0.45594000000E+02  0.51100000000E-03 0.  1.
    9900012    2    1    2    0    0 -0.15865153934E+02  0.17871828271E+02 -0.32894679724E+02  0.50528864381E+02  0.30000013773E+02 0.  0.
         12    1    1    2    0    0  0.15865153934E+02 -0.17871828271E+02  0.32894679724E+02  0.40659135619E+02  0.00000000000E+00 0. -1.
         11    1    3    3    0    0  0.18924449683E+01  0.26119727350E+01  0.14572875230E-01  0.32255173471E+01  0.51100000000E-03 0. -1.
        -11    1    3    3    0    0 -0.13168004337E+02  0.97344340534E+01 -0.31323591320E+01  0.16672348921E+02  0.51100000000E-03 0.  1.
        -12    1    3    3    0    0 -0.45895945657E+01  0.55254214826E+01 -0.29776893467E+02  0.30630998113E+02  0.00000000000E+00 0.  1.
</event>
<event>
 7    1  0.4871930E-013  0.5052886E+02  0.7816164E-02  0.1300439E+00
        -11   -1    0    0    0    0  0.00000000000E+00  0.00000000000E+00  0.45593999997E+02  0.45594000000E+02  0.51100000000E-03 0. -1.
         11   -1    0    0    0    0 -0.00000000000E+00 -0.00000000000E+00 -0.45593999997E+02  0.45594000000E+02  0.51100000000E-03 0.  1.
    9900012    2    1    2    0    0 -0.13508330579E+02 -0.28845685741E+02 -0.25270874144E+02  0.50528860057E+02  0.30000000630E+02 0.  0.
         12    1    1    2    0    0  0.13508330579E+02  0.28845685741E+02  0.25270874144E+02  0.40659139943E+02  0.00000000000E+00 0. -1.
         11    1    3    3    0    0 -0.49669210128E+01 -0.42902111004E+01  0.21118055547E-01  0.65632813338E+01  0.51100000000E-03 0. -1.
        -11    1    3    3    0    0 -0.81510924019E+01 -0.12207764726E+00 -0.15745234175E+02  0.17730414823E+02  0.51100000000E-03 0.  1.
         12    1    3    3    0    0 -0.39031716428E+00 -0.24433396993E+02 -0.95467580240E+01  0.26235163901E+02  0.00000000000E+00 0. -1.
</event>
<event>
 7    1  0.4871930E-013  0.5052886E+02  0.7816164E-02  0.1300439E+00
        -11   -1    0    0    0    0  0.00000000000E+00  0.00000000000E+00  0.45593999997E+02  0.45594000000E+02  0.51100000000E-03 0.  1.
         11   -1    0    0    0    0 -0.00000000000E+00 -0.00000000000E+00 -0.45593999997E+02  0.45594000000E+02  0.51100000000E-03 0. -1.
    9900012    2    1    2    0    0  0.21444751801E+02  0.13452336719E+02  0.31817018092E+02  0.50528863471E+02  0.30000011006E+02 0.  0.
         12    1    1    2    0    0 -0.21444751801E+02 -0.13452336719E+02 -0.31817018092E+02  0.40659136529E+02  0.00000000000E+00 0. -1.
         11    1    3    3    0    0 -0.26556523154E+00  0.40643107272E+01  0.56406701442E-01  0.40733682078E+01  0.51100000000E-03 0. -1.
        -11    1    3    3    0    0  0.32453375481E+01 -0.72165915438E+01  0.30118802839E+01  0.84665714676E+01  0.51100000000E-03 0.  1.
        -12    1    3    3    0    0  0.18464979484E+02  0.16604617536E+02  0.28748731107E+02  0.37988923795E+02  0.00000000000E+00 0.  1.
</event>
<event>
 7    1  0.4871930E-013  0.5052886E+02  0.7816164E-02  0.1300439E+00
        -11   -1    0    0    0    0  0.00000000000E+00  0.00000000000E+00  0.45593999997E+02  0.45594000000E+02  0.51100000000E-03 0. -1.
         11   -1    0    0    0    0 -0.00000000000E+00 -0.00000000000E+00 -0.45593999997E+02  0.45594000000E+02  0.51100000000E-03 0.  1.
    9900012    2    1    2    0    0 -0.17852217933E+02 -0.33577050899E+02  0.14389079634E+02  0.50528860254E+02  0.30000001227E+02 0.  0.
         12    1    1    2    0    0  0.17852217933E+02  0.33577050899E+02 -0.14389079634E+02  0.40659139746E+02  0.00000000000E+00 0. -1.
         11    1    3    3    0    0 -0.11138138785E+02 -0.20657496469E+02  0.15714530799E+02  0.28244234358E+02  0.51100000000E-03 0.  1.
        -11    1    3    3    0    0 -0.74610818627E+01 -0.16745624624E+02 -0.78877065426E+00  0.18349546207E+02  0.51100000000E-03 0. -1.
         12    1    3    3    0    0  0.74700271441E+00  0.38260701941E+01 -0.53668051065E+00  0.39350796886E+01  0.00000000000E+00 0. -1.
</event>
<event>
 7    1  0.4871930E-013  0.5052887E+02  0.7816164E-02  0.1300439E+00
        -11   -1    0    0    0    0  0.00000000000E+00  0.00000000000E+00  0.45593999997E+02  0.45594000000E+02  0.51100000000E-03 0.  1.
         11   -1    0    0    0    0 -0.00000000000E+00 -0.00000000000E+00 -0.45593999997E+02  0.45594000000E+02  0.51100000000E-03 0. -1.
    9900012    2    1    2    0    0  0.45865829996E+01  0.21516625104E+02  0.34193027940E+02  0.50528867457E+02  0.30000023122E+02 0.  0.
         12    1    1    2    0    0 -0.45865829996E+01 -0.21516625104E+02 -0.34193027940E+02  0.40659132543E+02  0.00000000000E+00 0. -1.
         11    1    3    3    0    0 -0.20069695342E+00  0.37802230654E+01  0.87289490392E+01  0.95144583283E+01  0.51100000000E-03 0. -1.
        -11    1    3    3    0    0 -0.38309757543E+01 -0.43706574487E+01 -0.50983644361E+00  0.58342913215E+01  0.51100000000E-03 0.  1.
         12    1    3    3    0    0  0.86182557073E+01  0.22107059487E+02  0.25973915344E+02  0.35180117807E+02  0.00000000000E+00 0. -1.
</event>
<event>
 7    1  0.4871930E-013  0.5052886E+02  0.7816164E-02  0.1300439E+00
        -11   -1    0    0    0    0  0.00000000000E+00  0.00000000000E+00  0.45593999997E+02  0.45594000000E+02  0.51100000000E-03 0.  1.
         11   -1    0    0    0    0 -0.00000000000E+00 -0.00000000000E+00 -0.45593999997E+02  0.45594000000E+02  0.51100000000E-03 0. -1.
    9900012    2    1    2    0    0  0.21611298851E+01 -0.54153643372E+01  0.40238899994E+02  0.50528859256E+02  0.29999998195E+02 0.  0.
         12    1    1    2    0    0 -0.21611298851E+01  0.54153643372E+01 -0.40238899994E+02  0.40659140744E+02  0.00000000000E+00 0. -1.
         11    1    3    3    0    0  0.42506686266E+01 -0.74661001461E+01  0.15299478633E+02  0.17546648736E+02  0.51100000000E-03 0. -1.
        -11    1    3    3    0    0 -0.93065833043E+01 -0.37117844400E+01  0.54276494928E+01  0.11395140008E+02  0.51100000000E-03 0.  1.
         12    1    3    3    0    0  0.72170445628E+01  0.57625202489E+01  0.19511771869E+02  0.21587070512E+02  0.00000000000E+00 0. -1.
</event>
<event>
 7    1  0.4871930E-013  0.5052886E+02  0.7816164E-02  0.1300439E+00
        -11   -1    0    0    0    0  0.00000000000E+00  0.00000000000E+00  0.45593999997E+02  0.45594000000E+02  0.51100000000E-03 0.  1.
         11   -1    0    0    0    0 -0.00000000000E+00 -0.00000000000E+00 -0.45593999997E+02  0.45594000000E+02  0.51100000000E-03 0. -1.
    9900012    2    1    2    0    0 -0.17952132492E+02  0.31755784462E+02  0.17957073030E+02  0.50528863516E+02  0.30000011144E+02 0.  0.
         12    1    1    2    0    0  0.17952132492E+02 -0.31755784462E+02 -0.17957073030E+02  0.40659136484E+02  0.00000000000E+00 0. -1.
         11    1    3    3    0    0 -0.80855679471E+01 -0.21020892298E+01  0.76980296928E+01  0.11360231053E+02  0.51100000000E-03 0. -1.
        -11    1    3    3    0    0  0.30024927884E+01  0.25435642231E+01  0.13543257095E+01  0.41615958826E+01  0.51100000000E-03 0.  1.
        -12    1    3    3    0    0 -0.12869057333E+02  0.31314309469E+02  0.89047176276E+01  0.35007036581E+02  0.00000000000E+00 0.  1.
</event>
<event>
 7    1  0.4871930E-013  0.5052887E+02  0.7816164E-02  0.1300439E+00
        -11   -1    0    0    0    0  0.00000000000E+00  0.00000000000E+00  0.45593999997E+02  0.45594000000E+02  0.51100000000E-03 0. -1.
         11   -1    0    0    0    0 -0.00000000000E+00 -0.00000000000E+00 -0.45593999997E+02  0.45594000000E+02  0.51100000000E-03 0.  1.
    9900012    2    1    2    0    0 -0.33579655839E+02 -0.10084695979E+02  0.20588110465E+02  0.50528872221E+02  0.30000037602E+02 0.  0.
         12    1    1    2    0    0  0.33579655839E+02  0.10084695979E+02 -0.20588110465E+02  0.40659127779E+02  0.00000000000E+00 0. -1.
         11    1    3    3    0    0 -0.28660366882E+02 -0.27656980142E+01  0.12130139973E+02  0.31244295661E+02  0.51100000000E-03 0. -1.
        -11    1    3    3    0    0 -0.23184395018E+01 -0.20510654142E+01  0.12021278601E+02  0.12413427025E+02  0.51100000000E-03 0.  1.
        -12    1    3    3    0    0 -0.26008494545E+01 -0.52679325509E+01 -0.35633081086E+01  0.68711495343E+01  0.00000000000E+00 0.  1.
</event>
<event>
 7    1  0.5740190E-013  0.5052886E+02  0.7816164E-02  0.1300439E+00
        -11   -1    0    0    0    0  0.00000000000E+00  0.00000000000E+00  0.45593999997E+02  0.45594000000E+02  0.51100000000E-03 0.  1.
         11   -1    0    0    0    0 -0.00000000000E+00 -0.00000000000E+00 -0.45593999997E+02  0.45594000000E+02  0.51100000000E-03 0. -1.
    9900012    2    1    2    0    0 -0.12874210830E+02  0.30915760353E+02  0.23057230395E+02  0.50528863067E+02  0.30000009777E+02 0.  0.
         12    1    1    2    0    0  0.12874210830E+02 -0.30915760353E+02 -0.23057230395E+02  0.40659136933E+02  0.00000000000E+00 0. -1.
         11    1    3    3    0    0  0.97131653153E+00 -0.16932193917E+01  0.44890863142E+01  0.48951347183E+01  0.51100000000E-03 0. -1.
        -11    1    3    3    0    0 -0.29326982572E+01  0.37328727624E+01 -0.49257517410E+01  0.68409128487E+01  0.51100000000E-03 0.  1.
        -12    1    3    3    0    0 -0.10912829104E+02  0.28876106982E+02  0.23493895822E+02  0.38792815500E+02  0.00000000000E+00 0.  1.
</event>
<event>
 7    1  0.4871930E-013  0.5052886E+02  0.7816164E-02  0.1300439E+00
        -11   -1    0    0    0    0  0.00000000000E+00  0.00000000000E+00  0.45593999997E+02  0.45594000000E+02  0.51100000000E-03 0.  1.
         11   -1    0    0    0    0 -0.00000000000E+00 -0.00000000000E+00 -0.45593999997E+02  0.45594000000E+02  0.51100000000E-03 0. -1.
    9900012    2    1    2    0    0 -0.14769357438E+02  0.15020582046E+02  0.34776628257E+02  0.50528859859E+02  0.30000000027E+02 0.  0.
         12    1    1    2    0    0  0.14769357438E+02 -0.15020582046E+02 -0.34776628257E+02  0.40659140141E+02  0.00000000000E+00 0. -1.
         11    1    3    3    0    0 -0.72990446811E+01  0.79206707137E+00  0.11583183219E+02  0.13713991295E+02  0.51100000000E-03 0. -1.
        -11    1    3    3    0    0 -0.48095686017E+01  0.12612137359E+02  0.28002547794E+02  0.31086020043E+02  0.51100000000E-03 0.  1.
         12    1    3    3    0    0 -0.26607441548E+01  0.16163776155E+01 -0.48091027561E+01  0.57288485206E+01  0.00000000000E+00 0. -1.
</event>
<event>
 7    1  0.4871930E-013  0.5052885E+02  0.7816164E-02  0.1300439E+00
        -11   -1    0    0    0    0  0.00000000000E+00  0.00000000000E+00  0.45593999997E+02  0.45594000000E+02  0.51100000000E-03 0. -1.
         11   -1    0    0    0    0 -0.00000000000E+00 -0.00000000000E+00 -0.45593999997E+02  0.45594000000E+02  0.51100000000E-03 0.  1.
    9900012    2    1    2    0    0 -0.15737241085E+02 -0.35787576682E+02 -0.11169364735E+02  0.50528854530E+02  0.29999983831E+02 0.  0.
         12    1    1    2    0    0  0.15737241085E+02  0.35787576682E+02  0.11169364735E+02  0.40659145470E+02  0.00000000000E+00 0. -1.
         11    1    3    3    0    0  0.41719719294E+00 -0.26705796127E+02 -0.58802314833E+01  0.27348687772E+02  0.51100000000E-03 0. -1.
        -11    1    3    3    0    0 -0.94058083087E+01 -0.10919023796E+02 -0.63299412216E-03  0.14411603355E+02  0.51100000000E-03 0.  1.
         12    1    3    3    0    0 -0.67486299689E+01  0.18372432414E+01 -0.52885002579E+01  0.87685634036E+01  0.00000000000E+00 0. -1.
</event>
<event>
 7    1  0.4871930E-013  0.5052886E+02  0.7816164E-02  0.1300439E+00
        -11   -1    0    0    0    0  0.00000000000E+00  0.00000000000E+00  0.45593999997E+02  0.45594000000E+02  0.51100000000E-03 0.  1.
         11   -1    0    0    0    0 -0.00000000000E+00 -0.00000000000E+00 -0.45593999997E+02  0.45594000000E+02  0.51100000000E-03 0. -1.
    9900012    2    1    2    0    0  0.16994200316E+02 -0.21067105403E+02  0.30340403471E+02  0.50528857643E+02  0.29999993291E+02 0.  0.
         12    1    1    2    0    0 -0.16994200316E+02  0.21067105403E+02 -0.30340403471E+02  0.40659142357E+02  0.00000000000E+00 0. -1.
         11    1    3    3    0    0  0.15331488169E+02 -0.80780056003E+01  0.36480602975E+01  0.17709236239E+02  0.51100000000E-03 0. -1.
        -11    1    3    3    0    0  0.42287050291E+01  0.13332398557E+01  0.78182735923E+01  0.89880407743E+01  0.51100000000E-03 0.  1.
        -12    1    3    3    0    0 -0.25659928818E+01 -0.14322339658E+02  0.18874069581E+02  0.23831580630E+02  0.00000000000E+00 0.  1.
</event>
<event>
 7    1  0.4871930E-013  0.5052887E+02  0.7816164E-02  0.1300439E+00
        -11   -1    0    0    0    0  0.00000000000E+00  0.00000000000E+00  0.45593999997E+02  0.45594000000E+02  0.51100000000E-03 0. -1.
         11   -1    0    0    0    0 -0.00000000000E+00 -0.00000000000E+00 -0.45593999997E+02  0.45594000000E+02  0.51100000000E-03 0.  1.
    9900012    2    1    2    0    0  0.23082893049E+02  0.30518418275E+02 -0.13746688218E+02  0.50528865203E+02  0.30000016270E+02 0.  0.
         12    1    1    2    0    0 -0.23082893049E+02 -0.30518418275E+02  0.13746688218E+02  0.40659134797E+02  0.00000000000E+00 0. -1.
         11    1    3    3    0    0  0.61952573398E+01  0.16165516061E+02 -0.65292609324E+01  0.18502334220E+02  0.51100000000E-03 0. -1.
        -11    1    3    3    0    0  0.17749383764E+02  0.67297089408E+01 -0.12485283033E+02  0.22720297073E+02  0.51100000000E-03 0.  1.
         12    1    3    3    0    0 -0.86174805439E+00  0.76231932729E+01  0.52678557476E+01  0.93062339087E+01  0.00000000000E+00 0. -1.
</event>
<event>
 7    1  0.4871930E-013  0.5052886E+02  0.7816164E-02  0.1300439E+00
        -11   -1    0    0    0    0  0.00000000000E+00  0.00000000000E+00  0.45593999997E+02  0.45594000000E+02  0.51100000000E-03 0.  1.
         11   -1    0    0    0    0 -0.00000000000E+00 -0.00000000000E+00 -0.45593999997E+02  0.45594000000E+02  0.51100000000E-03 0. -1.
    9900012    2    1    2    0    0  0.33272039602E+02  0.16735946078E+02  0.16310892023E+02  0.50528859466E+02  0.29999998832E+02 0.  0.
         12    1    1    2    0    0 -0.33272039602E+02 -0.16735946078E+02 -0.16310892023E+02  0.40659140534E+02  0.00000000000E+00 0. -1.
         11    1    3    3    0    0  0.29356570239E+01 -0.94926585465E+00 -0.49792752291E+01  0.58576761512E+01  0.51100000000E-03 0. -1.
        -11    1    3    3    0    0  0.19059697521E+02  0.11517143884E+01  0.12435352374E+02  0.22786761608E+02  0.51100000000E-03 0.  1.
        -12    1    3    3    0    0  0.11276685057E+02  0.16533497545E+02  0.88548148773E+01  0.21884421707E+02  0.00000000000E+00 0.  1.
</event>
<event>
 7    1  0.4871930E-013  0.5052879E+02  0.7816164E-02  0.1300439E+00
        -11   -1    0    0    0    0  0.00000000000E+00  0.00000000000E+00  0.45593999997E+02  0.45594000000E+02  0.51100000000E-03 0.  1.
         11   -1    0    0    0    0 -0.00000000000E+00 -0.00000000000E+00 -0.45593999997E+02  0.45594000000E+02  0.51100000000E-03 0. -1.
    9900012    2    1    2    0    0 -0.30211622944E+02 -0.20598519906E+02  0.17780048034E+02  0.50528790818E+02  0.29999790171E+02 0.  0.
         12    1    1    2    0    0  0.30211622944E+02  0.20598519906E+02 -0.17780048034E+02  0.40659209182E+02  0.00000000000E+00 0. -1.
         11    1    3    3    0    0 -0.16635370863E+02 -0.39709658066E+01  0.12554832017E+02  0.21216218806E+02  0.51100000000E-03 0. -1.
        -11    1    3    3    0    0 -0.48070606815E+01 -0.15425667718E+02  0.10250260287E+02  0.19134442588E+02  0.51100000000E-03 0.  1.
         12    1    3    3    0    0 -0.87691913994E+01 -0.12018863810E+01 -0.50250442698E+01  0.10178129425E+02  0.00000000000E+00 0. -1.
</event>
<event>
 7    1  0.4871930E-013  0.5052886E+02  0.7816164E-02  0.1300439E+00
        -11   -1    0    0    0    0  0.00000000000E+00  0.00000000000E+00  0.45593999997E+02  0.45594000000E+02  0.51100000000E-03 0.  1.
         11   -1    0    0    0    0 -0.00000000000E+00 -0.00000000000E+00 -0.45593999997E+02  0.45594000000E+02  0.51100000000E-03 0. -1.
    9900012    2    1    2    0    0  0.24702545516E+01  0.38910956472E+02 -0.11532600951E+02  0.50528861103E+02  0.30000003810E+02 0.  0.
         12    1    1    2    0    0 -0.24702545516E+01 -0.38910956472E+02  0.11532600951E+02  0.40659138897E+02  0.00000000000E+00 0. -1.
         11    1    3    3    0    0  0.17251198593E+01  0.22334906162E+02 -0.10004084929E+02  0.24533768307E+02  0.51100000000E-03 0. -1.
        -11    1    3    3    0    0  0.25715155869E+01  0.19249566056E+02  0.37723999667E+01  0.19783566097E+02  0.51100000000E-03 0.  1.
        -12    1    3    3    0    0 -0.18263808946E+01 -0.26735157459E+01 -0.53009159889E+01  0.62115266994E+01  0.00000000000E+00 0.  1.
</event>
<event>
 7    1  0.4871930E-013  0.5052887E+02  0.7816164E-02  0.1300439E+00
        -11   -1    0    0    0    0  0.00000000000E+00  0.00000000000E+00  0.45593999997E+02  0.45594000000E+02  0.51100000000E-03 0. -1.
         11   -1    0    0    0    0 -0.00000000000E+00 -0.00000000000E+00 -0.45593999997E+02  0.45594000000E+02  0.51100000000E-03 0.  1.
    9900012    2    1    2    0    0 -0.27352381227E+02 -0.29802791274E+02 -0.40994430434E+01  0.50528873598E+02  0.30000041788E+02 0.  0.
         12    1    1    2    0    0  0.27352381227E+02  0.29802791274E+02  0.40994430434E+01  0.40659126402E+02  0.00000000000E+00 0. -1.
         11    1    3    3    0    0 -0.12113194884E+02 -0.10329318326E+02  0.10762134756E+01  0.15955642985E+02  0.51100000000E-03 0. -1.
        -11    1    3    3    0    0 -0.16658540211E+02 -0.13528492438E+02 -0.12655602857E+02  0.24913678041E+02  0.51100000000E-03 0.  1.
        -12    1    3    3    0    0  0.14193538675E+01 -0.59449805110E+01  0.74799463377E+01  0.96595525721E+01  0.00000000000E+00 0.  1.
</event>
<event>
 7    1  0.4871930E-013  0.5052885E+02  0.7816164E-02  0.1300439E+00
        -11   -1    0    0    0    0  0.00000000000E+00  0.00000000000E+00  0.45593999997E+02  0.45594000000E+02  0.51100000000E-03 0. -1.
         11   -1    0    0    0    0 -0.00000000000E+00 -0.00000000000E+00 -0.45593999997E+02  0.45594000000E+02  0.51100000000E-03 0.  1.
    9900012    2    1    2    0    0  0.18709208129E+02  0.34124928406E+02 -0.11773751207E+02  0.50528850661E+02  0.29999972068E+02 0.  0.
         12    1    1    2    0    0 -0.18709208129E+02 -0.34124928406E+02  0.11773751207E+02  0.40659149339E+02  0.00000000000E+00 0. -1.
         11    1    3    3    0    0  0.13556523528E+02  0.22445533905E+02  0.47907085349E+00  0.26226147860E+02  0.51100000000E-03 0. -1.
        -11    1    3    3    0    0 -0.40305529920E+01  0.42552009042E+01  0.16234951874E+01  0.60817620014E+01  0.51100000000E-03 0.  1.
        -12    1    3    3    0    0  0.91832375932E+01  0.74241935968E+01 -0.13876317248E+02  0.18220940799E+02  0.00000000000E+00 0.  1.
</event>
<event>
 7    1  0.4871930E-013  0.5052884E+02  0.7816164E-02  0.1300439E+00
        -11   -1    0    0    0    0  0.00000000000E+00  0.00000000000E+00  0.45593999997E+02  0.45594000000E+02  0.51100000000E-03 0. -1.
         11   -1    0    0    0    0 -0.00000000000E+00 -0.00000000000E+00 -0.45593999997E+02  0.45594000000E+02  0.51100000000E-03 0.  1.
    9900012    2    1    2    0    0  0.42667648704E+01  0.33568991038E+02  0.22540739020E+02  0.50528839195E+02  0.29999937219E+02 0.  0.
         12    1    1    2    0    0 -0.42667648704E+01 -0.33568991038E+02 -0.22540739020E+02  0.40659160805E+02  0.00000000000E+00 0. -1.
         11    1    3    3    0    0  0.92878373168E+01  0.88493671771E+01  0.17037487201E+02  0.21327240606E+02  0.51100000000E-03 0. -1.
        -11    1    3    3    0    0  0.45814832315E+00  0.24343101911E+01 -0.37193926152E+01  0.44687411739E+01  0.51100000000E-03 0.  1.
         12    1    3    3    0    0 -0.54792207695E+01  0.22285313670E+02  0.92226444336E+01  0.24732857416E+02  0.00000000000E+00 0. -1.
</event>
<event>
 7    1  0.4871930E-013  0.5052888E+02  0.7816164E-02  0.1300439E+00
        -11   -1    0    0    0    0  0.00000000000E+00  0.00000000000E+00  0.45593999997E+02  0.45594000000E+02  0.51100000000E-03 0.  1.
         11   -1    0    0    0    0 -0.00000000000E+00 -0.00000000000E+00 -0.45593999997E+02  0.45594000000E+02  0.51100000000E-03 0. -1.
    9900012    2    1    2    0    0 -0.40401951405E+02 -0.26394601404E+00  0.45581890298E+01  0.50528875169E+02  0.30000046563E+02 0.  0.
         12    1    1    2    0    0  0.40401951405E+02  0.26394601404E+00 -0.45581890298E+01  0.40659124831E+02  0.00000000000E+00 0. -1.
         11    1    3    3    0    0 -0.12114337082E+01  0.24561064058E+01 -0.26433784350E+01  0.38062422568E+01  0.51100000000E-03 0. -1.
        -11    1    3    3    0    0 -0.19168102981E+02 -0.13213647759E+02  0.62103007467E+01  0.24095321010E+02  0.51100000000E-03 0.  1.
         12    1    3    3    0    0 -0.20022414716E+02  0.10493595339E+02  0.99126671811E+00  0.22627311902E+02  0.00000000000E+00 0. -1.
</event>
<event>
 7    1  0.4871930E-013  0.5052886E+02  0.7816164E-02  0.1300439E+00
        -11   -1    0    0    0    0  0.00000000000E+00  0.00000000000E+00  0.45593999997E+02  0.45594000000E+02  0.51100000000E-03 0. -1.
         11   -1    0    0    0    0 -0.00000000000E+00 -0.00000000000E+00 -0.45593999997E+02  0.45594000000E+02  0.51100000000E-03 0.  1.
    9900012    2    1    2    0    0 -0.56619770884E+01  0.40031031825E+02  0.43156028544E+01  0.50528856852E+02  0.29999990888E+02 0.  0.
         12    1    1    2    0    0  0.56619770884E+01 -0.40031031825E+02 -0.43156028544E+01  0.40659143148E+02  0.00000000000E+00 0. -1.
         11    1    3    3    0    0 -0.91851279315E+01  0.14310607470E+01  0.32688732345E+01  0.98539353795E+01  0.51100000000E-03 0. -1.
        -11    1    3    3    0    0 -0.35014646365E+01  0.23147871127E+02  0.29429699463E+01  0.23595450084E+02  0.51100000000E-03 0.  1.
        -12    1    3    3    0    0  0.70246154796E+01  0.15452099951E+02 -0.18962403263E+01  0.17079471389E+02  0.00000000000E+00 0.  1.
</event>
<event>
 7    1  0.4871930E-013  0.5052887E+02  0.7816164E-02  0.1300439E+00
        -11   -1    0    0    0    0  0.00000000000E+00  0.00000000000E+00  0.45593999997E+02  0.45594000000E+02  0.51100000000E-03 0.  1.
         11   -1    0    0    0    0 -0.00000000000E+00 -0.00000000000E+00 -0.45593999997E+02  0.45594000000E+02  0.51100000000E-03 0. -1.
    9900012    2    1    2    0    0  0.31050614613E+02 -0.22002009516E+02  0.14315577840E+02  0.50528869913E+02  0.30000030587E+02 0.  0.
         12    1    1    2    0    0 -0.31050614613E+02  0.22002009516E+02 -0.14315577840E+02  0.40659130087E+02  0.00000000000E+00 0. -1.
         11    1    3    3    0    0  0.33490914303E+01 -0.61555260735E+00  0.10122861333E+02  0.10680245327E+02  0.51100000000E-03 0. -1.
        -11    1    3    3    0    0  0.21449363992E+02 -0.51478156930E+01  0.41635078962E+01  0.22447940225E+02  0.51100000000E-03 0.  1.
         12    1    3    3    0    0  0.62521591904E+01 -0.16238641216E+02  0.29208610334E-01  0.17400684361E+02  0.00000000000E+00 0. -1.
</event>
<event>
 7    1  0.4871930E-013  0.5052886E+02  0.7816164E-02  0.1300439E+00
        -11   -1    0    0    0    0  0.00000000000E+00  0.00000000000E+00  0.45593999997E+02  0.45594000000E+02  0.51100000000E-03 0.  1.
         11   -1    0    0    0    0 -0.00000000000E+00 -0.00000000000E+00 -0.45593999997E+02  0.45594000000E+02  0.51100000000E-03 0. -1.
    9900012    2    1    2    0    0  0.30833363157E+02 -0.12984468066E+02  0.23105691193E+02  0.50528860068E+02  0.30000000662E+02 0.  0.
         12    1    1    2    0    0 -0.30833363157E+02  0.12984468066E+02 -0.23105691193E+02  0.40659139932E+02  0.00000000000E+00 0. -1.
         11    1    3    3    0    0  0.48871295899E+01  0.63371111321E+01  0.17240386118E+00  0.80045447392E+01  0.51100000000E-03 0. -1.
        -11    1    3    3    0    0  0.61324596222E+01  0.60274067004E+00  0.96356336234E+01  0.11437473188E+02  0.51100000000E-03 0.  1.
         12    1    3    3    0    0  0.19813773945E+02 -0.19924319868E+02  0.13297653709E+02  0.31086842141E+02  0.00000000000E+00 0. -1.
</event>
<event>
 7    1  0.4871930E-013  0.5052885E+02  0.7816164E-02  0.1300439E+00
        -11   -1    0    0    0    0  0.00000000000E+00  0.00000000000E+00  0.45593999997E+02  0.45594000000E+02  0.51100000000E-03 0.  1.
         11   -1    0    0    0    0 -0.00000000000E+00 -0.00000000000E+00 -0.45593999997E+02  0.45594000000E+02  0.51100000000E-03 0. -1.
    9900012    2    1    2    0    0 -0.31461179545E+02 -0.41356052894E+01  0.25421588743E+02  0.50528853136E+02  0.29999979594E+02 0.  0.
         12    1    1    2    0    0  0.31461179545E+02  0.41356052894E+01 -0.25421588743E+02  0.40659146864E+02  0.00000000000E+00 0. -1.
         11    1    3    3    0    0 -0.52246843791E+01  0.14288066684E+01  0.19696020099E+02  0.20427237291E+02  0.51100000000E-03 0. -1.
        -11    1    3    3    0    0 -0.67804769971E+01 -0.60592575710E+01  0.55210960720E+01  0.10638231654E+02  0.51100000000E-03 0.  1.
         12    1    3    3    0    0 -0.19456018169E+02  0.49484561318E+00  0.20447257220E+00  0.19463384192E+02  0.00000000000E+00 0. -1.
</event>
<event>
 7    1  0.4871930E-013  0.5052886E+02  0.7816164E-02  0.1300439E+00
        -11   -1    0    0    0    0  0.00000000000E+00  0.00000000000E+00  0.45593999997E+02  0.45594000000E+02  0.51100000000E-03 0.  1.
         11   -1    0    0    0    0 -0.00000000000E+00 -0.00000000000E+00 -0.45593999997E+02  0.45594000000E+02  0.51100000000E-03 0. -1.
    9900012    2    1    2    0    0  0.24545329086E+01  0.36720006803E+01  0.40418526577E+02  0.50528860665E+02  0.30000002478E+02 0.  0.
         12    1    1    2    0    0 -0.24545329086E+01 -0.36720006803E+01 -0.40418526577E+02  0.40659139335E+02  0.00000000000E+00 0. -1.
         11    1    3    3    0    0  0.47501420860E+01 -0.58525997362E+01  0.74748021848E+00  0.75746617381E+01  0.51100000000E-03 0. -1.
        -11    1    3    3    0    0 -0.54361390503E+01 -0.93077022045E+00  0.11964034507E+02  0.13174067820E+02  0.51100000000E-03 0.  1.
        -12    1    3    3    0    0  0.31405298729E+01  0.10455370637E+02  0.27707011851E+02  0.29780131107E+02  0.00000000000E+00 0.  1.
</event>
<event>
 7    1  0.4871930E-013  0.5052886E+02  0.7816164E-02  0.1300439E+00
        -11   -1    0    0    0    0  0.00000000000E+00  0.00000000000E+00  0.45593999997E+02  0.45594000000E+02  0.51100000000E-03 0.  1.
         11   -1    0    0    0    0 -0.00000000000E+00 -0.00000000000E+00 -0.45593999997E+02  0.45594000000E+02  0.51100000000E-03 0. -1.
    9900012    2    1    2    0    0 -0.10856935318E+01  0.16810448007E+02 -0.37005349206E+02  0.50528858807E+02  0.29999996830E+02 0.  0.
         12    1    1    2    0    0  0.10856935318E+01 -0.16810448007E+02  0.37005349206E+02  0.40659141193E+02  0.00000000000E+00 0. -1.
         11    1    3    3    0    0  0.88920266145E+00  0.13122573931E+01 -0.26391474198E+02  0.26439035751E+02  0.51100000000E-03 0. -1.
        -11    1    3    3    0    0 -0.81902543050E+01  0.95595814004E+01 -0.86447209508E+01  0.15270791162E+02  0.51100000000E-03 0.  1.
         12    1    3    3    0    0  0.62153581117E+01  0.59386092137E+01 -0.19691540578E+01  0.88190318943E+01  0.00000000000E+00 0. -1.
</event>
<event>
 7    1  0.4871930E-013  0.5052886E+02  0.7816164E-02  0.1300439E+00
        -11   -1    0    0    0    0  0.00000000000E+00  0.00000000000E+00  0.45593999997E+02  0.45594000000E+02  0.51100000000E-03 0.  1.
         11   -1    0    0    0    0 -0.00000000000E+00 -0.00000000000E+00 -0.45593999997E+02  0.45594000000E+02  0.51100000000E-03 0. -1.
    9900012    2    1    2    0    0 -0.25667461481E+02 -0.18055093013E+02  0.25852675587E+02  0.50528858376E+02  0.29999995520E+02 0.  0.
         12    1    1    2    0    0  0.25667461481E+02  0.18055093013E+02 -0.25852675587E+02  0.40659141624E+02  0.00000000000E+00 0. -1.
         11    1    3    3    0    0 -0.47538627407E+01 -0.10802619670E+02  0.22872144665E+02  0.25737731146E+02  0.51100000000E-03 0. -1.
        -11    1    3    3    0    0 -0.32635396099E+01  0.93540337508E-01  0.45599299279E+01  0.56082440914E+01  0.51100000000E-03 0.  1.
         12    1    3    3    0    0 -0.17650059131E+02 -0.73460136799E+01 -0.15793990061E+01  0.19182883139E+02  0.00000000000E+00 0. -1.
</event>
<event>
 7    1  0.4871930E-013  0.5052887E+02  0.7816164E-02  0.1300439E+00
        -11   -1    0    0    0    0  0.00000000000E+00  0.00000000000E+00  0.45593999997E+02  0.45594000000E+02  0.51100000000E-03 0. -1.
         11   -1    0    0    0    0 -0.00000000000E+00 -0.00000000000E+00 -0.45593999997E+02  0.45594000000E+02  0.51100000000E-03 0.  1.
    9900012    2    1    2    0    0  0.23609766028E+02 -0.89547840582E+01 -0.31867789755E+02  0.50528865316E+02  0.30000016613E+02 0.  0.
         12    1    1    2    0    0 -0.23609766028E+02  0.89547840582E+01  0.31867789755E+02  0.40659134684E+02  0.00000000000E+00 0. -1.
         11    1    3    3    0    0 -0.20997061296E+01  0.14628328955E+01 -0.77311133627E+01  0.81436330958E+01  0.51100000000E-03 0. -1.
        -11    1    3    3    0    0  0.18680375165E+02  0.30427306466E+01 -0.90473394431E+01  0.20977821082E+02  0.51100000000E-03 0.  1.
         12    1    3    3    0    0  0.70290969927E+01 -0.13460347600E+02 -0.15089336949E+02  0.21407411138E+02  0.00000000000E+00 0. -1.
</event>
<event>
 7    1  0.4871930E-013  0.5052886E+02  0.7816164E-02  0.1300439E+00
        -11   -1    0    0    0    0  0.00000000000E+00  0.00000000000E+00  0.45593999997E+02  0.45594000000E+02  0.51100000000E-03 0.  1.
         11   -1    0    0    0    0 -0.00000000000E+00 -0.00000000000E+00 -0.45593999997E+02  0.45594000000E+02  0.51100000000E-03 0. -1.
    9900012    2    1    2    0    0  0.13117248566E+01 -0.35783351635E+02  0.19261284854E+02  0.50528856249E+02  0.29999989054E+02 0.  0.
         12    1    1    2    0    0 -0.13117248566E+01  0.35783351635E+02 -0.19261284854E+02  0.40659143751E+02  0.00000000000E+00 0. -1.
         11    1    3    3    0    0 -0.22308764271E+01 -0.15080399592E+02  0.15420662142E+02  0.21683912991E+02  0.51100000000E-03 0. -1.
        -11    1    3    3    0    0  0.89436114177E+00 -0.15493655649E+02  0.11424302023E+02  0.19270908754E+02  0.51100000000E-03 0.  1.
         12    1    3    3    0    0  0.26482401419E+01 -0.52092963944E+01 -0.75836793110E+01  0.95740345030E+01  0.00000000000E+00 0. -1.
</event>
<event>
 7    1  0.4871930E-013  0.5052889E+02  0.7816164E-02  0.1300439E+00
        -11   -1    0    0    0    0  0.00000000000E+00  0.00000000000E+00  0.45593999997E+02  0.45594000000E+02  0.51100000000E-03 0. -1.
         11   -1    0    0    0    0 -0.00000000000E+00 -0.00000000000E+00 -0.45593999997E+02  0.45594000000E+02  0.51100000000E-03 0.  1.
    9900012    2    1    2    0    0  0.11603859154E+02 -0.36306849436E+02  0.14153660270E+02  0.50528893243E+02  0.30000101501E+02 0.  0.
         12    1    1    2    0    0 -0.11603859154E+02  0.36306849436E+02 -0.14153660270E+02  0.40659106757E+02  0.00000000000E+00 0. -1.
         11    1    3    3    0    0 -0.41242735773E+01 -0.23022430736E+01  0.24803199579E+01  0.53349735768E+01  0.51100000000E-03 0. -1.
        -11    1    3    3    0    0  0.57137844475E+01 -0.33093865862E+02  0.83880606365E+01  0.34615182391E+02  0.51100000000E-03 0.  1.
         12    1    3    3    0    0  0.10014348283E+02 -0.91074050048E+00  0.32852796752E+01  0.10578737276E+02  0.00000000000E+00 0. -1.
</event>
<event>
 7    1  0.4871930E-013  0.5052886E+02  0.7816164E-02  0.1300439E+00
        -11   -1    0    0    0    0  0.00000000000E+00  0.00000000000E+00  0.45593999997E+02  0.45594000000E+02  0.51100000000E-03 0. -1.
         11   -1    0    0    0    0 -0.00000000000E+00 -0.00000000000E+00 -0.45593999997E+02  0.45594000000E+02  0.51100000000E-03 0.  1.
    9900012    2    1    2    0    0 -0.30932898871E+02 -0.10564525960E+02 -0.24180821580E+02  0.50528861131E+02  0.30000003893E+02 0.  0.
         12    1    1    2    0    0  0.30932898871E+02  0.10564525960E+02  0.24180821580E+02  0.40659138869E+02  0.00000000000E+00 0. -1.
         11    1    3    3    0    0 -0.10172767955E+02 -0.14631301845E+02 -0.15425826503E+01  0.17886860067E+02  0.51100000000E-03 0. -1.
        -11    1    3    3    0    0 -0.99320106766E+01 -0.31695542375E+01 -0.11297007561E+02  0.15372484843E+02  0.51100000000E-03 0.  1.
        -12    1    3    3    0    0 -0.10828120240E+02  0.72363301225E+01 -0.11341231368E+02  0.17269516221E+02  0.00000000000E+00 0.  1.
</event>
<event>
 7    1  0.4871930E-013  0.5052886E+02  0.7816164E-02  0.1300439E+00
        -11   -1    0    0    0    0  0.00000000000E+00  0.00000000000E+00  0.45593999997E+02  0.45594000000E+02  0.51100000000E-03 0.  1.
         11   -1    0    0    0    0 -0.00000000000E+00 -0.00000000000E+00 -0.45593999997E+02  0.45594000000E+02  0.51100000000E-03 0. -1.
    9900012    2    1    2    0    0  0.32724011742E+02  0.22049122972E+02  0.98051423708E+01  0.50528860988E+02  0.30000003458E+02 0.  0.
         12    1    1    2    0    0 -0.32724011742E+02 -0.22049122972E+02 -0.98051423708E+01  0.40659139012E+02  0.00000000000E+00 0. -1.
         11    1    3    3    0    0  0.11263407533E+02  0.11315145303E+02  0.31980890380E+01  0.16282648318E+02  0.51100000000E-03 0. -1.
        -11    1    3    3    0    0  0.16597051083E+02  0.30451750096E+01 -0.66755230486E+01  0.18146564516E+02  0.51100000000E-03 0.  1.
         12    1    3    3    0    0  0.48635531253E+01  0.76888026595E+01  0.13282576381E+02  0.16099648154E+02  0.00000000000E+00 0. -1.
</event>
<event>
 7    1  0.4871930E-013  0.5052886E+02  0.7816164E-02  0.1300439E+00
        -11   -1    0    0    0    0  0.00000000000E+00  0.00000000000E+00  0.45593999997E+02  0.45594000000E+02  0.51100000000E-03 0. -1.
         11   -1    0    0    0    0 -0.00000000000E+00 -0.00000000000E+00 -0.45593999997E+02  0.45594000000E+02  0.51100000000E-03 0.  1.
    9900012    2    1    2    0    0  0.21983093012E+02  0.33373526644E+02  0.74911517592E+01  0.50528855719E+02  0.29999987443E+02 0.  0.
         12    1    1    2    0    0 -0.21983093012E+02 -0.33373526644E+02 -0.74911517592E+01  0.40659144281E+02  0.00000000000E+00 0. -1.
         11    1    3    3    0    0  0.13064072619E+02  0.23653914779E+02 -0.37139856269E+01  0.27275838525E+02  0.51100000000E-03 0.  1.
        -11    1    3    3    0    0  0.61101024791E+01  0.91449515656E+00 -0.25479476458E+01  0.66829403083E+01  0.51100000000E-03 0. -1.
        -12    1    3    3    0    0  0.28089179137E+01  0.88051167083E+01  0.13753085032E+02  0.16570076885E+02  0.00000000000E+00 0.  1.
</event>
<event>
 7    1  0.5204293E-013  0.5052886E+02  0.7816164E-02  0.1300439E+00
        -11   -1    0    0    0    0  0.00000000000E+00  0.00000000000E+00  0.45593999997E+02  0.45594000000E+02  0.51100000000E-03 0.  1.
         11   -1    0    0    0    0 -0.00000000000E+00 -0.00000000000E+00 -0.45593999997E+02  0.45594000000E+02  0.51100000000E-03 0. -1.
    9900012    2    1    2    0    0 -0.83091027696E+01  0.19296623717E+02  0.34810411992E+02  0.50528860084E+02  0.30000000710E+02 0.  0.
         12    1    1    2    0    0  0.83091027696E+01 -0.19296623717E+02 -0.34810411992E+02  0.40659139916E+02  0.00000000000E+00 0. -1.
         11    1    3    3    0    0  0.66386743568E+01  0.98444923781E+00  0.37452258338E+01  0.76855614189E+01  0.51100000000E-03 0. -1.
        -11    1    3    3    0    0 -0.28442199706E+01  0.67480835068E+01 -0.25804784654E+00  0.73275375951E+01  0.51100000000E-03 0.  1.
        -12    1    3    3    0    0 -0.12103557156E+02  0.11564090972E+02  0.31323234005E+02  0.35515761069E+02  0.00000000000E+00 0.  1.
</event>
<event>
 7    1  0.4871930E-013  0.5052887E+02  0.7816164E-02  0.1300439E+00
        -11   -1    0    0    0    0  0.00000000000E+00  0.00000000000E+00  0.45593999997E+02  0.45594000000E+02  0.51100000000E-03 0. -1.
         11   -1    0    0    0    0 -0.00000000000E+00 -0.00000000000E+00 -0.45593999997E+02  0.45594000000E+02  0.51100000000E-03 0.  1.
    9900012    2    1    2    0    0 -0.21851514564E+02  0.19331608182E+02 -0.28318995037E+02  0.50528865190E+02  0.30000016230E+02 0.  0.
         12    1    1    2    0    0  0.21851514564E+02 -0.19331608182E+02  0.28318995037E+02  0.40659134810E+02  0.00000000000E+00 0. -1.
         11    1    3    3    0    0  0.23106413288E+01  0.71984735256E+00 -0.37937186792E-01  0.24204716592E+01  0.51100000000E-03 0. -1.
        -11    1    3    3    0    0 -0.89825025973E+01  0.20468402025E+02 -0.22621151699E+02  0.31801844897E+02  0.51100000000E-03 0.  1.
        -12    1    3    3    0    0 -0.15179653296E+02 -0.18566411961E+01 -0.56599061511E+01  0.16306548634E+02  0.00000000000E+00 0.  1.
</event>
<event>
 7    1  0.4871930E-013  0.5052886E+02  0.7816164E-02  0.1300439E+00
        -11   -1    0    0    0    0  0.00000000000E+00  0.00000000000E+00  0.45593999997E+02  0.45594000000E+02  0.51100000000E-03 0.  1.
         11   -1    0    0    0    0 -0.00000000000E+00 -0.00000000000E+00 -0.45593999997E+02  0.45594000000E+02  0.51100000000E-03 0. -1.
    9900012    2    1    2    0    0 -0.99372807994E+01 -0.92019916103E+01  0.38337178835E+02  0.50528862278E+02  0.30000007379E+02 0.  0.
         12    1    1    2    0    0  0.99372807994E+01  0.92019916103E+01 -0.38337178835E+02  0.40659137722E+02  0.00000000000E+00 0. -1.
         11    1    3    3    0    0 -0.71492601888E+01 -0.75293106947E+01  0.20263679144E+02  0.22768819326E+02  0.51100000000E-03 0. -1.
        -11    1    3    3    0    0 -0.11605613366E+02 -0.33799120106E+01  0.10207839063E+02  0.15821316172E+02  0.51100000000E-03 0.  1.
         12    1    3    3    0    0  0.88175927556E+01  0.17072310950E+01  0.78656606282E+01  0.11938726780E+02  0.00000000000E+00 0. -1.
</event>
<event>
 7    1  0.4871930E-013  0.5052886E+02  0.7816164E-02  0.1300439E+00
        -11   -1    0    0    0    0  0.00000000000E+00  0.00000000000E+00  0.45593999997E+02  0.45594000000E+02  0.51100000000E-03 0. -1.
         11   -1    0    0    0    0 -0.00000000000E+00 -0.00000000000E+00 -0.45593999997E+02  0.45594000000E+02  0.51100000000E-03 0.  1.
    9900012    2    1    2    0    0 -0.23597219302E+02 -0.47833157212E+01 -0.32763650420E+02  0.50528860106E+02  0.30000000778E+02 0.  0.
         12    1    1    2    0    0  0.23597219302E+02  0.47833157212E+01  0.32763650420E+02  0.40659139894E+02  0.00000000000E+00 0. -1.
         11    1    3    3    0    0 -0.50291479692E+00 -0.41940007824E+01 -0.97103551120E+01  0.10589313600E+02  0.51100000000E-03 0. -1.
        -11    1    3    3    0    0 -0.13444510770E+02 -0.94890814312E+01 -0.42300038099E+01  0.16990893701E+02  0.51100000000E-03 0.  1.
         12    1    3    3    0    0 -0.96497937348E+01  0.88997664924E+01 -0.18823291498E+02  0.22948652805E+02  0.00000000000E+00 0. -1.
</event>
<event>
 7    1  0.9439086E-013  0.5052886E+02  0.7816164E-02  0.1300439E+00
        -11   -1    0    0    0    0  0.00000000000E+00  0.00000000000E+00  0.45593999997E+02  0.45594000000E+02  0.51100000000E-03 0. -1.
         11   -1    0    0    0    0 -0.00000000000E+00 -0.00000000000E+00 -0.45593999997E+02  0.45594000000E+02  0.51100000000E-03 0.  1.
    9900012    2    1    2    0    0  0.27131663085E+01  0.98545471561E+01 -0.39353423879E+02  0.50528863978E+02  0.30000012547E+02 0.  0.
         12    1    1    2    0    0 -0.27131663085E+01 -0.98545471561E+01  0.39353423879E+02  0.40659136022E+02  0.00000000000E+00 0. -1.
         11    1    3    3    0    0  0.11451846527E+01  0.65076868741E+01  0.11081935214E+00  0.66086093492E+01  0.51100000000E-03 0. -1.
        -11    1    3    3    0    0  0.35067753941E+01 -0.51971061491E+01 -0.41100158549E+01  0.74966403527E+01  0.51100000000E-03 0.  1.
        -12    1    3    3    0    0 -0.19387937383E+01  0.85439664311E+01 -0.35354227376E+02  0.36423614276E+02  0.00000000000E+00 0.  1.
</event>
<event>
 7    1  0.4871930E-013  0.5052885E+02  0.7816164E-02  0.1300439E+00
        -11   -1    0    0    0    0  0.00000000000E+00  0.00000000000E+00  0.45593999997E+02  0.45594000000E+02  0.51100000000E-03 0. -1.
         11   -1    0    0    0    0 -0.00000000000E+00 -0.00000000000E+00 -0.45593999997E+02  0.45594000000E+02  0.51100000000E-03 0.  1.
    9900012    2    1    2    0    0 -0.10526256252E+02 -0.18130992492E+02 -0.34837210951E+02  0.50528853105E+02  0.29999979498E+02 0.  0.
         12    1    1    2    0    0  0.10526256252E+02  0.18130992492E+02  0.34837210951E+02  0.40659146895E+02  0.00000000000E+00 0. -1.
         11    1    3    3    0    0  0.32961570907E+01  0.23120092628E+01 -0.50982322919E+01  0.64963075020E+01  0.51100000000E-03 0. -1.
        -11    1    3    3    0    0 -0.84411806671E+01 -0.11168519880E+02 -0.18102143634E+01  0.14116169582E+02  0.51100000000E-03 0.  1.
        -12    1    3    3    0    0 -0.53812326754E+01 -0.92744818740E+01 -0.27928764295E+02  0.29916376021E+02  0.00000000000E+00 0.  1.
</event>
<event>
 7    1  0.4871930E-013  0.5052888E+02  0.7816164E-02  0.1300439E+00
        -11   -1    0    0    0    0  0.00000000000E+00  0.00000000000E+00  0.45593999997E+02  0.45594000000E+02  0.51100000000E-03 0.  1.
         11   -1    0    0    0    0 -0.00000000000E+00 -0.00000000000E+00 -0.45593999997E+02  0.45594000000E+02  0.51100000000E-03 0. -1.
    9900012    2    1    2    0    0 -0.20917327620E+02 -0.32942468890E+02  0.11420299956E+02  0.50528879222E+02  0.30000058884E+02 0.  0.
         12    1    1    2    0    0  0.20917327620E+02  0.32942468890E+02 -0.11420299956E+02  0.40659120778E+02  0.00000000000E+00 0. -1.
         11    1    3    3    0    0 -0.19146752369E+02 -0.64838469972E+01  0.27391646925E+01  0.20399544643E+02  0.51100000000E-03 0.  1.
        -11    1    3    3    0    0 -0.61783955319E+01 -0.10218621529E+02  0.24833777966E+01  0.12196719348E+02  0.51100000000E-03 0. -1.
        -12    1    3    3    0    0  0.44078202807E+01 -0.16240000363E+02  0.61977574666E+01  0.17932615231E+02  0.00000000000E+00 0.  1.
</event>
<event>
 7    1  0.4871930E-013  0.5052885E+02  0.7816164E-02  0.1300439E+00
        -11   -1    0    0    0    0  0.00000000000E+00  0.00000000000E+00  0.45593999997E+02  0.45594000000E+02  0.51100000000E-03 0.  1.
         11   -1    0    0    0    0 -0.00000000000E+00 -0.00000000000E+00 -0.45593999997E+02  0.45594000000E+02  0.51100000000E-03 0. -1.
    9900012    2    1    2    0    0  0.10281269425E+02  0.43784830489E+01  0.39093360118E+02  0.50528850721E+02  0.29999972251E+02 0.  0.
         12    1    1    2    0    0 -0.10281269425E+02 -0.43784830489E+01 -0.39093360118E+02  0.40659149279E+02  0.00000000000E+00 0. -1.
         11    1    3    3    0    0  0.10784058553E+02  0.13517033282E+01  0.77720602261E+01  0.13361434847E+02  0.51100000000E-03 0.  1.
        -11    1    3    3    0    0  0.63000746793E+01  0.77152309988E+01  0.24520532125E+02  0.26466435844E+02  0.51100000000E-03 0. -1.
         12    1    3    3    0    0 -0.68028638075E+01 -0.46884512780E+01  0.68007677665E+01  0.10700980029E+02  0.00000000000E+00 0. -1.
</event>
<event>
 7    1  0.4871930E-013  0.5052885E+02  0.7816164E-02  0.1300439E+00
        -11   -1    0    0    0    0  0.00000000000E+00  0.00000000000E+00  0.45593999997E+02  0.45594000000E+02  0.51100000000E-03 0.  1.
         11   -1    0    0    0    0 -0.00000000000E+00 -0.00000000000E+00 -0.45593999997E+02  0.45594000000E+02  0.51100000000E-03 0. -1.
    9900012    2    1    2    0    0 -0.38463667589E+02  0.92453017246E+01  0.93934514945E+01  0.50528852698E+02  0.29999978260E+02 0.  0.
         12    1    1    2    0    0  0.38463667589E+02 -0.92453017246E+01 -0.93934514945E+01  0.40659147302E+02  0.00000000000E+00 0. -1.
         11    1    3    3    0    0 -0.16622018817E+02  0.93239030130E+00  0.17190214388E+02  0.23930406018E+02  0.51100000000E-03 0. -1.
        -11    1    3    3    0    0 -0.10763601958E+02  0.23310322353E+01  0.12663344561E+01  0.11085686339E+02  0.51100000000E-03 0.  1.
         12    1    3    3    0    0 -0.11078046813E+02  0.59818791881E+01 -0.90630973492E+01  0.15512760341E+02  0.00000000000E+00 0. -1.
</event>
<event>
 7    1  0.4871930E-013  0.5052886E+02  0.7816164E-02  0.1300439E+00
        -11   -1    0    0    0    0  0.00000000000E+00  0.00000000000E+00  0.45593999997E+02  0.45594000000E+02  0.51100000000E-03 0.  1.
         11   -1    0    0    0    0 -0.00000000000E+00 -0.00000000000E+00 -0.45593999997E+02  0.45594000000E+02  0.51100000000E-03 0. -1.
    9900012    2    1    2    0    0  0.15741153706E+02 -0.18023179238E+02  0.32871671442E+02  0.50528859659E+02  0.29999999419E+02 0.  0.
         12    1    1    2    0    0 -0.15741153706E+02  0.18023179238E+02 -0.32871671442E+02  0.40659140341E+02  0.00000000000E+00 0. -1.
         11    1    3    3    0    0 -0.27898979651E+01 -0.10261283729E+01 -0.21690545768E+01  0.36798462076E+01  0.51100000000E-03 0. -1.
        -11    1    3    3    0    0  0.70874693835E+01  0.34203698908E+00  0.19942332186E+02  0.21167092971E+02  0.51100000000E-03 0.  1.
        -12    1    3    3    0    0  0.11443582288E+02 -0.17339087855E+02  0.15098393833E+02  0.25681920480E+02  0.00000000000E+00 0.  1.
</event>
<event>
 7    1  0.4871930E-013  0.5052886E+02  0.7816164E-02  0.1300439E+00
        -11   -1    0    0    0    0  0.00000000000E+00  0.00000000000E+00  0.45593999997E+02  0.45594000000E+02  0.51100000000E-03 0.  1.
         11   -1    0    0    0    0 -0.00000000000E+00 -0.00000000000E+00 -0.45593999997E+02  0.45594000000E+02  0.51100000000E-03 0. -1.
    9900012    2    1    2    0    0  0.10091053990E+01 -0.15580920878E+01  0.40616744510E+02  0.50528857372E+02  0.29999992468E+02 0.  0.
         12    1    1    2    0    0 -0.10091053990E+01  0.15580920878E+01 -0.40616744510E+02  0.40659142628E+02  0.00000000000E+00 0. -1.
         11    1    3    3    0    0 -0.15247402828E+01 -0.15032011163E+01  0.17949073447E+02  0.18076329395E+02  0.51100000000E-03 0. -1.
        -11    1    3    3    0    0  0.12052377663E+02  0.27210562434E+01  0.17051130241E+02  0.21057183980E+02  0.51100000000E-03 0.  1.
         12    1    3    3    0    0 -0.95185319807E+01 -0.27759472149E+01  0.56165408216E+01  0.11395343997E+02  0.00000000000E+00 0. -1.
</event>
<event>
 7    1  0.4871930E-013  0.5052887E+02  0.7816164E-02  0.1300439E+00
        -11   -1    0    0    0    0  0.00000000000E+00  0.00000000000E+00  0.45593999997E+02  0.45594000000E+02  0.51100000000E-03 0. -1.
         11   -1    0    0    0    0 -0.00000000000E+00 -0.00000000000E+00 -0.45593999997E+02  0.45594000000E+02  0.51100000000E-03 0.  1.
    9900012    2    1    2    0    0  0.30532526124E+02 -0.26255230258E+02 -0.56207418973E+01  0.50528868100E+02  0.30000025076E+02 0.  0.
         12    1    1    2    0    0 -0.30532526124E+02  0.26255230258E+02  0.56207418973E+01  0.40659131900E+02  0.00000000000E+00 0. -1.
         11    1    3    3    0    0  0.82995069755E+00  0.39150576406E+01 -0.18727264246E-01  0.40021051287E+01  0.51100000000E-03 0. -1.
        -11    1    3    3    0    0  0.11047856180E+02 -0.16900691960E+02 -0.11018245031E+02  0.23001961627E+02  0.51100000000E-03 0.  1.
        -12    1    3    3    0    0  0.18654719246E+02 -0.13269595939E+02  0.54162303976E+01  0.23524801344E+02  0.00000000000E+00 0.  1.
</event>
<event>
 7    1  0.4871930E-013  0.5052883E+02  0.7816164E-02  0.1300439E+00
        -11   -1    0    0    0    0  0.00000000000E+00  0.00000000000E+00  0.45593999997E+02  0.45594000000E+02  0.51100000000E-03 0. -1.
         11   -1    0    0    0    0 -0.00000000000E+00 -0.00000000000E+00 -0.45593999997E+02  0.45594000000E+02  0.51100000000E-03 0.  1.
    9900012    2    1    2    0    0 -0.26751701151E+02  0.27253414768E+02 -0.13955851352E+02  0.50528832301E+02  0.29999916263E+02 0.  0.
         12    1    1    2    0    0  0.26751701151E+02 -0.27253414768E+02  0.13955851352E+02  0.40659167699E+02  0.00000000000E+00 0. -1.
         11    1    3    3    0    0  0.13228297486E+01  0.27902638390E+00 -0.33460106486E+01  0.36088116865E+01  0.51100000000E-03 0. -1.
        -11    1    3    3    0    0 -0.17923465546E+02  0.81522531799E+01 -0.15409259049E+02  0.25003102083E+02  0.51100000000E-03 0.  1.
         12    1    3    3    0    0 -0.10151065354E+02  0.18822135204E+02  0.47994183456E+01  0.21916918531E+02  0.00000000000E+00 0. -1.
</event>
<event>
 7    1  0.4871930E-013  0.5052886E+02  0.7816164E-02  0.1300439E+00
        -11   -1    0    0    0    0  0.00000000000E+00  0.00000000000E+00  0.45593999997E+02  0.45594000000E+02  0.51100000000E-03 0. -1.
         11   -1    0    0    0    0 -0.00000000000E+00 -0.00000000000E+00 -0.45593999997E+02  0.45594000000E+02  0.51100000000E-03 0.  1.
    9900012    2    1    2    0    0  0.39593656305E+02  0.42978862119E+01 -0.81875485593E+01  0.50528863304E+02  0.30000010498E+02 0.  0.
         12    1    1    2    0    0 -0.39593656305E+02 -0.42978862119E+01  0.81875485593E+01  0.40659136696E+02  0.00000000000E+00 0. -1.
         11    1    3    3    0    0  0.20818638452E+02  0.37261942819E+01  0.22513529884E+01  0.21268963805E+02  0.51100000000E-03 0. -1.
        -11    1    3    3    0    0  0.27195192552E+01 -0.17181792685E+01  0.55951139617E+01  0.64539310102E+01  0.51100000000E-03 0.  1.
        -12    1    3    3    0    0  0.16055498598E+02  0.22898711985E+01 -0.16034015510E+02  0.22805968488E+02  0.00000000000E+00 0.  1.
</event>
<event>
 7    1  0.4871930E-013  0.5052887E+02  0.7816164E-02  0.1300439E+00
        -11   -1    0    0    0    0  0.00000000000E+00  0.00000000000E+00  0.45593999997E+02  0.45594000000E+02  0.51100000000E-03 0.  1.
         11   -1    0    0    0    0 -0.00000000000E+00 -0.00000000000E+00 -0.45593999997E+02  0.45594000000E+02  0.51100000000E-03 0. -1.
    9900012    2    1    2    0    0 -0.28308602165E+02 -0.28984345117E+02 -0.34198931907E+01  0.50528869564E+02  0.30000029526E+02 0.  0.
         12    1    1    2    0    0  0.28308602165E+02  0.28984345117E+02  0.34198931907E+01  0.40659130436E+02  0.00000000000E+00 0. -1.
         11    1    3    3    0    0 -0.51639118592E+01 -0.16148760128E+02  0.45330163769E+01  0.17549834104E+02  0.51100000000E-03 0. -1.
        -11    1    3    3    0    0 -0.82800904449E+01 -0.14648492677E+02 -0.60620861444E+01  0.17885388566E+02  0.51100000000E-03 0.  1.
        -12    1    3    3    0    0 -0.14864599861E+02  0.18129076880E+01 -0.18908234232E+01  0.15093646893E+02  0.00000000000E+00 0.  1.
</event>
<event>
 7    1  0.4871930E-013  0.5052886E+02  0.7816164E-02  0.1300439E+00
        -11   -1    0    0    0    0  0.00000000000E+00  0.00000000000E+00  0.45593999997E+02  0.45594000000E+02  0.51100000000E-03 0.  1.
         11   -1    0    0    0    0 -0.00000000000E+00 -0.00000000000E+00 -0.45593999997E+02  0.45594000000E+02  0.51100000000E-03 0. -1.
    9900012    2    1    2    0    0  0.33581580281E+02 -0.18496976431E+02 -0.13539015880E+02  0.50528860532E+02  0.30000002073E+02 0.  0.
         12    1    1    2    0    0 -0.33581580281E+02  0.18496976431E+02  0.13539015880E+02  0.40659139468E+02  0.00000000000E+00 0. -1.
         11    1    3    3    0    0  0.22875135748E+01 -0.47910749802E+01 -0.11185426295E+02  0.12381473235E+02  0.51100000000E-03 0. -1.
        -11    1    3    3    0    0  0.15750314186E+02 -0.15198146104E+02 -0.46169130653E+01  0.22368994803E+02  0.51100000000E-03 0.  1.
        -12    1    3    3    0    0  0.15543752520E+02  0.14922446535E+01  0.22633234799E+01  0.15778392494E+02  0.00000000000E+00 0.  1.
</event>
<event>
 7    1  0.4871930E-013  0.5052885E+02  0.7816164E-02  0.1300439E+00
        -11   -1    0    0    0    0  0.00000000000E+00  0.00000000000E+00  0.45593999997E+02  0.45594000000E+02  0.51100000000E-03 0. -1.
         11   -1    0    0    0    0 -0.00000000000E+00 -0.00000000000E+00 -0.45593999997E+02  0.45594000000E+02  0.51100000000E-03 0.  1.
    9900012    2    1    2    0    0 -0.12898456490E+02 -0.31547752001E+02 -0.22170607548E+02  0.50528847584E+02  0.29999962716E+02 0.  0.
         12    1    1    2    0    0  0.12898456490E+02  0.31547752001E+02  0.22170607548E+02  0.40659152416E+02  0.00000000000E+00 0. -1.
         11    1    3    3    0    0 -0.24863743084E+01 -0.44397352721E+00  0.38708696231E+01  0.46219910855E+01  0.51100000000E-03 0. -1.
        -11    1    3    3    0    0 -0.22402917201E+01 -0.18517773268E+02 -0.24542042464E+02  0.30825941711E+02  0.51100000000E-03 0.  1.
         12    1    3    3    0    0 -0.81717904618E+01 -0.12586005206E+02 -0.14994347068E+01  0.15080914787E+02  0.00000000000E+00 0. -1.
</event>
<event>
 7    1  0.4871930E-013  0.5052886E+02  0.7816164E-02  0.1300439E+00
        -11   -1    0    0    0    0  0.00000000000E+00  0.00000000000E+00  0.45593999997E+02  0.45594000000E+02  0.51100000000E-03 0.  1.
         11   -1    0    0    0    0 -0.00000000000E+00 -0.00000000000E+00 -0.45593999997E+02  0.45594000000E+02  0.51100000000E-03 0. -1.
    9900012    2    1    2    0    0  0.36302890371E+02  0.18164967936E+02 -0.23020691167E+01  0.50528862877E+02  0.30000009200E+02 0.  0.
         12    1    1    2    0    0 -0.36302890371E+02 -0.18164967936E+02  0.23020691167E+01  0.40659137123E+02  0.00000000000E+00 0. -1.
         11    1    3    3    0    0 -0.13239196120E+00 -0.31446371771E+01  0.13504073765E+01  0.34248899180E+01  0.51100000000E-03 0. -1.
        -11    1    3    3    0    0  0.22424378793E+02  0.23828014510E+02 -0.21911360308E+01  0.32793720697E+02  0.51100000000E-03 0.  1.
         12    1    3    3    0    0  0.14010903539E+02 -0.25184093969E+01 -0.14613404624E+01  0.14310252262E+02  0.00000000000E+00 0. -1.
</event>
<event>
 7    1  0.4871930E-013  0.5052886E+02  0.7816164E-02  0.1300439E+00
        -11   -1    0    0    0    0  0.00000000000E+00  0.00000000000E+00  0.45593999997E+02  0.45594000000E+02  0.51100000000E-03 0.  1.
         11   -1    0    0    0    0 -0.00000000000E+00 -0.00000000000E+00 -0.45593999997E+02  0.45594000000E+02  0.51100000000E-03 0. -1.
    9900012    2    1    2    0    0  0.14730432063E+02 -0.37896766974E+02  0.12407935651E+00  0.50528856237E+02  0.29999989017E+02 0.  0.
         12    1    1    2    0    0 -0.14730432063E+02  0.37896766974E+02 -0.12407935651E+00  0.40659143763E+02  0.00000000000E+00 0. -1.
         11    1    3    3    0    0  0.11285835306E+02 -0.29390737214E+01  0.34790773521E+01  0.12170136087E+02  0.51100000000E-03 0. -1.
        -11    1    3    3    0    0 -0.49904008088E+01 -0.14830967246E+02  0.22973477400E+01  0.15815798955E+02  0.51100000000E-03 0.  1.
        -12    1    3    3    0    0  0.84349975663E+01 -0.20126726007E+02 -0.56523457356E+01  0.22542921195E+02  0.00000000000E+00 0.  1.
</event>
<event>
 7    1  0.4871930E-013  0.5052886E+02  0.7816164E-02  0.1300439E+00
        -11   -1    0    0    0    0  0.00000000000E+00  0.00000000000E+00  0.45593999997E+02  0.45594000000E+02  0.51100000000E-03 0.  1.
         11   -1    0    0    0    0 -0.00000000000E+00 -0.00000000000E+00 -0.45593999997E+02  0.45594000000E+02  0.51100000000E-03 0. -1.
    9900012    2    1    2    0    0 -0.30268658659E+02  0.15394403670E+02  0.22360378261E+02  0.50528857395E+02  0.29999992538E+02 0.  0.
         12    1    1    2    0    0  0.30268658659E+02 -0.15394403670E+02 -0.22360378261E+02  0.40659142605E+02  0.00000000000E+00 0. -1.
         11    1    3    3    0    0 -0.21661173009E+02 -0.19893014339E+01  0.10344769827E+02  0.24086884385E+02  0.51100000000E-03 0. -1.
        -11    1    3    3    0    0 -0.10764814513E+02  0.10436229552E+02  0.11940382539E+02  0.19166868659E+02  0.51100000000E-03 0.  1.
        -12    1    3    3    0    0  0.21573288635E+01  0.69474755522E+01  0.75225894923E-01  0.72751043504E+01  0.00000000000E+00 0.  1.
</event>
<event>
 7    1  0.4871930E-013  0.5052886E+02  0.7816164E-02  0.1300439E+00
        -11   -1    0    0    0    0  0.00000000000E+00  0.00000000000E+00  0.45593999997E+02  0.45594000000E+02  0.51100000000E-03 0. -1.
         11   -1    0    0    0    0 -0.00000000000E+00 -0.00000000000E+00 -0.45593999997E+02  0.45594000000E+02  0.51100000000E-03 0.  1.
    9900012    2    1    2    0    0  0.80250315088E+01  0.39621883943E+02  0.43440759014E+01  0.50528858182E+02  0.29999994930E+02 0.  0.
         12    1    1    2    0    0 -0.80250315088E+01 -0.39621883943E+02 -0.43440759014E+01  0.40659141818E+02  0.00000000000E+00 0. -1.
         11    1    3    3    0    0  0.43620826403E+01  0.25944783250E+02  0.57253449782E+01  0.26924693466E+02  0.51100000000E-03 0. -1.
        -11    1    3    3    0    0 -0.39844590353E+01  0.23594579194E+01 -0.73586487644E+01  0.86944043716E+01  0.51100000000E-03 0.  1.
         12    1    3    3    0    0  0.76474079038E+01  0.11317642774E+02  0.59773796876E+01  0.14909760344E+02  0.00000000000E+00 0. -1.
</event>
<event>
 7    1  0.4871930E-013  0.5052882E+02  0.7816164E-02  0.1300439E+00
        -11   -1    0    0    0    0  0.00000000000E+00  0.00000000000E+00  0.45593999997E+02  0.45594000000E+02  0.51100000000E-03 0. -1.
         11   -1    0    0    0    0 -0.00000000000E+00 -0.00000000000E+00 -0.45593999997E+02  0.45594000000E+02  0.51100000000E-03 0.  1.
    9900012    2    1    2    0    0  0.29992819238E+02 -0.72238225040E+01 -0.26484258278E+02  0.50528822021E+02  0.29999885015E+02 0.  0.
         12    1    1    2    0    0 -0.29992819238E+02  0.72238225040E+01  0.26484258278E+02  0.40659177979E+02  0.00000000000E+00 0. -1.
         11    1    3    3    0    0  0.16275634412E+02 -0.84743338636E+01 -0.40814260899E+01  0.18798102275E+02  0.51100000000E-03 0. -1.
        -11    1    3    3    0    0  0.11432493558E+02 -0.19477456685E+01 -0.30621306070E+01  0.11994676580E+02  0.51100000000E-03 0.  1.
        -12    1    3    3    0    0  0.22846912676E+01  0.31982570280E+01 -0.19340701581E+02  0.19736043166E+02  0.00000000000E+00 0.  1.
</event>
<event>
 7    1  0.4871930E-013  0.5052887E+02  0.7816164E-02  0.1300439E+00
        -11   -1    0    0    0    0  0.00000000000E+00  0.00000000000E+00  0.45593999997E+02  0.45594000000E+02  0.51100000000E-03 0.  1.
         11   -1    0    0    0    0 -0.00000000000E+00 -0.00000000000E+00 -0.45593999997E+02  0.45594000000E+02  0.51100000000E-03 0. -1.
    9900012    2    1    2    0    0  0.39337199332E+01 -0.57048806468E+01  0.40064259124E+02  0.50528872183E+02  0.30000037486E+02 0.  0.
         12    1    1    2    0    0 -0.39337199332E+01  0.57048806468E+01 -0.40064259124E+02  0.40659127817E+02  0.00000000000E+00 0. -1.
         11    1    3    3    0    0  0.32760843027E+01 -0.60761962056E-01  0.16073610822E+02  0.16404188048E+02  0.51100000000E-03 0. -1.
        -11    1    3    3    0    0  0.30056496211E+01  0.60791529822E+01  0.20614092263E+02  0.21700940780E+02  0.51100000000E-03 0.  1.
         12    1    3    3    0    0 -0.23480139906E+01 -0.11723271667E+02  0.33765560386E+01  0.12423743355E+02  0.00000000000E+00 0. -1.
</event>
<event>
 7    1  0.4871930E-013  0.5052887E+02  0.7816164E-02  0.1300439E+00
        -11   -1    0    0    0    0  0.00000000000E+00  0.00000000000E+00  0.45593999997E+02  0.45594000000E+02  0.51100000000E-03 0. -1.
         11   -1    0    0    0    0 -0.00000000000E+00 -0.00000000000E+00 -0.45593999997E+02  0.45594000000E+02  0.51100000000E-03 0.  1.
    9900012    2    1    2    0    0  0.30041754961E+02 -0.27357218786E+02  0.14968276509E+01  0.50528868752E+02  0.30000027058E+02 0.  0.
         12    1    1    2    0    0 -0.30041754961E+02  0.27357218786E+02 -0.14968276509E+01  0.40659131248E+02  0.00000000000E+00 0. -1.
         11    1    3    3    0    0  0.10947047953E+02 -0.12296363602E+02  0.21429138134E+00  0.16464639011E+02  0.51100000000E-03 0. -1.
        -11    1    3    3    0    0  0.13182268960E+02 -0.55073057864E+00 -0.84043298942E+01  0.15643154425E+02  0.51100000000E-03 0.  1.
         12    1    3    3    0    0  0.59124380475E+01 -0.14510124606E+02  0.96868661637E+01  0.18421075316E+02  0.00000000000E+00 0. -1.
</event>
<event>
 7    1  0.4871930E-013  0.5052887E+02  0.7816164E-02  0.1300439E+00
        -11   -1    0    0    0    0  0.00000000000E+00  0.00000000000E+00  0.45593999997E+02  0.45594000000E+02  0.51100000000E-03 0. -1.
         11   -1    0    0    0    0 -0.00000000000E+00 -0.00000000000E+00 -0.45593999997E+02  0.45594000000E+02  0.51100000000E-03 0.  1.
    9900012    2    1    2    0    0 -0.22428979060E+02  0.30360695193E+02  0.15110728921E+02  0.50528867658E+02  0.30000023734E+02 0.  0.
         12    1    1    2    0    0  0.22428979060E+02 -0.30360695193E+02 -0.15110728921E+02  0.40659132342E+02  0.00000000000E+00 0. -1.
         11    1    3    3    0    0 -0.29356763715E+01  0.15063410825E+02  0.13858408475E+01  0.15409253602E+02  0.51100000000E-03 0.  1.
        -11    1    3    3    0    0 -0.15746525454E+01  0.10500405678E+02  0.12683016895E+02  0.16540766846E+02  0.51100000000E-03 0. -1.
        -12    1    3    3    0    0 -0.17918650143E+02  0.47968786903E+01  0.10418711781E+01  0.18578847211E+02  0.00000000000E+00 0.  1.
</event>
<event>
 7    1  0.4871930E-013  0.5052886E+02  0.7816164E-02  0.1300439E+00
        -11   -1    0    0    0    0  0.00000000000E+00  0.00000000000E+00  0.45593999997E+02  0.45594000000E+02  0.51100000000E-03 0.  1.
         11   -1    0    0    0    0 -0.00000000000E+00 -0.00000000000E+00 -0.45593999997E+02  0.45594000000E+02  0.51100000000E-03 0. -1.
    9900012    2    1    2    0    0 -0.54444024549E+00 -0.31086147973E+02  0.26201545182E+02  0.50528856122E+02  0.29999988667E+02 0.  0.
         12    1    1    2    0    0  0.54444024549E+00  0.31086147973E+02 -0.26201545182E+02  0.40659143878E+02  0.00000000000E+00 0. -1.
         11    1    3    3    0    0 -0.51024322069E+01 -0.14560228727E+02  0.13464371856E+01  0.15487025808E+02  0.51100000000E-03 0. -1.
        -11    1    3    3    0    0  0.93650293260E+01 -0.27202988720E+01  0.72110026205E+01  0.12128576144E+02  0.51100000000E-03 0.  1.
        -12    1    3    3    0    0 -0.48070373646E+01 -0.13805620374E+02  0.17644105376E+02  0.22913254170E+02  0.00000000000E+00 0.  1.
</event>
<event>
 7    1  0.4871930E-013  0.5052886E+02  0.7816164E-02  0.1300439E+00
        -11   -1    0    0    0    0  0.00000000000E+00  0.00000000000E+00  0.45593999997E+02  0.45594000000E+02  0.51100000000E-03 0. -1.
         11   -1    0    0    0    0 -0.00000000000E+00 -0.00000000000E+00 -0.45593999997E+02  0.45594000000E+02  0.51100000000E-03 0.  1.
    9900012    2    1    2    0    0 -0.30623801149E+01  0.17051152078E+02 -0.36783770153E+02  0.50528859505E+02  0.29999998950E+02 0.  0.
         12    1    1    2    0    0  0.30623801149E+01 -0.17051152078E+02  0.36783770153E+02  0.40659140495E+02  0.00000000000E+00 0. -1.
         11    1    3    3    0    0  0.27343513432E+01  0.10736300994E+02  0.36051697785E+00  0.11084891026E+02  0.51100000000E-03 0. -1.
        -11    1    3    3    0    0 -0.42141792521E+01  0.36144665197E+01 -0.61233787890E+01  0.82655576367E+01  0.51100000000E-03 0.  1.
        -12    1    3    3    0    0 -0.15825522061E+01  0.27003845644E+01 -0.31020908342E+02  0.31178410842E+02  0.00000000000E+00 0.  1.
</event>
<event>
 7    1  0.4871930E-013  0.5052883E+02  0.7816164E-02  0.1300439E+00
        -11   -1    0    0    0    0  0.00000000000E+00  0.00000000000E+00  0.45593999997E+02  0.45594000000E+02  0.51100000000E-03 0.  1.
         11   -1    0    0    0    0 -0.00000000000E+00 -0.00000000000E+00 -0.45593999997E+02  0.45594000000E+02  0.51100000000E-03 0. -1.
    9900012    2    1    2    0    0 -0.15856722642E+02  0.37066740134E+02  0.52715557784E+01  0.50528829110E+02  0.29999906563E+02 0.  0.
         12    1    1    2    0    0  0.15856722642E+02 -0.37066740134E+02 -0.52715557784E+01  0.40659170890E+02  0.00000000000E+00 0. -1.
         11    1    3    3    0    0 -0.63167909066E+01  0.29694841529E+02 -0.43152688881E+01  0.30664425751E+02  0.51100000000E-03 0. -1.
        -11    1    3    3    0    0 -0.97493271787E+01  0.10369822548E+02  0.68334351351E+01  0.15788553959E+02  0.51100000000E-03 0.  1.
        -12    1    3    3    0    0  0.20939544359E+00 -0.29979239428E+01  0.27533895315E+01  0.40758493999E+01  0.00000000000E+00 0.  1.
</event>
<event>
 7    1  0.4871930E-013  0.5052887E+02  0.7816164E-02  0.1300439E+00
        -11   -1    0    0    0    0  0.00000000000E+00  0.00000000000E+00  0.45593999997E+02  0.45594000000E+02  0.51100000000E-03 0.  1.
         11   -1    0    0    0    0 -0.00000000000E+00 -0.00000000000E+00 -0.45593999997E+02  0.45594000000E+02  0.51100000000E-03 0. -1.
    9900012    2    1    2    0    0  0.32983794226E+02  0.22440158712E+02 -0.78532475322E+01  0.50528869397E+02  0.30000029019E+02 0.  0.
         12    1    1    2    0    0 -0.32983794226E+02 -0.22440158712E+02  0.78532475322E+01  0.40659130603E+02  0.00000000000E+00 0. -1.
         11    1    3    3    0    0  0.25643073670E+02  0.10255459918E+02 -0.13702543447E+01  0.27651750083E+02  0.51100000000E-03 0. -1.
        -11    1    3    3    0    0  0.51850189166E+01  0.32054206687E+01  0.51810449777E+01  0.80001481330E+01  0.51100000000E-03 0.  1.
         12    1    3    3    0    0  0.21557016393E+01  0.89792781253E+01 -0.11664038165E+02  0.14876971181E+02  0.00000000000E+00 0. -1.
</event>
<event>
 7    1  0.4871930E-013  0.5052886E+02  0.7816164E-02  0.1300439E+00
        -11   -1    0    0    0    0  0.00000000000E+00  0.00000000000E+00  0.45593999997E+02  0.45594000000E+02  0.51100000000E-03 0.  1.
         11   -1    0    0    0    0 -0.00000000000E+00 -0.00000000000E+00 -0.45593999997E+02  0.45594000000E+02  0.51100000000E-03 0. -1.
    9900012    2    1    2    0    0  0.21667376255E+02  0.13533845429E+02  0.31631085342E+02  0.50528859259E+02  0.29999998203E+02 0.  0.
         12    1    1    2    0    0 -0.21667376255E+02 -0.13533845429E+02 -0.31631085342E+02  0.40659140741E+02  0.00000000000E+00 0. -1.
         11    1    3    3    0    0  0.56472220725E+01  0.82431906341E+01 -0.95853640107E+00  0.10037933117E+02  0.51100000000E-03 0. -1.
        -11    1    3    3    0    0  0.12124718083E+02  0.97099113474E+01  0.13726815456E+02  0.20729607564E+02  0.51100000000E-03 0.  1.
         12    1    3    3    0    0  0.38954361002E+01 -0.44192565526E+01  0.18862806287E+02  0.19761318578E+02  0.00000000000E+00 0. -1.
</event>
<event>
 7    1  0.4871930E-013  0.5052888E+02  0.7816164E-02  0.1300439E+00
        -11   -1    0    0    0    0  0.00000000000E+00  0.00000000000E+00  0.45593999997E+02  0.45594000000E+02  0.51100000000E-03 0.  1.
         11   -1    0    0    0    0 -0.00000000000E+00 -0.00000000000E+00 -0.45593999997E+02  0.45594000000E+02  0.51100000000E-03 0. -1.
    9900012    2    1    2    0    0 -0.20582272095E+02 -0.22000222118E+02  0.27304298984E+02  0.50528875061E+02  0.30000046234E+02 0.  0.
         12    1    1    2    0    0  0.20582272095E+02  0.22000222118E+02 -0.27304298984E+02  0.40659124939E+02  0.00000000000E+00 0. -1.
         11    1    3    3    0    0 -0.69481904102E+01 -0.14842470676E+02  0.30271879542E+02  0.34423291200E+02  0.51100000000E-03 0.  1.
        -11    1    3    3    0    0 -0.46719305189E+00 -0.11717025944E+00 -0.91508108370E+00  0.10341043798E+01  0.51100000000E-03 0. -1.
        -12    1    3    3    0    0 -0.13166888632E+02 -0.70405811826E+01 -0.20524994745E+01  0.15071479481E+02  0.00000000000E+00 0.  1.
</event>
<event>
 7    1  0.4871930E-013  0.5052887E+02  0.7816164E-02  0.1300439E+00
        -11   -1    0    0    0    0  0.00000000000E+00  0.00000000000E+00  0.45593999997E+02  0.45594000000E+02  0.51100000000E-03 0. -1.
         11   -1    0    0    0    0 -0.00000000000E+00 -0.00000000000E+00 -0.45593999997E+02  0.45594000000E+02  0.51100000000E-03 0.  1.
    9900012    2    1    2    0    0  0.32523955320E+02 -0.18131891327E+02 -0.16327625533E+02  0.50528874231E+02  0.30000043712E+02 0.  0.
         12    1    1    2    0    0 -0.32523955320E+02  0.18131891327E+02  0.16327625533E+02  0.40659125769E+02  0.00000000000E+00 0. -1.
         11    1    3    3    0    0  0.31176029403E+02 -0.17398302265E+02 -0.83419628995E+01  0.36663797898E+02  0.51100000000E-03 0. -1.
        -11    1    3    3    0    0  0.13847068960E+01 -0.57980261389E+01 -0.26979268063E+01  0.65431895592E+01  0.51100000000E-03 0.  1.
         12    1    3    3    0    0 -0.36780978737E-01  0.50644370769E+01 -0.52877358269E+01  0.73218867733E+01  0.00000000000E+00 0. -1.
</event>
<event>
 7    1  0.4871930E-013  0.5052887E+02  0.7816164E-02  0.1300439E+00
        -11   -1    0    0    0    0  0.00000000000E+00  0.00000000000E+00  0.45593999997E+02  0.45594000000E+02  0.51100000000E-03 0. -1.
         11   -1    0    0    0    0 -0.00000000000E+00 -0.00000000000E+00 -0.45593999997E+02  0.45594000000E+02  0.51100000000E-03 0.  1.
    9900012    2    1    2    0    0 -0.39690461203E+02  0.34356419387E+00 -0.88155638180E+01  0.50528869263E+02  0.30000028612E+02 0.  0.
         12    1    1    2    0    0  0.39690461203E+02 -0.34356419387E+00  0.88155638180E+01  0.40659130737E+02  0.00000000000E+00 0. -1.
         11    1    3    3    0    0 -0.53997503366E+00  0.73532299278E+00 -0.64589966643E+01  0.65231059405E+01  0.51100000000E-03 0. -1.
        -11    1    3    3    0    0 -0.89444279513E+01 -0.82151612277E+01 -0.39263891955E+01  0.12763549575E+02  0.51100000000E-03 0.  1.
        -12    1    3    3    0    0 -0.30206058218E+02  0.78234024288E+01  0.15698220418E+01  0.31242213748E+02  0.00000000000E+00 0.  1.
</event>
<event>
 7    1  0.4871930E-013  0.5052885E+02  0.7816164E-02  0.1300439E+00
        -11   -1    0    0    0    0  0.00000000000E+00  0.00000000000E+00  0.45593999997E+02  0.45594000000E+02  0.51100000000E-03 0.  1.
         11   -1    0    0    0    0 -0.00000000000E+00 -0.00000000000E+00 -0.45593999997E+02  0.45594000000E+02  0.51100000000E-03 0. -1.
    9900012    2    1    2    0    0 -0.13936469168E+02  0.34416140859E+02  0.16567158840E+02  0.50528847568E+02  0.29999962667E+02 0.  0.
         12    1    1    2    0    0  0.13936469168E+02 -0.34416140859E+02 -0.16567158840E+02  0.40659152432E+02  0.00000000000E+00 0. -1.
         11    1    3    3    0    0 -0.12434021716E+02  0.14974486113E+02  0.61529041403E+00  0.19473538788E+02  0.51100000000E-03 0. -1.
        -11    1    3    3    0    0 -0.83713857001E+01  0.72990000727E+01  0.12425264352E+02  0.16665614152E+02  0.51100000000E-03 0.  1.
         12    1    3    3    0    0  0.68689382482E+01  0.12142654673E+02  0.35266040742E+01  0.14389694627E+02  0.00000000000E+00 0. -1.
</event>
<event>
 7    1  0.4871930E-013  0.5052886E+02  0.7816164E-02  0.1300439E+00
        -11   -1    0    0    0    0  0.00000000000E+00  0.00000000000E+00  0.45593999997E+02  0.45594000000E+02  0.51100000000E-03 0.  1.
         11   -1    0    0    0    0 -0.00000000000E+00 -0.00000000000E+00 -0.45593999997E+02  0.45594000000E+02  0.51100000000E-03 0. -1.
    9900012    2    1    2    0    0  0.18916420803E+02  0.17997757977E+02  0.31167541010E+02  0.50528857353E+02  0.29999992409E+02 0.  0.
         12    1    1    2    0    0 -0.18916420803E+02 -0.17997757977E+02 -0.31167541010E+02  0.40659142647E+02  0.00000000000E+00 0. -1.
         11    1    3    3    0    0  0.63322089906E+01 -0.20902351611E+01 -0.17054257139E+01  0.68829086044E+01  0.51100000000E-03 0. -1.
        -11    1    3    3    0    0  0.38798000876E+01  0.36327684225E+01  0.20776009025E+02  0.21445102154E+02  0.51100000000E-03 0.  1.
        -12    1    3    3    0    0  0.87044117245E+01  0.16455224716E+02  0.12096957699E+02  0.22200846594E+02  0.00000000000E+00 0.  1.
</event>
<event>
 7    1  0.4871930E-013  0.5052886E+02  0.7816164E-02  0.1300439E+00
        -11   -1    0    0    0    0  0.00000000000E+00  0.00000000000E+00  0.45593999997E+02  0.45594000000E+02  0.51100000000E-03 0. -1.
         11   -1    0    0    0    0 -0.00000000000E+00 -0.00000000000E+00 -0.45593999997E+02  0.45594000000E+02  0.51100000000E-03 0.  1.
    9900012    2    1    2    0    0  0.26727492628E+02 -0.12518074183E+02 -0.27966140495E+02  0.50528855179E+02  0.29999985801E+02 0.  0.
         12    1    1    2    0    0 -0.26727492628E+02  0.12518074183E+02  0.27966140495E+02  0.40659144821E+02  0.00000000000E+00 0. -1.
         11    1    3    3    0    0  0.15149273554E+02 -0.52818103054E+01 -0.94245396468E+01  0.18606986783E+02  0.51100000000E-03 0. -1.
        -11    1    3    3    0    0  0.91425003475E+01  0.41385793582E+01 -0.27444871102E-02  0.10035594626E+02  0.51100000000E-03 0.  1.
        -12    1    3    3    0    0  0.24357187261E+01 -0.11374843236E+02 -0.18538856361E+02  0.21886273770E+02  0.00000000000E+00 0.  1.
</event>
<event>
 7    1  0.4871930E-013  0.5052884E+02  0.7816164E-02  0.1300439E+00
        -11   -1    0    0    0    0  0.00000000000E+00  0.00000000000E+00  0.45593999997E+02  0.45594000000E+02  0.51100000000E-03 0. -1.
         11   -1    0    0    0    0 -0.00000000000E+00 -0.00000000000E+00 -0.45593999997E+02  0.45594000000E+02  0.51100000000E-03 0.  1.
    9900012    2    1    2    0    0 -0.11434878723E+02  0.38644551841E+02 -0.53860634442E+01  0.50528837222E+02  0.29999931220E+02 0.  0.
         12    1    1    2    0    0  0.11434878723E+02 -0.38644551841E+02  0.53860634442E+01  0.40659162778E+02  0.00000000000E+00 0. -1.
         11    1    3    3    0    0  0.88692501098E+00  0.15424249109E+02 -0.42335831262E+01  0.16019279725E+02  0.51100000000E-03 0. -1.
        -11    1    3    3    0    0 -0.15616606393E+02  0.10856374589E+02 -0.72260008066E+01  0.20345868189E+02  0.51100000000E-03 0.  1.
         12    1    3    3    0    0  0.32948026593E+01  0.12363928143E+02  0.60735204885E+01  0.14163689308E+02  0.00000000000E+00 0. -1.
</event>
<event>
 7    1  0.4871930E-013  0.5052886E+02  0.7816164E-02  0.1300439E+00
        -11   -1    0    0    0    0  0.00000000000E+00  0.00000000000E+00  0.45593999997E+02  0.45594000000E+02  0.51100000000E-03 0.  1.
         11   -1    0    0    0    0 -0.00000000000E+00 -0.00000000000E+00 -0.45593999997E+02  0.45594000000E+02  0.51100000000E-03 0. -1.
    9900012    2    1    2    0    0  0.29366082181E+02 -0.25416247235E+02  0.12033853250E+02  0.50528855515E+02  0.29999986825E+02 0.  0.
         12    1    1    2    0    0 -0.29366082181E+02  0.25416247235E+02 -0.12033853250E+02  0.40659144485E+02  0.00000000000E+00 0. -1.
         11    1    3    3    0    0  0.20043790120E+02 -0.92722454649E+01  0.11727002365E+02  0.25005012359E+02  0.51100000000E-03 0. -1.
        -11    1    3    3    0    0  0.13794449693E+02 -0.80276589793E+01 -0.16733413540E+01  0.16047748208E+02  0.51100000000E-03 0.  1.
        -12    1    3    3    0    0 -0.44721576310E+01 -0.81163427905E+01  0.19801922385E+01  0.94760949484E+01  0.00000000000E+00 0.  1.
</event>
<event>
 7    1  0.4871930E-013  0.5052886E+02  0.7816164E-02  0.1300439E+00
        -11   -1    0    0    0    0  0.00000000000E+00  0.00000000000E+00  0.45593999997E+02  0.45594000000E+02  0.51100000000E-03 0.  1.
         11   -1    0    0    0    0 -0.00000000000E+00 -0.00000000000E+00 -0.45593999997E+02  0.45594000000E+02  0.51100000000E-03 0. -1.
    9900012    2    1    2    0    0  0.18403647960E+02  0.33818424001E+02  0.13068500302E+02  0.50528858835E+02  0.29999996915E+02 0.  0.
         12    1    1    2    0    0 -0.18403647960E+02 -0.33818424001E+02 -0.13068500302E+02  0.40659141165E+02  0.00000000000E+00 0. -1.
         11    1    3    3    0    0  0.29841998526E+01 -0.23861741781E+01 -0.35724206225E+01  0.52308188015E+01  0.51100000000E-03 0. -1.
        -11    1    3    3    0    0 -0.21023741617E+01  0.10790153014E+02  0.21695804609E+01  0.11205108604E+02  0.51100000000E-03 0.  1.
        -12    1    3    3    0    0  0.17521822269E+02  0.25414445165E+02  0.14471340463E+02  0.34092931430E+02  0.00000000000E+00 0.  1.
</event>
<event>
 7    1  0.4871930E-013  0.5052886E+02  0.7816164E-02  0.1300439E+00
        -11   -1    0    0    0    0  0.00000000000E+00  0.00000000000E+00  0.45593999997E+02  0.45594000000E+02  0.51100000000E-03 0.  1.
         11   -1    0    0    0    0 -0.00000000000E+00 -0.00000000000E+00 -0.45593999997E+02  0.45594000000E+02  0.51100000000E-03 0. -1.
    9900012    2    1    2    0    0 -0.29439990334E+01  0.37489163983E+02  0.15461596794E+02  0.50528861766E+02  0.30000005825E+02 0.  0.
         12    1    1    2    0    0  0.29439990334E+01 -0.37489163983E+02 -0.15461596794E+02  0.40659138234E+02  0.00000000000E+00 0. -1.
         11    1    3    3    0    0 -0.51682834193E+01 -0.74370778376E+00  0.50136765605E+01  0.72388678454E+01  0.51100000000E-03 0.  1.
        -11    1    3    3    0    0  0.83457945552E+00  0.33510610432E+01 -0.41952098063E+01  0.54337757188E+01  0.51100000000E-03 0. -1.
        -12    1    3    3    0    0  0.13897049303E+01  0.34881810724E+02  0.14643130040E+02  0.37856218202E+02  0.00000000000E+00 0.  1.
</event>
<event>
 7    1  0.4871930E-013  0.5052886E+02  0.7816164E-02  0.1300439E+00
        -11   -1    0    0    0    0  0.00000000000E+00  0.00000000000E+00  0.45593999997E+02  0.45594000000E+02  0.51100000000E-03 0.  1.
         11   -1    0    0    0    0 -0.00000000000E+00 -0.00000000000E+00 -0.45593999997E+02  0.45594000000E+02  0.51100000000E-03 0. -1.
    9900012    2    1    2    0    0 -0.17760971085E+01 -0.32884888192E+01  0.40487001901E+02  0.50528855856E+02  0.29999987859E+02 0.  0.
         12    1    1    2    0    0  0.17760971085E+01  0.32884888192E+01 -0.40487001901E+02  0.40659144144E+02  0.00000000000E+00 0. -1.
         11    1    3    3    0    0  0.62026189823E+01 -0.48630148503E+01  0.77447388152E+00  0.79196720720E+01  0.51100000000E-03 0. -1.
        -11    1    3    3    0    0 -0.32221193222E+01 -0.56145611739E+01  0.21614509292E+02  0.22563075196E+02  0.51100000000E-03 0.  1.
        -12    1    3    3    0    0 -0.47565967686E+01  0.71890872050E+01  0.18098018727E+02  0.20046108588E+02  0.00000000000E+00 0.  1.
</event>
<event>
 7    1  0.4871930E-013  0.5052886E+02  0.7816164E-02  0.1300439E+00
        -11   -1    0    0    0    0  0.00000000000E+00  0.00000000000E+00  0.45593999997E+02  0.45594000000E+02  0.51100000000E-03 0. -1.
         11   -1    0    0    0    0 -0.00000000000E+00 -0.00000000000E+00 -0.45593999997E+02  0.45594000000E+02  0.51100000000E-03 0.  1.
    9900012    2    1    2    0    0 -0.23729568535E+02 -0.23933113838E+02  0.22743774981E+02  0.50528860053E+02  0.30000000617E+02 0.  0.
         12    1    1    2    0    0  0.23729568535E+02  0.23933113838E+02 -0.22743774981E+02  0.40659139947E+02  0.00000000000E+00 0. -1.
         11    1    3    3    0    0 -0.87959278564E+01 -0.85952686451E+01  0.16926250891E+02  0.20922355494E+02  0.51100000000E-03 0. -1.
        -11    1    3    3    0    0 -0.15956906113E+02 -0.30985221659E+01  0.59893497843E+01  0.17323279233E+02  0.51100000000E-03 0.  1.
        -12    1    3    3    0    0  0.10232654341E+01 -0.12239323027E+02 -0.17182569467E+00  0.12283225325E+02  0.00000000000E+00 0.  1.
</event>
<event>
 7    1  0.4871930E-013  0.5052886E+02  0.7816164E-02  0.1300439E+00
        -11   -1    0    0    0    0  0.00000000000E+00  0.00000000000E+00  0.45593999997E+02  0.45594000000E+02  0.51100000000E-03 0. -1.
         11   -1    0    0    0    0 -0.00000000000E+00 -0.00000000000E+00 -0.45593999997E+02  0.45594000000E+02  0.51100000000E-03 0.  1.
    9900012    2    1    2    0    0  0.24325616105E+02 -0.10732723013E+02 -0.30760992943E+02  0.50528860449E+02  0.30000001820E+02 0.  0.
         12    1    1    2    0    0 -0.24325616105E+02  0.10732723013E+02  0.30760992943E+02  0.40659139551E+02  0.00000000000E+00 0. -1.
         11    1    3    3    0    0 -0.44590709182E+00 -0.99326432978E+01 -0.55800753135E+01  0.11401468185E+02  0.51100000000E-03 0. -1.
        -11    1    3    3    0    0  0.21658289049E+02 -0.62925972928E+01 -0.14796402218E+02  0.26974280047E+02  0.51100000000E-03 0.  1.
         12    1    3    3    0    0  0.31132341480E+01  0.54925175772E+01 -0.10384515412E+02  0.12153112216E+02  0.00000000000E+00 0. -1.
</event>
<event>
 7    1  0.4871930E-013  0.5052887E+02  0.7816164E-02  0.1300439E+00
        -11   -1    0    0    0    0  0.00000000000E+00  0.00000000000E+00  0.45593999997E+02  0.45594000000E+02  0.51100000000E-03 0.  1.
         11   -1    0    0    0    0 -0.00000000000E+00 -0.00000000000E+00 -0.45593999997E+02  0.45594000000E+02  0.51100000000E-03 0. -1.
    9900012    2    1    2    0    0 -0.16274152047E+02 -0.16984571205E+02  0.33163850560E+02  0.50528872269E+02  0.30000037750E+02 0.  0.
         12    1    1    2    0    0  0.16274152047E+02  0.16984571205E+02 -0.33163850560E+02  0.40659127731E+02  0.00000000000E+00 0. -1.
         11    1    3    3    0    0 -0.29586605899E+01 -0.82500714826E+01  0.19124949695E+01  0.89707853181E+01  0.51100000000E-03 0. -1.
        -11    1    3    3    0    0 -0.16783193190E+02 -0.10397192341E+02  0.14829459261E+02  0.24691902407E+02  0.51100000000E-03 0.  1.
        -12    1    3    3    0    0  0.34677017325E+01  0.16626926180E+01  0.16421896329E+02  0.16866184545E+02  0.00000000000E+00 0.  1.
</event>
<event>
 7    1  0.4871930E-013  0.5052888E+02  0.7816164E-02  0.1300439E+00
        -11   -1    0    0    0    0  0.00000000000E+00  0.00000000000E+00  0.45593999997E+02  0.45594000000E+02  0.51100000000E-03 0.  1.
         11   -1    0    0    0    0 -0.00000000000E+00 -0.00000000000E+00 -0.45593999997E+02  0.45594000000E+02  0.51100000000E-03 0. -1.
    9900012    2    1    2    0    0 -0.28836655984E+02  0.61645423607E+01  0.27993023222E+02  0.50528884663E+02  0.30000075422E+02 0.  0.
         12    1    1    2    0    0  0.28836655984E+02 -0.61645423607E+01 -0.27993023222E+02  0.40659115337E+02  0.00000000000E+00 0. -1.
         11    1    3    3    0    0 -0.35370815931E+01 -0.50513366608E+01  0.37337750158E+01  0.72088851001E+01  0.51100000000E-03 0. -1.
        -11    1    3    3    0    0  0.89007816364E+00  0.56363912301E+01 -0.17718837257E+01  0.59750077351E+01  0.51100000000E-03 0.  1.
        -12    1    3    3    0    0 -0.26189652555E+02  0.55794877914E+01  0.26031131932E+02  0.37344991828E+02  0.00000000000E+00 0.  1.
</event>
<event>
 7    1  0.4871930E-013  0.5052886E+02  0.7816164E-02  0.1300439E+00
        -11   -1    0    0    0    0  0.00000000000E+00  0.00000000000E+00  0.45593999997E+02  0.45594000000E+02  0.51100000000E-03 0.  1.
         11   -1    0    0    0    0 -0.00000000000E+00 -0.00000000000E+00 -0.45593999997E+02  0.45594000000E+02  0.51100000000E-03 0. -1.
    9900012    2    1    2    0    0  0.33304639307E+02  0.16809453943E+02  0.16168143827E+02  0.50528860609E+02  0.30000002307E+02 0.  0.
         12    1    1    2    0    0 -0.33304639307E+02 -0.16809453943E+02 -0.16168143827E+02  0.40659139391E+02  0.00000000000E+00 0. -1.
         11    1    3    3    0    0 -0.13353340591E+01  0.52464435725E+01 -0.11327323705E+01  0.55309465820E+01  0.51100000000E-03 0. -1.
        -11    1    3    3    0    0  0.68612435423E+01 -0.56215366293E+01  0.34241667416E+01  0.95080626395E+01  0.51100000000E-03 0.  1.
        -12    1    3    3    0    0  0.27778729823E+02  0.17184547000E+02  0.13876709456E+02  0.35489851388E+02  0.00000000000E+00 0.  1.
</event>
<event>
 7    1  0.4871930E-013  0.5052886E+02  0.7816164E-02  0.1300439E+00
        -11   -1    0    0    0    0  0.00000000000E+00  0.00000000000E+00  0.45593999997E+02  0.45594000000E+02  0.51100000000E-03 0.  1.
         11   -1    0    0    0    0 -0.00000000000E+00 -0.00000000000E+00 -0.45593999997E+02  0.45594000000E+02  0.51100000000E-03 0. -1.
    9900012    2    1    2    0    0  0.21347043349E+01  0.32401997460E+02  0.24468741827E+02  0.50528859225E+02  0.29999998100E+02 0.  0.
         12    1    1    2    0    0 -0.21347043349E+01 -0.32401997460E+02 -0.24468741827E+02  0.40659140775E+02  0.00000000000E+00 0. -1.
         11    1    3    3    0    0  0.35595037636E+01 -0.47994584954E+01  0.31191221413E+00  0.59834904848E+01  0.51100000000E-03 0. -1.
        -11    1    3    3    0    0  0.12249113570E+01  0.68275559099E+01  0.45760212065E+01  0.83099878387E+01  0.51100000000E-03 0.  1.
         12    1    3    3    0    0 -0.26497107857E+01  0.30373900045E+02  0.19580808406E+02  0.36235380901E+02  0.00000000000E+00 0. -1.
</event>
<event>
 7    1  0.4871930E-013  0.5052890E+02  0.7816164E-02  0.1300439E+00
        -11   -1    0    0    0    0  0.00000000000E+00  0.00000000000E+00  0.45593999997E+02  0.45594000000E+02  0.51100000000E-03 0. -1.
         11   -1    0    0    0    0 -0.00000000000E+00 -0.00000000000E+00 -0.45593999997E+02  0.45594000000E+02  0.51100000000E-03 0.  1.
    9900012    2    1    2    0    0 -0.27084552899E+02 -0.30284231814E+02  0.15668514624E+01  0.50528896151E+02  0.30000110341E+02 0.  0.
         12    1    1    2    0    0  0.27084552899E+02  0.30284231814E+02 -0.15668514624E+01  0.40659103849E+02  0.00000000000E+00 0. -1.
         11    1    3    3    0    0 -0.19229521417E+01  0.22901308092E+01 -0.21051107709E+01  0.36570391960E+01  0.51100000000E-03 0. -1.
        -11    1    3    3    0    0 -0.23634611605E+02 -0.14231218389E+02  0.62446036815E+01  0.28286348614E+02  0.51100000000E-03 0.  1.
         12    1    3    3    0    0 -0.15269891522E+01 -0.18343144234E+02 -0.25726414482E+01  0.18585508341E+02  0.00000000000E+00 0. -1.
</event>
<event>
 7    1  0.4871930E-013  0.5052884E+02  0.7816164E-02  0.1300439E+00
        -11   -1    0    0    0    0  0.00000000000E+00  0.00000000000E+00  0.45593999997E+02  0.45594000000E+02  0.51100000000E-03 0. -1.
         11   -1    0    0    0    0 -0.00000000000E+00 -0.00000000000E+00 -0.45593999997E+02  0.45594000000E+02  0.51100000000E-03 0.  1.
    9900012    2    1    2    0    0 -0.93023472580E+01 -0.33830589200E+02 -0.20545684466E+02  0.50528836454E+02  0.29999928884E+02 0.  0.
         12    1    1    2    0    0  0.93023472580E+01  0.33830589200E+02  0.20545684466E+02  0.40659163546E+02  0.00000000000E+00 0. -1.
         11    1    3    3    0    0  0.37659538588E+01 -0.17173750247E+01  0.12253237233E+01  0.43166195026E+01  0.51100000000E-03 0. -1.
        -11    1    3    3    0    0 -0.12314245877E+02 -0.33385483806E+02 -0.13898649182E+02  0.38202141692E+02  0.51100000000E-03 0.  1.
         12    1    3    3    0    0 -0.75405523936E+00  0.12722696307E+01 -0.78723590076E+01  0.80100752594E+01  0.00000000000E+00 0. -1.
</event>
<event>
 7    1  0.4939908E-013  0.5052887E+02  0.7816164E-02  0.1300439E+00
        -11   -1    0    0    0    0  0.00000000000E+00  0.00000000000E+00  0.45593999997E+02  0.45594000000E+02  0.51100000000E-03 0.  1.
         11   -1    0    0    0    0 -0.00000000000E+00 -0.00000000000E+00 -0.45593999997E+02  0.45594000000E+02  0.51100000000E-03 0. -1.
    9900012    2    1    2    0    0 -0.28314403825E+02 -0.29121135686E+02  0.18490959688E+01  0.50528866173E+02  0.30000019220E+02 0.  0.
         12    1    1    2    0    0  0.28314403825E+02  0.29121135686E+02 -0.18490959688E+01  0.40659133827E+02  0.00000000000E+00 0. -1.
         11    1    3    3    0    0 -0.12640986327E+01  0.16313493046E+01 -0.67525547855E+01  0.70608952902E+01  0.51100000000E-03 0. -1.
        -11    1    3    3    0    0 -0.83660450962E+01 -0.72997145646E+01  0.76201016696E+01  0.13466346683E+02  0.51100000000E-03 0.  1.
        -12    1    3    3    0    0 -0.18684260096E+02 -0.23452770426E+02  0.98154908469E+00  0.30001624200E+02  0.00000000000E+00 0.  1.
</event>
<event>
 7    1  0.4871930E-013  0.5052889E+02  0.7816164E-02  0.1300439E+00
        -11   -1    0    0    0    0  0.00000000000E+00  0.00000000000E+00  0.45593999997E+02  0.45594000000E+02  0.51100000000E-03 0. -1.
         11   -1    0    0    0    0 -0.00000000000E+00 -0.00000000000E+00 -0.45593999997E+02  0.45594000000E+02  0.51100000000E-03 0.  1.
    9900012    2    1    2    0    0  0.27893930147E+01 -0.39567646086E+02  0.89321895010E+01  0.50528888604E+02  0.30000087402E+02 0.  0.
         12    1    1    2    0    0 -0.27893930147E+01  0.39567646086E+02 -0.89321895010E+01  0.40659111396E+02  0.00000000000E+00 0. -1.
         11    1    3    3    0    0 -0.97329638181E+01 -0.12109713627E+02  0.64292205323E+00  0.15549569056E+02  0.51100000000E-03 0. -1.
        -11    1    3    3    0    0  0.70162317505E+01 -0.11921016307E+01  0.11491326652E+01  0.72089611192E+01  0.51100000000E-03 0.  1.
        -12    1    3    3    0    0  0.55061250823E+01 -0.26265830829E+02  0.71401347826E+01  0.27770358429E+02  0.00000000000E+00 0.  1.
</event>
<event>
 7    1  0.4871930E-013  0.5052886E+02  0.7816164E-02  0.1300439E+00
        -11   -1    0    0    0    0  0.00000000000E+00  0.00000000000E+00  0.45593999997E+02  0.45594000000E+02  0.51100000000E-03 0.  1.
         11   -1    0    0    0    0 -0.00000000000E+00 -0.00000000000E+00 -0.45593999997E+02  0.45594000000E+02  0.51100000000E-03 0. -1.
    9900012    2    1    2    0    0 -0.60701678539E+01 -0.16443082470E+02  0.36687106667E+02  0.50528859644E+02  0.29999999375E+02 0.  0.
         12    1    1    2    0    0  0.60701678539E+01  0.16443082470E+02 -0.36687106667E+02  0.40659140356E+02  0.00000000000E+00 0. -1.
         11    1    3    3    0    0  0.12539502368E+01  0.39539875519E+01  0.65572454485E+01  0.77591157286E+01  0.51100000000E-03 0. -1.
        -11    1    3    3    0    0 -0.97631988939E+01 -0.26710294755E+01  0.19464942574E+02  0.21939426628E+02  0.51100000000E-03 0.  1.
         12    1    3    3    0    0  0.24390808033E+01 -0.17726040547E+02  0.10664918644E+02  0.20830317288E+02  0.00000000000E+00 0. -1.
</event>
<event>
 7    1  0.4871930E-013  0.5052879E+02  0.7816164E-02  0.1300439E+00
        -11   -1    0    0    0    0  0.00000000000E+00  0.00000000000E+00  0.45593999997E+02  0.45594000000E+02  0.51100000000E-03 0. -1.
         11   -1    0    0    0    0 -0.00000000000E+00 -0.00000000000E+00 -0.45593999997E+02  0.45594000000E+02  0.51100000000E-03 0.  1.
    9900012    2    1    2    0    0  0.34734195876E+02  0.20789777896E+02 -0.38068828594E+01  0.50528787204E+02  0.29999779185E+02 0.  0.
         12    1    1    2    0    0 -0.34734195876E+02 -0.20789777896E+02  0.38068828594E+01  0.40659212796E+02  0.00000000000E+00 0. -1.
         11    1    3    3    0    0  0.11616555998E+01 -0.30034057515E+01  0.37408743739E+00  0.32418870296E+01  0.51100000000E-03 0. -1.
        -11    1    3    3    0    0  0.28152775914E+02  0.84584674918E+01 -0.82296736921E+01  0.30526250889E+02  0.51100000000E-03 0.  1.
         12    1    3    3    0    0  0.54197643620E+01  0.15334716155E+02  0.40487033953E+01  0.16760649286E+02  0.00000000000E+00 0. -1.
</event>
<event>
 7    1  0.4871930E-013  0.5052886E+02  0.7816164E-02  0.1300439E+00
        -11   -1    0    0    0    0  0.00000000000E+00  0.00000000000E+00  0.45593999997E+02  0.45594000000E+02  0.51100000000E-03 0. -1.
         11   -1    0    0    0    0 -0.00000000000E+00 -0.00000000000E+00 -0.45593999997E+02  0.45594000000E+02  0.51100000000E-03 0.  1.
    9900012    2    1    2    0    0  0.19674134769E+02  0.32361753885E+02 -0.14792266114E+02  0.50528857975E+02  0.29999994300E+02 0.  0.
         12    1    1    2    0    0 -0.19674134769E+02 -0.32361753885E+02  0.14792266114E+02  0.40659142025E+02  0.00000000000E+00 0. -1.
         11    1    3    3    0    0  0.43664899668E+01  0.21910618902E+01 -0.32221629761E+00  0.48959994322E+01  0.51100000000E-03 0. -1.
        -11    1    3    3    0    0  0.18553768292E+02  0.21491519876E+02  0.68368615952E-01  0.28392471166E+02  0.51100000000E-03 0.  1.
         12    1    3    3    0    0 -0.32461234894E+01  0.86791721190E+01 -0.14538418432E+02  0.17240387376E+02  0.00000000000E+00 0. -1.
</event>
<event>
 7    1  0.4871930E-013  0.5052887E+02  0.7816164E-02  0.1300439E+00
        -11   -1    0    0    0    0  0.00000000000E+00  0.00000000000E+00  0.45593999997E+02  0.45594000000E+02  0.51100000000E-03 0.  1.
         11   -1    0    0    0    0 -0.00000000000E+00 -0.00000000000E+00 -0.45593999997E+02  0.45594000000E+02  0.51100000000E-03 0. -1.
    9900012    2    1    2    0    0 -0.26694993423E+02  0.13040684228E+01  0.30640523666E+02  0.50528868691E+02  0.30000026873E+02 0.  0.
         12    1    1    2    0    0  0.26694993423E+02 -0.13040684228E+01 -0.30640523666E+02  0.40659131309E+02  0.00000000000E+00 0. -1.
         11    1    3    3    0    0 -0.44418196928E+01 -0.21175317040E+01 -0.35433631046E+01  0.60637550291E+01  0.51100000000E-03 0. -1.
        -11    1    3    3    0    0 -0.12821431069E+02 -0.65022989593E+01  0.21067922460E+02  0.25505417923E+02  0.51100000000E-03 0.  1.
        -12    1    3    3    0    0 -0.94317426618E+01  0.99238990861E+01  0.13115964310E+02  0.18959695738E+02  0.00000000000E+00 0.  1.
</event>
<event>
 7    1  0.4871930E-013  0.5052887E+02  0.7816164E-02  0.1300439E+00
        -11   -1    0    0    0    0  0.00000000000E+00  0.00000000000E+00  0.45593999997E+02  0.45594000000E+02  0.51100000000E-03 0. -1.
         11   -1    0    0    0    0 -0.00000000000E+00 -0.00000000000E+00 -0.45593999997E+02  0.45594000000E+02  0.51100000000E-03 0.  1.
    9900012    2    1    2    0    0 -0.16294605794E+02 -0.32432352373E+02 -0.18324664757E+02  0.50528868223E+02  0.30000025449E+02 0.  0.
         12    1    1    2    0    0  0.16294605794E+02  0.32432352373E+02  0.18324664757E+02  0.40659131777E+02  0.00000000000E+00 0. -1.
         11    1    3    3    0    0 -0.38962329228E+01 -0.22600317638E+02 -0.72479813624E+01  0.24051782105E+02  0.51100000000E-03 0. -1.
        -11    1    3    3    0    0  0.24072045768E+01 -0.33586360736E+01 -0.93546872924E+01  0.10226692757E+02  0.51100000000E-03 0.  1.
        -12    1    3    3    0    0 -0.14805577448E+02 -0.64733986617E+01 -0.17219961023E+01  0.16250393361E+02  0.00000000000E+00 0.  1.
</event>
<event>
 7    1  0.4871930E-013  0.5052886E+02  0.7816164E-02  0.1300439E+00
        -11   -1    0    0    0    0  0.00000000000E+00  0.00000000000E+00  0.45593999997E+02  0.45594000000E+02  0.51100000000E-03 0.  1.
         11   -1    0    0    0    0 -0.00000000000E+00 -0.00000000000E+00 -0.45593999997E+02  0.45594000000E+02  0.51100000000E-03 0. -1.
    9900012    2    1    2    0    0  0.54940861690E+01  0.26149997595E+02  0.30645687512E+02  0.50528861788E+02  0.30000005890E+02 0.  0.
         12    1    1    2    0    0 -0.54940861690E+01 -0.26149997595E+02 -0.30645687512E+02  0.40659138212E+02  0.00000000000E+00 0. -1.
         11    1    3    3    0    0 -0.23092444849E+01 -0.58465916347E+00  0.16296090860E+02  0.16469274847E+02  0.51100000000E-03 0. -1.
        -11    1    3    3    0    0  0.55803048916E+01  0.27643605260E+01  0.40807469572E+00  0.62408346412E+01  0.51100000000E-03 0.  1.
        -12    1    3    3    0    0  0.22230257623E+01  0.23970296233E+02  0.13941521957E+02  0.27818752299E+02  0.00000000000E+00 0.  1.
</event>
<event>
 7    1  0.4871930E-013  0.5052886E+02  0.7816164E-02  0.1300439E+00
        -11   -1    0    0    0    0  0.00000000000E+00  0.00000000000E+00  0.45593999997E+02  0.45594000000E+02  0.51100000000E-03 0.  1.
         11   -1    0    0    0    0 -0.00000000000E+00 -0.00000000000E+00 -0.45593999997E+02  0.45594000000E+02  0.51100000000E-03 0. -1.
    9900012    2    1    2    0    0 -0.22597329786E+01  0.40357061116E+02 -0.44008068527E+01  0.50528857411E+02  0.29999992588E+02 0.  0.
         12    1    1    2    0    0  0.22597329786E+01 -0.40357061116E+02  0.44008068527E+01  0.40659142589E+02  0.00000000000E+00 0. -1.
         11    1    3    3    0    0  0.78890139481E+01  0.10189111187E+02 -0.14567956668E+01  0.12968299107E+02  0.51100000000E-03 0. -1.
        -11    1    3    3    0    0 -0.59323504499E+00 -0.28210193010E+01 -0.13377763196E+01  0.31780062080E+01  0.51100000000E-03 0.  1.
        -12    1    3    3    0    0 -0.95555118818E+01  0.32988969231E+02 -0.16062348663E+01  0.34382552096E+02  0.00000000000E+00 0.  1.
</event>
<event>
 7    1  0.4871930E-013  0.5052884E+02  0.7816164E-02  0.1300439E+00
        -11   -1    0    0    0    0  0.00000000000E+00  0.00000000000E+00  0.45593999997E+02  0.45594000000E+02  0.51100000000E-03 0.  1.
         11   -1    0    0    0    0 -0.00000000000E+00 -0.00000000000E+00 -0.45593999997E+02  0.45594000000E+02  0.51100000000E-03 0. -1.
    9900012    2    1    2    0    0 -0.35646791637E+02 -0.76155383948E+01  0.18013259103E+02  0.50528835196E+02  0.29999925062E+02 0.  0.
         12    1    1    2    0    0  0.35646791637E+02  0.76155383948E+01 -0.18013259103E+02  0.40659164804E+02  0.00000000000E+00 0. -1.
         11    1    3    3    0    0 -0.39047431782E+01  0.60639630461E+01  0.91926817519E+01  0.11684351294E+02  0.51100000000E-03 0. -1.
        -11    1    3    3    0    0 -0.21999656211E+02 -0.36884063315E+01 -0.54087701577E-01  0.22306773420E+02  0.51100000000E-03 0.  1.
        -12    1    3    3    0    0 -0.97423922469E+01 -0.99910951094E+01  0.88746650529E+01  0.16537710482E+02  0.00000000000E+00 0.  1.
</event>
<event>
 7    1  0.4871930E-013  0.5052886E+02  0.7816164E-02  0.1300439E+00
        -11   -1    0    0    0    0  0.00000000000E+00  0.00000000000E+00  0.45593999997E+02  0.45594000000E+02  0.51100000000E-03 0.  1.
         11   -1    0    0    0    0 -0.00000000000E+00 -0.00000000000E+00 -0.45593999997E+02  0.45594000000E+02  0.51100000000E-03 0. -1.
    9900012    2    1    2    0    0  0.40331780056E+02  0.26218592595E+01 -0.44315856439E+01  0.50528861054E+02  0.30000003661E+02 0.  0.
         12    1    1    2    0    0 -0.40331780056E+02 -0.26218592595E+01  0.44315856439E+01  0.40659138946E+02  0.00000000000E+00 0. -1.
         11    1    3    3    0    0  0.23821496068E+02  0.10091126624E+02 -0.97382551567E+00  0.25889048802E+02  0.51100000000E-03 0. -1.
        -11    1    3    3    0    0  0.78986517517E-01  0.97968755024E-01  0.47663837634E+01  0.47680447972E+01  0.51100000000E-03 0.  1.
         12    1    3    3    0    0  0.16431297471E+02 -0.75672361194E+01 -0.82241438916E+01  0.19871767456E+02  0.00000000000E+00 0. -1.
</event>
<event>
 7    1  0.4871930E-013  0.5052887E+02  0.7816164E-02  0.1300439E+00
        -11   -1    0    0    0    0  0.00000000000E+00  0.00000000000E+00  0.45593999997E+02  0.45594000000E+02  0.51100000000E-03 0. -1.
         11   -1    0    0    0    0 -0.00000000000E+00 -0.00000000000E+00 -0.45593999997E+02  0.45594000000E+02  0.51100000000E-03 0.  1.
    9900012    2    1    2    0    0  0.17496295930E+02  0.61049771052E+01 -0.36190801313E+02  0.50528865524E+02  0.30000017246E+02 0.  0.
         12    1    1    2    0    0 -0.17496295930E+02 -0.61049771052E+01  0.36190801313E+02  0.40659134476E+02  0.00000000000E+00 0. -1.
         11    1    3    3    0    0 -0.37531184655E+01 -0.66363491287E+01 -0.10890611430E+02  0.13294075581E+02  0.51100000000E-03 0. -1.
        -11    1    3    3    0    0  0.80082829541E+01  0.80811912858E+01 -0.18301550542E+02  0.21549593986E+02  0.51100000000E-03 0.  1.
        -12    1    3    3    0    0  0.13241131441E+02  0.46601349481E+01 -0.69986393407E+01  0.15685195956E+02  0.00000000000E+00 0.  1.
</event>
<event>
 7    1  0.4871930E-013  0.5052887E+02  0.7816164E-02  0.1300439E+00
        -11   -1    0    0    0    0  0.00000000000E+00  0.00000000000E+00  0.45593999997E+02  0.45594000000E+02  0.51100000000E-03 0.  1.
         11   -1    0    0    0    0 -0.00000000000E+00 -0.00000000000E+00 -0.45593999997E+02  0.45594000000E+02  0.51100000000E-03 0. -1.
    9900012    2    1    2    0    0  0.21733315089E+02 -0.29612967596E+02  0.17432738593E+02  0.50528865608E+02  0.30000017502E+02 0.  0.
         12    1    1    2    0    0 -0.21733315089E+02  0.29612967596E+02 -0.17432738593E+02  0.40659134392E+02  0.00000000000E+00 0. -1.
         11    1    3    3    0    0 -0.39607754887E+01 -0.58418120753E+01  0.34936235754E+01  0.78752724869E+01  0.51100000000E-03 0.  1.
        -11    1    3    3    0    0  0.11778218727E+02 -0.16345383862E+02 -0.19794288618E+01  0.20243916341E+02  0.51100000000E-03 0. -1.
        -12    1    3    3    0    0  0.13915871851E+02 -0.74257716593E+01  0.15918543880E+02  0.22409676780E+02  0.00000000000E+00 0.  1.
</event>
<event>
 7    1  0.6116021E-013  0.5052886E+02  0.7816164E-02  0.1300439E+00
        -11   -1    0    0    0    0  0.00000000000E+00  0.00000000000E+00  0.45593999997E+02  0.45594000000E+02  0.51100000000E-03 0. -1.
         11   -1    0    0    0    0 -0.00000000000E+00 -0.00000000000E+00 -0.45593999997E+02  0.45594000000E+02  0.51100000000E-03 0.  1.
    9900012    2    1    2    0    0  0.13229730807E+02  0.93304009100E+01 -0.37297234305E+02  0.50528857791E+02  0.29999993742E+02 0.  0.
         12    1    1    2    0    0 -0.13229730807E+02 -0.93304009100E+01  0.37297234305E+02  0.40659142209E+02  0.00000000000E+00 0. -1.
         11    1    3    3    0    0  0.33531619518E+01  0.12774589902E+01  0.25912880539E+01  0.44261010592E+01  0.51100000000E-03 0. -1.
        -11    1    3    3    0    0  0.15714652175E+02  0.50904330283E+01 -0.27145913630E+02  0.31776774985E+02  0.51100000000E-03 0.  1.
         12    1    3    3    0    0 -0.58380833200E+01  0.29625088916E+01 -0.12742608729E+02  0.14325981746E+02  0.00000000000E+00 0. -1.
</event>
<event>
 7    1  0.4871930E-013  0.5052886E+02  0.7816164E-02  0.1300439E+00
        -11   -1    0    0    0    0  0.00000000000E+00  0.00000000000E+00  0.45593999997E+02  0.45594000000E+02  0.51100000000E-03 0.  1.
         11   -1    0    0    0    0 -0.00000000000E+00 -0.00000000000E+00 -0.45593999997E+02  0.45594000000E+02  0.51100000000E-03 0. -1.
    9900012    2    1    2    0    0 -0.39056723276E+02  0.55498887803E+01  0.98456503220E+01  0.50528859222E+02  0.29999998093E+02 0.  0.
         12    1    1    2    0    0  0.39056723276E+02 -0.55498887803E+01 -0.98456503220E+01  0.40659140778E+02  0.00000000000E+00 0. -1.
         11    1    3    3    0    0 -0.12815791557E+02 -0.20179840340E+01  0.72429032481E+01  0.14858547053E+02  0.51100000000E-03 0. -1.
        -11    1    3    3    0    0 -0.24794908342E+02  0.16410831471E+01 -0.55758139296E+01  0.25467044093E+02  0.51100000000E-03 0.  1.
         12    1    3    3    0    0 -0.14460233768E+01  0.59267896673E+01  0.81785610035E+01  0.10203268077E+02  0.00000000000E+00 0. -1.
</event>
<event>
 7    1  0.4871930E-013  0.5052887E+02  0.7816164E-02  0.1300439E+00
        -11   -1    0    0    0    0  0.00000000000E+00  0.00000000000E+00  0.45593999997E+02  0.45594000000E+02  0.51100000000E-03 0.  1.
         11   -1    0    0    0    0 -0.00000000000E+00 -0.00000000000E+00 -0.45593999997E+02  0.45594000000E+02  0.51100000000E-03 0. -1.
    9900012    2    1    2    0    0  0.22287759796E+02 -0.19173899926E+02  0.28085272485E+02  0.50528865656E+02  0.30000017647E+02 0.  0.
         12    1    1    2    0    0 -0.22287759796E+02  0.19173899926E+02 -0.28085272485E+02  0.40659134344E+02  0.00000000000E+00 0. -1.
         11    1    3    3    0    0  0.19645174837E+01 -0.61199439804E+01 -0.45081075456E+01  0.78508647404E+01  0.51100000000E-03 0. -1.
        -11    1    3    3    0    0  0.54035377659E+01  0.25245069294E+01  0.76852682395E+01  0.97280369961E+01  0.51100000000E-03 0.  1.
        -12    1    3    3    0    0  0.14919704546E+02 -0.15578462875E+02  0.24908111791E+02  0.32949963919E+02  0.00000000000E+00 0.  1.
</event>
<event>
 7    1  0.4871930E-013  0.5052883E+02  0.7816164E-02  0.1300439E+00
        -11   -1    0    0    0    0  0.00000000000E+00  0.00000000000E+00  0.45593999997E+02  0.45594000000E+02  0.51100000000E-03 0. -1.
         11   -1    0    0    0    0 -0.00000000000E+00 -0.00000000000E+00 -0.45593999997E+02  0.45594000000E+02  0.51100000000E-03 0.  1.
    9900012    2    1    2    0    0  0.11705937785E+02  0.22693454806E+02 -0.31640899835E+02  0.50528826216E+02  0.29999897765E+02 0.  0.
         12    1    1    2    0    0 -0.11705937785E+02 -0.22693454806E+02  0.31640899835E+02  0.40659173784E+02  0.00000000000E+00 0. -1.
         11    1    3    3    0    0  0.18075661746E+01 -0.30010560801E+01 -0.49274223373E+01  0.60459179801E+01  0.51100000000E-03 0. -1.
        -11    1    3    3    0    0  0.33582687329E+01  0.78272647831E+01 -0.23744719364E+02  0.25226092460E+02  0.51100000000E-03 0.  1.
        -12    1    3    3    0    0  0.65401028779E+01  0.17867246103E+02 -0.29687581340E+01  0.19256815776E+02  0.00000000000E+00 0.  1.
</event>
<event>
 7    1  0.4871930E-013  0.5052886E+02  0.7816164E-02  0.1300439E+00
        -11   -1    0    0    0    0  0.00000000000E+00  0.00000000000E+00  0.45593999997E+02  0.45594000000E+02  0.51100000000E-03 0. -1.
         11   -1    0    0    0    0 -0.00000000000E+00 -0.00000000000E+00 -0.45593999997E+02  0.45594000000E+02  0.51100000000E-03 0.  1.
    9900012    2    1    2    0    0 -0.31052762029E+02 -0.15396498772E+02 -0.21256520975E+02  0.50528857264E+02  0.29999992140E+02 0.  0.
         12    1    1    2    0    0  0.31052762029E+02  0.15396498772E+02  0.21256520975E+02  0.40659142736E+02  0.00000000000E+00 0. -1.
         11    1    3    3    0    0 -0.15002490572E+02 -0.63026716232E+01 -0.88857855149E+01  0.18540646629E+02  0.51100000000E-03 0. -1.
        -11    1    3    3    0    0 -0.38344505082E+01 -0.68234088418E+01 -0.17010767616E+02  0.18725066997E+02  0.51100000000E-03 0.  1.
         12    1    3    3    0    0 -0.12215820949E+02 -0.22704183071E+01  0.46400321555E+01  0.13263143638E+02  0.00000000000E+00 0. -1.
</event>
<event>
 7    1  0.4871930E-013  0.5052887E+02  0.7816164E-02  0.1300439E+00
        -11   -1    0    0    0    0  0.00000000000E+00  0.00000000000E+00  0.45593999997E+02  0.45594000000E+02  0.51100000000E-03 0. -1.
         11   -1    0    0    0    0 -0.00000000000E+00 -0.00000000000E+00 -0.45593999997E+02  0.45594000000E+02  0.51100000000E-03 0.  1.
    9900012    2    1    2    0    0  0.25212244124E+01  0.27144813693E+02 -0.30165660784E+02  0.50528873430E+02  0.30000041277E+02 0.  0.
         12    1    1    2    0    0 -0.25212244124E+01 -0.27144813693E+02  0.30165660784E+02  0.40659126570E+02  0.00000000000E+00 0. -1.
         11    1    3    3    0    0 -0.70022482377E+00  0.20031272791E+02 -0.13572085551E+02  0.24206274205E+02  0.51100000000E-03 0. -1.
        -11    1    3    3    0    0 -0.72329150120E+01  0.22080588911E+01 -0.22137540448E+01  0.78798027177E+01  0.51100000000E-03 0.  1.
        -12    1    3    3    0    0  0.10454364248E+02  0.49054820101E+01 -0.14379821188E+02  0.18442796507E+02  0.00000000000E+00 0.  1.
</event>
<event>
 7    1  0.4871930E-013  0.5052887E+02  0.7816164E-02  0.1300439E+00
        -11   -1    0    0    0    0  0.00000000000E+00  0.00000000000E+00  0.45593999997E+02  0.45594000000E+02  0.51100000000E-03 0.  1.
         11   -1    0    0    0    0 -0.00000000000E+00 -0.00000000000E+00 -0.45593999997E+02  0.45594000000E+02  0.51100000000E-03 0. -1.
    9900012    2    1    2    0    0 -0.23703601436E+02 -0.31812294466E+02  0.89040498738E+01  0.50528869360E+02  0.30000028908E+02 0.  0.
         12    1    1    2    0    0  0.23703601436E+02  0.31812294466E+02 -0.89040498738E+01  0.40659130640E+02  0.00000000000E+00 0. -1.
         11    1    3    3    0    0  0.30721694450E+00 -0.18710501512E+02  0.79793117285E+01  0.20343221598E+02  0.51100000000E-03 0.  1.
        -11    1    3    3    0    0 -0.11746222580E+02 -0.95631817017E+01 -0.52169179726E+01  0.16020125547E+02  0.51100000000E-03 0. -1.
        -12    1    3    3    0    0 -0.12264595801E+02 -0.35386112521E+01  0.61416561180E+01  0.14165522215E+02  0.00000000000E+00 0.  1.
</event>
<event>
 7    1  0.4871930E-013  0.5052885E+02  0.7816164E-02  0.1300439E+00
        -11   -1    0    0    0    0  0.00000000000E+00  0.00000000000E+00  0.45593999997E+02  0.45594000000E+02  0.51100000000E-03 0.  1.
         11   -1    0    0    0    0 -0.00000000000E+00 -0.00000000000E+00 -0.45593999997E+02  0.45594000000E+02  0.51100000000E-03 0. -1.
    9900012    2    1    2    0    0 -0.21565229726E+02 -0.79223579234E+00  0.34459830006E+02  0.50528847836E+02  0.29999963482E+02 0.  0.
         12    1    1    2    0    0  0.21565229726E+02  0.79223579234E+00 -0.34459830006E+02  0.40659152164E+02  0.00000000000E+00 0. -1.
         11    1    3    3    0    0 -0.66066356885E+01  0.86723022192E+01  0.73974552749E+01  0.13174930956E+02  0.51100000000E-03 0. -1.
        -11    1    3    3    0    0 -0.12347594391E+02  0.77436603679E+00  0.22838849013E+02  0.25974521256E+02  0.51100000000E-03 0.  1.
        -12    1    3    3    0    0 -0.26109996463E+01 -0.10238904048E+02  0.42235257181E+01  0.11379395623E+02  0.00000000000E+00 0.  1.
</event>
<event>
 7    1  0.4871930E-013  0.5052886E+02  0.7816164E-02  0.1300439E+00
        -11   -1    0    0    0    0  0.00000000000E+00  0.00000000000E+00  0.45593999997E+02  0.45594000000E+02  0.51100000000E-03 0.  1.
         11   -1    0    0    0    0 -0.00000000000E+00 -0.00000000000E+00 -0.45593999997E+02  0.45594000000E+02  0.51100000000E-03 0. -1.
    9900012    2    1    2    0    0 -0.13071148361E+02 -0.31995684204E+02  0.21414639151E+02  0.50528862071E+02  0.30000006752E+02 0.  0.
         12    1    1    2    0    0  0.13071148361E+02  0.31995684204E+02 -0.21414639151E+02  0.40659137929E+02  0.00000000000E+00 0. -1.
         11    1    3    3    0    0 -0.20293148093E+01 -0.13989453647E+02  0.21471530518E+01  0.14298013793E+02  0.51100000000E-03 0. -1.
        -11    1    3    3    0    0 -0.15731305449E+02 -0.19759010520E+02  0.13660683633E+02  0.28714225489E+02  0.51100000000E-03 0.  1.
        -12    1    3    3    0    0  0.46894718973E+01  0.17527799627E+01  0.56068024658E+01  0.75166227898E+01  0.00000000000E+00 0.  1.
</event>
<event>
 7    1  0.4871930E-013  0.5052885E+02  0.7816164E-02  0.1300439E+00
        -11   -1    0    0    0    0  0.00000000000E+00  0.00000000000E+00  0.45593999997E+02  0.45594000000E+02  0.51100000000E-03 0.  1.
         11   -1    0    0    0    0 -0.00000000000E+00 -0.00000000000E+00 -0.45593999997E+02  0.45594000000E+02  0.51100000000E-03 0. -1.
    9900012    2    1    2    0    0  0.33009577523E+00  0.62200464442E+01  0.40179205296E+02  0.50528849994E+02  0.29999970042E+02 0.  0.
         12    1    1    2    0    0 -0.33009577523E+00 -0.62200464442E+01 -0.40179205296E+02  0.40659150006E+02  0.00000000000E+00 0. -1.
         11    1    3    3    0    0  0.20875629447E+01 -0.75214442443E+00  0.23111024917E+02  0.23217302024E+02  0.51100000000E-03 0. -1.
        -11    1    3    3    0    0  0.64474803295E+01 -0.20519239534E+01  0.12638139605E+02  0.14335374688E+02  0.51100000000E-03 0.  1.
         12    1    3    3    0    0 -0.82049474990E+01  0.90241148220E+01  0.44300407730E+01  0.12976173282E+02  0.00000000000E+00 0. -1.
</event>
<event>
 7    1  0.4871930E-013  0.5052883E+02  0.7816164E-02  0.1300439E+00
        -11   -1    0    0    0    0  0.00000000000E+00  0.00000000000E+00  0.45593999997E+02  0.45594000000E+02  0.51100000000E-03 0. -1.
         11   -1    0    0    0    0 -0.00000000000E+00 -0.00000000000E+00 -0.45593999997E+02  0.45594000000E+02  0.51100000000E-03 0.  1.
    9900012    2    1    2    0    0 -0.38165656098E+02  0.29782979453E+01 -0.13699666808E+02  0.50528825947E+02  0.29999896949E+02 0.  0.
         12    1    1    2    0    0  0.38165656098E+02 -0.29782979453E+01  0.13699666808E+02  0.40659174053E+02  0.00000000000E+00 0. -1.
         11    1    3    3    0    0 -0.18610314189E+02  0.35174443492E+01 -0.95669729214E+00  0.18963952091E+02  0.51100000000E-03 0. -1.
        -11    1    3    3    0    0 -0.23094718795E+02  0.25835235547E+01 -0.13358908081E+02  0.26804869997E+02  0.51100000000E-03 0.  1.
         12    1    3    3    0    0  0.35393768866E+01 -0.31226699586E+01  0.61593856531E+00  0.47600038584E+01  0.00000000000E+00 0. -1.
</event>
<event>
 7    1  0.4871930E-013  0.5052886E+02  0.7816164E-02  0.1300439E+00
        -11   -1    0    0    0    0  0.00000000000E+00  0.00000000000E+00  0.45593999997E+02  0.45594000000E+02  0.51100000000E-03 0.  1.
         11   -1    0    0    0    0 -0.00000000000E+00 -0.00000000000E+00 -0.45593999997E+02  0.45594000000E+02  0.51100000000E-03 0. -1.
    9900012    2    1    2    0    0  0.16698683869E+02  0.21984016990E+02  0.29850003063E+02  0.50528859222E+02  0.29999998091E+02 0.  0.
         12    1    1    2    0    0 -0.16698683869E+02 -0.21984016990E+02 -0.29850003063E+02  0.40659140778E+02  0.00000000000E+00 0. -1.
         11    1    3    3    0    0  0.79733478561E+01 -0.87221163962E+00  0.18885224318E+02  0.20517961082E+02  0.51100000000E-03 0. -1.
        -11    1    3    3    0    0  0.96052877582E+00 -0.37395361761E-01 -0.22596241442E+01  0.24555886211E+01  0.51100000000E-03 0.  1.
        -12    1    3    3    0    0  0.77648072372E+01  0.22893623991E+02  0.13224402889E+02  0.27555309518E+02  0.00000000000E+00 0.  1.
</event>
<event>
 7    1  0.4871930E-013  0.5052887E+02  0.7816164E-02  0.1300439E+00
        -11   -1    0    0    0    0  0.00000000000E+00  0.00000000000E+00  0.45593999997E+02  0.45594000000E+02  0.51100000000E-03 0. -1.
         11   -1    0    0    0    0 -0.00000000000E+00 -0.00000000000E+00 -0.45593999997E+02  0.45594000000E+02  0.51100000000E-03 0.  1.
    9900012    2    1    2    0    0 -0.34997934982E+02 -0.19534740251E+02  0.68339567802E+01  0.50528874395E+02  0.30000044211E+02 0.  0.
         12    1    1    2    0    0  0.34997934982E+02  0.19534740251E+02 -0.68339567802E+01  0.40659125605E+02  0.00000000000E+00 0. -1.
         11    1    3    3    0    0  0.19164029066E+00  0.29945133092E+01 -0.18033865993E+01  0.35008626720E+01  0.51100000000E-03 0. -1.
        -11    1    3    3    0    0 -0.23967059640E+02 -0.14422411524E+02 -0.40327661142E+01  0.28261088174E+02  0.51100000000E-03 0.  1.
         12    1    3    3    0    0 -0.11222515633E+02 -0.81068420357E+01  0.12670109494E+02  0.18766923549E+02  0.00000000000E+00 0. -1.
</event>
<event>
 7    1  0.4871930E-013  0.5052886E+02  0.7816164E-02  0.1300439E+00
        -11   -1    0    0    0    0  0.00000000000E+00  0.00000000000E+00  0.45593999997E+02  0.45594000000E+02  0.51100000000E-03 0.  1.
         11   -1    0    0    0    0 -0.00000000000E+00 -0.00000000000E+00 -0.45593999997E+02  0.45594000000E+02  0.51100000000E-03 0. -1.
    9900012    2    1    2    0    0  0.40437186419E+02  0.33871454862E+01  0.25547884857E+01  0.50528859033E+02  0.29999997516E+02 0.  0.
         12    1    1    2    0    0 -0.40437186419E+02 -0.33871454862E+01 -0.25547884857E+01  0.40659140967E+02  0.00000000000E+00 0. -1.
         11    1    3    3    0    0  0.38857441934E+01 -0.61006722462E+00  0.67182406719E+01  0.77849822056E+01  0.51100000000E-03 0. -1.
        -11    1    3    3    0    0  0.29174020209E+02  0.45255294813E+01  0.60471283470E+01  0.30135886145E+02  0.51100000000E-03 0.  1.
         12    1    3    3    0    0  0.73774220167E+01 -0.52831677054E+00 -0.10210580533E+02  0.12607990682E+02  0.00000000000E+00 0. -1.
</event>
<event>
 7    1  0.4871930E-013  0.5052886E+02  0.7816164E-02  0.1300439E+00
        -11   -1    0    0    0    0  0.00000000000E+00  0.00000000000E+00  0.45593999997E+02  0.45594000000E+02  0.51100000000E-03 0.  1.
         11   -1    0    0    0    0 -0.00000000000E+00 -0.00000000000E+00 -0.45593999997E+02  0.45594000000E+02  0.51100000000E-03 0. -1.
    9900012    2    1    2    0    0 -0.33024793548E+02 -0.14716042412E+02  0.18600179141E+02  0.50528861332E+02  0.30000004503E+02 0.  0.
         12    1    1    2    0    0  0.33024793548E+02  0.14716042412E+02 -0.18600179141E+02  0.40659138668E+02  0.00000000000E+00 0. -1.
         11    1    3    3    0    0 -0.39283022682E+01 -0.10822875944E+01 -0.38467210125E+01  0.56035852770E+01  0.51100000000E-03 0. -1.
        -11    1    3    3    0    0 -0.21157125382E+02 -0.17360257843E+02  0.23524570754E+02  0.36088889373E+02  0.51100000000E-03 0.  1.
         12    1    3    3    0    0 -0.79393658985E+01  0.37265030246E+01 -0.10776706004E+01  0.88363866815E+01  0.00000000000E+00 0. -1.
</event>
<event>
 7    1  0.4871930E-013  0.5052887E+02  0.7816164E-02  0.1300439E+00
        -11   -1    0    0    0    0  0.00000000000E+00  0.00000000000E+00  0.45593999997E+02  0.45594000000E+02  0.51100000000E-03 0.  1.
         11   -1    0    0    0    0 -0.00000000000E+00 -0.00000000000E+00 -0.45593999997E+02  0.45594000000E+02  0.51100000000E-03 0. -1.
    9900012    2    1    2    0    0  0.29044932433E+02 -0.27956474597E+02  0.52907961317E+01  0.50528867008E+02  0.30000021758E+02 0.  0.
         12    1    1    2    0    0 -0.29044932433E+02  0.27956474597E+02 -0.52907961317E+01  0.40659132992E+02  0.00000000000E+00 0. -1.
         11    1    3    3    0    0  0.17500208761E+02 -0.13573232124E+02 -0.52753193359E+01  0.22766618794E+02  0.51100000000E-03 0. -1.
        -11    1    3    3    0    0  0.98653317896E+01  0.34083459420E+00  0.57224592946E+00  0.98877907140E+01  0.51100000000E-03 0.  1.
        -12    1    3    3    0    0  0.16793918829E+01 -0.14724077067E+02  0.99938695381E+01  0.17874457500E+02  0.00000000000E+00 0.  1.
</event>
<event>
 7    1  0.4871930E-013  0.5052885E+02  0.7816164E-02  0.1300439E+00
        -11   -1    0    0    0    0  0.00000000000E+00  0.00000000000E+00  0.45593999997E+02  0.45594000000E+02  0.51100000000E-03 0. -1.
         11   -1    0    0    0    0 -0.00000000000E+00 -0.00000000000E+00 -0.45593999997E+02  0.45594000000E+02  0.51100000000E-03 0.  1.
    9900012    2    1    2    0    0  0.16328383098E+01  0.29469866951E+02 -0.27964745200E+02  0.50528853511E+02  0.29999980734E+02 0.  0.
         12    1    1    2    0    0 -0.16328383098E+01 -0.29469866951E+02  0.27964745200E+02  0.40659146489E+02  0.00000000000E+00 0. -1.
         11    1    3    3    0    0  0.99429205314E+01  0.10727325840E+02 -0.85736584176E+01  0.16954197336E+02  0.51100000000E-03 0. -1.
        -11    1    3    3    0    0  0.87984270517E+00  0.14525431693E+02 -0.38826140980E+01  0.15061108244E+02  0.51100000000E-03 0.  1.
        -12    1    3    3    0    0 -0.91899249267E+01  0.42171094179E+01 -0.15508472685E+02  0.18513547932E+02  0.00000000000E+00 0.  1.
</event>
<event>
 7    1  0.4871930E-013  0.5052886E+02  0.7816164E-02  0.1300439E+00
        -11   -1    0    0    0    0  0.00000000000E+00  0.00000000000E+00  0.45593999997E+02  0.45594000000E+02  0.51100000000E-03 0.  1.
         11   -1    0    0    0    0 -0.00000000000E+00 -0.00000000000E+00 -0.45593999997E+02  0.45594000000E+02  0.51100000000E-03 0. -1.
    9900012    2    1    2    0    0  0.19518557777E+01  0.10665589759E+02  0.39186749016E+02  0.50528857801E+02  0.29999993772E+02 0.  0.
         12    1    1    2    0    0 -0.19518557777E+01 -0.10665589759E+02 -0.39186749016E+02  0.40659142199E+02  0.00000000000E+00 0. -1.
         11    1    3    3    0    0 -0.27943321356E+00  0.34282689776E+01  0.54575155861E+01  0.64510144735E+01  0.51100000000E-03 0. -1.
        -11    1    3    3    0    0  0.25209533750E+01 -0.84395716600E+01  0.24144141843E+02  0.25700606244E+02  0.51100000000E-03 0.  1.
         12    1    3    3    0    0 -0.28966438372E+00  0.15676892442E+02  0.95850915873E+01  0.18377237084E+02  0.00000000000E+00 0. -1.
</event>
<event>
 7    1  0.4871930E-013  0.5052886E+02  0.7816164E-02  0.1300439E+00
        -11   -1    0    0    0    0  0.00000000000E+00  0.00000000000E+00  0.45593999997E+02  0.45594000000E+02  0.51100000000E-03 0. -1.
         11   -1    0    0    0    0 -0.00000000000E+00 -0.00000000000E+00 -0.45593999997E+02  0.45594000000E+02  0.51100000000E-03 0.  1.
    9900012    2    1    2    0    0 -0.24678786195E+02  0.27160053176E+02  0.17505858218E+02  0.50528855290E+02  0.29999986141E+02 0.  0.
         12    1    1    2    0    0  0.24678786195E+02 -0.27160053176E+02 -0.17505858218E+02  0.40659144710E+02  0.00000000000E+00 0. -1.
         11    1    3    3    0    0  0.25951858253E+01  0.11980198548E+02 -0.14540898382E+01  0.12344007624E+02  0.51100000000E-03 0.  1.
        -11    1    3    3    0    0 -0.41432606228E+01  0.46654802703E+01  0.88735827220E+01  0.10847754852E+02  0.51100000000E-03 0. -1.
        -12    1    3    3    0    0 -0.23130711397E+02  0.10514374358E+02  0.10086365334E+02  0.27337092814E+02  0.00000000000E+00 0.  1.
</event>
<event>
 7    1  0.4871930E-013  0.5052886E+02  0.7816164E-02  0.1300439E+00
        -11   -1    0    0    0    0  0.00000000000E+00  0.00000000000E+00  0.45593999997E+02  0.45594000000E+02  0.51100000000E-03 0. -1.
         11   -1    0    0    0    0 -0.00000000000E+00 -0.00000000000E+00 -0.45593999997E+02  0.45594000000E+02  0.51100000000E-03 0.  1.
    9900012    2    1    2    0    0  0.39624443147E+02 -0.89335985803E+01 -0.18056415983E+01  0.50528855643E+02  0.29999987211E+02 0.  0.
         12    1    1    2    0    0 -0.39624443147E+02  0.89335985803E+01  0.18056415983E+01  0.40659144357E+02  0.00000000000E+00 0. -1.
         11    1    3    3    0    0 -0.96966828851E+00 -0.50268641222E+01 -0.44911249031E+01  0.68102733168E+01  0.51100000000E-03 0. -1.
        -11    1    3    3    0    0  0.13367072183E+02  0.55077862253E+01 -0.17774380192E+01  0.14566180488E+02  0.51100000000E-03 0.  1.
        -12    1    3    3    0    0  0.27227039253E+02 -0.94145206834E+01  0.44629213240E+01  0.29152401838E+02  0.00000000000E+00 0.  1.
</event>
<event>
 7    1  0.4871930E-013  0.5052886E+02  0.7816164E-02  0.1300439E+00
        -11   -1    0    0    0    0  0.00000000000E+00  0.00000000000E+00  0.45593999997E+02  0.45594000000E+02  0.51100000000E-03 0. -1.
         11   -1    0    0    0    0 -0.00000000000E+00 -0.00000000000E+00 -0.45593999997E+02  0.45594000000E+02  0.51100000000E-03 0.  1.
    9900012    2    1    2    0    0  0.94305289512E+01 -0.28479112271E+02 -0.27443960867E+02  0.50528859575E+02  0.29999999164E+02 0.  0.
         12    1    1    2    0    0 -0.94305289512E+01  0.28479112271E+02  0.27443960867E+02  0.40659140425E+02  0.00000000000E+00 0. -1.
         11    1    3    3    0    0  0.31042737124E+01 -0.19197128291E+02 -0.20591892973E+01  0.19555216970E+02  0.51100000000E-03 0. -1.
        -11    1    3    3    0    0  0.73228370640E+01 -0.46984484043E+01 -0.49555277383E+01  0.10012822554E+02  0.51100000000E-03 0.  1.
        -12    1    3    3    0    0 -0.99658182520E+00 -0.45835355752E+01 -0.20429243831E+02  0.20960820051E+02  0.00000000000E+00 0.  1.
</event>
<event>
 7    1  0.4871930E-013  0.5052884E+02  0.7816164E-02  0.1300439E+00
        -11   -1    0    0    0    0  0.00000000000E+00  0.00000000000E+00  0.45593999997E+02  0.45594000000E+02  0.51100000000E-03 0.  1.
         11   -1    0    0    0    0 -0.00000000000E+00 -0.00000000000E+00 -0.45593999997E+02  0.45594000000E+02  0.51100000000E-03 0. -1.
    9900012    2    1    2    0    0  0.83877736253E+01  0.36673351179E+01  0.39615187822E+02  0.50528841137E+02  0.29999943121E+02 0.  0.
         12    1    1    2    0    0 -0.83877736253E+01 -0.36673351179E+01 -0.39615187822E+02  0.40659158863E+02  0.00000000000E+00 0. -1.
         11    1    3    3    0    0  0.32235271377E+01 -0.56522663889E+01 -0.21906879497E+01  0.68657378695E+01  0.51100000000E-03 0. -1.
        -11    1    3    3    0    0  0.14175569269E+01  0.13322154397E+01  0.20648851324E+02  0.20740282710E+02  0.51100000000E-03 0.  1.
        -12    1    3    3    0    0  0.37466895606E+01  0.79873860671E+01  0.21157024447E+02  0.22922820558E+02  0.00000000000E+00 0.  1.
</event>
<event>
 7    1  0.4871930E-013  0.5052886E+02  0.7816164E-02  0.1300439E+00
        -11   -1    0    0    0    0  0.00000000000E+00  0.00000000000E+00  0.45593999997E+02  0.45594000000E+02  0.51100000000E-03 0.  1.
         11   -1    0    0    0    0 -0.00000000000E+00 -0.00000000000E+00 -0.45593999997E+02  0.45594000000E+02  0.51100000000E-03 0. -1.
    9900012    2    1    2    0    0  0.26792165385E+01  0.14766747899E+01  0.40543885845E+02  0.50528862662E+02  0.30000008547E+02 0.  0.
         12    1    1    2    0    0 -0.26792165385E+01 -0.14766747899E+01 -0.40543885845E+02  0.40659137338E+02  0.00000000000E+00 0. -1.
         11    1    3    3    0    0  0.11233291201E+02  0.23165805908E+01  0.93819197684E+01  0.14818022663E+02  0.51100000000E-03 0. -1.
        -11    1    3    3    0    0  0.54119649049E+00  0.40648177272E+01  0.20334024344E+02  0.20743388900E+02  0.51100000000E-03 0.  1.
        -12    1    3    3    0    0 -0.90952711527E+01 -0.49047235281E+01  0.10827941733E+02  0.14967451099E+02  0.00000000000E+00 0.  1.
</event>
<event>
 7    1  0.4871930E-013  0.5052887E+02  0.7816164E-02  0.1300439E+00
        -11   -1    0    0    0    0  0.00000000000E+00  0.00000000000E+00  0.45593999997E+02  0.45594000000E+02  0.51100000000E-03 0.  1.
         11   -1    0    0    0    0 -0.00000000000E+00 -0.00000000000E+00 -0.45593999997E+02  0.45594000000E+02  0.51100000000E-03 0. -1.
    9900012    2    1    2    0    0 -0.24916919015E+02 -0.20442782991E+02  0.24787190116E+02  0.50528867896E+02  0.30000024456E+02 0.  0.
         12    1    1    2    0    0  0.24916919015E+02  0.20442782991E+02 -0.24787190116E+02  0.40659132104E+02  0.00000000000E+00 0. -1.
         11    1    3    3    0    0  0.25973409384E+00 -0.44764330795E+01 -0.56232169349E+01  0.71921126154E+01  0.51100000000E-03 0. -1.
        -11    1    3    3    0    0 -0.12762925740E+02 -0.39503994429E+01  0.15956428326E+02  0.20811187722E+02  0.51100000000E-03 0.  1.
        -12    1    3    3    0    0 -0.12413727369E+02 -0.12015950468E+02  0.14453978725E+02  0.22525567559E+02  0.00000000000E+00 0.  1.
</event>
<event>
 7    1  0.4871930E-013  0.5052886E+02  0.7816164E-02  0.1300439E+00
        -11   -1    0    0    0    0  0.00000000000E+00  0.00000000000E+00  0.45593999997E+02  0.45594000000E+02  0.51100000000E-03 0. -1.
         11   -1    0    0    0    0 -0.00000000000E+00 -0.00000000000E+00 -0.45593999997E+02  0.45594000000E+02  0.51100000000E-03 0.  1.
    9900012    2    1    2    0    0  0.84530890212E+00 -0.39904887482E+01 -0.40454016168E+02  0.50528856235E+02  0.29999989013E+02 0.  0.
         12    1    1    2    0    0 -0.84530890212E+00  0.39904887482E+01  0.40454016168E+02  0.40659143765E+02  0.00000000000E+00 0. -1.
         11    1    3    3    0    0  0.48372591964E+01 -0.24704545623E+01 -0.14516731086E+02  0.15499603348E+02  0.51100000000E-03 0. -1.
        -11    1    3    3    0    0 -0.64608685904E+01  0.29917833033E+00 -0.29573472896E+02  0.30272473140E+02  0.51100000000E-03 0.  1.
         12    1    3    3    0    0  0.24689182961E+01 -0.18192125163E+01  0.36361878147E+01  0.47567797464E+01  0.00000000000E+00 0. -1.
</event>
<event>
 7    1  0.4871930E-013  0.5052887E+02  0.7816164E-02  0.1300439E+00
        -11   -1    0    0    0    0  0.00000000000E+00  0.00000000000E+00  0.45593999997E+02  0.45594000000E+02  0.51100000000E-03 0.  1.
         11   -1    0    0    0    0 -0.00000000000E+00 -0.00000000000E+00 -0.45593999997E+02  0.45594000000E+02  0.51100000000E-03 0. -1.
    9900012    2    1    2    0    0 -0.35304218957E+02  0.17111331887E+02  0.10676125734E+02  0.50528865531E+02  0.30000017269E+02 0.  0.
         12    1    1    2    0    0  0.35304218957E+02 -0.17111331887E+02 -0.10676125734E+02  0.40659134469E+02  0.00000000000E+00 0. -1.
         11    1    3    3    0    0 -0.45058718379E+01  0.16280148686E+01 -0.43714815016E+01  0.64856120923E+01  0.51100000000E-03 0. -1.
        -11    1    3    3    0    0 -0.23497116583E+02 -0.82298902242E+00  0.91401636380E+01  0.25225669272E+02  0.51100000000E-03 0.  1.
         12    1    3    3    0    0 -0.73012305360E+01  0.16306306040E+02  0.59074435974E+01  0.18817584167E+02  0.00000000000E+00 0. -1.
</event>
<event>
 7    1  0.5158053E-013  0.5052895E+02  0.7816164E-02  0.1300438E+00
        -11   -1    0    0    0    0  0.00000000000E+00  0.00000000000E+00  0.45593999997E+02  0.45594000000E+02  0.51100000000E-03 0. -1.
         11   -1    0    0    0    0 -0.00000000000E+00 -0.00000000000E+00 -0.45593999997E+02  0.45594000000E+02  0.51100000000E-03 0.  1.
    9900012    2    1    2    0    0 -0.13376765258E+01 -0.62367414479E+00 -0.40632250034E+02  0.50528953150E+02  0.30000283594E+02 0.  0.
         12    1    1    2    0    0  0.13376765258E+01  0.62367414479E+00  0.40632250034E+02  0.40659046850E+02  0.00000000000E+00 0. -1.
         11    1    3    3    0    0  0.28684805032E+01  0.51418829385E+01 -0.15437111345E+01  0.60868863040E+01  0.51100000000E-03 0. -1.
        -11    1    3    3    0    0 -0.79897399439E+01  0.35537276234E+01 -0.83154688208E+01  0.12066977516E+02  0.51100000000E-03 0.  1.
        -12    1    3    3    0    0  0.37835829149E+01 -0.93192847067E+01 -0.30773070078E+02  0.32375089331E+02  0.00000000000E+00 0.  1.
</event>
<event>
 7    1  0.6139055E-013  0.5052886E+02  0.7816164E-02  0.1300439E+00
        -11   -1    0    0    0    0  0.00000000000E+00  0.00000000000E+00  0.45593999997E+02  0.45594000000E+02  0.51100000000E-03 0. -1.
         11   -1    0    0    0    0 -0.00000000000E+00 -0.00000000000E+00 -0.45593999997E+02  0.45594000000E+02  0.51100000000E-03 0.  1.
    9900012    2    1    2    0    0 -0.16550073076E+02  0.21417539637E+02 -0.30340560301E+02  0.50528861761E+02  0.30000005810E+02 0.  0.
         12    1    1    2    0    0  0.16550073076E+02 -0.21417539637E+02  0.30340560301E+02  0.40659138239E+02  0.00000000000E+00 0. -1.
         11    1    3    3    0    0 -0.35803496816E+01  0.61115762417E+01  0.37687008619E+01  0.80233019666E+01  0.51100000000E-03 0. -1.
        -11    1    3    3    0    0 -0.10337975566E+02  0.10563324487E+02 -0.10125173960E+02  0.17915822923E+02  0.51100000000E-03 0.  1.
        -12    1    3    3    0    0 -0.26317478279E+01  0.47426389085E+01 -0.23984087204E+02  0.24589736872E+02  0.00000000000E+00 0.  1.
</event>
<event>
 7    1  0.4871930E-013  0.5052886E+02  0.7816164E-02  0.1300439E+00
        -11   -1    0    0    0    0  0.00000000000E+00  0.00000000000E+00  0.45593999997E+02  0.45594000000E+02  0.51100000000E-03 0. -1.
         11   -1    0    0    0    0 -0.00000000000E+00 -0.00000000000E+00 -0.45593999997E+02  0.45594000000E+02  0.51100000000E-03 0.  1.
    9900012    2    1    2    0    0  0.55805935469E-01  0.40245340305E+02 -0.57857771649E+01  0.50528858987E+02  0.29999997375E+02 0.  0.
         12    1    1    2    0    0 -0.55805935469E-01 -0.40245340305E+02  0.57857771649E+01  0.40659141013E+02  0.00000000000E+00 0. -1.
         11    1    3    3    0    0 -0.19453368902E+01  0.74532100860E+01  0.73465097460E+01  0.10644523564E+02  0.51100000000E-03 0. -1.
        -11    1    3    3    0    0  0.74485126689E+01  0.12871668366E+02  0.92824467658E+00  0.14900396838E+02  0.51100000000E-03 0.  1.
         12    1    3    3    0    0 -0.54473698433E+01  0.19920461853E+02 -0.14060531587E+02  0.24983938584E+02  0.00000000000E+00 0. -1.
</event>
<event>
 7    1  0.5375005E-013  0.5052887E+02  0.7816164E-02  0.1300439E+00
        -11   -1    0    0    0    0  0.00000000000E+00  0.00000000000E+00  0.45593999997E+02  0.45594000000E+02  0.51100000000E-03 0. -1.
         11   -1    0    0    0    0 -0.00000000000E+00 -0.00000000000E+00 -0.45593999997E+02  0.45594000000E+02  0.51100000000E-03 0.  1.
    9900012    2    1    2    0    0  0.15208234054E+02 -0.10435238981E+02 -0.36235070547E+02  0.50528869006E+02  0.30000027830E+02 0.  0.
         12    1    1    2    0    0 -0.15208234054E+02  0.10435238981E+02  0.36235070547E+02  0.40659130994E+02  0.00000000000E+00 0. -1.
         11    1    3    3    0    0  0.89307398363E+01 -0.88115449280E+01 -0.67913534617E+01  0.14266180994E+02  0.51100000000E-03 0. -1.
        -11    1    3    3    0    0  0.57452826973E+01 -0.84269474937E+01 -0.27247763526E+02  0.29094025757E+02  0.51100000000E-03 0.  1.
         12    1    3    3    0    0  0.53221152047E+00  0.68032534412E+01 -0.21959535596E+01  0.71686622548E+01  0.00000000000E+00 0. -1.
</event>
<event>
 7    1  0.4871930E-013  0.5052886E+02  0.7816164E-02  0.1300439E+00
        -11   -1    0    0    0    0  0.00000000000E+00  0.00000000000E+00  0.45593999997E+02  0.45594000000E+02  0.51100000000E-03 0.  1.
         11   -1    0    0    0    0 -0.00000000000E+00 -0.00000000000E+00 -0.45593999997E+02  0.45594000000E+02  0.51100000000E-03 0. -1.
    9900012    2    1    2    0    0  0.40370958892E+02  0.17081965693E+01  0.45203500698E+01  0.50528858075E+02  0.29999994604E+02 0.  0.
         12    1    1    2    0    0 -0.40370958892E+02 -0.17081965693E+01 -0.45203500698E+01  0.40659141925E+02  0.00000000000E+00 0. -1.
         11    1    3    3    0    0 -0.34563525358E+01 -0.70975640313E+00  0.22892326720E+01  0.42060329874E+01  0.51100000000E-03 0. -1.
        -11    1    3    3    0    0  0.14921248736E+02  0.41200389037E+00  0.77614589171E+01  0.16824198520E+02  0.51100000000E-03 0.  1.
        -12    1    3    3    0    0  0.28906062692E+02  0.20059490820E+01 -0.55303415193E+01  0.29498626568E+02  0.00000000000E+00 0.  1.
</event>
<event>
 7    1  0.4871930E-013  0.5052888E+02  0.7816164E-02  0.1300439E+00
        -11   -1    0    0    0    0  0.00000000000E+00  0.00000000000E+00  0.45593999997E+02  0.45594000000E+02  0.51100000000E-03 0.  1.
         11   -1    0    0    0    0 -0.00000000000E+00 -0.00000000000E+00 -0.45593999997E+02  0.45594000000E+02  0.51100000000E-03 0. -1.
    9900012    2    1    2    0    0 -0.12748981265E+02 -0.31321845125E+02  0.22573652414E+02  0.50528876933E+02  0.30000051924E+02 0.  0.
         12    1    1    2    0    0  0.12748981265E+02  0.31321845125E+02 -0.22573652414E+02  0.40659123067E+02  0.00000000000E+00 0. -1.
         11    1    3    3    0    0 -0.60600528041E+01  0.30852822840E+00 -0.11816556373E+01  0.61818880581E+01  0.51100000000E-03 0. -1.
        -11    1    3    3    0    0 -0.12570218109E+02 -0.13797362993E+02  0.12210021560E+02  0.22303861451E+02  0.51100000000E-03 0.  1.
        -12    1    3    3    0    0  0.58812896487E+01 -0.17833010360E+02  0.11545286491E+02  0.22043127423E+02  0.00000000000E+00 0.  1.
</event>
<event>
 7    1  0.4871930E-013  0.5052885E+02  0.7816164E-02  0.1300439E+00
        -11   -1    0    0    0    0  0.00000000000E+00  0.00000000000E+00  0.45593999997E+02  0.45594000000E+02  0.51100000000E-03 0.  1.
         11   -1    0    0    0    0 -0.00000000000E+00 -0.00000000000E+00 -0.45593999997E+02  0.45594000000E+02  0.51100000000E-03 0. -1.
    9900012    2    1    2    0    0 -0.25263882073E+02  0.31479698100E+02 -0.48919710055E+01  0.50528849613E+02  0.29999968882E+02 0.  0.
         12    1    1    2    0    0  0.25263882073E+02 -0.31479698100E+02  0.48919710055E+01  0.40659150387E+02  0.00000000000E+00 0. -1.
         11    1    3    3    0    0 -0.15354353128E+02  0.17482206100E+02  0.44903774557E+01  0.23696986729E+02  0.51100000000E-03 0. -1.
        -11    1    3    3    0    0  0.33429712804E+01  0.67138561592E+01  0.21635173704E+01  0.78059034827E+01  0.51100000000E-03 0.  1.
         12    1    3    3    0    0 -0.13252500226E+02  0.72836358414E+01 -0.11545865832E+02  0.19025959401E+02  0.00000000000E+00 0. -1.
</event>
<event>
 7    1  0.4871930E-013  0.5052886E+02  0.7816164E-02  0.1300439E+00
        -11   -1    0    0    0    0  0.00000000000E+00  0.00000000000E+00  0.45593999997E+02  0.45594000000E+02  0.51100000000E-03 0.  1.
         11   -1    0    0    0    0 -0.00000000000E+00 -0.00000000000E+00 -0.45593999997E+02  0.45594000000E+02  0.51100000000E-03 0. -1.
    9900012    2    1    2    0    0 -0.86229543366E+01 -0.39512645397E+02  0.41906405334E+01  0.50528856430E+02  0.29999989606E+02 0.  0.
         12    1    1    2    0    0  0.86229543366E+01  0.39512645397E+02 -0.41906405334E+01  0.40659143570E+02  0.00000000000E+00 0. -1.
         11    1    3    3    0    0 -0.17150276136E+02 -0.26687883237E+02 -0.69923714820E+00  0.31731120624E+02  0.51100000000E-03 0. -1.
        -11    1    3    3    0    0  0.14002065585E+01 -0.80174051964E+01 -0.12489651280E+01  0.82340317368E+01  0.51100000000E-03 0.  1.
        -12    1    3    3    0    0  0.71271152411E+01 -0.48073569635E+01  0.61388428096E+01  0.10563704070E+02  0.00000000000E+00 0.  1.
</event>
<event>
 7    1  0.4871930E-013  0.5052886E+02  0.7816164E-02  0.1300439E+00
        -11   -1    0    0    0    0  0.00000000000E+00  0.00000000000E+00  0.45593999997E+02  0.45594000000E+02  0.51100000000E-03 0.  1.
         11   -1    0    0    0    0 -0.00000000000E+00 -0.00000000000E+00 -0.45593999997E+02  0.45594000000E+02  0.51100000000E-03 0. -1.
    9900012    2    1    2    0    0  0.38665059497E+02 -0.60961423340E+01  0.11000740226E+02  0.50528855115E+02  0.29999985607E+02 0.  0.
         12    1    1    2    0    0 -0.38665059497E+02  0.60961423340E+01 -0.11000740226E+02  0.40659144885E+02  0.00000000000E+00 0. -1.
         11    1    3    3    0    0 -0.36987248588E+00 -0.27319551956E+01  0.11131101414E+01  0.29731127282E+01  0.51100000000E-03 0. -1.
        -11    1    3    3    0    0  0.10448973182E+02 -0.10268540128E+02  0.10692031783E+02  0.18136799630E+02  0.51100000000E-03 0.  1.
        -12    1    3    3    0    0  0.28585958801E+02  0.69043529897E+01 -0.80440169839E+00  0.29418942756E+02  0.00000000000E+00 0.  1.
</event>
<event>
 7    1  0.4871930E-013  0.5052887E+02  0.7816164E-02  0.1300439E+00
        -11   -1    0    0    0    0  0.00000000000E+00  0.00000000000E+00  0.45593999997E+02  0.45594000000E+02  0.51100000000E-03 0.  1.
         11   -1    0    0    0    0 -0.00000000000E+00 -0.00000000000E+00 -0.45593999997E+02  0.45594000000E+02  0.51100000000E-03 0. -1.
    9900012    2    1    2    0    0 -0.25027480192E+02 -0.22130104033E+02  0.23174313593E+02  0.50528867204E+02  0.30000022352E+02 0.  0.
         12    1    1    2    0    0  0.25027480192E+02  0.22130104033E+02 -0.23174313593E+02  0.40659132796E+02  0.00000000000E+00 0. -1.
         11    1    3    3    0    0 -0.52755289185E+01 -0.23075178142E+01 -0.34258449372E+01  0.67001684776E+01  0.51100000000E-03 0. -1.
        -11    1    3    3    0    0  0.10043590168E+01 -0.11625917550E+02  0.47570120864E+01  0.12601581653E+02  0.51100000000E-03 0.  1.
         12    1    3    3    0    0 -0.20756310290E+02 -0.81966686689E+01  0.21843146444E+02  0.31227117073E+02  0.00000000000E+00 0. -1.
</event>
<event>
 7    1  0.4871930E-013  0.5052894E+02  0.7816164E-02  0.1300439E+00
        -11   -1    0    0    0    0  0.00000000000E+00  0.00000000000E+00  0.45593999997E+02  0.45594000000E+02  0.51100000000E-03 0. -1.
         11   -1    0    0    0    0 -0.00000000000E+00 -0.00000000000E+00 -0.45593999997E+02  0.45594000000E+02  0.51100000000E-03 0.  1.
    9900012    2    1    2    0    0 -0.77346925047E+01  0.31382466379E+02 -0.24667274698E+02  0.50528940675E+02  0.30000245674E+02 0.  0.
         12    1    1    2    0    0  0.77346925047E+01 -0.31382466379E+02  0.24667274698E+02  0.40659059325E+02  0.00000000000E+00 0. -1.
         11    1    3    3    0    0 -0.65600619091E+01  0.13589900966E+01 -0.32137280933E+01  0.74302970905E+01  0.51100000000E-03 0.  1.
        -11    1    3    3    0    0  0.50756248011E+01  0.20476697279E+01  0.22349714149E+01  0.59118538483E+01  0.51100000000E-03 0. -1.
        -12    1    3    3    0    0 -0.62502553967E+01  0.27975806555E+02 -0.23688518020E+02  0.37186789736E+02  0.00000000000E+00 0.  1.
</event>
<event>
 7    1  0.4871930E-013  0.5052888E+02  0.7816164E-02  0.1300439E+00
        -11   -1    0    0    0    0  0.00000000000E+00  0.00000000000E+00  0.45593999997E+02  0.45594000000E+02  0.51100000000E-03 0.  1.
         11   -1    0    0    0    0 -0.00000000000E+00 -0.00000000000E+00 -0.45593999997E+02  0.45594000000E+02  0.51100000000E-03 0. -1.
    9900012    2    1    2    0    0 -0.14129530373E+02 -0.25653543790E+02  0.28203117748E+02  0.50528883085E+02  0.30000070626E+02 0.  0.
         12    1    1    2    0    0  0.14129530373E+02  0.25653543790E+02 -0.28203117748E+02  0.40659116915E+02  0.00000000000E+00 0. -1.
         11    1    3    3    0    0 -0.11017855128E+00 -0.81824599866E+01 -0.32231328825E+00  0.81895468045E+01  0.51100000000E-03 0. -1.
        -11    1    3    3    0    0 -0.13113514829E+02 -0.22085759509E+02  0.27291078228E+02  0.37477299734E+02  0.51100000000E-03 0.  1.
         12    1    3    3    0    0 -0.90583699309E+00  0.46146757058E+01  0.12343528092E+01  0.48620365471E+01  0.00000000000E+00 0. -1.
</event>
<event>
 7    1  0.4871930E-013  0.5052886E+02  0.7816164E-02  0.1300439E+00
        -11   -1    0    0    0    0  0.00000000000E+00  0.00000000000E+00  0.45593999997E+02  0.45594000000E+02  0.51100000000E-03 0.  1.
         11   -1    0    0    0    0 -0.00000000000E+00 -0.00000000000E+00 -0.45593999997E+02  0.45594000000E+02  0.51100000000E-03 0. -1.
    9900012    2    1    2    0    0  0.16100896110E+02 -0.36289395927E+02  0.87753508480E+01  0.50528857181E+02  0.29999991886E+02 0.  0.
         12    1    1    2    0    0 -0.16100896110E+02  0.36289395927E+02 -0.87753508480E+01  0.40659142819E+02  0.00000000000E+00 0. -1.
         11    1    3    3    0    0 -0.57041721541E+01 -0.14914254511E+02 -0.13377756715E+01  0.16023801409E+02  0.51100000000E-03 0. -1.
        -11    1    3    3    0    0  0.29694503307E+01 -0.94801933797E+01  0.66640866327E+01  0.11962514480E+02  0.51100000000E-03 0.  1.
        -12    1    3    3    0    0  0.18835617934E+02 -0.11894948036E+02  0.34490398868E+01  0.22542541291E+02  0.00000000000E+00 0.  1.
</event>
<event>
 7    1  0.4871930E-013  0.5052887E+02  0.7816164E-02  0.1300439E+00
        -11   -1    0    0    0    0  0.00000000000E+00  0.00000000000E+00  0.45593999997E+02  0.45594000000E+02  0.51100000000E-03 0.  1.
         11   -1    0    0    0    0 -0.00000000000E+00 -0.00000000000E+00 -0.45593999997E+02  0.45594000000E+02  0.51100000000E-03 0. -1.
    9900012    2    1    2    0    0 -0.97326524553E+01  0.45120851261E+01  0.39218385235E+02  0.50528866014E+02  0.30000018737E+02 0.  0.
         12    1    1    2    0    0  0.97326524553E+01 -0.45120851261E+01 -0.39218385235E+02  0.40659133986E+02  0.00000000000E+00 0. -1.
         11    1    3    3    0    0 -0.27143728747E+01  0.53462938004E+01  0.32703037952E+02  0.33248148356E+02  0.51100000000E-03 0. -1.
        -11    1    3    3    0    0 -0.77331351056E+01  0.17455725825E+01  0.10079246830E+02  0.12823401231E+02  0.51100000000E-03 0.  1.
         12    1    3    3    0    0  0.71485552498E+00 -0.25797812568E+01 -0.35638995471E+01  0.44573164277E+01  0.00000000000E+00 0. -1.
</event>
<event>
 7    1  0.4871930E-013  0.5052889E+02  0.7816164E-02  0.1300439E+00
        -11   -1    0    0    0    0  0.00000000000E+00  0.00000000000E+00  0.45593999997E+02  0.45594000000E+02  0.51100000000E-03 0.  1.
         11   -1    0    0    0    0 -0.00000000000E+00 -0.00000000000E+00 -0.45593999997E+02  0.45594000000E+02  0.51100000000E-03 0. -1.
    9900012    2    1    2    0    0  0.14849489554E+02  0.66658792390E+00  0.37844567820E+02  0.50528892866E+02  0.30000100354E+02 0.  0.
         12    1    1    2    0    0 -0.14849489554E+02 -0.66658792390E+00 -0.37844567820E+02  0.40659107134E+02  0.00000000000E+00 0. -1.
         11    1    3    3    0    0  0.49464320396E+01  0.12112083645E+00 -0.15481896933E+01  0.51844721782E+01  0.51100000000E-03 0. -1.
        -11    1    3    3    0    0 -0.39918911750E+00  0.84566862404E+01  0.93474084566E+01  0.12611460631E+02  0.51100000000E-03 0.  1.
        -12    1    3    3    0    0  0.10302246632E+02 -0.79112191529E+01  0.30045349057E+02  0.32732960057E+02  0.00000000000E+00 0.  1.
</event>
<event>
 7    1  0.4871930E-013  0.5052890E+02  0.7816164E-02  0.1300439E+00
        -11   -1    0    0    0    0  0.00000000000E+00  0.00000000000E+00  0.45593999997E+02  0.45594000000E+02  0.51100000000E-03 0. -1.
         11   -1    0    0    0    0 -0.00000000000E+00 -0.00000000000E+00 -0.45593999997E+02  0.45594000000E+02  0.51100000000E-03 0.  1.
    9900012    2    1    2    0    0 -0.32257593778E+02  0.18304288283E+02 -0.16660217499E+02  0.50528902949E+02  0.30000131004E+02 0.  0.
         12    1    1    2    0    0  0.32257593778E+02 -0.18304288283E+02  0.16660217499E+02  0.40659097051E+02  0.00000000000E+00 0. -1.
         11    1    3    3    0    0  0.19104544082E+01  0.62665934638E+00 -0.19045882377E+01  0.27694755096E+01  0.51100000000E-03 0. -1.
        -11    1    3    3    0    0 -0.14775959824E+02 -0.58348227950E+00 -0.15080143732E+02  0.21120610207E+02  0.51100000000E-03 0.  1.
        -12    1    3    3    0    0 -0.19392088362E+02  0.18261111216E+02  0.32451447037E+00  0.26638817232E+02  0.00000000000E+00 0.  1.
</event>
<event>
 7    1  0.4871930E-013  0.5052886E+02  0.7816164E-02  0.1300439E+00
        -11   -1    0    0    0    0  0.00000000000E+00  0.00000000000E+00  0.45593999997E+02  0.45594000000E+02  0.51100000000E-03 0. -1.
         11   -1    0    0    0    0 -0.00000000000E+00 -0.00000000000E+00 -0.45593999997E+02  0.45594000000E+02  0.51100000000E-03 0.  1.
    9900012    2    1    2    0    0 -0.10384507311E+02  0.20153388179E+02 -0.33751569569E+02  0.50528862090E+02  0.30000006810E+02 0.  0.
         12    1    1    2    0    0  0.10384507311E+02 -0.20153388179E+02  0.33751569569E+02  0.40659137910E+02  0.00000000000E+00 0. -1.
         11    1    3    3    0    0 -0.94007349642E+00  0.96076706638E+01 -0.36554069037E+01  0.10322454827E+02  0.51100000000E-03 0. -1.
        -11    1    3    3    0    0  0.44583068877E+01 -0.39399494033E+01 -0.35706973581E+01  0.69389899474E+01  0.51100000000E-03 0.  1.
        -12    1    3    3    0    0 -0.13902740702E+02  0.14485666918E+02 -0.26525465308E+02  0.33267417316E+02  0.00000000000E+00 0.  1.
</event>
<event>
 7    1  0.4871930E-013  0.5052886E+02  0.7816164E-02  0.1300439E+00
        -11   -1    0    0    0    0  0.00000000000E+00  0.00000000000E+00  0.45593999997E+02  0.45594000000E+02  0.51100000000E-03 0.  1.
         11   -1    0    0    0    0 -0.00000000000E+00 -0.00000000000E+00 -0.45593999997E+02  0.45594000000E+02  0.51100000000E-03 0. -1.
    9900012    2    1    2    0    0 -0.28771177200E+02  0.24673228577E+02 -0.14717920037E+02  0.50528855689E+02  0.29999987352E+02 0.  0.
         12    1    1    2    0    0  0.28771177200E+02 -0.24673228577E+02  0.14717920037E+02  0.40659144311E+02  0.00000000000E+00 0. -1.
         11    1    3    3    0    0  0.97139138675E+00 -0.25196758562E+01 -0.30201097540E+01  0.40513492610E+01  0.51100000000E-03 0.  1.
        -11    1    3    3    0    0 -0.18855145428E+01  0.13065437818E+02 -0.22563415579E+00  0.13202717201E+02  0.51100000000E-03 0. -1.
        -12    1    3    3    0    0 -0.27857054044E+02  0.14127466615E+02 -0.11472176127E+02  0.33274789227E+02  0.00000000000E+00 0.  1.
</event>
<event>
 7    1  0.4871930E-013  0.5052886E+02  0.7816164E-02  0.1300439E+00
        -11   -1    0    0    0    0  0.00000000000E+00  0.00000000000E+00  0.45593999997E+02  0.45594000000E+02  0.51100000000E-03 0.  1.
         11   -1    0    0    0    0 -0.00000000000E+00 -0.00000000000E+00 -0.45593999997E+02  0.45594000000E+02  0.51100000000E-03 0. -1.
    9900012    2    1    2    0    0  0.31946451885E+01  0.26202048722E+02  0.30925918826E+02  0.50528861171E+02  0.30000004014E+02 0.  0.
         12    1    1    2    0    0 -0.31946451885E+01 -0.26202048722E+02 -0.30925918826E+02  0.40659138829E+02  0.00000000000E+00 0. -1.
         11    1    3    3    0    0  0.41780175339E+01  0.29765119010E+02  0.21273094883E+02  0.36823398897E+02  0.51100000000E-03 0.  1.
        -11    1    3    3    0    0  0.27001742298E+00 -0.25721058626E+01 -0.11174396428E+01  0.28173231255E+01  0.51100000000E-03 0. -1.
        -12    1    3    3    0    0 -0.12533897684E+01 -0.99096442491E+00  0.10770263585E+02  0.10888139148E+02  0.00000000000E+00 0.  1.
</event>
<event>
 7    1  0.4871930E-013  0.5052888E+02  0.7816164E-02  0.1300439E+00
        -11   -1    0    0    0    0  0.00000000000E+00  0.00000000000E+00  0.45593999997E+02  0.45594000000E+02  0.51100000000E-03 0.  1.
         11   -1    0    0    0    0 -0.00000000000E+00 -0.00000000000E+00 -0.45593999997E+02  0.45594000000E+02  0.51100000000E-03 0. -1.
    9900012    2    1    2    0    0  0.13473385795E+02  0.16693365088E+02  0.34539302090E+02  0.50528881077E+02  0.30000064522E+02 0.  0.
         12    1    1    2    0    0 -0.13473385795E+02 -0.16693365088E+02 -0.34539302090E+02  0.40659118923E+02  0.00000000000E+00 0. -1.
         11    1    3    3    0    0  0.27420423349E+01 -0.30985006992E+01  0.16432888928E+02  0.16945776510E+02  0.51100000000E-03 0. -1.
        -11    1    3    3    0    0 -0.21494804877E+01  0.47124159502E+01 -0.18004371662E+01  0.54834938411E+01  0.51100000000E-03 0.  1.
        -12    1    3    3    0    0  0.12880823948E+02  0.15079449837E+02  0.19906850328E+02  0.28099610726E+02  0.00000000000E+00 0.  1.
</event>
<event>
 7    1  0.4871930E-013  0.5052886E+02  0.7816164E-02  0.1300439E+00
        -11   -1    0    0    0    0  0.00000000000E+00  0.00000000000E+00  0.45593999997E+02  0.45594000000E+02  0.51100000000E-03 0.  1.
         11   -1    0    0    0    0 -0.00000000000E+00 -0.00000000000E+00 -0.45593999997E+02  0.45594000000E+02  0.51100000000E-03 0. -1.
    9900012    2    1    2    0    0 -0.24031464046E+02 -0.11743011731E+02  0.30622809005E+02  0.50528855640E+02  0.29999987204E+02 0.  0.
         12    1    1    2    0    0  0.24031464046E+02  0.11743011731E+02 -0.30622809005E+02  0.40659144360E+02  0.00000000000E+00 0. -1.
         11    1    3    3    0    0 -0.46708042196E+01 -0.14062044321E+02  0.17600244357E+02  0.23007088130E+02  0.51100000000E-03 0. -1.
        -11    1    3    3    0    0 -0.11169622025E+02  0.41040309663E-02  0.15078708281E+02  0.18765071722E+02  0.51100000000E-03 0.  1.
        -12    1    3    3    0    0 -0.81910378012E+01  0.23149285590E+01 -0.20561436327E+01  0.87566957885E+01  0.00000000000E+00 0.  1.
</event>
<event>
 7    1  0.4871930E-013  0.5052886E+02  0.7816164E-02  0.1300439E+00
        -11   -1    0    0    0    0  0.00000000000E+00  0.00000000000E+00  0.45593999997E+02  0.45594000000E+02  0.51100000000E-03 0.  1.
         11   -1    0    0    0    0 -0.00000000000E+00 -0.00000000000E+00 -0.45593999997E+02  0.45594000000E+02  0.51100000000E-03 0. -1.
    9900012    2    1    2    0    0  0.28415705898E+02 -0.28801757471E+02  0.40214232707E+01  0.50528863017E+02  0.30000009625E+02 0.  0.
         12    1    1    2    0    0 -0.28415705898E+02  0.28801757471E+02 -0.40214232707E+01  0.40659136983E+02  0.00000000000E+00 0. -1.
         11    1    3    3    0    0  0.16696490591E+01 -0.16866357406E+02  0.12476754471E+01  0.16994658996E+02  0.51100000000E-03 0.  1.
        -11    1    3    3    0    0  0.34881608606E+01  0.79334614541E+00 -0.47758859972E+01  0.59670555231E+01  0.51100000000E-03 0. -1.
        -12    1    3    3    0    0  0.23257895978E+02 -0.12728746211E+02  0.75496338208E+01  0.27567148497E+02  0.00000000000E+00 0.  1.
</event>
<event>
 7    1  0.4871930E-013  0.5052888E+02  0.7816164E-02  0.1300439E+00
        -11   -1    0    0    0    0  0.00000000000E+00  0.00000000000E+00  0.45593999997E+02  0.45594000000E+02  0.51100000000E-03 0.  1.
         11   -1    0    0    0    0 -0.00000000000E+00 -0.00000000000E+00 -0.45593999997E+02  0.45594000000E+02  0.51100000000E-03 0. -1.
    9900012    2    1    2    0    0 -0.53700823703E+01  0.32282958127E+02  0.24127516026E+02  0.50528878026E+02  0.30000055247E+02 0.  0.
         12    1    1    2    0    0  0.53700823703E+01 -0.32282958127E+02 -0.24127516026E+02  0.40659121974E+02  0.00000000000E+00 0. -1.
         11    1    3    3    0    0  0.49103714442E+01  0.61318573824E+01  0.16951393207E+02  0.18683178386E+02  0.51100000000E-03 0. -1.
        -11    1    3    3    0    0  0.27918763925E+01  0.44349790970E+01 -0.73691711887E+00  0.52921319412E+01  0.51100000000E-03 0.  1.
         12    1    3    3    0    0 -0.13072330207E+02  0.21716121648E+02  0.79130399379E+01  0.26553567699E+02  0.00000000000E+00 0. -1.
</event>
<event>
 7    1  0.4871930E-013  0.5052876E+02  0.7816164E-02  0.1300439E+00
        -11   -1    0    0    0    0  0.00000000000E+00  0.00000000000E+00  0.45593999997E+02  0.45594000000E+02  0.51100000000E-03 0.  1.
         11   -1    0    0    0    0 -0.00000000000E+00 -0.00000000000E+00 -0.45593999997E+02  0.45594000000E+02  0.51100000000E-03 0. -1.
    9900012    2    1    2    0    0  0.15540622011E+02  0.55173969939E+01  0.37164780191E+02  0.50528763796E+02  0.29999708033E+02 0.  0.
         12    1    1    2    0    0 -0.15540622011E+02 -0.55173969939E+01 -0.37164780191E+02  0.40659236204E+02  0.00000000000E+00 0. -1.
         11    1    3    3    0    0  0.68063984989E+01  0.38860848777E+01  0.85143856150E+01  0.11572531221E+02  0.51100000000E-03 0.  1.
        -11    1    3    3    0    0  0.51608542695E+01 -0.49026038901E+01  0.30469600414E+02  0.31290038213E+02  0.51100000000E-03 0. -1.
         12    1    3    3    0    0  0.35733692423E+01  0.65339160063E+01 -0.18192058381E+01  0.76661943623E+01  0.00000000000E+00 0. -1.
</event>
<event>
 7    1  0.4871930E-013  0.5052889E+02  0.7816164E-02  0.1300439E+00
        -11   -1    0    0    0    0  0.00000000000E+00  0.00000000000E+00  0.45593999997E+02  0.45594000000E+02  0.51100000000E-03 0.  1.
         11   -1    0    0    0    0 -0.00000000000E+00 -0.00000000000E+00 -0.45593999997E+02  0.45594000000E+02  0.51100000000E-03 0. -1.
    9900012    2    1    2    0    0  0.40411297496E+01 -0.38120194678E+02  0.13552989522E+02  0.50528886668E+02  0.30000081517E+02 0.  0.
         12    1    1    2    0    0 -0.40411297496E+01  0.38120194678E+02 -0.13552989522E+02  0.40659113332E+02  0.00000000000E+00 0. -1.
         11    1    3    3    0    0  0.73726224507E+00 -0.16670727117E+01 -0.65706798275E+01  0.68188357291E+01  0.51100000000E-03 0. -1.
        -11    1    3    3    0    0  0.32053921518E+01 -0.13711389059E+02  0.14647408082E+02  0.20318053365E+02  0.51100000000E-03 0.  1.
        -12    1    3    3    0    0  0.98475352717E-01 -0.22741732908E+02  0.54762612677E+01  0.23391997574E+02  0.00000000000E+00 0.  1.
</event>
<event>
 7    1  0.4871930E-013  0.5052887E+02  0.7816164E-02  0.1300439E+00
        -11   -1    0    0    0    0  0.00000000000E+00  0.00000000000E+00  0.45593999997E+02  0.45594000000E+02  0.51100000000E-03 0.  1.
         11   -1    0    0    0    0 -0.00000000000E+00 -0.00000000000E+00 -0.45593999997E+02  0.45594000000E+02  0.51100000000E-03 0. -1.
    9900012    2    1    2    0    0  0.12018130737E+02 -0.24194195169E+02  0.30387005933E+02  0.50528872170E+02  0.30000037449E+02 0.  0.
         12    1    1    2    0    0 -0.12018130737E+02  0.24194195169E+02 -0.30387005933E+02  0.40659127830E+02  0.00000000000E+00 0. -1.
         11    1    3    3    0    0  0.77074736914E+01 -0.17894060789E+02  0.99802907193E+01  0.21890837474E+02  0.51100000000E-03 0. -1.
        -11    1    3    3    0    0  0.79023327364E+01  0.26556148936E+01  0.15975916571E+02  0.18020240389E+02  0.51100000000E-03 0.  1.
         12    1    3    3    0    0 -0.35916756912E+01 -0.89557492738E+01  0.44307986430E+01  0.10617794307E+02  0.00000000000E+00 0. -1.
</event>
<event>
 7    1  0.4871930E-013  0.5052886E+02  0.7816164E-02  0.1300439E+00
        -11   -1    0    0    0    0  0.00000000000E+00  0.00000000000E+00  0.45593999997E+02  0.45594000000E+02  0.51100000000E-03 0.  1.
         11   -1    0    0    0    0 -0.00000000000E+00 -0.00000000000E+00 -0.45593999997E+02  0.45594000000E+02  0.51100000000E-03 0. -1.
    9900012    2    1    2    0    0  0.34135590103E+02  0.34668963047E+01  0.21815318209E+02  0.50528856007E+02  0.29999988320E+02 0.  0.
         12    1    1    2    0    0 -0.34135590103E+02 -0.34668963047E+01 -0.21815318209E+02  0.40659143993E+02  0.00000000000E+00 0. -1.
         11    1    3    3    0    0  0.50272962813E+00 -0.31598510146E+01  0.54061245620E+01  0.62820043421E+01  0.51100000000E-03 0. -1.
        -11    1    3    3    0    0  0.35326138523E+02  0.11345699971E+01  0.14117781286E+02  0.38059625074E+02  0.51100000000E-03 0.  1.
         12    1    3    3    0    0 -0.16932780486E+01  0.54921773223E+01  0.22914123611E+01  0.61872265918E+01  0.00000000000E+00 0. -1.
</event>
<event>
 7    1  0.4871930E-013  0.5052886E+02  0.7816164E-02  0.1300439E+00
        -11   -1    0    0    0    0  0.00000000000E+00  0.00000000000E+00  0.45593999997E+02  0.45594000000E+02  0.51100000000E-03 0. -1.
         11   -1    0    0    0    0 -0.00000000000E+00 -0.00000000000E+00 -0.45593999997E+02  0.45594000000E+02  0.51100000000E-03 0.  1.
    9900012    2    1    2    0    0 -0.39158718215E+02  0.77553851229E+01  0.77210474239E+01  0.50528858544E+02  0.29999996029E+02 0.  0.
         12    1    1    2    0    0  0.39158718215E+02 -0.77553851229E+01 -0.77210474239E+01  0.40659141456E+02  0.00000000000E+00 0. -1.
         11    1    3    3    0    0  0.22469055759E+01  0.10504682726E+01  0.65345668485E+00  0.25649705961E+01  0.51100000000E-03 0. -1.
        -11    1    3    3    0    0 -0.36324215727E+02  0.13671299300E+02  0.60725185724E+01  0.39283947800E+02  0.51100000000E-03 0.  1.
         12    1    3    3    0    0 -0.50814080641E+01 -0.69663824493E+01  0.99507216665E+00  0.86799401473E+01  0.00000000000E+00 0. -1.
</event>
<event>
 7    1  0.4871930E-013  0.5052886E+02  0.7816164E-02  0.1300439E+00
        -11   -1    0    0    0    0  0.00000000000E+00  0.00000000000E+00  0.45593999997E+02  0.45594000000E+02  0.51100000000E-03 0. -1.
         11   -1    0    0    0    0 -0.00000000000E+00 -0.00000000000E+00 -0.45593999997E+02  0.45594000000E+02  0.51100000000E-03 0.  1.
    9900012    2    1    2    0    0  0.13807003012E+02  0.36410143826E+02 -0.11697594856E+02  0.50528860425E+02  0.30000001747E+02 0.  0.
         12    1    1    2    0    0 -0.13807003012E+02 -0.36410143826E+02  0.11697594856E+02  0.40659139575E+02  0.00000000000E+00 0. -1.
         11    1    3    3    0    0  0.60699607649E+00 -0.68625324927E+00  0.53417912850E+00  0.10605354126E+01  0.51100000000E-03 0. -1.
        -11    1    3    3    0    0  0.27389422524E+01  0.24577178925E+02 -0.19611952418E+02  0.31562132477E+02  0.51100000000E-03 0.  1.
        -12    1    3    3    0    0  0.10461064683E+02  0.12519218150E+02  0.73801784339E+01  0.17906192535E+02  0.00000000000E+00 0.  1.
</event>
<event>
 7    1  0.4871930E-013  0.5052886E+02  0.7816164E-02  0.1300439E+00
        -11   -1    0    0    0    0  0.00000000000E+00  0.00000000000E+00  0.45593999997E+02  0.45594000000E+02  0.51100000000E-03 0.  1.
         11   -1    0    0    0    0 -0.00000000000E+00 -0.00000000000E+00 -0.45593999997E+02  0.45594000000E+02  0.51100000000E-03 0. -1.
    9900012    2    1    2    0    0  0.18611456921E+02  0.76890574680E+01  0.35322194292E+02  0.50528863965E+02  0.30000012509E+02 0.  0.
         12    1    1    2    0    0 -0.18611456921E+02 -0.76890574680E+01 -0.35322194292E+02  0.40659136035E+02  0.00000000000E+00 0. -1.
         11    1    3    3    0    0  0.11707453024E+02  0.57381729757E+01  0.48929610544E+01  0.13925952518E+02  0.51100000000E-03 0. -1.
        -11    1    3    3    0    0  0.76346143916E+01 -0.34015879473E+01  0.30046412609E+02  0.31187257789E+02  0.51100000000E-03 0.  1.
         12    1    3    3    0    0 -0.73061049395E+00  0.53524724396E+01  0.38282062870E+00  0.54156536581E+01  0.00000000000E+00 0. -1.
</event>
<event>
 7    1  0.4871930E-013  0.5052887E+02  0.7816164E-02  0.1300439E+00
        -11   -1    0    0    0    0  0.00000000000E+00  0.00000000000E+00  0.45593999997E+02  0.45594000000E+02  0.51100000000E-03 0. -1.
         11   -1    0    0    0    0 -0.00000000000E+00 -0.00000000000E+00 -0.45593999997E+02  0.45594000000E+02  0.51100000000E-03 0.  1.
    9900012    2    1    2    0    0  0.28369869925E+02  0.43669095624E+01 -0.28796625263E+02  0.50528867628E+02  0.30000023644E+02 0.  0.
         12    1    1    2    0    0 -0.28369869925E+02 -0.43669095624E+01  0.28796625263E+02  0.40659132372E+02  0.00000000000E+00 0. -1.
         11    1    3    3    0    0  0.80358724246E+01  0.55334750153E+01  0.10899314323E+01  0.98174610852E+01  0.51100000000E-03 0. -1.
        -11    1    3    3    0    0 -0.28811716601E+01  0.26262143118E+01 -0.26035750712E+01  0.46879371966E+01  0.51100000000E-03 0.  1.
        -12    1    3    3    0    0  0.23215169160E+02 -0.37927797647E+01 -0.27282981624E+02  0.36023469347E+02  0.00000000000E+00 0.  1.
</event>
<event>
 7    1  0.4871930E-013  0.5052886E+02  0.7816164E-02  0.1300439E+00
        -11   -1    0    0    0    0  0.00000000000E+00  0.00000000000E+00  0.45593999997E+02  0.45594000000E+02  0.51100000000E-03 0.  1.
         11   -1    0    0    0    0 -0.00000000000E+00 -0.00000000000E+00 -0.45593999997E+02  0.45594000000E+02  0.51100000000E-03 0. -1.
    9900012    2    1    2    0    0  0.31831891320E+02 -0.23192964543E+02  0.10098642978E+02  0.50528862044E+02  0.30000006670E+02 0.  0.
         12    1    1    2    0    0 -0.31831891320E+02  0.23192964543E+02 -0.10098642978E+02  0.40659137956E+02  0.00000000000E+00 0. -1.
         11    1    3    3    0    0  0.19779433971E+02 -0.46682303644E+01 -0.14608449591E+01  0.20375290212E+02  0.51100000000E-03 0.  1.
        -11    1    3    3    0    0  0.16504467820E+00  0.30354330355E+01  0.24425030219E+01  0.38996044328E+01  0.51100000000E-03 0. -1.
         12    1    3    3    0    0  0.11887412671E+02 -0.21560167214E+02  0.91169849150E+01  0.26253967400E+02  0.00000000000E+00 0. -1.
</event>
<event>
 7    1  0.4871930E-013  0.5052886E+02  0.7816164E-02  0.1300439E+00
        -11   -1    0    0    0    0  0.00000000000E+00  0.00000000000E+00  0.45593999997E+02  0.45594000000E+02  0.51100000000E-03 0.  1.
         11   -1    0    0    0    0 -0.00000000000E+00 -0.00000000000E+00 -0.45593999997E+02  0.45594000000E+02  0.51100000000E-03 0. -1.
    9900012    2    1    2    0    0 -0.36888463604E+02  0.13587936286E+02  0.10381458111E+02  0.50528862870E+02  0.30000009180E+02 0.  0.
         12    1    1    2    0    0  0.36888463604E+02 -0.13587936286E+02 -0.10381458111E+02  0.40659137130E+02  0.00000000000E+00 0. -1.
         11    1    3    3    0    0 -0.68111592452E+01  0.42348116726E+01 -0.58189789440E+01  0.99088867376E+01  0.51100000000E-03 0. -1.
        -11    1    3    3    0    0 -0.20210473298E+01  0.88585082400E+01  0.52829656865E+01  0.10510353336E+02  0.51100000000E-03 0.  1.
        -12    1    3    3    0    0 -0.28056257029E+02  0.49461637384E+00  0.10917471369E+02  0.30109622796E+02  0.00000000000E+00 0.  1.
</event>
<event>
 7    1  0.4871930E-013  0.5052886E+02  0.7816164E-02  0.1300439E+00
        -11   -1    0    0    0    0  0.00000000000E+00  0.00000000000E+00  0.45593999997E+02  0.45594000000E+02  0.51100000000E-03 0.  1.
         11   -1    0    0    0    0 -0.00000000000E+00 -0.00000000000E+00 -0.45593999997E+02  0.45594000000E+02  0.51100000000E-03 0. -1.
    9900012    2    1    2    0    0  0.39506103919E+02  0.20158963134E+01  0.94005109857E+01  0.50528859680E+02  0.29999999483E+02 0.  0.
         12    1    1    2    0    0 -0.39506103919E+02 -0.20158963134E+01 -0.94005109857E+01  0.40659140320E+02  0.00000000000E+00 0. -1.
         11    1    3    3    0    0  0.14692159063E+02 -0.13710323425E+01 -0.49956676095E+01  0.15578702216E+02  0.51100000000E-03 0. -1.
        -11    1    3    3    0    0  0.23313691969E+02 -0.15035511133E+01  0.44735962145E+01  0.23786592075E+02  0.51100000000E-03 0.  1.
        -12    1    3    3    0    0  0.15002528870E+01  0.48904797693E+01  0.99225823806E+01  0.11163565389E+02  0.00000000000E+00 0.  1.
</event>
<event>
 7    1  0.4871930E-013  0.5052886E+02  0.7816164E-02  0.1300439E+00
        -11   -1    0    0    0    0  0.00000000000E+00  0.00000000000E+00  0.45593999997E+02  0.45594000000E+02  0.51100000000E-03 0.  1.
         11   -1    0    0    0    0 -0.00000000000E+00 -0.00000000000E+00 -0.45593999997E+02  0.45594000000E+02  0.51100000000E-03 0. -1.
    9900012    2    1    2    0    0  0.34127282177E+02  0.21624274822E+02 -0.45699952101E+01  0.50528861955E+02  0.30000006398E+02 0.  0.
         12    1    1    2    0    0 -0.34127282177E+02 -0.21624274822E+02  0.45699952101E+01  0.40659138045E+02  0.00000000000E+00 0. -1.
         11    1    3    3    0    0  0.30155252949E+01 -0.67966740705E+00 -0.94658081802E+01  0.99577540316E+01  0.51100000000E-03 0. -1.
        -11    1    3    3    0    0  0.14927158078E+02  0.11592277018E+02 -0.38424652508E+01  0.19286406462E+02  0.51100000000E-03 0.  1.
        -12    1    3    3    0    0  0.16184598804E+02  0.10711665210E+02  0.87382782208E+01  0.21284701461E+02  0.00000000000E+00 0.  1.
</event>
<event>
 7    1  0.4871930E-013  0.5052887E+02  0.7816164E-02  0.1300439E+00
        -11   -1    0    0    0    0  0.00000000000E+00  0.00000000000E+00  0.45593999997E+02  0.45594000000E+02  0.51100000000E-03 0. -1.
         11   -1    0    0    0    0 -0.00000000000E+00 -0.00000000000E+00 -0.45593999997E+02  0.45594000000E+02  0.51100000000E-03 0.  1.
    9900012    2    1    2    0    0  0.94913060578E+01 -0.98780410290E+01 -0.38281906370E+02  0.50528868915E+02  0.30000027555E+02 0.  0.
         12    1    1    2    0    0 -0.94913060578E+01  0.98780410290E+01  0.38281906370E+02  0.40659131085E+02  0.00000000000E+00 0. -1.
         11    1    3    3    0    0  0.73152842224E+01 -0.82733180583E+01 -0.92120402691E+01  0.14381337251E+02  0.51100000000E-03 0.  1.
        -11    1    3    3    0    0  0.51734762152E+00 -0.11097174277E+02 -0.10808444484E+02  0.15499593476E+02  0.51100000000E-03 0. -1.
        -12    1    3    3    0    0  0.16586742139E+01  0.94924513068E+01 -0.18261421616E+02  0.20647938188E+02  0.00000000000E+00 0.  1.
</event>
<event>
 7    1  0.4871930E-013  0.5052886E+02  0.7816164E-02  0.1300439E+00
        -11   -1    0    0    0    0  0.00000000000E+00  0.00000000000E+00  0.45593999997E+02  0.45594000000E+02  0.51100000000E-03 0. -1.
         11   -1    0    0    0    0 -0.00000000000E+00 -0.00000000000E+00 -0.45593999997E+02  0.45594000000E+02  0.51100000000E-03 0.  1.
    9900012    2    1    2    0    0  0.35590268971E+02  0.35665083995E+01 -0.19333352874E+02  0.50528858827E+02  0.29999996890E+02 0.  0.
         12    1    1    2    0    0 -0.35590268971E+02 -0.35665083995E+01  0.19333352874E+02  0.40659141173E+02  0.00000000000E+00 0. -1.
         11    1    3    3    0    0  0.11863128393E+02  0.34574679007E+01 -0.42592820680E+01  0.13070171520E+02  0.51100000000E-03 0. -1.
        -11    1    3    3    0    0  0.27530416311E+02  0.51148387990E+01 -0.12517003881E+02  0.30671823953E+02  0.51100000000E-03 0.  1.
         12    1    3    3    0    0 -0.38032757331E+01 -0.50057983002E+01 -0.25570669253E+01  0.67868633540E+01  0.00000000000E+00 0. -1.
</event>
<event>
 7    1  0.4871930E-013  0.5052886E+02  0.7816164E-02  0.1300439E+00
        -11   -1    0    0    0    0  0.00000000000E+00  0.00000000000E+00  0.45593999997E+02  0.45594000000E+02  0.51100000000E-03 0.  1.
         11   -1    0    0    0    0 -0.00000000000E+00 -0.00000000000E+00 -0.45593999997E+02  0.45594000000E+02  0.51100000000E-03 0. -1.
    9900012    2    1    2    0    0 -0.36497147955E+02  0.12047870247E+02 -0.13265483715E+02  0.50528855340E+02  0.29999986291E+02 0.  0.
         12    1    1    2    0    0  0.36497147955E+02 -0.12047870247E+02  0.13265483715E+02  0.40659144660E+02  0.00000000000E+00 0. -1.
         11    1    3    3    0    0 -0.19018813426E+01  0.11469510515E+02 -0.28719993718E+01  0.11975608742E+02  0.51100000000E-03 0. -1.
        -11    1    3    3    0    0 -0.34046077977E+00  0.27367671285E+01 -0.12846215497E+01  0.30423774659E+01  0.51100000000E-03 0.  1.
         12    1    3    3    0    0 -0.34254805832E+02 -0.21584073963E+01 -0.91088627931E+01  0.35510869131E+02  0.00000000000E+00 0. -1.
</event>
<event>
 7    1  0.4871930E-013  0.5052884E+02  0.7816164E-02  0.1300439E+00
        -11   -1    0    0    0    0  0.00000000000E+00  0.00000000000E+00  0.45593999997E+02  0.45594000000E+02  0.51100000000E-03 0.  1.
         11   -1    0    0    0    0 -0.00000000000E+00 -0.00000000000E+00 -0.45593999997E+02  0.45594000000E+02  0.51100000000E-03 0. -1.
    9900012    2    1    2    0    0  0.20486188630E+02 -0.10873654355E+01  0.35104146079E+02  0.50528839161E+02  0.29999937115E+02 0.  0.
         12    1    1    2    0    0 -0.20486188630E+02  0.10873654355E+01 -0.35104146079E+02  0.40659160839E+02  0.00000000000E+00 0. -1.
         11    1    3    3    0    0  0.80014670553E+01 -0.10156688616E+02  0.11806642777E+02  0.17509386415E+02  0.51100000000E-03 0. -1.
        -11    1    3    3    0    0  0.43469690456E+01 -0.62297350843E-02  0.19894198647E+02  0.20363578241E+02  0.51100000000E-03 0.  1.
         12    1    3    3    0    0  0.81377525291E+01  0.90755529155E+01  0.34033046543E+01  0.12655874506E+02  0.00000000000E+00 0. -1.
</event>
<event>
 7    1  0.4871930E-013  0.5052886E+02  0.7816164E-02  0.1300439E+00
        -11   -1    0    0    0    0  0.00000000000E+00  0.00000000000E+00  0.45593999997E+02  0.45594000000E+02  0.51100000000E-03 0. -1.
         11   -1    0    0    0    0 -0.00000000000E+00 -0.00000000000E+00 -0.45593999997E+02  0.45594000000E+02  0.51100000000E-03 0.  1.
    9900012    2    1    2    0    0  0.25939812088E+02 -0.16759501929E+02 -0.26446383820E+02  0.50528856216E+02  0.29999988954E+02 0.  0.
         12    1    1    2    0    0 -0.25939812088E+02  0.16759501929E+02  0.26446383820E+02  0.40659143784E+02  0.00000000000E+00 0. -1.
         11    1    3    3    0    0  0.10564642510E+02  0.20540779062E+01 -0.15088274368E+00  0.10763534423E+02  0.51100000000E-03 0. -1.
        -11    1    3    3    0    0  0.11122007740E+02 -0.12740771230E+02 -0.56535004848E+01  0.17832228568E+02  0.51100000000E-03 0.  1.
        -12    1    3    3    0    0  0.42531618376E+01 -0.60728086050E+01 -0.20642000592E+02  0.21933093225E+02  0.00000000000E+00 0.  1.
</event>
<event>
 7    1  0.4871930E-013  0.5052886E+02  0.7816164E-02  0.1300439E+00
        -11   -1    0    0    0    0  0.00000000000E+00  0.00000000000E+00  0.45593999997E+02  0.45594000000E+02  0.51100000000E-03 0. -1.
         11   -1    0    0    0    0 -0.00000000000E+00 -0.00000000000E+00 -0.45593999997E+02  0.45594000000E+02  0.51100000000E-03 0.  1.
    9900012    2    1    2    0    0 -0.22431265464E+02  0.33323891061E+02 -0.62866833653E+01  0.50528858673E+02  0.29999996422E+02 0.  0.
         12    1    1    2    0    0  0.22431265464E+02 -0.33323891061E+02  0.62866833653E+01  0.40659141327E+02  0.00000000000E+00 0. -1.
         11    1    3    3    0    0 -0.59449708296E+01  0.45572710771E+01  0.59739626943E+01  0.95812122599E+01  0.51100000000E-03 0. -1.
        -11    1    3    3    0    0 -0.20623422238E+02  0.24140747160E+02 -0.63541311534E+01  0.32380182230E+02  0.51100000000E-03 0.  1.
        -12    1    3    3    0    0  0.41371276040E+01  0.46258728231E+01 -0.59065149062E+01  0.85674641828E+01  0.00000000000E+00 0.  1.
</event>
<event>
 7    1  0.4871930E-013  0.5052886E+02  0.7816164E-02  0.1300439E+00
        -11   -1    0    0    0    0  0.00000000000E+00  0.00000000000E+00  0.45593999997E+02  0.45594000000E+02  0.51100000000E-03 0.  1.
         11   -1    0    0    0    0 -0.00000000000E+00 -0.00000000000E+00 -0.45593999997E+02  0.45594000000E+02  0.51100000000E-03 0. -1.
    9900012    2    1    2    0    0 -0.64438219969E+01  0.93090347152E+01  0.39051055574E+02  0.50528856985E+02  0.29999991293E+02 0.  0.
         12    1    1    2    0    0  0.64438219969E+01 -0.93090347152E+01 -0.39051055574E+02  0.40659143015E+02  0.00000000000E+00 0. -1.
         11    1    3    3    0    0 -0.12222408060E+02  0.69412886516E+01  0.25482255604E+02  0.29101788568E+02  0.51100000000E-03 0. -1.
        -11    1    3    3    0    0 -0.40531099826E+01  0.35132578067E+01  0.10461671491E+01  0.54649013635E+01  0.51100000000E-03 0.  1.
        -12    1    3    3    0    0  0.98316960457E+01 -0.11455117431E+01  0.12522632821E+02  0.15962167054E+02  0.00000000000E+00 0.  1.
</event>
<event>
 7    1  0.4871930E-013  0.5052886E+02  0.7816164E-02  0.1300439E+00
        -11   -1    0    0    0    0  0.00000000000E+00  0.00000000000E+00  0.45593999997E+02  0.45594000000E+02  0.51100000000E-03 0.  1.
         11   -1    0    0    0    0 -0.00000000000E+00 -0.00000000000E+00 -0.45593999997E+02  0.45594000000E+02  0.51100000000E-03 0. -1.
    9900012    2    1    2    0    0 -0.25195452760E+01  0.28675848689E+02  0.28714339631E+02  0.50528859492E+02  0.29999998911E+02 0.  0.
         12    1    1    2    0    0  0.25195452760E+01 -0.28675848689E+02 -0.28714339631E+02  0.40659140508E+02  0.00000000000E+00 0. -1.
         11    1    3    3    0    0 -0.50386645222E+01  0.45936441005E+01 -0.17818310397E+01  0.70473135594E+01  0.51100000000E-03 0. -1.
        -11    1    3    3    0    0 -0.39413244338E+01  0.18515814519E+02  0.10283170754E+02  0.21543282633E+02  0.51100000000E-03 0.  1.
        -12    1    3    3    0    0  0.64604436800E+01  0.55663900702E+01  0.20212999917E+02  0.21938263299E+02  0.00000000000E+00 0.  1.
</event>
<event>
 7    1  0.4871930E-013  0.5052886E+02  0.7816164E-02  0.1300439E+00
        -11   -1    0    0    0    0  0.00000000000E+00  0.00000000000E+00  0.45593999997E+02  0.45594000000E+02  0.51100000000E-03 0.  1.
         11   -1    0    0    0    0 -0.00000000000E+00 -0.00000000000E+00 -0.45593999997E+02  0.45594000000E+02  0.51100000000E-03 0. -1.
    9900012    2    1    2    0    0  0.35475971001E+02 -0.10181641283E+02  0.17057405862E+02  0.50528862867E+02  0.30000009169E+02 0.  0.
         12    1    1    2    0    0 -0.35475971001E+02  0.10181641283E+02 -0.17057405862E+02  0.40659137133E+02  0.00000000000E+00 0. -1.
         11    1    3    3    0    0  0.23652877507E+02 -0.62101851806E+01  0.62751986015E+01  0.25246844003E+02  0.51100000000E-03 0. -1.
        -11    1    3    3    0    0  0.74707253252E+01 -0.79764878894E+01 -0.20801741137E+01  0.11124891934E+02  0.51100000000E-03 0.  1.
        -12    1    3    3    0    0  0.43523681686E+01  0.40050317871E+01  0.12862381375E+02  0.14157126930E+02  0.00000000000E+00 0.  1.
</event>
<event>
 7    1  0.4871930E-013  0.5052885E+02  0.7816164E-02  0.1300439E+00
        -11   -1    0    0    0    0  0.00000000000E+00  0.00000000000E+00  0.45593999997E+02  0.45594000000E+02  0.51100000000E-03 0. -1.
         11   -1    0    0    0    0 -0.00000000000E+00 -0.00000000000E+00 -0.45593999997E+02  0.45594000000E+02  0.51100000000E-03 0.  1.
    9900012    2    1    2    0    0  0.31633967734E+02 -0.78228979302E+01 -0.24315852982E+02  0.50528851548E+02  0.29999974766E+02 0.  0.
         12    1    1    2    0    0 -0.31633967734E+02  0.78228979302E+01  0.24315852982E+02  0.40659148452E+02  0.00000000000E+00 0. -1.
         11    1    3    3    0    0  0.12077785434E+02 -0.86988049302E+00 -0.35423319274E+01  0.12616564858E+02  0.51100000000E-03 0. -1.
        -11    1    3    3    0    0  0.17002707116E+02 -0.14937681479E+02 -0.11414922772E+02  0.25348113133E+02  0.51100000000E-03 0.  1.
         12    1    3    3    0    0  0.25534751840E+01  0.79846640422E+01 -0.93585982821E+01  0.12564173558E+02  0.00000000000E+00 0. -1.
</event>
<event>
 7    1  0.4871930E-013  0.5052887E+02  0.7816164E-02  0.1300439E+00
        -11   -1    0    0    0    0  0.00000000000E+00  0.00000000000E+00  0.45593999997E+02  0.45594000000E+02  0.51100000000E-03 0.  1.
         11   -1    0    0    0    0 -0.00000000000E+00 -0.00000000000E+00 -0.45593999997E+02  0.45594000000E+02  0.51100000000E-03 0. -1.
    9900012    2    1    2    0    0  0.27436932814E+02 -0.18554467463E+02  0.23582011391E+02  0.50528870566E+02  0.30000032574E+02 0.  0.
         12    1    1    2    0    0 -0.27436932814E+02  0.18554467463E+02 -0.23582011391E+02  0.40659129434E+02  0.00000000000E+00 0. -1.
         11    1    3    3    0    0 -0.26748423084E+01  0.38187799141E+00  0.57254402743E+01  0.63309777104E+01  0.51100000000E-03 0. -1.
        -11    1    3    3    0    0  0.93067367644E+01 -0.13688530480E+02  0.43375652682E+00  0.16558362265E+02  0.51100000000E-03 0.  1.
        -12    1    3    3    0    0  0.20805038358E+02 -0.52478149739E+01  0.17422814589E+02  0.27639530591E+02  0.00000000000E+00 0.  1.
</event>
<event>
 7    1  0.5164957E-013  0.5052886E+02  0.7816164E-02  0.1300439E+00
        -11   -1    0    0    0    0  0.00000000000E+00  0.00000000000E+00  0.45593999997E+02  0.45594000000E+02  0.51100000000E-03 0. -1.
         11   -1    0    0    0    0 -0.00000000000E+00 -0.00000000000E+00 -0.45593999997E+02  0.45594000000E+02  0.51100000000E-03 0.  1.
    9900012    2    1    2    0    0  0.44410516782E+01  0.34588633416E+02 -0.20906190196E+02  0.50528864617E+02  0.30000014490E+02 0.  0.
         12    1    1    2    0    0 -0.44410516782E+01 -0.34588633416E+02  0.20906190196E+02  0.40659135383E+02  0.00000000000E+00 0. -1.
         11    1    3    3    0    0 -0.46476185778E+01  0.25546260329E+01  0.66517363442E+00  0.53449910045E+01  0.51100000000E-03 0. -1.
        -11    1    3    3    0    0  0.59962990334E+01  0.16557773984E+02  0.10042765146E+01  0.17638708938E+02  0.51100000000E-03 0.  1.
        -12    1    3    3    0    0  0.30923712225E+01  0.15476233398E+02 -0.22575640345E+02  0.27545164675E+02  0.00000000000E+00 0.  1.
</event>
<event>
 7    1  0.4871930E-013  0.5052885E+02  0.7816164E-02  0.1300439E+00
        -11   -1    0    0    0    0  0.00000000000E+00  0.00000000000E+00  0.45593999997E+02  0.45594000000E+02  0.51100000000E-03 0.  1.
         11   -1    0    0    0    0 -0.00000000000E+00 -0.00000000000E+00 -0.45593999997E+02  0.45594000000E+02  0.51100000000E-03 0. -1.
    9900012    2    1    2    0    0 -0.25371222719E+02  0.27953771309E+02  0.15101457439E+02  0.50528852328E+02  0.29999977135E+02 0.  0.
         12    1    1    2    0    0  0.25371222719E+02 -0.27953771309E+02 -0.15101457439E+02  0.40659147672E+02  0.00000000000E+00 0. -1.
         11    1    3    3    0    0 -0.83914836106E+01  0.21138555811E+02  0.31888742446E+01  0.22965723550E+02  0.51100000000E-03 0. -1.
        -11    1    3    3    0    0 -0.15256116011E+02  0.11949241982E+02  0.84918531483E+01  0.21157623445E+02  0.51100000000E-03 0.  1.
        -12    1    3    3    0    0 -0.17236230969E+01 -0.51340264837E+01  0.34207300461E+01  0.64055053325E+01  0.00000000000E+00 0.  1.
</event>
<event>
 7    1  0.4871930E-013  0.5052886E+02  0.7816164E-02  0.1300439E+00
        -11   -1    0    0    0    0  0.00000000000E+00  0.00000000000E+00  0.45593999997E+02  0.45594000000E+02  0.51100000000E-03 0.  1.
         11   -1    0    0    0    0 -0.00000000000E+00 -0.00000000000E+00 -0.45593999997E+02  0.45594000000E+02  0.51100000000E-03 0. -1.
    9900012    2    1    2    0    0  0.98442005463E+01 -0.36984085709E+02  0.13727145106E+02  0.50528863353E+02  0.30000010649E+02 0.  0.
         12    1    1    2    0    0 -0.98442005463E+01  0.36984085709E+02 -0.13727145106E+02  0.40659136647E+02  0.00000000000E+00 0. -1.
         11    1    3    3    0    0 -0.21411095138E+01  0.69618372817E+00 -0.15993438627E+01  0.27616883941E+01  0.51100000000E-03 0. -1.
        -11    1    3    3    0    0  0.15173654347E+02 -0.15356909045E+02  0.22640680412E+01  0.21707151955E+02  0.51100000000E-03 0.  1.
         12    1    3    3    0    0 -0.31883442870E+01 -0.22323360392E+02  0.13062420927E+02  0.26060023004E+02  0.00000000000E+00 0. -1.
</event>
<event>
 7    1  0.8184788E-013  0.5052886E+02  0.7816164E-02  0.1300439E+00
        -11   -1    0    0    0    0  0.00000000000E+00  0.00000000000E+00  0.45593999997E+02  0.45594000000E+02  0.51100000000E-03 0. -1.
         11   -1    0    0    0    0 -0.00000000000E+00 -0.00000000000E+00 -0.45593999997E+02  0.45594000000E+02  0.51100000000E-03 0.  1.
    9900012    2    1    2    0    0  0.35249954618E+02 -0.28738423473E+01 -0.20058597286E+02  0.50528860861E+02  0.30000003074E+02 0.  0.
         12    1    1    2    0    0 -0.35249954618E+02  0.28738423473E+01  0.20058597286E+02  0.40659139139E+02  0.00000000000E+00 0. -1.
         11    1    3    3    0    0 -0.31615878601E+01  0.27101571881E+00  0.25554085206E+01  0.40742116152E+01  0.51100000000E-03 0. -1.
        -11    1    3    3    0    0  0.20497440892E+02 -0.37007904143E+01 -0.52064257390E+01  0.21469694969E+02  0.51100000000E-03 0.  1.
        -12    1    3    3    0    0  0.17914101586E+02  0.55593234818E+00 -0.17407580068E+02  0.24984954277E+02  0.00000000000E+00 0.  1.
</event>
<event>
 7    1  0.4871930E-013  0.5052888E+02  0.7816164E-02  0.1300439E+00
        -11   -1    0    0    0    0  0.00000000000E+00  0.00000000000E+00  0.45593999997E+02  0.45594000000E+02  0.51100000000E-03 0. -1.
         11   -1    0    0    0    0 -0.00000000000E+00 -0.00000000000E+00 -0.45593999997E+02  0.45594000000E+02  0.51100000000E-03 0.  1.
    9900012    2    1    2    0    0  0.14528483103E+02  0.35479562686E+02 -0.13538386536E+02  0.50528879256E+02  0.30000058987E+02 0.  0.
         12    1    1    2    0    0 -0.14528483103E+02 -0.35479562686E+02  0.13538386536E+02  0.40659120744E+02  0.00000000000E+00 0. -1.
         11    1    3    3    0    0  0.16669465325E+02  0.32970153684E+02 -0.18040761314E+02  0.41114123816E+02  0.51100000000E-03 0.  1.
        -11    1    3    3    0    0  0.27606049845E+01  0.14074604215E+01  0.88041893367E+00  0.32213386160E+01  0.51100000000E-03 0. -1.
        -12    1    3    3    0    0 -0.49015872062E+01  0.11019485808E+01  0.36219558443E+01  0.61934168237E+01  0.00000000000E+00 0.  1.
</event>
<event>
 7    1  0.4871930E-013  0.5052886E+02  0.7816164E-02  0.1300439E+00
        -11   -1    0    0    0    0  0.00000000000E+00  0.00000000000E+00  0.45593999997E+02  0.45594000000E+02  0.51100000000E-03 0.  1.
         11   -1    0    0    0    0 -0.00000000000E+00 -0.00000000000E+00 -0.45593999997E+02  0.45594000000E+02  0.51100000000E-03 0. -1.
    9900012    2    1    2    0    0  0.53620434079E+01 -0.40283441935E+02 -0.12877451772E+01  0.50528862142E+02  0.30000006968E+02 0.  0.
         12    1    1    2    0    0 -0.53620434079E+01  0.40283441935E+02  0.12877451772E+01  0.40659137858E+02  0.00000000000E+00 0. -1.
         11    1    3    3    0    0 -0.16965957957E+01 -0.14417838275E+01 -0.49248479995E+01  0.54047484658E+01  0.51100000000E-03 0. -1.
        -11    1    3    3    0    0 -0.56207075920E+01 -0.20553267129E+02  0.73961150765E+01  0.22555080625E+02  0.51100000000E-03 0.  1.
        -12    1    3    3    0    0  0.12679346796E+02 -0.18288390979E+02 -0.37590122542E+01  0.22569033051E+02  0.00000000000E+00 0.  1.
</event>
<event>
 7    1  0.4871930E-013  0.5052886E+02  0.7816164E-02  0.1300439E+00
        -11   -1    0    0    0    0  0.00000000000E+00  0.00000000000E+00  0.45593999997E+02  0.45594000000E+02  0.51100000000E-03 0. -1.
         11   -1    0    0    0    0 -0.00000000000E+00 -0.00000000000E+00 -0.45593999997E+02  0.45594000000E+02  0.51100000000E-03 0.  1.
    9900012    2    1    2    0    0 -0.48056687794E+01 -0.20311840439E+02 -0.34892698420E+02  0.50528859362E+02  0.29999998516E+02 0.  0.
         12    1    1    2    0    0  0.48056687794E+01  0.20311840439E+02  0.34892698420E+02  0.40659140638E+02  0.00000000000E+00 0. -1.
         11    1    3    3    0    0  0.38075142110E+01 -0.10904523651E+02 -0.47533416308E+01  0.12489998296E+02  0.51100000000E-03 0. -1.
        -11    1    3    3    0    0 -0.41192226258E+01 -0.15000825650E+02 -0.16826859406E+02  0.22915845238E+02  0.51100000000E-03 0.  1.
         12    1    3    3    0    0 -0.44939603647E+01  0.55935088627E+01 -0.13312497383E+02  0.15123015828E+02  0.00000000000E+00 0. -1.
</event>
<event>
 7    1  0.4871930E-013  0.5052886E+02  0.7816164E-02  0.1300439E+00
        -11   -1    0    0    0    0  0.00000000000E+00  0.00000000000E+00  0.45593999997E+02  0.45594000000E+02  0.51100000000E-03 0.  1.
         11   -1    0    0    0    0 -0.00000000000E+00 -0.00000000000E+00 -0.45593999997E+02  0.45594000000E+02  0.51100000000E-03 0. -1.
    9900012    2    1    2    0    0 -0.80665896473E+01 -0.33625170911E+02  0.21387931833E+02  0.50528860616E+02  0.30000002330E+02 0.  0.
         12    1    1    2    0    0  0.80665896473E+01  0.33625170911E+02 -0.21387931833E+02  0.40659139384E+02  0.00000000000E+00 0. -1.
         11    1    3    3    0    0  0.74779442403E+00 -0.67297790586E+01 -0.20810866503E+01  0.70837874463E+01  0.51100000000E-03 0. -1.
        -11    1    3    3    0    0 -0.87047561123E+01 -0.31111980510E+02  0.20125568140E+02  0.38062666794E+02  0.51100000000E-03 0.  1.
         12    1    3    3    0    0 -0.10962795903E+00  0.42165886579E+01  0.33434503434E+01  0.53824063762E+01  0.00000000000E+00 0. -1.
</event>
<event>
 7    1  0.4871930E-013  0.5052885E+02  0.7816164E-02  0.1300439E+00
        -11   -1    0    0    0    0  0.00000000000E+00  0.00000000000E+00  0.45593999997E+02  0.45594000000E+02  0.51100000000E-03 0.  1.
         11   -1    0    0    0    0 -0.00000000000E+00 -0.00000000000E+00 -0.45593999997E+02  0.45594000000E+02  0.51100000000E-03 0. -1.
    9900012    2    1    2    0    0 -0.21776272758E+02 -0.13020127171E+02  0.31771633784E+02  0.50528849983E+02  0.29999970009E+02 0.  0.
         12    1    1    2    0    0  0.21776272758E+02  0.13020127171E+02 -0.31771633784E+02  0.40659150017E+02  0.00000000000E+00 0. -1.
         11    1    3    3    0    0  0.41090418033E+01 -0.67856905026E+01  0.13742693305E+02  0.15867937474E+02  0.51100000000E-03 0. -1.
        -11    1    3    3    0    0 -0.12016655601E+02  0.11583604542E+01  0.20440496628E+01  0.12244180253E+02  0.51100000000E-03 0.  1.
         12    1    3    3    0    0 -0.13868658961E+02 -0.73927971225E+01  0.15984890816E+02  0.22416732257E+02  0.00000000000E+00 0. -1.
</event>
<event>
 7    1  0.4871930E-013  0.5052886E+02  0.7816164E-02  0.1300439E+00
        -11   -1    0    0    0    0  0.00000000000E+00  0.00000000000E+00  0.45593999997E+02  0.45594000000E+02  0.51100000000E-03 0.  1.
         11   -1    0    0    0    0 -0.00000000000E+00 -0.00000000000E+00 -0.45593999997E+02  0.45594000000E+02  0.51100000000E-03 0. -1.
    9900012    2    1    2    0    0 -0.32002404958E+02 -0.17552234309E+02  0.17914549304E+02  0.50528856759E+02  0.29999990605E+02 0.  0.
         12    1    1    2    0    0  0.32002404958E+02  0.17552234309E+02 -0.17914549304E+02  0.40659143241E+02  0.00000000000E+00 0. -1.
         11    1    3    3    0    0  0.16077472056E+01 -0.73315432461E+00 -0.42503209144E+01  0.46029984225E+01  0.51100000000E-03 0. -1.
        -11    1    3    3    0    0 -0.97639953026E+01 -0.80808536142E+01  0.73446727590E+00  0.12695481158E+02  0.51100000000E-03 0.  1.
        -12    1    3    3    0    0 -0.23846156861E+02 -0.87382263698E+01  0.21430402942E+02  0.33230377178E+02  0.00000000000E+00 0.  1.
</event>
<event>
 7    1  0.4871930E-013  0.5052889E+02  0.7816164E-02  0.1300439E+00
        -11   -1    0    0    0    0  0.00000000000E+00  0.00000000000E+00  0.45593999997E+02  0.45594000000E+02  0.51100000000E-03 0.  1.
         11   -1    0    0    0    0 -0.00000000000E+00 -0.00000000000E+00 -0.45593999997E+02  0.45594000000E+02  0.51100000000E-03 0. -1.
    9900012    2    1    2    0    0 -0.31080105878E+02  0.24890160355E+02  0.82262080042E+01  0.50528885868E+02  0.30000079084E+02 0.  0.
         12    1    1    2    0    0  0.31080105878E+02 -0.24890160355E+02 -0.82262080042E+01  0.40659114132E+02  0.00000000000E+00 0. -1.
         11    1    3    3    0    0 -0.11686438886E+02  0.19420709650E+02 -0.16522934626E+01  0.22725907927E+02  0.51100000000E-03 0. -1.
        -11    1    3    3    0    0 -0.25871131272E+01  0.75150769697E+01 -0.46720267657E+00  0.79616464877E+01  0.51100000000E-03 0.  1.
         12    1    3    3    0    0 -0.16806553864E+02 -0.20456262650E+01  0.10345704143E+02  0.19841331453E+02  0.00000000000E+00 0. -1.
</event>
<event>
 7    1  0.4871930E-013  0.5052887E+02  0.7816164E-02  0.1300439E+00
        -11   -1    0    0    0    0  0.00000000000E+00  0.00000000000E+00  0.45593999997E+02  0.45594000000E+02  0.51100000000E-03 0. -1.
         11   -1    0    0    0    0 -0.00000000000E+00 -0.00000000000E+00 -0.45593999997E+02  0.45594000000E+02  0.51100000000E-03 0.  1.
    9900012    2    1    2    0    0  0.23771178963E+02  0.27859316770E+02 -0.17662224621E+02  0.50528872381E+02  0.30000038088E+02 0.  0.
         12    1    1    2    0    0 -0.23771178963E+02 -0.27859316770E+02  0.17662224621E+02  0.40659127619E+02  0.00000000000E+00 0. -1.
         11    1    3    3    0    0  0.17273347865E+02  0.52477769394E+01 -0.59896523178E+01  0.19020611042E+02  0.51100000000E-03 0.  1.
        -11    1    3    3    0    0  0.22949590220E+01  0.71056681965E+01  0.44953043906E+01  0.87157971096E+01  0.51100000000E-03 0. -1.
         12    1    3    3    0    0  0.42028720759E+01  0.15505871634E+02 -0.16167876694E+02  0.22792464229E+02  0.00000000000E+00 0. -1.
</event>
<event>
 7    1  0.4871930E-013  0.5052886E+02  0.7816164E-02  0.1300439E+00
        -11   -1    0    0    0    0  0.00000000000E+00  0.00000000000E+00  0.45593999997E+02  0.45594000000E+02  0.51100000000E-03 0.  1.
         11   -1    0    0    0    0 -0.00000000000E+00 -0.00000000000E+00 -0.45593999997E+02  0.45594000000E+02  0.51100000000E-03 0. -1.
    9900012    2    1    2    0    0  0.21766209476E+02 -0.26338937472E+02  0.22037653527E+02  0.50528859883E+02  0.30000000099E+02 0.  0.
         12    1    1    2    0    0 -0.21766209476E+02  0.26338937472E+02 -0.22037653527E+02  0.40659140117E+02  0.00000000000E+00 0. -1.
         11    1    3    3    0    0  0.57420565751E+01 -0.20044980833E+02  0.24873243683E+01  0.20999029813E+02  0.51100000000E-03 0. -1.
        -11    1    3    3    0    0  0.11124326881E+02 -0.76616178821E+01  0.54953009079E+01  0.14582502167E+02  0.51100000000E-03 0.  1.
         12    1    3    3    0    0  0.48998260202E+01  0.13676612429E+01  0.14055028251E+02  0.14947327903E+02  0.00000000000E+00 0. -1.
</event>
<event>
 7    1  0.4871930E-013  0.5052885E+02  0.7816164E-02  0.1300439E+00
        -11   -1    0    0    0    0  0.00000000000E+00  0.00000000000E+00  0.45593999997E+02  0.45594000000E+02  0.51100000000E-03 0.  1.
         11   -1    0    0    0    0 -0.00000000000E+00 -0.00000000000E+00 -0.45593999997E+02  0.45594000000E+02  0.51100000000E-03 0. -1.
    9900012    2    1    2    0    0  0.25288412627E+02 -0.11718529366E+02  0.29603023176E+02  0.50528846973E+02  0.29999960861E+02 0.  0.
         12    1    1    2    0    0 -0.25288412627E+02  0.11718529366E+02 -0.29603023176E+02  0.40659153027E+02  0.00000000000E+00 0. -1.
         11    1    3    3    0    0  0.11725293142E+02 -0.16045514850E+02  0.62507213418E+01  0.20832968190E+02  0.51100000000E-03 0. -1.
        -11    1    3    3    0    0  0.59146985950E+01 -0.37784145892E+01  0.11106083253E+02  0.13137928367E+02  0.51100000000E-03 0.  1.
         12    1    3    3    0    0  0.76484208904E+01  0.81054000738E+01  0.12246218581E+02  0.16557950417E+02  0.00000000000E+00 0. -1.
</event>
<event>
 7    1  0.4871930E-013  0.5052886E+02  0.7816164E-02  0.1300439E+00
        -11   -1    0    0    0    0  0.00000000000E+00  0.00000000000E+00  0.45593999997E+02  0.45594000000E+02  0.51100000000E-03 0.  1.
         11   -1    0    0    0    0 -0.00000000000E+00 -0.00000000000E+00 -0.45593999997E+02  0.45594000000E+02  0.51100000000E-03 0. -1.
    9900012    2    1    2    0    0  0.24886004268E+01  0.51317211768E+01  0.40257146889E+02  0.50528861175E+02  0.30000004029E+02 0.  0.
         12    1    1    2    0    0 -0.24886004268E+01 -0.51317211768E+01 -0.40257146889E+02  0.40659138825E+02  0.00000000000E+00 0. -1.
         11    1    3    3    0    0  0.47887899866E+01  0.10992243328E+01 -0.95164467069E+00  0.50046409971E+01  0.51100000000E-03 0. -1.
        -11    1    3    3    0    0 -0.65725717581E+01 -0.36414472915E+01  0.72257378416E+01  0.10424496415E+02  0.51100000000E-03 0.  1.
        -12    1    3    3    0    0  0.42723821983E+01  0.76739441355E+01  0.33983053718E+02  0.35099723763E+02  0.00000000000E+00 0.  1.
</event>
<event>
 7    1  0.4871930E-013  0.5052886E+02  0.7816164E-02  0.1300439E+00
        -11   -1    0    0    0    0  0.00000000000E+00  0.00000000000E+00  0.45593999997E+02  0.45594000000E+02  0.51100000000E-03 0.  1.
         11   -1    0    0    0    0 -0.00000000000E+00 -0.00000000000E+00 -0.45593999997E+02  0.45594000000E+02  0.51100000000E-03 0. -1.
    9900012    2    1    2    0    0 -0.83100437813E+01  0.26673697892E+02 -0.29540184652E+02  0.50528862083E+02  0.30000006787E+02 0.  0.
         12    1    1    2    0    0  0.83100437813E+01 -0.26673697892E+02  0.29540184652E+02  0.40659137917E+02  0.00000000000E+00 0. -1.
         11    1    3    3    0    0 -0.25997223845E+01 -0.14182016603E+01 -0.84618592581E+01  0.89650942432E+01  0.51100000000E-03 0. -1.
        -11    1    3    3    0    0  0.34846637542E+01  0.21088647773E+02 -0.21058389008E+02  0.30005494402E+02  0.51100000000E-03 0.  1.
        -12    1    3    3    0    0 -0.91949851510E+01  0.70032517788E+01 -0.19936385866E-01  0.11558273438E+02  0.00000000000E+00 0.  1.
</event>
<event>
 7    1  0.4871930E-013  0.5052888E+02  0.7816164E-02  0.1300439E+00
        -11   -1    0    0    0    0  0.00000000000E+00  0.00000000000E+00  0.45593999997E+02  0.45594000000E+02  0.51100000000E-03 0.  1.
         11   -1    0    0    0    0 -0.00000000000E+00 -0.00000000000E+00 -0.45593999997E+02  0.45594000000E+02  0.51100000000E-03 0. -1.
    9900012    2    1    2    0    0  0.23915579602E+01 -0.30128267519E+02  0.27198019887E+02  0.50528876314E+02  0.30000050043E+02 0.  0.
         12    1    1    2    0    0 -0.23915579602E+01  0.30128267519E+02 -0.27198019887E+02  0.40659123686E+02  0.00000000000E+00 0. -1.
         11    1    3    3    0    0  0.10343767348E+02 -0.20508892424E+02  0.11498606735E+02  0.25687081355E+02  0.51100000000E-03 0. -1.
        -11    1    3    3    0    0  0.33171201290E+01  0.10858105299E+01  0.44455149591E+01  0.56519796505E+01  0.51100000000E-03 0.  1.
         12    1    3    3    0    0 -0.11269329517E+02 -0.10705185625E+02  0.11253898193E+02  0.19189815308E+02  0.00000000000E+00 0. -1.
</event>
<event>
 7    1  0.4871930E-013  0.5052887E+02  0.7816164E-02  0.1300439E+00
        -11   -1    0    0    0    0  0.00000000000E+00  0.00000000000E+00  0.45593999997E+02  0.45594000000E+02  0.51100000000E-03 0.  1.
         11   -1    0    0    0    0 -0.00000000000E+00 -0.00000000000E+00 -0.45593999997E+02  0.45594000000E+02  0.51100000000E-03 0. -1.
    9900012    2    1    2    0    0  0.52751067730E+01 -0.11968884702E+02  0.38497847282E+02  0.50528865752E+02  0.30000017940E+02 0.  0.
         12    1    1    2    0    0 -0.52751067730E+01  0.11968884702E+02 -0.38497847282E+02  0.40659134248E+02  0.00000000000E+00 0. -1.
         11    1    3    3    0    0 -0.41459398279E+01 -0.13126565761E+02  0.14196404994E+02  0.19774566007E+02  0.51100000000E-03 0. -1.
        -11    1    3    3    0    0 -0.34938802865E+01  0.21858286917E+01  0.12739881523E+02  0.13389907693E+02  0.51100000000E-03 0.  1.
        -12    1    3    3    0    0  0.12914926887E+02 -0.10281476327E+01  0.11561560764E+02  0.17364392053E+02  0.00000000000E+00 0.  1.
</event>
<event>
 7    1  0.4871930E-013  0.5052888E+02  0.7816164E-02  0.1300439E+00
        -11   -1    0    0    0    0  0.00000000000E+00  0.00000000000E+00  0.45593999997E+02  0.45594000000E+02  0.51100000000E-03 0.  1.
         11   -1    0    0    0    0 -0.00000000000E+00 -0.00000000000E+00 -0.45593999997E+02  0.45594000000E+02  0.51100000000E-03 0. -1.
    9900012    2    1    2    0    0  0.77783723409E+01  0.19338175298E+02  0.34909828894E+02  0.50528877364E+02  0.30000053237E+02 0.  0.
         12    1    1    2    0    0 -0.77783723409E+01 -0.19338175298E+02 -0.34909828894E+02  0.40659122636E+02  0.00000000000E+00 0. -1.
         11    1    3    3    0    0 -0.39366175220E+01  0.31706435446E+01  0.75481221290E+01  0.90842768527E+01  0.51100000000E-03 0.  1.
        -11    1    3    3    0    0  0.91614620605E+01 -0.14975573393E+01  0.20165917543E+02  0.22199984137E+02  0.51100000000E-03 0. -1.
         12    1    3    3    0    0  0.25535278024E+01  0.17665089093E+02  0.71957892217E+01  0.19244616375E+02  0.00000000000E+00 0. -1.
</event>
<event>
 7    1  0.4871930E-013  0.5052884E+02  0.7816164E-02  0.1300439E+00
        -11   -1    0    0    0    0  0.00000000000E+00  0.00000000000E+00  0.45593999997E+02  0.45594000000E+02  0.51100000000E-03 0.  1.
         11   -1    0    0    0    0 -0.00000000000E+00 -0.00000000000E+00 -0.45593999997E+02  0.45594000000E+02  0.51100000000E-03 0. -1.
    9900012    2    1    2    0    0 -0.33534663232E+02 -0.21339131775E+02  0.85577459516E+01  0.50528841145E+02  0.29999943145E+02 0.  0.
         12    1    1    2    0    0  0.33534663232E+02  0.21339131775E+02 -0.85577459516E+01  0.40659158855E+02  0.00000000000E+00 0. -1.
         11    1    3    3    0    0 -0.20586224207E+02 -0.13065787608E+02  0.40694704673E+01  0.24719790109E+02  0.51100000000E-03 0. -1.
        -11    1    3    3    0    0 -0.91963388448E+01 -0.46032071649E+01  0.12527571265E+02  0.16208090770E+02  0.51100000000E-03 0.  1.
         12    1    3    3    0    0 -0.37521001811E+01 -0.36701370016E+01 -0.80392957805E+01  0.96009602658E+01  0.00000000000E+00 0. -1.
</event>
<event>
 7    1  0.4871930E-013  0.5052886E+02  0.7816164E-02  0.1300439E+00
        -11   -1    0    0    0    0  0.00000000000E+00  0.00000000000E+00  0.45593999997E+02  0.45594000000E+02  0.51100000000E-03 0.  1.
         11   -1    0    0    0    0 -0.00000000000E+00 -0.00000000000E+00 -0.45593999997E+02  0.45594000000E+02  0.51100000000E-03 0. -1.
    9900012    2    1    2    0    0 -0.18384860587E+02  0.20612465418E+02 -0.29837702580E+02  0.50528864192E+02  0.30000013197E+02 0.  0.
         12    1    1    2    0    0  0.18384860587E+02 -0.20612465418E+02  0.29837702580E+02  0.40659135808E+02  0.00000000000E+00 0. -1.
         11    1    3    3    0    0 -0.10559780802E+01  0.18499360589E+02 -0.14151581844E+02  0.23315417665E+02  0.51100000000E-03 0.  1.
        -11    1    3    3    0    0 -0.63078775927E+01  0.54406006559E+00 -0.14738746425E+02  0.16041071271E+02  0.51100000000E-03 0. -1.
        -12    1    3    3    0    0 -0.11021004914E+02  0.15690447627E+01 -0.94737431116E+00  0.11172375256E+02  0.00000000000E+00 0.  1.
</event>
<event>
 7    1  0.4871930E-013  0.5052887E+02  0.7816164E-02  0.1300439E+00
        -11   -1    0    0    0    0  0.00000000000E+00  0.00000000000E+00  0.45593999997E+02  0.45594000000E+02  0.51100000000E-03 0. -1.
         11   -1    0    0    0    0 -0.00000000000E+00 -0.00000000000E+00 -0.45593999997E+02  0.45594000000E+02  0.51100000000E-03 0.  1.
    9900012    2    1    2    0    0  0.20074312234E+02 -0.32186768610E+02 -0.14635532027E+02  0.50528869624E+02  0.30000029709E+02 0.  0.
         12    1    1    2    0    0 -0.20074312234E+02  0.32186768610E+02  0.14635532027E+02  0.40659130376E+02  0.00000000000E+00 0. -1.
         11    1    3    3    0    0  0.54093889949E+01 -0.61327188925E+01 -0.72916254789E+01  0.10956255414E+02  0.51100000000E-03 0. -1.
        -11    1    3    3    0    0  0.13972494744E+02 -0.30545395087E+02 -0.89353186071E+01  0.34757613400E+02  0.51100000000E-03 0.  1.
         12    1    3    3    0    0  0.69242849523E+00  0.44913453701E+01  0.15914120589E+01  0.48150008096E+01  0.00000000000E+00 0. -1.
</event>
<event>
 7    1  0.4871930E-013  0.5052873E+02  0.7816164E-02  0.1300439E+00
        -11   -1    0    0    0    0  0.00000000000E+00  0.00000000000E+00  0.45593999997E+02  0.45594000000E+02  0.51100000000E-03 0.  1.
         11   -1    0    0    0    0 -0.00000000000E+00 -0.00000000000E+00 -0.45593999997E+02  0.45594000000E+02  0.51100000000E-03 0. -1.
    9900012    2    1    2    0    0  0.14916108084E+02 -0.26723584739E+02  0.26768190864E+02  0.50528729178E+02  0.29999602806E+02 0.  0.
         12    1    1    2    0    0 -0.14916108084E+02  0.26723584739E+02 -0.26768190864E+02  0.40659270822E+02  0.00000000000E+00 0. -1.
         11    1    3    3    0    0  0.13742073581E+02 -0.73563562731E+01 -0.11193898948E+01  0.15627334959E+02  0.51100000000E-03 0. -1.
        -11    1    3    3    0    0 -0.15970926922E+01 -0.53331281761E+01  0.33468602509E+01  0.64957243638E+01  0.51100000000E-03 0.  1.
        -12    1    3    3    0    0  0.27711271958E+01 -0.14034100290E+02  0.24540720507E+02  0.28405669855E+02  0.00000000000E+00 0.  1.
</event>
<event>
 7    1  0.4871930E-013  0.5052887E+02  0.7816164E-02  0.1300439E+00
        -11   -1    0    0    0    0  0.00000000000E+00  0.00000000000E+00  0.45593999997E+02  0.45594000000E+02  0.51100000000E-03 0. -1.
         11   -1    0    0    0    0 -0.00000000000E+00 -0.00000000000E+00 -0.45593999997E+02  0.45594000000E+02  0.51100000000E-03 0.  1.
    9900012    2    1    2    0    0  0.40188831709E+01  0.19771006727E+02 -0.35300440091E+02  0.50528865730E+02  0.30000017874E+02 0.  0.
         12    1    1    2    0    0 -0.40188831709E+01 -0.19771006727E+02  0.35300440091E+02  0.40659134270E+02  0.00000000000E+00 0. -1.
         11    1    3    3    0    0 -0.79829941459E+01  0.13903878153E+01 -0.40667839818E+01  0.90664274125E+01  0.51100000000E-03 0. -1.
        -11    1    3    3    0    0 -0.19786646632E+01  0.40503873543E+01 -0.15075616401E+02  0.15735150514E+02  0.51100000000E-03 0.  1.
         12    1    3    3    0    0  0.13980541980E+02  0.14330231557E+02 -0.16158039708E+02  0.25727287804E+02  0.00000000000E+00 0. -1.
</event>
<event>
 7    1  0.4871930E-013  0.5052886E+02  0.7816164E-02  0.1300439E+00
        -11   -1    0    0    0    0  0.00000000000E+00  0.00000000000E+00  0.45593999997E+02  0.45594000000E+02  0.51100000000E-03 0.  1.
         11   -1    0    0    0    0 -0.00000000000E+00 -0.00000000000E+00 -0.45593999997E+02  0.45594000000E+02  0.51100000000E-03 0. -1.
    9900012    2    1    2    0    0 -0.23806257894E+02  0.10321590921E+02  0.31303230673E+02  0.50528863209E+02  0.30000010210E+02 0.  0.
         12    1    1    2    0    0  0.23806257894E+02 -0.10321590921E+02 -0.31303230673E+02  0.40659136791E+02  0.00000000000E+00 0. -1.
         11    1    3    3    0    0  0.41200058498E+01  0.68564067412E+00 -0.20003595707E+01  0.46309815384E+01  0.51100000000E-03 0. -1.
        -11    1    3    3    0    0 -0.17244290706E+02  0.21888284844E+01  0.12713802548E+02  0.21535953835E+02  0.51100000000E-03 0.  1.
        -12    1    3    3    0    0 -0.10681973037E+02  0.74471217627E+01  0.20589787695E+02  0.24361927835E+02  0.00000000000E+00 0.  1.
</event>
<event>
 7    1  0.4871930E-013  0.5052887E+02  0.7816164E-02  0.1300439E+00
        -11   -1    0    0    0    0  0.00000000000E+00  0.00000000000E+00  0.45593999997E+02  0.45594000000E+02  0.51100000000E-03 0.  1.
         11   -1    0    0    0    0 -0.00000000000E+00 -0.00000000000E+00 -0.45593999997E+02  0.45594000000E+02  0.51100000000E-03 0. -1.
    9900012    2    1    2    0    0  0.37446664715E+02 -0.74607617136E+01 -0.13973156278E+02  0.50528871136E+02  0.30000034305E+02 0.  0.
         12    1    1    2    0    0 -0.37446664715E+02  0.74607617136E+01  0.13973156278E+02  0.40659128864E+02  0.00000000000E+00 0. -1.
         11    1    3    3    0    0  0.66348046064E+01  0.27810157557E+01  0.54518405458E+01  0.90264747491E+01  0.51100000000E-03 0. -1.
        -11    1    3    3    0    0  0.28172560461E+02 -0.24166825392E+01 -0.13466581949E+02  0.31319041285E+02  0.51100000000E-03 0.  1.
        -12    1    3    3    0    0  0.26392996477E+01 -0.78250949302E+01 -0.59584148754E+01  0.10183355102E+02  0.00000000000E+00 0.  1.
</event>
<event>
 7    1  0.4871930E-013  0.5052887E+02  0.7816164E-02  0.1300439E+00
        -11   -1    0    0    0    0  0.00000000000E+00  0.00000000000E+00  0.45593999997E+02  0.45594000000E+02  0.51100000000E-03 0.  1.
         11   -1    0    0    0    0 -0.00000000000E+00 -0.00000000000E+00 -0.45593999997E+02  0.45594000000E+02  0.51100000000E-03 0. -1.
    9900012    2    1    2    0    0  0.37100457890E+02  0.68705697510E+01  0.15149781722E+02  0.50528873219E+02  0.30000040636E+02 0.  0.
         12    1    1    2    0    0 -0.37100457890E+02 -0.68705697510E+01 -0.15149781722E+02  0.40659126781E+02  0.00000000000E+00 0. -1.
         11    1    3    3    0    0 -0.18991830789E+01 -0.13383899808E+01  0.75516637256E+00  0.24430433110E+01  0.51100000000E-03 0. -1.
        -11    1    3    3    0    0  0.14109574618E+02  0.79118911269E-01  0.16626680522E+02  0.21806715965E+02  0.51100000000E-03 0.  1.
        -12    1    3    3    0    0  0.24890066351E+02  0.81298408206E+01 -0.22320651729E+01  0.26279113943E+02  0.00000000000E+00 0.  1.
</event>
<event>
 7    1  0.7127287E-013  0.5052885E+02  0.7816164E-02  0.1300439E+00
        -11   -1    0    0    0    0  0.00000000000E+00  0.00000000000E+00  0.45593999997E+02  0.45594000000E+02  0.51100000000E-03 0. -1.
         11   -1    0    0    0    0 -0.00000000000E+00 -0.00000000000E+00 -0.45593999997E+02  0.45594000000E+02  0.51100000000E-03 0.  1.
    9900012    2    1    2    0    0 -0.27953739802E+02 -0.28216548917E+02  0.86937501928E+01  0.50528849810E+02  0.29999969484E+02 0.  0.
         12    1    1    2    0    0  0.27953739802E+02  0.28216548917E+02 -0.86937501928E+01  0.40659150190E+02  0.00000000000E+00 0. -1.
         11    1    3    3    0    0 -0.35429328575E+01  0.32734520761E+01  0.57808188403E+01  0.75289925257E+01  0.51100000000E-03 0. -1.
        -11    1    3    3    0    0 -0.14271817879E+02 -0.79477635440E+01  0.55006679014E+01  0.17236852339E+02  0.51100000000E-03 0.  1.
        -12    1    3    3    0    0 -0.10138989065E+02 -0.23542237450E+02 -0.25877365489E+01  0.25763004946E+02  0.00000000000E+00 0.  1.
</event>
<event>
 7    1  0.4871930E-013  0.5052887E+02  0.7816164E-02  0.1300439E+00
        -11   -1    0    0    0    0  0.00000000000E+00  0.00000000000E+00  0.45593999997E+02  0.45594000000E+02  0.51100000000E-03 0.  1.
         11   -1    0    0    0    0 -0.00000000000E+00 -0.00000000000E+00 -0.45593999997E+02  0.45594000000E+02  0.51100000000E-03 0. -1.
    9900012    2    1    2    0    0  0.36544110877E+02  0.10787086280E+02  0.14189129980E+02  0.50528872122E+02  0.30000037301E+02 0.  0.
         12    1    1    2    0    0 -0.36544110877E+02 -0.10787086280E+02 -0.14189129980E+02  0.40659127878E+02  0.00000000000E+00 0. -1.
         11    1    3    3    0    0 -0.98573441586E+00  0.14631191794E+00 -0.35769505155E+01  0.37131731400E+01  0.51100000000E-03 0.  1.
        -11    1    3    3    0    0  0.15354692374E+02 -0.50168566128E+01  0.60472890593E+01  0.17248337120E+02  0.51100000000E-03 0. -1.
        -12    1    3    3    0    0  0.22175152919E+02  0.15657630975E+02  0.11718791437E+02  0.29567361862E+02  0.00000000000E+00 0.  1.
</event>
<event>
 7    1  0.4871930E-013  0.5052886E+02  0.7816164E-02  0.1300439E+00
        -11   -1    0    0    0    0  0.00000000000E+00  0.00000000000E+00  0.45593999997E+02  0.45594000000E+02  0.51100000000E-03 0. -1.
         11   -1    0    0    0    0 -0.00000000000E+00 -0.00000000000E+00 -0.45593999997E+02  0.45594000000E+02  0.51100000000E-03 0.  1.
    9900012    2    1    2    0    0  0.73352952546E+01  0.34943268755E+02 -0.19450630615E+02  0.50528860572E+02  0.30000002193E+02 0.  0.
         12    1    1    2    0    0 -0.73352952546E+01 -0.34943268755E+02  0.19450630615E+02  0.40659139428E+02  0.00000000000E+00 0. -1.
         11    1    3    3    0    0  0.90558352756E+01  0.58648978938E+01 -0.65911220472E+01  0.12643103652E+02  0.51100000000E-03 0. -1.
        -11    1    3    3    0    0  0.70446947418E+01  0.23169522805E+02 -0.12629757912E+02  0.27312365262E+02  0.51100000000E-03 0.  1.
        -12    1    3    3    0    0 -0.87652347628E+01  0.59088480554E+01 -0.22975065663E+00  0.10573391658E+02  0.00000000000E+00 0.  1.
</event>
<event>
 7    1  0.4871930E-013  0.5052881E+02  0.7816164E-02  0.1300439E+00
        -11   -1    0    0    0    0  0.00000000000E+00  0.00000000000E+00  0.45593999997E+02  0.45594000000E+02  0.51100000000E-03 0.  1.
         11   -1    0    0    0    0 -0.00000000000E+00 -0.00000000000E+00 -0.45593999997E+02  0.45594000000E+02  0.51100000000E-03 0. -1.
    9900012    2    1    2    0    0 -0.16459935683E+02  0.82350432347E+01  0.36254984823E+02  0.50528814761E+02  0.29999862948E+02 0.  0.
         12    1    1    2    0    0  0.16459935683E+02 -0.82350432347E+01 -0.36254984823E+02  0.40659185239E+02  0.00000000000E+00 0. -1.
         11    1    3    3    0    0 -0.21488795697E+01 -0.26231111830E+01  0.10307516637E+02  0.10850958260E+02  0.51100000000E-03 0. -1.
        -11    1    3    3    0    0 -0.20283871623E+02  0.12496147783E+02  0.20653035489E+02  0.31529938671E+02  0.51100000000E-03 0.  1.
         12    1    3    3    0    0  0.59728155097E+01 -0.16379933651E+01  0.52944326964E+01  0.81479178294E+01  0.00000000000E+00 0. -1.
</event>
<event>
 7    1  0.4871930E-013  0.5052886E+02  0.7816164E-02  0.1300439E+00
        -11   -1    0    0    0    0  0.00000000000E+00  0.00000000000E+00  0.45593999997E+02  0.45594000000E+02  0.51100000000E-03 0. -1.
         11   -1    0    0    0    0 -0.00000000000E+00 -0.00000000000E+00 -0.45593999997E+02  0.45594000000E+02  0.51100000000E-03 0.  1.
    9900012    2    1    2    0    0 -0.39904331561E+02  0.70077503537E+01  0.34207294410E+01  0.50528860409E+02  0.30000001699E+02 0.  0.
         12    1    1    2    0    0  0.39904331561E+02 -0.70077503537E+01 -0.34207294410E+01  0.40659139591E+02  0.00000000000E+00 0. -1.
         11    1    3    3    0    0 -0.17906579933E+02 -0.43266271775E+01  0.32523983297E+01  0.18706774249E+02  0.51100000000E-03 0. -1.
        -11    1    3    3    0    0  0.85539738175E+00  0.20169175135E+01 -0.59965127816E+01  0.63841856754E+01  0.51100000000E-03 0.  1.
         12    1    3    3    0    0 -0.22853149010E+02  0.93174600178E+01  0.61648438930E+01  0.25437900485E+02  0.00000000000E+00 0. -1.
</event>
<event>
 7    1  0.4871930E-013  0.5052887E+02  0.7816164E-02  0.1300439E+00
        -11   -1    0    0    0    0  0.00000000000E+00  0.00000000000E+00  0.45593999997E+02  0.45594000000E+02  0.51100000000E-03 0.  1.
         11   -1    0    0    0    0 -0.00000000000E+00 -0.00000000000E+00 -0.45593999997E+02  0.45594000000E+02  0.51100000000E-03 0. -1.
    9900012    2    1    2    0    0 -0.24156106186E+02 -0.31830708671E+02  0.75135422626E+01  0.50528870669E+02  0.30000032886E+02 0.  0.
         12    1    1    2    0    0  0.24156106186E+02  0.31830708671E+02 -0.75135422626E+01  0.40659129331E+02  0.00000000000E+00 0. -1.
         11    1    3    3    0    0 -0.13281830793E+02 -0.15087713646E+02 -0.92186542322E+01  0.22114016333E+02  0.51100000000E-03 0. -1.
        -11    1    3    3    0    0 -0.96582063249E+01 -0.46302958392E+01  0.66405977349E+01  0.12602306436E+02  0.51100000000E-03 0.  1.
        -12    1    3    3    0    0 -0.12160690683E+01 -0.12112699186E+02  0.10091598760E+02  0.15812547900E+02  0.00000000000E+00 0.  1.
</event>
<event>
 7    1  0.4871930E-013  0.5052887E+02  0.7816164E-02  0.1300439E+00
        -11   -1    0    0    0    0  0.00000000000E+00  0.00000000000E+00  0.45593999997E+02  0.45594000000E+02  0.51100000000E-03 0.  1.
         11   -1    0    0    0    0 -0.00000000000E+00 -0.00000000000E+00 -0.45593999997E+02  0.45594000000E+02  0.51100000000E-03 0. -1.
    9900012    2    1    2    0    0  0.10182057774E+02 -0.64357442624E+01  0.38833897632E+02  0.50528871750E+02  0.30000036172E+02 0.  0.
         12    1    1    2    0    0 -0.10182057774E+02  0.64357442624E+01 -0.38833897632E+02  0.40659128250E+02  0.00000000000E+00 0. -1.
         11    1    3    3    0    0  0.39894577840E+01  0.40318363029E+01  0.10347020192E+02  0.11799673915E+02  0.51100000000E-03 0. -1.
        -11    1    3    3    0    0  0.57985066099E+01 -0.10004476117E+02  0.32590323416E+02  0.34580939864E+02  0.51100000000E-03 0.  1.
        -12    1    3    3    0    0  0.39409337998E+00 -0.46310444849E+00 -0.41034459755E+01  0.41482579713E+01  0.00000000000E+00 0.  1.
</event>
<event>
 7    1  0.4871930E-013  0.5052891E+02  0.7816164E-02  0.1300439E+00
        -11   -1    0    0    0    0  0.00000000000E+00  0.00000000000E+00  0.45593999997E+02  0.45594000000E+02  0.51100000000E-03 0.  1.
         11   -1    0    0    0    0 -0.00000000000E+00 -0.00000000000E+00 -0.45593999997E+02  0.45594000000E+02  0.51100000000E-03 0. -1.
    9900012    2    1    2    0    0 -0.64978500906E+01 -0.26847178604E+02  0.29835692555E+02  0.50528909934E+02  0.30000152235E+02 0.  0.
         12    1    1    2    0    0  0.64978500906E+01  0.26847178604E+02 -0.29835692555E+02  0.40659090066E+02  0.00000000000E+00 0. -1.
         11    1    3    3    0    0 -0.44232420034E+01 -0.42450980052E+01  0.18393706625E+02  0.19388511303E+02  0.51100000000E-03 0. -1.
        -11    1    3    3    0    0 -0.99688765186E+01 -0.10214216898E+02  0.56740441531E+01  0.15359150471E+02  0.51100000000E-03 0.  1.
        -12    1    3    3    0    0  0.78942684314E+01 -0.12387863701E+02  0.57679417766E+01  0.15781248160E+02  0.00000000000E+00 0.  1.
</event>
<event>
 7    1  0.4871930E-013  0.5052886E+02  0.7816164E-02  0.1300439E+00
        -11   -1    0    0    0    0  0.00000000000E+00  0.00000000000E+00  0.45593999997E+02  0.45594000000E+02  0.51100000000E-03 0.  1.
         11   -1    0    0    0    0 -0.00000000000E+00 -0.00000000000E+00 -0.45593999997E+02  0.45594000000E+02  0.51100000000E-03 0. -1.
    9900012    2    1    2    0    0 -0.31183701735E+02  0.45110743047E+01 -0.25698102891E+02  0.50528861575E+02  0.30000005244E+02 0.  0.
         12    1    1    2    0    0  0.31183701735E+02 -0.45110743047E+01  0.25698102891E+02  0.40659138425E+02  0.00000000000E+00 0. -1.
         11    1    3    3    0    0 -0.14601046921E+02 -0.60550653380E+01 -0.11797255917E+02  0.19723834183E+02  0.51100000000E-03 0. -1.
        -11    1    3    3    0    0 -0.15099576918E+02  0.32561738526E+01 -0.48403240834E+00  0.15454260865E+02  0.51100000000E-03 0.  1.
         12    1    3    3    0    0 -0.14830778959E+01  0.73099657901E+01 -0.13416814565E+02  0.15350766527E+02  0.00000000000E+00 0. -1.
</event>
<event>
 7    1  0.4871930E-013  0.5052886E+02  0.7816164E-02  0.1300439E+00
        -11   -1    0    0    0    0  0.00000000000E+00  0.00000000000E+00  0.45593999997E+02  0.45594000000E+02  0.51100000000E-03 0. -1.
         11   -1    0    0    0    0 -0.00000000000E+00 -0.00000000000E+00 -0.45593999997E+02  0.45594000000E+02  0.51100000000E-03 0.  1.
    9900012    2    1    2    0    0 -0.99262067946E+01  0.18124881373E+02 -0.35016062061E+02  0.50528861933E+02  0.30000006331E+02 0.  0.
         12    1    1    2    0    0  0.99262067946E+01 -0.18124881373E+02  0.35016062061E+02  0.40659138067E+02  0.00000000000E+00 0. -1.
         11    1    3    3    0    0 -0.11931344880E+02  0.37477838056E+01 -0.22656610358E+02  0.25879043013E+02  0.51100000000E-03 0.  1.
        -11    1    3    3    0    0 -0.61116650401E+01  0.32759342277E+01 -0.14218443203E+01  0.70785476023E+01  0.51100000000E-03 0. -1.
        -12    1    3    3    0    0  0.81168031252E+01  0.11101163339E+02 -0.10937607383E+02  0.17571271318E+02  0.00000000000E+00 0.  1.
</event>
<event>
 7    1  0.4871930E-013  0.5052886E+02  0.7816164E-02  0.1300439E+00
        -11   -1    0    0    0    0  0.00000000000E+00  0.00000000000E+00  0.45593999997E+02  0.45594000000E+02  0.51100000000E-03 0.  1.
         11   -1    0    0    0    0 -0.00000000000E+00 -0.00000000000E+00 -0.45593999997E+02  0.45594000000E+02  0.51100000000E-03 0. -1.
    9900012    2    1    2    0    0 -0.18305620723E+02  0.76936404489E+01  0.35480667338E+02  0.50528860705E+02  0.30000002599E+02 0.  0.
         12    1    1    2    0    0  0.18305620723E+02 -0.76936404489E+01 -0.35480667338E+02  0.40659139295E+02  0.00000000000E+00 0. -1.
         11    1    3    3    0    0 -0.18060073221E+02  0.20163480789E+01  0.17555324223E+02  0.25267000478E+02  0.51100000000E-03 0. -1.
        -11    1    3    3    0    0 -0.63996095764E+01  0.80050921701E+01  0.14737225736E+02  0.17950552248E+02  0.51100000000E-03 0.  1.
         12    1    3    3    0    0  0.61540620744E+01 -0.23277998001E+01  0.31881173799E+01  0.73113079783E+01  0.00000000000E+00 0. -1.
</event>
<event>
 7    1  0.4871930E-013  0.5052887E+02  0.7816164E-02  0.1300439E+00
        -11   -1    0    0    0    0  0.00000000000E+00  0.00000000000E+00  0.45593999997E+02  0.45594000000E+02  0.51100000000E-03 0.  1.
         11   -1    0    0    0    0 -0.00000000000E+00 -0.00000000000E+00 -0.45593999997E+02  0.45594000000E+02  0.51100000000E-03 0. -1.
    9900012    2    1    2    0    0 -0.15566078521E+02  0.52432508200E+01  0.37193691023E+02  0.50528866566E+02  0.30000020413E+02 0.  0.
         12    1    1    2    0    0  0.15566078521E+02 -0.52432508200E+01 -0.37193691023E+02  0.40659133434E+02  0.00000000000E+00 0. -1.
         11    1    3    3    0    0  0.31002884550E+01 -0.21368107022E+01  0.32122218106E+00  0.37790120973E+01  0.51100000000E-03 0. -1.
        -11    1    3    3    0    0 -0.19836280683E+02  0.26905901101E+01  0.16890656523E+02  0.26191822856E+02  0.51100000000E-03 0.  1.
         12    1    3    3    0    0  0.11699137071E+01  0.46894714121E+01  0.19981812319E+02  0.20558031612E+02  0.00000000000E+00 0. -1.
</event>
<event>
 7    1  0.4871930E-013  0.5052883E+02  0.7816164E-02  0.1300439E+00
        -11   -1    0    0    0    0  0.00000000000E+00  0.00000000000E+00  0.45593999997E+02  0.45594000000E+02  0.51100000000E-03 0. -1.
         11   -1    0    0    0    0 -0.00000000000E+00 -0.00000000000E+00 -0.45593999997E+02  0.45594000000E+02  0.51100000000E-03 0.  1.
    9900012    2    1    2    0    0  0.13022854809E+02  0.11294628439E+02 -0.36823965187E+02  0.50528833862E+02  0.29999921007E+02 0.  0.
         12    1    1    2    0    0 -0.13022854809E+02 -0.11294628439E+02  0.36823965187E+02  0.40659166138E+02  0.00000000000E+00 0. -1.
         11    1    3    3    0    0  0.19355513122E+01  0.53409534940E+01 -0.15898538739E+02  0.16882999657E+02  0.51100000000E-03 0.  1.
        -11    1    3    3    0    0 -0.62457062201E+01  0.64024750822E+01 -0.60268055242E+01  0.10785310309E+02  0.51100000000E-03 0. -1.
         12    1    3    3    0    0  0.17333009717E+02 -0.44880013766E+00 -0.14898620924E+02  0.22860523897E+02  0.00000000000E+00 0. -1.
</event>
<event>
 7    1  0.4871930E-013  0.5052887E+02  0.7816164E-02  0.1300439E+00
        -11   -1    0    0    0    0  0.00000000000E+00  0.00000000000E+00  0.45593999997E+02  0.45594000000E+02  0.51100000000E-03 0.  1.
         11   -1    0    0    0    0 -0.00000000000E+00 -0.00000000000E+00 -0.45593999997E+02  0.45594000000E+02  0.51100000000E-03 0. -1.
    9900012    2    1    2    0    0 -0.48301691677E+01 -0.35213408286E+02  0.19744625720E+02  0.50528869388E+02  0.30000028993E+02 0.  0.
         12    1    1    2    0    0  0.48301691677E+01  0.35213408286E+02 -0.19744625720E+02  0.40659130612E+02  0.00000000000E+00 0. -1.
         11    1    3    3    0    0  0.40085995899E+01 -0.11168481181E+02  0.90654145515E+01  0.14932701826E+02  0.51100000000E-03 0. -1.
        -11    1    3    3    0    0 -0.10929514284E+02 -0.24818638112E+02  0.26321908891E+01  0.27246054932E+02  0.51100000000E-03 0.  1.
         12    1    3    3    0    0  0.20907455263E+01  0.77371100732E+00  0.80470202790E+01  0.83501126309E+01  0.00000000000E+00 0. -1.
</event>
<event>
 7    1  0.4871930E-013  0.5052886E+02  0.7816164E-02  0.1300439E+00
        -11   -1    0    0    0    0  0.00000000000E+00  0.00000000000E+00  0.45593999997E+02  0.45594000000E+02  0.51100000000E-03 0. -1.
         11   -1    0    0    0    0 -0.00000000000E+00 -0.00000000000E+00 -0.45593999997E+02  0.45594000000E+02  0.51100000000E-03 0.  1.
    9900012    2    1    2    0    0  0.10000319492E+02  0.25245598192E+02 -0.30262501870E+02  0.50528860345E+02  0.30000001505E+02 0.  0.
         12    1    1    2    0    0 -0.10000319492E+02 -0.25245598192E+02  0.30262501870E+02  0.40659139655E+02  0.00000000000E+00 0. -1.
         11    1    3    3    0    0 -0.34615294626E+01  0.12529093154E+02 -0.54963697066E+01  0.14112775832E+02  0.51100000000E-03 0. -1.
        -11    1    3    3    0    0  0.83758505940E+01  0.16779166729E+02 -0.22989872968E+02  0.29668663075E+02  0.51100000000E-03 0.  1.
        -12    1    3    3    0    0  0.50859983602E+01 -0.40626616909E+01 -0.17762591956E+01  0.67474214382E+01  0.00000000000E+00 0.  1.
</event>
<event>
 7    1  0.4871930E-013  0.5052886E+02  0.7816164E-02  0.1300439E+00
        -11   -1    0    0    0    0  0.00000000000E+00  0.00000000000E+00  0.45593999997E+02  0.45594000000E+02  0.51100000000E-03 0.  1.
         11   -1    0    0    0    0 -0.00000000000E+00 -0.00000000000E+00 -0.45593999997E+02  0.45594000000E+02  0.51100000000E-03 0. -1.
    9900012    2    1    2    0    0 -0.20857259112E+02 -0.13237999884E+02  0.32293894078E+02  0.50528862118E+02  0.30000006894E+02 0.  0.
         12    1    1    2    0    0  0.20857259112E+02  0.13237999884E+02 -0.32293894078E+02  0.40659137882E+02  0.00000000000E+00 0. -1.
         11    1    3    3    0    0  0.60059103383E+01 -0.59317750680E+01  0.11125986095E+02  0.13965832639E+02  0.51100000000E-03 0. -1.
        -11    1    3    3    0    0 -0.52286867513E+01 -0.35425029952E+01  0.10249167758E+02  0.12038850967E+02  0.51100000000E-03 0.  1.
        -12    1    3    3    0    0 -0.21634482699E+02 -0.37637218210E+01  0.10918740225E+02  0.24524178512E+02  0.00000000000E+00 0.  1.
</event>
<event>
 7    1  0.4871930E-013  0.5052885E+02  0.7816164E-02  0.1300439E+00
        -11   -1    0    0    0    0  0.00000000000E+00  0.00000000000E+00  0.45593999997E+02  0.45594000000E+02  0.51100000000E-03 0.  1.
         11   -1    0    0    0    0 -0.00000000000E+00 -0.00000000000E+00 -0.45593999997E+02  0.45594000000E+02  0.51100000000E-03 0. -1.
    9900012    2    1    2    0    0  0.15706905823E+02  0.37495440420E+02 -0.74259684955E+00  0.50528851056E+02  0.29999973269E+02 0.  0.
         12    1    1    2    0    0 -0.15706905823E+02 -0.37495440420E+02  0.74259684955E+00  0.40659148944E+02  0.00000000000E+00 0. -1.
         11    1    3    3    0    0  0.12801395231E+01 -0.16728977586E+01 -0.93598027202E+00  0.23050820897E+01  0.51100000000E-03 0. -1.
        -11    1    3    3    0    0  0.15997108080E+02  0.13801852720E+02  0.63726996742E+01  0.22068300950E+02  0.51100000000E-03 0.  1.
        -12    1    3    3    0    0 -0.15703417798E+01  0.25366485458E+02 -0.61793162517E+01  0.26155468016E+02  0.00000000000E+00 0.  1.
</event>
<event>
 7    1  0.5996064E-013  0.5052886E+02  0.7816164E-02  0.1300439E+00
        -11   -1    0    0    0    0  0.00000000000E+00  0.00000000000E+00  0.45593999997E+02  0.45594000000E+02  0.51100000000E-03 0. -1.
         11   -1    0    0    0    0 -0.00000000000E+00 -0.00000000000E+00 -0.45593999997E+02  0.45594000000E+02  0.51100000000E-03 0.  1.
    9900012    2    1    2    0    0  0.16358140739E+01  0.20479026870E+02 -0.35087026610E+02  0.50528857540E+02  0.29999992979E+02 0.  0.
         12    1    1    2    0    0 -0.16358140739E+01 -0.20479026870E+02  0.35087026610E+02  0.40659142460E+02  0.00000000000E+00 0. -1.
         11    1    3    3    0    0 -0.33924790420E+01  0.74000919499E+00  0.10321045403E+01  0.36223980596E+01  0.51100000000E-03 0. -1.
        -11    1    3    3    0    0 -0.35755235865E+01  0.18541880594E+02 -0.15151410631E+02  0.24210554501E+02  0.51100000000E-03 0.  1.
        -12    1    3    3    0    0  0.86038167024E+01  0.11971370804E+01 -0.20967720519E+02  0.22695904979E+02  0.00000000000E+00 0.  1.
</event>
<event>
 7    1  0.4871930E-013  0.5052886E+02  0.7816164E-02  0.1300439E+00
        -11   -1    0    0    0    0  0.00000000000E+00  0.00000000000E+00  0.45593999997E+02  0.45594000000E+02  0.51100000000E-03 0.  1.
         11   -1    0    0    0    0 -0.00000000000E+00 -0.00000000000E+00 -0.45593999997E+02  0.45594000000E+02  0.51100000000E-03 0. -1.
    9900012    2    1    2    0    0  0.12256288025E+01 -0.39298699800E+02  0.10357417419E+02  0.50528855056E+02  0.29999985429E+02 0.  0.
         12    1    1    2    0    0 -0.12256288025E+01  0.39298699800E+02 -0.10357417419E+02  0.40659144944E+02  0.00000000000E+00 0. -1.
         11    1    3    3    0    0 -0.23245933805E+01 -0.59070747267E+01 -0.24431522481E+01  0.68019305627E+01  0.51100000000E-03 0. -1.
        -11    1    3    3    0    0 -0.45131601114E+01 -0.33195105758E+02  0.12146968247E+02  0.35634709180E+02  0.51100000000E-03 0.  1.
         12    1    3    3    0    0  0.80633822944E+01 -0.19651931530E+00  0.65360142026E+00  0.80922153137E+01  0.00000000000E+00 0. -1.
</event>
<event>
 7    1  0.4871930E-013  0.5052887E+02  0.7816164E-02  0.1300439E+00
        -11   -1    0    0    0    0  0.00000000000E+00  0.00000000000E+00  0.45593999997E+02  0.45594000000E+02  0.51100000000E-03 0. -1.
         11   -1    0    0    0    0 -0.00000000000E+00 -0.00000000000E+00 -0.45593999997E+02  0.45594000000E+02  0.51100000000E-03 0.  1.
    9900012    2    1    2    0    0 -0.61719771836E+01 -0.55763458450E+01 -0.39799198990E+02  0.50528866025E+02  0.30000018770E+02 0.  0.
         12    1    1    2    0    0  0.61719771836E+01  0.55763458450E+01  0.39799198990E+02  0.40659133975E+02  0.00000000000E+00 0. -1.
         11    1    3    3    0    0 -0.17290611517E+01 -0.14891944423E+02 -0.88400955382E+01  0.17404222204E+02  0.51100000000E-03 0. -1.
        -11    1    3    3    0    0 -0.33262167213E+01  0.19004873418E+01 -0.15156302032E+02  0.15632947942E+02  0.51100000000E-03 0.  1.
        -12    1    3    3    0    0 -0.11166993107E+01  0.74151112359E+01 -0.15802801420E+02  0.17491695878E+02  0.00000000000E+00 0.  1.
</event>
<event>
 7    1  0.4871930E-013  0.5052886E+02  0.7816164E-02  0.1300439E+00
        -11   -1    0    0    0    0  0.00000000000E+00  0.00000000000E+00  0.45593999997E+02  0.45594000000E+02  0.51100000000E-03 0.  1.
         11   -1    0    0    0    0 -0.00000000000E+00 -0.00000000000E+00 -0.45593999997E+02  0.45594000000E+02  0.51100000000E-03 0. -1.
    9900012    2    1    2    0    0 -0.26678815952E+02  0.28501510374E+02  0.11360896154E+02  0.50528864795E+02  0.30000015031E+02 0.  0.
         12    1    1    2    0    0  0.26678815952E+02 -0.28501510374E+02 -0.11360896154E+02  0.40659135205E+02  0.00000000000E+00 0. -1.
         11    1    3    3    0    0 -0.14475574495E+02  0.13560964591E+02  0.14825470756E+01  0.19890700433E+02  0.51100000000E-03 0.  1.
        -11    1    3    3    0    0 -0.96002011154E+01  0.94888301534E+01 -0.51450958882E+01  0.14445545026E+02  0.51100000000E-03 0. -1.
        -12    1    3    3    0    0 -0.26030403410E+01  0.54517156297E+01  0.15023444966E+02  0.16192619337E+02  0.00000000000E+00 0.  1.
</event>
<event>
 7    1  0.4871930E-013  0.5052885E+02  0.7816164E-02  0.1300439E+00
        -11   -1    0    0    0    0  0.00000000000E+00  0.00000000000E+00  0.45593999997E+02  0.45594000000E+02  0.51100000000E-03 0. -1.
         11   -1    0    0    0    0 -0.00000000000E+00 -0.00000000000E+00 -0.45593999997E+02  0.45594000000E+02  0.51100000000E-03 0.  1.
    9900012    2    1    2    0    0  0.23846123733E+02  0.20564745211E+02 -0.25721980247E+02  0.50528848134E+02  0.29999964387E+02 0.  0.
         12    1    1    2    0    0 -0.23846123733E+02 -0.20564745211E+02  0.25721980247E+02  0.40659151866E+02  0.00000000000E+00 0. -1.
         11    1    3    3    0    0 -0.16941741982E+01  0.10251727278E+01 -0.79963391973E+01  0.82378787412E+01  0.51100000000E-03 0. -1.
        -11    1    3    3    0    0  0.15399103787E+02  0.14395941065E+02 -0.21692378951E+02  0.30247889536E+02  0.51100000000E-03 0.  1.
         12    1    3    3    0    0  0.10141194144E+02  0.51436314179E+01  0.39667379017E+01  0.12043079856E+02  0.00000000000E+00 0. -1.
</event>
<event>
 7    1  0.4871930E-013  0.5052884E+02  0.7816164E-02  0.1300439E+00
        -11   -1    0    0    0    0  0.00000000000E+00  0.00000000000E+00  0.45593999997E+02  0.45594000000E+02  0.51100000000E-03 0.  1.
         11   -1    0    0    0    0 -0.00000000000E+00 -0.00000000000E+00 -0.45593999997E+02  0.45594000000E+02  0.51100000000E-03 0. -1.
    9900012    2    1    2    0    0  0.21109347076E+02  0.34738908220E+02  0.87807691079E+00  0.50528839933E+02  0.29999939459E+02 0.  0.
         12    1    1    2    0    0 -0.21109347076E+02 -0.34738908220E+02 -0.87807691079E+00  0.40659160067E+02  0.00000000000E+00 0. -1.
         11    1    3    3    0    0  0.19602181534E+02  0.17783589299E+02  0.31799404494E+01  0.26657336528E+02  0.51100000000E-03 0. -1.
        -11    1    3    3    0    0  0.11873485916E+01  0.75118703498E+01  0.71989530565E+01  0.10472006408E+02  0.51100000000E-03 0.  1.
         12    1    3    3    0    0  0.31981695083E+00  0.94434485715E+01 -0.95008165952E+01  0.13399496997E+02  0.00000000000E+00 0. -1.
</event>
<event>
 7    1  0.4871930E-013  0.5052887E+02  0.7816164E-02  0.1300439E+00
        -11   -1    0    0    0    0  0.00000000000E+00  0.00000000000E+00  0.45593999997E+02  0.45594000000E+02  0.51100000000E-03 0.  1.
         11   -1    0    0    0    0 -0.00000000000E+00 -0.00000000000E+00 -0.45593999997E+02  0.45594000000E+02  0.51100000000E-03 0. -1.
    9900012    2    1    2    0    0  0.21032921972E+02 -0.92292412580E+01  0.33549992554E+02  0.50528871858E+02  0.30000036500E+02 0.  0.
         12    1    1    2    0    0 -0.21032921972E+02  0.92292412580E+01 -0.33549992554E+02  0.40659128142E+02  0.00000000000E+00 0. -1.
         11    1    3    3    0    0  0.39603820006E-01  0.23685622917E+01  0.52173250374E+01  0.57299333852E+01  0.51100000000E-03 0. -1.
        -11    1    3    3    0    0  0.11457892196E+02 -0.13901784408E+02  0.29857430583E+02  0.34871321521E+02  0.51100000000E-03 0.  1.
         12    1    3    3    0    0  0.95354259554E+01  0.23039808578E+01 -0.15247630668E+01  0.99276169524E+01  0.00000000000E+00 0. -1.
</event>
<event>
 7    1  0.4871930E-013  0.5052887E+02  0.7816164E-02  0.1300439E+00
        -11   -1    0    0    0    0  0.00000000000E+00  0.00000000000E+00  0.45593999997E+02  0.45594000000E+02  0.51100000000E-03 0.  1.
         11   -1    0    0    0    0 -0.00000000000E+00 -0.00000000000E+00 -0.45593999997E+02  0.45594000000E+02  0.51100000000E-03 0. -1.
    9900012    2    1    2    0    0  0.36420372557E+02 -0.10704149680E+02  0.14565102350E+02  0.50528873546E+02  0.30000041630E+02 0.  0.
         12    1    1    2    0    0 -0.36420372557E+02  0.10704149680E+02 -0.14565102350E+02  0.40659126454E+02  0.00000000000E+00 0. -1.
         11    1    3    3    0    0  0.19773952583E+02  0.31468031007E+01 -0.21773077140E+01  0.20140810302E+02  0.51100000000E-03 0. -1.
        -11    1    3    3    0    0  0.16062591172E+02 -0.82417708910E+01  0.74756727392E+01  0.19540197178E+02  0.51100000000E-03 0.  1.
        -12    1    3    3    0    0  0.58382880220E+00 -0.56091818898E+01  0.92667373246E+01  0.10847866066E+02  0.00000000000E+00 0.  1.
</event>
<event>
 7    1  0.4871930E-013  0.5052886E+02  0.7816164E-02  0.1300439E+00
        -11   -1    0    0    0    0  0.00000000000E+00  0.00000000000E+00  0.45593999997E+02  0.45594000000E+02  0.51100000000E-03 0.  1.
         11   -1    0    0    0    0 -0.00000000000E+00 -0.00000000000E+00 -0.45593999997E+02  0.45594000000E+02  0.51100000000E-03 0. -1.
    9900012    2    1    2    0    0 -0.38021458716E+02 -0.54856100880E+01  0.13320758976E+02  0.50528857601E+02  0.29999993165E+02 0.  0.
         12    1    1    2    0    0  0.38021458716E+02  0.54856100880E+01 -0.13320758976E+02  0.40659142399E+02  0.00000000000E+00 0. -1.
         11    1    3    3    0    0 -0.66048754719E+01 -0.18691065723E+01 -0.51025131265E+01  0.85529866038E+01  0.51100000000E-03 0. -1.
        -11    1    3    3    0    0 -0.26502361769E+02 -0.17046465949E+01  0.43034118097E+01  0.26903537923E+02  0.51100000000E-03 0.  1.
        -12    1    3    3    0    0 -0.49142214749E+01 -0.19118569208E+01  0.14119860293E+02  0.15072333074E+02  0.00000000000E+00 0.  1.
</event>
<event>
 7    1  0.4871930E-013  0.5052882E+02  0.7816164E-02  0.1300439E+00
        -11   -1    0    0    0    0  0.00000000000E+00  0.00000000000E+00  0.45593999997E+02  0.45594000000E+02  0.51100000000E-03 0. -1.
         11   -1    0    0    0    0 -0.00000000000E+00 -0.00000000000E+00 -0.45593999997E+02  0.45594000000E+02  0.51100000000E-03 0.  1.
    9900012    2    1    2    0    0 -0.21146864758E+02  0.17953901859E+02 -0.29726026412E+02  0.50528817430E+02  0.29999871059E+02 0.  0.
         12    1    1    2    0    0  0.21146864758E+02 -0.17953901859E+02  0.29726026412E+02  0.40659182570E+02  0.00000000000E+00 0. -1.
         11    1    3    3    0    0 -0.46962137132E+01 -0.42927268287E+01 -0.33846520830E+01  0.72067882479E+01  0.51100000000E-03 0. -1.
        -11    1    3    3    0    0 -0.16629172724E+02  0.13432498174E+02 -0.27050753801E+02  0.34477596699E+02  0.51100000000E-03 0.  1.
         12    1    3    3    0    0  0.17852167967E+00  0.88141305140E+01  0.70937947195E+00  0.88444324828E+01  0.00000000000E+00 0. -1.
</event>
<event>
 7    1  0.4871930E-013  0.5052885E+02  0.7816164E-02  0.1300439E+00
        -11   -1    0    0    0    0  0.00000000000E+00  0.00000000000E+00  0.45593999997E+02  0.45594000000E+02  0.51100000000E-03 0.  1.
         11   -1    0    0    0    0 -0.00000000000E+00 -0.00000000000E+00 -0.45593999997E+02  0.45594000000E+02  0.51100000000E-03 0. -1.
    9900012    2    1    2    0    0 -0.21901912372E+02  0.29155799601E+01  0.34131683313E+02  0.50528853700E+02  0.29999981307E+02 0.  0.
         12    1    1    2    0    0  0.21901912372E+02 -0.29155799601E+01 -0.34131683313E+02  0.40659146300E+02  0.00000000000E+00 0. -1.
         11    1    3    3    0    0 -0.71610309823E+01 -0.18230316803E+01  0.30511552579E+01  0.79945830351E+01  0.51100000000E-03 0. -1.
        -11    1    3    3    0    0 -0.11642568845E+02  0.87915237521E+01  0.33755996529E+02  0.36773735207E+02  0.51100000000E-03 0.  1.
         12    1    3    3    0    0 -0.30983125449E+01 -0.40529121116E+01 -0.26754684735E+01  0.57605354580E+01  0.00000000000E+00 0. -1.
</event>
<event>
 7    1  0.5057414E-013  0.5052887E+02  0.7816164E-02  0.1300439E+00
        -11   -1    0    0    0    0  0.00000000000E+00  0.00000000000E+00  0.45593999997E+02  0.45594000000E+02  0.51100000000E-03 0. -1.
         11   -1    0    0    0    0 -0.00000000000E+00 -0.00000000000E+00 -0.45593999997E+02  0.45594000000E+02  0.51100000000E-03 0.  1.
    9900012    2    1    2    0    0 -0.38469980199E+02 -0.11452048419E+02 -0.64866316416E+01  0.50528865977E+02  0.30000018622E+02 0.  0.
         12    1    1    2    0    0  0.38469980199E+02  0.11452048419E+02  0.64866316416E+01  0.40659134023E+02  0.00000000000E+00 0. -1.
         11    1    3    3    0    0 -0.47266644778E+01  0.68823164790E+01 -0.12534629642E+01  0.84426777071E+01  0.51100000000E-03 0. -1.
        -11    1    3    3    0    0 -0.22784824163E+01 -0.41178542865E+01 -0.59065291089E+01  0.75521713713E+01  0.51100000000E-03 0.  1.
        -12    1    3    3    0    0 -0.31464833304E+02 -0.14216510612E+02  0.67336043138E+00  0.34534016898E+02  0.00000000000E+00 0.  1.
</event>
<event>
 7    1  0.4871930E-013  0.5052886E+02  0.7816164E-02  0.1300439E+00
        -11   -1    0    0    0    0  0.00000000000E+00  0.00000000000E+00  0.45593999997E+02  0.45594000000E+02  0.51100000000E-03 0.  1.
         11   -1    0    0    0    0 -0.00000000000E+00 -0.00000000000E+00 -0.45593999997E+02  0.45594000000E+02  0.51100000000E-03 0. -1.
    9900012    2    1    2    0    0 -0.12655232746E+02  0.56941108516E+01  0.38217632931E+02  0.50528864728E+02  0.30000014827E+02 0.  0.
         12    1    1    2    0    0  0.12655232746E+02 -0.56941108516E+01 -0.38217632931E+02  0.40659135272E+02  0.00000000000E+00 0. -1.
         11    1    3    3    0    0  0.34071856053E+01 -0.17944860342E+01  0.23160129357E+02  0.23478089487E+02  0.51100000000E-03 0. -1.
        -11    1    3    3    0    0 -0.60138987714E+01 -0.27164159428E+01  0.97581303047E+01  0.11779940633E+02  0.51100000000E-03 0.  1.
        -12    1    3    3    0    0 -0.10048519580E+02  0.10205012829E+02  0.52993732694E+01  0.15270834608E+02  0.00000000000E+00 0.  1.
</event>
<event>
 7    1  0.6108430E-013  0.5052885E+02  0.7816164E-02  0.1300439E+00
        -11   -1    0    0    0    0  0.00000000000E+00  0.00000000000E+00  0.45593999997E+02  0.45594000000E+02  0.51100000000E-03 0. -1.
         11   -1    0    0    0    0 -0.00000000000E+00 -0.00000000000E+00 -0.45593999997E+02  0.45594000000E+02  0.51100000000E-03 0.  1.
    9900012    2    1    2    0    0 -0.33718724459E+02  0.31906179563E+01 -0.22495203348E+02  0.50528848561E+02  0.29999965685E+02 0.  0.
         12    1    1    2    0    0  0.33718724459E+02 -0.31906179563E+01  0.22495203348E+02  0.40659151439E+02  0.00000000000E+00 0. -1.
         11    1    3    3    0    0 -0.14732646493E+02  0.11050132749E+02 -0.96700434832E+01  0.20800626137E+02  0.51100000000E-03 0. -1.
        -11    1    3    3    0    0 -0.12828595994E+02  0.63052966775E+00 -0.14204069872E+02  0.19150092533E+02  0.51100000000E-03 0.  1.
         12    1    3    3    0    0 -0.61574819725E+01 -0.84900444607E+01  0.13789100068E+01  0.10578129891E+02  0.00000000000E+00 0. -1.
</event>
<event>
 7    1  0.4871930E-013  0.5052886E+02  0.7816164E-02  0.1300439E+00
        -11   -1    0    0    0    0  0.00000000000E+00  0.00000000000E+00  0.45593999997E+02  0.45594000000E+02  0.51100000000E-03 0. -1.
         11   -1    0    0    0    0 -0.00000000000E+00 -0.00000000000E+00 -0.45593999997E+02  0.45594000000E+02  0.51100000000E-03 0.  1.
    9900012    2    1    2    0    0  0.21670823204E+02  0.56594974646E+01 -0.33933924782E+02  0.50528859072E+02  0.29999997636E+02 0.  0.
         12    1    1    2    0    0 -0.21670823204E+02 -0.56594974646E+01  0.33933924782E+02  0.40659140928E+02  0.00000000000E+00 0. -1.
         11    1    3    3    0    0  0.88765981480E+01  0.10051054770E+02 -0.25832361588E+02  0.29105473749E+02  0.51100000000E-03 0.  1.
        -11    1    3    3    0    0  0.11460832982E+02  0.32840727815E+01 -0.37397806022E+01  0.12494870383E+02  0.51100000000E-03 0. -1.
        -12    1    3    3    0    0  0.13333920737E+01 -0.76756300873E+01 -0.43617825917E+01  0.89285149401E+01  0.00000000000E+00 0.  1.
</event>
<event>
 7    1  0.4871930E-013  0.5052886E+02  0.7816164E-02  0.1300439E+00
        -11   -1    0    0    0    0  0.00000000000E+00  0.00000000000E+00  0.45593999997E+02  0.45594000000E+02  0.51100000000E-03 0. -1.
         11   -1    0    0    0    0 -0.00000000000E+00 -0.00000000000E+00 -0.45593999997E+02  0.45594000000E+02  0.51100000000E-03 0.  1.
    9900012    2    1    2    0    0 -0.19241391941E+02  0.25927114420E+02 -0.24712732979E+02  0.50528860840E+02  0.30000003009E+02 0.  0.
         12    1    1    2    0    0  0.19241391941E+02 -0.25927114420E+02  0.24712732979E+02  0.40659139160E+02  0.00000000000E+00 0. -1.
         11    1    3    3    0    0 -0.62446583026E+01  0.11197606794E+02 -0.20973862817E+02  0.24582210579E+02  0.51100000000E-03 0. -1.
        -11    1    3    3    0    0 -0.11563897891E+02  0.30011057448E+01 -0.67923589038E+01  0.13742871238E+02  0.51100000000E-03 0.  1.
         12    1    3    3    0    0 -0.14328357478E+01  0.11728401881E+02  0.30534887417E+01  0.12203779024E+02  0.00000000000E+00 0. -1.
</event>
<event>
 7    1  0.4871930E-013  0.5052894E+02  0.7816164E-02  0.1300439E+00
        -11   -1    0    0    0    0  0.00000000000E+00  0.00000000000E+00  0.45593999997E+02  0.45594000000E+02  0.51100000000E-03 0.  1.
         11   -1    0    0    0    0 -0.00000000000E+00 -0.00000000000E+00 -0.45593999997E+02  0.45594000000E+02  0.51100000000E-03 0. -1.
    9900012    2    1    2    0    0 -0.13041008213E+02 -0.31683645718E+02 -0.21891497088E+02  0.50528942633E+02  0.30000251627E+02 0.  0.
         12    1    1    2    0    0  0.13041008213E+02  0.31683645718E+02  0.21891497088E+02  0.40659057367E+02  0.00000000000E+00 0. -1.
         11    1    3    3    0    0 -0.58042124259E+01 -0.12517215528E+02 -0.41483050380E+01  0.14407567505E+02  0.51100000000E-03 0. -1.
        -11    1    3    3    0    0  0.63279704549E+01 -0.16219266131E+02 -0.79873004097E+01  0.19154758469E+02  0.51100000000E-03 0.  1.
         12    1    3    3    0    0 -0.13564766242E+02 -0.29471640594E+01 -0.97558916398E+01  0.16966616659E+02  0.00000000000E+00 0. -1.
</event>
<event>
 7    1  0.4871930E-013  0.5052886E+02  0.7816164E-02  0.1300439E+00
        -11   -1    0    0    0    0  0.00000000000E+00  0.00000000000E+00  0.45593999997E+02  0.45594000000E+02  0.51100000000E-03 0.  1.
         11   -1    0    0    0    0 -0.00000000000E+00 -0.00000000000E+00 -0.45593999997E+02  0.45594000000E+02  0.51100000000E-03 0. -1.
    9900012    2    1    2    0    0  0.12895876383E+02 -0.12917931555E+02  0.36331659359E+02  0.50528855209E+02  0.29999985894E+02 0.  0.
         12    1    1    2    0    0 -0.12895876383E+02  0.12917931555E+02 -0.36331659359E+02  0.40659144791E+02  0.00000000000E+00 0. -1.
         11    1    3    3    0    0  0.98376115059E+01  0.21899391860E+01  0.11684599125E+02  0.15430628333E+02  0.51100000000E-03 0. -1.
        -11    1    3    3    0    0  0.42414823899E+00 -0.24020995272E+01  0.21641776429E+02  0.21778807844E+02  0.51100000000E-03 0.  1.
        -12    1    3    3    0    0  0.26341166381E+01 -0.12705771214E+02  0.30052838053E+01  0.13319419032E+02  0.00000000000E+00 0.  1.
</event>
<event>
 7    1  0.4871930E-013  0.5052887E+02  0.7816164E-02  0.1300439E+00
        -11   -1    0    0    0    0  0.00000000000E+00  0.00000000000E+00  0.45593999997E+02  0.45594000000E+02  0.51100000000E-03 0.  1.
         11   -1    0    0    0    0 -0.00000000000E+00 -0.00000000000E+00 -0.45593999997E+02  0.45594000000E+02  0.51100000000E-03 0. -1.
    9900012    2    1    2    0    0  0.66226120637E+00  0.14708456368E+02  0.37899706719E+02  0.50528867594E+02  0.30000023538E+02 0.  0.
         12    1    1    2    0    0 -0.66226120637E+00 -0.14708456368E+02 -0.37899706719E+02  0.40659132406E+02  0.00000000000E+00 0. -1.
         11    1    3    3    0    0  0.54847839498E+01 -0.11870754106E+01  0.30768938117E+01  0.63999436557E+01  0.51100000000E-03 0. -1.
        -11    1    3    3    0    0  0.28742605365E+01  0.16811863670E+02  0.31233737937E+02  0.35587167905E+02  0.51100000000E-03 0.  1.
         12    1    3    3    0    0 -0.76967832800E+01 -0.91633189135E+00  0.35890749703E+01  0.85417560336E+01  0.00000000000E+00 0. -1.
</event>
<event>
 7    1  0.4871930E-013  0.5052878E+02  0.7816164E-02  0.1300439E+00
        -11   -1    0    0    0    0  0.00000000000E+00  0.00000000000E+00  0.45593999997E+02  0.45594000000E+02  0.51100000000E-03 0.  1.
         11   -1    0    0    0    0 -0.00000000000E+00 -0.00000000000E+00 -0.45593999997E+02  0.45594000000E+02  0.51100000000E-03 0. -1.
    9900012    2    1    2    0    0  0.29936869810E+02  0.19059810209E+02  0.19841361539E+02  0.50528780050E+02  0.29999757439E+02 0.  0.
         12    1    1    2    0    0 -0.29936869810E+02 -0.19059810209E+02 -0.19841361539E+02  0.40659219950E+02  0.00000000000E+00 0. -1.
         11    1    3    3    0    0  0.85208816535E+01  0.35072790740E+01  0.15356363813E+02  0.17908778308E+02  0.51100000000E-03 0. -1.
        -11    1    3    3    0    0  0.11821885861E+02  0.13792691989E+02  0.10672477445E+02  0.21068865957E+02  0.51100000000E-03 0.  1.
         12    1    3    3    0    0  0.95941022951E+01  0.17598391462E+01 -0.61874797188E+01  0.11551135786E+02  0.00000000000E+00 0. -1.
</event>
<event>
 7    1  0.4871930E-013  0.5052886E+02  0.7816164E-02  0.1300439E+00
        -11   -1    0    0    0    0  0.00000000000E+00  0.00000000000E+00  0.45593999997E+02  0.45594000000E+02  0.51100000000E-03 0. -1.
         11   -1    0    0    0    0 -0.00000000000E+00 -0.00000000000E+00 -0.45593999997E+02  0.45594000000E+02  0.51100000000E-03 0.  1.
    9900012    2    1    2    0    0 -0.76446417234E+01 -0.18500961187E+02 -0.35389822888E+02  0.50528859872E+02  0.30000000068E+02 0.  0.
         12    1    1    2    0    0  0.76446417234E+01  0.18500961187E+02  0.35389822888E+02  0.40659140128E+02  0.00000000000E+00 0. -1.
         11    1    3    3    0    0 -0.82487013094E+01 -0.12525720609E+02 -0.13159651368E+02  0.19952723485E+02  0.51100000000E-03 0. -1.
        -11    1    3    3    0    0 -0.12143187036E+01 -0.46222467410E+01 -0.25859399878E+02  0.26297305892E+02  0.51100000000E-03 0.  1.
         12    1    3    3    0    0  0.18183782896E+01 -0.13529938366E+01  0.36292283591E+01  0.42788304954E+01  0.00000000000E+00 0. -1.
</event>
<event>
 7    1  0.4871930E-013  0.5052886E+02  0.7816164E-02  0.1300439E+00
        -11   -1    0    0    0    0  0.00000000000E+00  0.00000000000E+00  0.45593999997E+02  0.45594000000E+02  0.51100000000E-03 0. -1.
         11   -1    0    0    0    0 -0.00000000000E+00 -0.00000000000E+00 -0.45593999997E+02  0.45594000000E+02  0.51100000000E-03 0.  1.
    9900012    2    1    2    0    0  0.83197585108E+01  0.38736108420E+02  0.91357253551E+01  0.50528856441E+02  0.29999989638E+02 0.  0.
         12    1    1    2    0    0 -0.83197585108E+01 -0.38736108420E+02 -0.91357253551E+01  0.40659143559E+02  0.00000000000E+00 0. -1.
         11    1    3    3    0    0 -0.14680190831E+01  0.13862518839E+02  0.10910541415E+02  0.17702102215E+02  0.51100000000E-03 0. -1.
        -11    1    3    3    0    0 -0.19040612413E+01  0.14777721031E+02 -0.70762706417E+01  0.16494850547E+02  0.51100000000E-03 0.  1.
        -12    1    3    3    0    0  0.11691838835E+02  0.10095868549E+02  0.53014545817E+01  0.16331903679E+02  0.00000000000E+00 0.  1.
</event>
<event>
 7    1  0.4871930E-013  0.5052884E+02  0.7816164E-02  0.1300439E+00
        -11   -1    0    0    0    0  0.00000000000E+00  0.00000000000E+00  0.45593999997E+02  0.45594000000E+02  0.51100000000E-03 0.  1.
         11   -1    0    0    0    0 -0.00000000000E+00 -0.00000000000E+00 -0.45593999997E+02  0.45594000000E+02  0.51100000000E-03 0. -1.
    9900012    2    1    2    0    0  0.85353299583E+01  0.14345733114E+02  0.37074456994E+02  0.50528840177E+02  0.29999940203E+02 0.  0.
         12    1    1    2    0    0 -0.85353299583E+01 -0.14345733114E+02 -0.37074456994E+02  0.40659159823E+02  0.00000000000E+00 0. -1.
         11    1    3    3    0    0  0.61895494191E+01 -0.18050742576E+01  0.83482584848E+01  0.10548091537E+02  0.51100000000E-03 0. -1.
        -11    1    3    3    0    0  0.72677659310E+01  0.84981092712E+01  0.28786089978E+02  0.30881665423E+02  0.51100000000E-03 0.  1.
        -12    1    3    3    0    0 -0.49219853917E+01  0.76526981001E+01 -0.59891468577E-01  0.90990832173E+01  0.00000000000E+00 0.  1.
</event>
<event>
 7    1  0.4871930E-013  0.5052890E+02  0.7816164E-02  0.1300439E+00
        -11   -1    0    0    0    0  0.00000000000E+00  0.00000000000E+00  0.45593999997E+02  0.45594000000E+02  0.51100000000E-03 0.  1.
         11   -1    0    0    0    0 -0.00000000000E+00 -0.00000000000E+00 -0.45593999997E+02  0.45594000000E+02  0.51100000000E-03 0. -1.
    9900012    2    1    2    0    0 -0.10327900331E+02  0.25892214011E+01  0.39240194257E+02  0.50528899690E+02  0.30000121096E+02 0.  0.
         12    1    1    2    0    0  0.10327900331E+02 -0.25892214011E+01 -0.39240194257E+02  0.40659100310E+02  0.00000000000E+00 0. -1.
         11    1    3    3    0    0 -0.19174958635E+01  0.11298093841E+02  0.65105356858E+01  0.13179938922E+02  0.51100000000E-03 0. -1.
        -11    1    3    3    0    0 -0.33395797349E+01 -0.31371820557E+01  0.93821918328E+00  0.46770674095E+01  0.51100000000E-03 0.  1.
        -12    1    3    3    0    0 -0.50708247324E+01 -0.55716903841E+01  0.31791439388E+02  0.32671893358E+02  0.00000000000E+00 0.  1.
</event>
<event>
 7    1  0.4871930E-013  0.5052882E+02  0.7816164E-02  0.1300439E+00
        -11   -1    0    0    0    0  0.00000000000E+00  0.00000000000E+00  0.45593999997E+02  0.45594000000E+02  0.51100000000E-03 0.  1.
         11   -1    0    0    0    0 -0.00000000000E+00 -0.00000000000E+00 -0.45593999997E+02  0.45594000000E+02  0.51100000000E-03 0. -1.
    9900012    2    1    2    0    0 -0.12375692862E+02 -0.24006594122E+02  0.30392346587E+02  0.50528818181E+02  0.29999873342E+02 0.  0.
         12    1    1    2    0    0  0.12375692862E+02  0.24006594122E+02 -0.30392346587E+02  0.40659181819E+02  0.00000000000E+00 0. -1.
         11    1    3    3    0    0 -0.15130549123E+02 -0.92639859840E+01  0.12576339194E+02  0.21746706897E+02  0.51100000000E-03 0.  1.
        -11    1    3    3    0    0  0.24848125958E+01  0.68355061272E+00  0.12032215876E+02  0.12305110898E+02  0.51100000000E-03 0. -1.
         12    1    3    3    0    0  0.27004366554E+00 -0.15426158751E+02  0.57837915167E+01  0.16477000385E+02  0.00000000000E+00 0. -1.
</event>
<event>
 7    1  0.4871930E-013  0.5052888E+02  0.7816164E-02  0.1300439E+00
        -11   -1    0    0    0    0  0.00000000000E+00  0.00000000000E+00  0.45593999997E+02  0.45594000000E+02  0.51100000000E-03 0.  1.
         11   -1    0    0    0    0 -0.00000000000E+00 -0.00000000000E+00 -0.45593999997E+02  0.45594000000E+02  0.51100000000E-03 0. -1.
    9900012    2    1    2    0    0 -0.29179019401E+02 -0.92443491614E+01  0.26763610887E+02  0.50528880085E+02  0.30000061505E+02 0.  0.
         12    1    1    2    0    0  0.29179019401E+02  0.92443491614E+01 -0.26763610887E+02  0.40659119915E+02  0.00000000000E+00 0. -1.
         11    1    3    3    0    0 -0.35726085518E+01 -0.73038012644E+01  0.12848996994E+02  0.15205451943E+02  0.51100000000E-03 0. -1.
        -11    1    3    3    0    0 -0.24371015327E+02 -0.50227695864E+01  0.17512054845E+02  0.30427728596E+02  0.51100000000E-03 0.  1.
        -12    1    3    3    0    0 -0.12353955222E+01  0.30822216894E+01 -0.35974409519E+01  0.48956995456E+01  0.00000000000E+00 0.  1.
</event>
<event>
 7    1  0.4871930E-013  0.5052887E+02  0.7816164E-02  0.1300439E+00
        -11   -1    0    0    0    0  0.00000000000E+00  0.00000000000E+00  0.45593999997E+02  0.45594000000E+02  0.51100000000E-03 0.  1.
         11   -1    0    0    0    0 -0.00000000000E+00 -0.00000000000E+00 -0.45593999997E+02  0.45594000000E+02  0.51100000000E-03 0. -1.
    9900012    2    1    2    0    0  0.40074907523E+02 -0.61959371311E+01  0.29626515109E+01  0.50528866292E+02  0.30000019581E+02 0.  0.
         12    1    1    2    0    0 -0.40074907523E+02  0.61959371311E+01 -0.29626515109E+01  0.40659133708E+02  0.00000000000E+00 0. -1.
         11    1    3    3    0    0  0.16845059925E+02 -0.10890660285E+02 -0.91599227761E+01  0.22051455980E+02  0.51100000000E-03 0. -1.
        -11    1    3    3    0    0 -0.84950163028E-01  0.18131982415E+01  0.25032005831E+01  0.30920733842E+01  0.51100000000E-03 0.  1.
        -12    1    3    3    0    0  0.23314797761E+02  0.28815249128E+01  0.96193737039E+01  0.25385336928E+02  0.00000000000E+00 0.  1.
</event>
<event>
 7    1  0.4871930E-013  0.5052884E+02  0.7816164E-02  0.1300439E+00
        -11   -1    0    0    0    0  0.00000000000E+00  0.00000000000E+00  0.45593999997E+02  0.45594000000E+02  0.51100000000E-03 0.  1.
         11   -1    0    0    0    0 -0.00000000000E+00 -0.00000000000E+00 -0.45593999997E+02  0.45594000000E+02  0.51100000000E-03 0. -1.
    9900012    2    1    2    0    0 -0.32931165493E+02  0.23732231395E+02 -0.23423286011E+01  0.50528843946E+02  0.29999951658E+02 0.  0.
         12    1    1    2    0    0  0.32931165493E+02 -0.23732231395E+02  0.23423286011E+01  0.40659156054E+02  0.00000000000E+00 0. -1.
         11    1    3    3    0    0 -0.18169412493E+02  0.13418985608E+02 -0.29423434213E+01  0.22778369348E+02  0.51100000000E-03 0. -1.
        -11    1    3    3    0    0 -0.20012246796E+02  0.10028942159E+02  0.14161105095E+01  0.22429335074E+02  0.51100000000E-03 0.  1.
         12    1    3    3    0    0  0.52504937958E+01  0.28430362860E+00 -0.81609568937E+00  0.53211395234E+01  0.00000000000E+00 0. -1.
</event>
<event>
 7    1  0.4871930E-013  0.5052886E+02  0.7816164E-02  0.1300439E+00
        -11   -1    0    0    0    0  0.00000000000E+00  0.00000000000E+00  0.45593999997E+02  0.45594000000E+02  0.51100000000E-03 0. -1.
         11   -1    0    0    0    0 -0.00000000000E+00 -0.00000000000E+00 -0.45593999997E+02  0.45594000000E+02  0.51100000000E-03 0.  1.
    9900012    2    1    2    0    0 -0.33752610615E+02  0.15037529415E+01 -0.22620025551E+02  0.50528861394E+02  0.30000004694E+02 0.  0.
         12    1    1    2    0    0  0.33752610615E+02 -0.15037529415E+01  0.22620025551E+02  0.40659138606E+02  0.00000000000E+00 0. -1.
         11    1    3    3    0    0 -0.63605620964E+00  0.24132894984E+01 -0.54785252764E+01  0.60201971039E+01  0.51100000000E-03 0. -1.
        -11    1    3    3    0    0 -0.12153838249E+02 -0.10797628983E+02 -0.13321373661E+02  0.21018172431E+02  0.51100000000E-03 0.  1.
         12    1    3    3    0    0 -0.20962716156E+02  0.98880924257E+01 -0.38201266129E+01  0.23490491860E+02  0.00000000000E+00 0. -1.
</event>
<event>
 7    1  0.4871930E-013  0.5052885E+02  0.7816164E-02  0.1300439E+00
        -11   -1    0    0    0    0  0.00000000000E+00  0.00000000000E+00  0.45593999997E+02  0.45594000000E+02  0.51100000000E-03 0.  1.
         11   -1    0    0    0    0 -0.00000000000E+00 -0.00000000000E+00 -0.45593999997E+02  0.45594000000E+02  0.51100000000E-03 0. -1.
    9900012    2    1    2    0    0  0.30885681494E+02 -0.21934218368E+02  0.14769256929E+02  0.50528853341E+02  0.29999980217E+02 0.  0.
         12    1    1    2    0    0 -0.30885681494E+02  0.21934218368E+02 -0.14769256929E+02  0.40659146659E+02  0.00000000000E+00 0. -1.
         11    1    3    3    0    0  0.45929893976E+01 -0.71394977626E+01  0.15575237019E+02  0.17738545272E+02  0.51100000000E-03 0. -1.
        -11    1    3    3    0    0  0.11192754512E+02 -0.11802083985E+01  0.39181982069E+01  0.11917337072E+02  0.51100000000E-03 0.  1.
        -12    1    3    3    0    0  0.15099937585E+02 -0.13614512207E+02 -0.47241782970E+01  0.20872970998E+02  0.00000000000E+00 0.  1.
</event>
<event>
 7    1  0.4871930E-013  0.5052887E+02  0.7816164E-02  0.1300439E+00
        -11   -1    0    0    0    0  0.00000000000E+00  0.00000000000E+00  0.45593999997E+02  0.45594000000E+02  0.51100000000E-03 0. -1.
         11   -1    0    0    0    0 -0.00000000000E+00 -0.00000000000E+00 -0.45593999997E+02  0.45594000000E+02  0.51100000000E-03 0.  1.
    9900012    2    1    2    0    0 -0.16483468084E+02  0.16845558715E+02 -0.33131358111E+02  0.50528874840E+02  0.30000045564E+02 0.  0.
         12    1    1    2    0    0  0.16483468084E+02 -0.16845558715E+02  0.33131358111E+02  0.40659125160E+02  0.00000000000E+00 0. -1.
         11    1    3    3    0    0  0.44272372717E+01  0.43270747505E+01 -0.39852807083E+01  0.73625042167E+01  0.51100000000E-03 0. -1.
        -11    1    3    3    0    0 -0.10774754612E+02  0.35563669627E+01 -0.27232666144E+02  0.29501884491E+02  0.51100000000E-03 0.  1.
         12    1    3    3    0    0 -0.10135950743E+02  0.89621170014E+01 -0.19134112586E+01  0.13664486132E+02  0.00000000000E+00 0. -1.
</event>
<event>
 7    1  0.4871930E-013  0.5052885E+02  0.7816164E-02  0.1300439E+00
        -11   -1    0    0    0    0  0.00000000000E+00  0.00000000000E+00  0.45593999997E+02  0.45594000000E+02  0.51100000000E-03 0.  1.
         11   -1    0    0    0    0 -0.00000000000E+00 -0.00000000000E+00 -0.45593999997E+02  0.45594000000E+02  0.51100000000E-03 0. -1.
    9900012    2    1    2    0    0 -0.23907792190E+02 -0.32887032131E+02 -0.16387020119E+00  0.50528852650E+02  0.29999978115E+02 0.  0.
         12    1    1    2    0    0  0.23907792190E+02  0.32887032131E+02  0.16387020119E+00  0.40659147350E+02  0.00000000000E+00 0. -1.
         11    1    3    3    0    0 -0.72176840331E+01  0.11297719041E+01  0.46276380720E+01  0.86479119875E+01  0.51100000000E-03 0. -1.
        -11    1    3    3    0    0 -0.58934571325E+01 -0.17359874979E+02  0.59966326531E+01  0.19288797259E+02  0.51100000000E-03 0.  1.
         12    1    3    3    0    0 -0.10796651025E+02 -0.16656929055E+02 -0.10788140926E+02  0.22592143403E+02  0.00000000000E+00 0. -1.
</event>
<event>
 7    1  0.4871930E-013  0.5052886E+02  0.7816164E-02  0.1300439E+00
        -11   -1    0    0    0    0  0.00000000000E+00  0.00000000000E+00  0.45593999997E+02  0.45594000000E+02  0.51100000000E-03 0.  1.
         11   -1    0    0    0    0 -0.00000000000E+00 -0.00000000000E+00 -0.45593999997E+02  0.45594000000E+02  0.51100000000E-03 0. -1.
    9900012    2    1    2    0    0  0.25811134698E+02 -0.20447391523E+02  0.23850680629E+02  0.50528862515E+02  0.30000008102E+02 0.  0.
         12    1    1    2    0    0 -0.25811134698E+02  0.20447391523E+02 -0.23850680629E+02  0.40659137485E+02  0.00000000000E+00 0. -1.
         11    1    3    3    0    0  0.18041116087E+02 -0.16356930055E+02  0.19664998175E+02  0.31300849573E+02  0.51100000000E-03 0. -1.
        -11    1    3    3    0    0  0.21711760286E+01 -0.10155617407E+02  0.34404109024E+01  0.10940155287E+02  0.51100000000E-03 0.  1.
         12    1    3    3    0    0  0.55988425823E+01  0.60651559389E+01  0.74527155141E+00  0.82878576550E+01  0.00000000000E+00 0. -1.
</event>
<event>
 7    1  0.4871930E-013  0.5052886E+02  0.7816164E-02  0.1300439E+00
        -11   -1    0    0    0    0  0.00000000000E+00  0.00000000000E+00  0.45593999997E+02  0.45594000000E+02  0.51100000000E-03 0.  1.
         11   -1    0    0    0    0 -0.00000000000E+00 -0.00000000000E+00 -0.45593999997E+02  0.45594000000E+02  0.51100000000E-03 0. -1.
    9900012    2    1    2    0    0 -0.33422897988E+02 -0.12716325962E+02 -0.19348665633E+02  0.50528856899E+02  0.29999991031E+02 0.  0.
         12    1    1    2    0    0  0.33422897988E+02  0.12716325962E+02  0.19348665633E+02  0.40659143101E+02  0.00000000000E+00 0. -1.
         11    1    3    3    0    0 -0.11691452704E+02 -0.42425120449E+01  0.43008993235E+01  0.13160042175E+02  0.51100000000E-03 0. -1.
        -11    1    3    3    0    0 -0.13727424698E+02 -0.97257886196E+01 -0.58488776219E+01  0.17811303231E+02  0.51100000000E-03 0.  1.
         12    1    3    3    0    0 -0.80040205866E+01  0.12519747029E+01 -0.17800687335E+02  0.19557511493E+02  0.00000000000E+00 0. -1.
</event>
<event>
 7    1  0.4871930E-013  0.5052886E+02  0.7816164E-02  0.1300439E+00
        -11   -1    0    0    0    0  0.00000000000E+00  0.00000000000E+00  0.45593999997E+02  0.45594000000E+02  0.51100000000E-03 0.  1.
         11   -1    0    0    0    0 -0.00000000000E+00 -0.00000000000E+00 -0.45593999997E+02  0.45594000000E+02  0.51100000000E-03 0. -1.
    9900012    2    1    2    0    0  0.16632481566E+02 -0.28694299460E+02  0.23519421395E+02  0.50528862684E+02  0.30000008615E+02 0.  0.
         12    1    1    2    0    0 -0.16632481566E+02  0.28694299460E+02 -0.23519421395E+02  0.40659137316E+02  0.00000000000E+00 0. -1.
         11    1    3    3    0    0  0.57017690403E+01 -0.13635491972E+02 -0.14071934563E+01  0.14846447561E+02  0.51100000000E-03 0. -1.
        -11    1    3    3    0    0  0.75535700527E+01 -0.13731393685E+02  0.66082846805E+01  0.17008145688E+02  0.51100000000E-03 0.  1.
         12    1    3    3    0    0  0.33771424727E+01 -0.13274138028E+01  0.18318330171E+02  0.18674269435E+02  0.00000000000E+00 0. -1.
</event>
<event>
 7    1  0.4871930E-013  0.5052886E+02  0.7816164E-02  0.1300439E+00
        -11   -1    0    0    0    0  0.00000000000E+00  0.00000000000E+00  0.45593999997E+02  0.45594000000E+02  0.51100000000E-03 0.  1.
         11   -1    0    0    0    0 -0.00000000000E+00 -0.00000000000E+00 -0.45593999997E+02  0.45594000000E+02  0.51100000000E-03 0. -1.
    9900012    2    1    2    0    0  0.25622526947E+02  0.20506712851E+02  0.24002628977E+02  0.50528863795E+02  0.30000011993E+02 0.  0.
         12    1    1    2    0    0 -0.25622526947E+02 -0.20506712851E+02 -0.24002628977E+02  0.40659136205E+02  0.00000000000E+00 0. -1.
         11    1    3    3    0    0  0.34979555275E+01 -0.54527783566E+01  0.70297688957E+00  0.65163380396E+01  0.51100000000E-03 0. -1.
        -11    1    3    3    0    0  0.81933060958E+01  0.10790730549E+02  0.18386297038E+02  0.22839134169E+02  0.51100000000E-03 0.  1.
        -12    1    3    3    0    0  0.13931265324E+02  0.15168760658E+02  0.49133550486E+01  0.21173391586E+02  0.00000000000E+00 0.  1.
</event>
<event>
 7    1  0.4871930E-013  0.5052886E+02  0.7816164E-02  0.1300439E+00
        -11   -1    0    0    0    0  0.00000000000E+00  0.00000000000E+00  0.45593999997E+02  0.45594000000E+02  0.51100000000E-03 0.  1.
         11   -1    0    0    0    0 -0.00000000000E+00 -0.00000000000E+00 -0.45593999997E+02  0.45594000000E+02  0.51100000000E-03 0. -1.
    9900012    2    1    2    0    0  0.58050478694E-01 -0.24204748331E+02  0.32669436390E+02  0.50528864671E+02  0.30000014655E+02 0.  0.
         12    1    1    2    0    0 -0.58050478694E-01  0.24204748331E+02 -0.32669436390E+02  0.40659135329E+02  0.00000000000E+00 0. -1.
         11    1    3    3    0    0 -0.14679146068E+01  0.22629108546E+01  0.36908060451E+01  0.45713880115E+01  0.51100000000E-03 0. -1.
        -11    1    3    3    0    0 -0.10002790719E+02 -0.19179939979E+02  0.14359031111E+02  0.25963584007E+02  0.51100000000E-03 0.  1.
        -12    1    3    3    0    0  0.11528755805E+02 -0.72877192069E+01  0.14619599234E+02  0.19993892653E+02  0.00000000000E+00 0.  1.
</event>
<event>
 7    1  0.4871930E-013  0.5052886E+02  0.7816164E-02  0.1300439E+00
        -11   -1    0    0    0    0  0.00000000000E+00  0.00000000000E+00  0.45593999997E+02  0.45594000000E+02  0.51100000000E-03 0. -1.
         11   -1    0    0    0    0 -0.00000000000E+00 -0.00000000000E+00 -0.45593999997E+02  0.45594000000E+02  0.51100000000E-03 0.  1.
    9900012    2    1    2    0    0  0.28389389627E+02  0.28898756664E+02 -0.34742494342E+01  0.50528856019E+02  0.29999988355E+02 0.  0.
         12    1    1    2    0    0 -0.28389389627E+02 -0.28898756664E+02  0.34742494342E+01  0.40659143981E+02  0.00000000000E+00 0. -1.
         11    1    3    3    0    0  0.36543788566E+01 -0.45451327332E+01  0.25255372595E+01  0.63553957469E+01  0.51100000000E-03 0. -1.
        -11    1    3    3    0    0  0.97425718488E+01  0.16498002409E+02 -0.93177741481E+01  0.21305461859E+02  0.51100000000E-03 0.  1.
        -12    1    3    3    0    0  0.14992438922E+02  0.16945886988E+02  0.33179874543E+01  0.22867998413E+02  0.00000000000E+00 0.  1.
</event>
<event>
 7    1  0.4871930E-013  0.5052887E+02  0.7816164E-02  0.1300439E+00
        -11   -1    0    0    0    0  0.00000000000E+00  0.00000000000E+00  0.45593999997E+02  0.45594000000E+02  0.51100000000E-03 0.  1.
         11   -1    0    0    0    0 -0.00000000000E+00 -0.00000000000E+00 -0.45593999997E+02  0.45594000000E+02  0.51100000000E-03 0. -1.
    9900012    2    1    2    0    0 -0.65616316645E+00 -0.39841937875E+02  0.80842250626E+01  0.50528865004E+02  0.30000015666E+02 0.  0.
         12    1    1    2    0    0  0.65616316645E+00  0.39841937875E+02 -0.80842250626E+01  0.40659134996E+02  0.00000000000E+00 0. -1.
         11    1    3    3    0    0 -0.10676062273E+01  0.18907651523E+01  0.13049839366E+01  0.25333296772E+01  0.51100000000E-03 0. -1.
        -11    1    3    3    0    0 -0.62823645563E+01 -0.16320810994E+02 -0.63679898053E+01  0.18611509083E+02  0.51100000000E-03 0.  1.
        -12    1    3    3    0    0  0.66938076172E+01 -0.25411892034E+02  0.13147230931E+02  0.29384026244E+02  0.00000000000E+00 0.  1.
</event>
<event>
 7    1  0.4871930E-013  0.5052883E+02  0.7816164E-02  0.1300439E+00
        -11   -1    0    0    0    0  0.00000000000E+00  0.00000000000E+00  0.45593999997E+02  0.45594000000E+02  0.51100000000E-03 0.  1.
         11   -1    0    0    0    0 -0.00000000000E+00 -0.00000000000E+00 -0.45593999997E+02  0.45594000000E+02  0.51100000000E-03 0. -1.
    9900012    2    1    2    0    0 -0.16380219213E+02  0.25056105025E+02  0.27514504736E+02  0.50528831890E+02  0.29999915014E+02 0.  0.
         12    1    1    2    0    0  0.16380219213E+02 -0.25056105025E+02 -0.27514504736E+02  0.40659168110E+02  0.00000000000E+00 0. -1.
         11    1    3    3    0    0 -0.11939446202E+01 -0.46082289918E+01  0.92811222866E+01  0.10430748264E+02  0.51100000000E-03 0. -1.
        -11    1    3    3    0    0 -0.15305662242E+01  0.14145935298E+02  0.11693340715E+02  0.18416957832E+02  0.51100000000E-03 0.  1.
        -12    1    3    3    0    0 -0.13655708368E+02  0.15518398718E+02  0.65400417348E+01  0.21681125794E+02  0.00000000000E+00 0.  1.
</event>
<event>
 7    1  0.4871930E-013  0.5052886E+02  0.7816164E-02  0.1300439E+00
        -11   -1    0    0    0    0  0.00000000000E+00  0.00000000000E+00  0.45593999997E+02  0.45594000000E+02  0.51100000000E-03 0.  1.
         11   -1    0    0    0    0 -0.00000000000E+00 -0.00000000000E+00 -0.45593999997E+02  0.45594000000E+02  0.51100000000E-03 0. -1.
    9900012    2    1    2    0    0 -0.33996735841E+02  0.20624749517E+02  0.84857070987E+01  0.50528861230E+02  0.30000004196E+02 0.  0.
         12    1    1    2    0    0  0.33996735841E+02 -0.20624749517E+02 -0.84857070987E+01  0.40659138770E+02  0.00000000000E+00 0. -1.
         11    1    3    3    0    0  0.20181034795E+01  0.63719193642E+01  0.50394956290E+01  0.83708192247E+01  0.51100000000E-03 0. -1.
        -11    1    3    3    0    0 -0.88617265257E+01  0.41767844489E+01  0.82404128311E+01  0.12801567452E+02  0.51100000000E-03 0.  1.
         12    1    3    3    0    0 -0.27153112795E+02  0.10076045704E+02 -0.47942013614E+01  0.29356474553E+02  0.00000000000E+00 0. -1.
</event>
<event>
 7    1  0.4871930E-013  0.5052886E+02  0.7816164E-02  0.1300439E+00
        -11   -1    0    0    0    0  0.00000000000E+00  0.00000000000E+00  0.45593999997E+02  0.45594000000E+02  0.51100000000E-03 0.  1.
         11   -1    0    0    0    0 -0.00000000000E+00 -0.00000000000E+00 -0.45593999997E+02  0.45594000000E+02  0.51100000000E-03 0. -1.
    9900012    2    1    2    0    0 -0.19947164226E+02 -0.31200441951E+02  0.16787160419E+02  0.50528859655E+02  0.29999999408E+02 0.  0.
         12    1    1    2    0    0  0.19947164226E+02  0.31200441951E+02 -0.16787160419E+02  0.40659140345E+02  0.00000000000E+00 0. -1.
         11    1    3    3    0    0 -0.12052729169E+02  0.21979829521E+01  0.16334680700E+01  0.12359920213E+02  0.51100000000E-03 0. -1.
        -11    1    3    3    0    0 -0.36790591191E+01 -0.83352332007E+01  0.12419149034E+01  0.91953217127E+01  0.51100000000E-03 0.  1.
        -12    1    3    3    0    0 -0.42153759384E+01 -0.25063191703E+02  0.13911777446E+02  0.28973617730E+02  0.00000000000E+00 0.  1.
</event>
<event>
 7    1  0.4871930E-013  0.5052886E+02  0.7816164E-02  0.1300439E+00
        -11   -1    0    0    0    0  0.00000000000E+00  0.00000000000E+00  0.45593999997E+02  0.45594000000E+02  0.51100000000E-03 0.  1.
         11   -1    0    0    0    0 -0.00000000000E+00 -0.00000000000E+00 -0.45593999997E+02  0.45594000000E+02  0.51100000000E-03 0. -1.
    9900012    2    1    2    0    0  0.26784135093E+02 -0.18960958344E+00  0.30589861739E+02  0.50528862212E+02  0.30000007180E+02 0.  0.
         12    1    1    2    0    0 -0.26784135093E+02  0.18960958344E+00 -0.30589861739E+02  0.40659137788E+02  0.00000000000E+00 0. -1.
         11    1    3    3    0    0 -0.27036896399E+01 -0.54120598638E+01  0.76262985866E+00  0.60976990907E+01  0.51100000000E-03 0. -1.
        -11    1    3    3    0    0  0.11918183106E+02 -0.41763798111E+01  0.83789673825E+01  0.15155603965E+02  0.51100000000E-03 0.  1.
         12    1    3    3    0    0  0.17569641626E+02  0.93988300915E+01  0.21448264498E+02  0.29275559157E+02  0.00000000000E+00 0. -1.
</event>
<event>
 7    1  0.4871930E-013  0.5052886E+02  0.7816164E-02  0.1300439E+00
        -11   -1    0    0    0    0  0.00000000000E+00  0.00000000000E+00  0.45593999997E+02  0.45594000000E+02  0.51100000000E-03 0.  1.
         11   -1    0    0    0    0 -0.00000000000E+00 -0.00000000000E+00 -0.45593999997E+02  0.45594000000E+02  0.51100000000E-03 0. -1.
    9900012    2    1    2    0    0 -0.11453633051E+02  0.23777100333E+02  0.30929430853E+02  0.50528857077E+02  0.29999991572E+02 0.  0.
         12    1    1    2    0    0  0.11453633051E+02 -0.23777100333E+02 -0.30929430853E+02  0.40659142923E+02  0.00000000000E+00 0. -1.
         11    1    3    3    0    0  0.84595500298E+01  0.79078746872E+01  0.75970154984E+01  0.13849661134E+02  0.51100000000E-03 0. -1.
        -11    1    3    3    0    0  0.11588994705E+01  0.36869788747E+01  0.42986059102E+01  0.57805600280E+01  0.51100000000E-03 0.  1.
        -12    1    3    3    0    0 -0.21072082552E+02  0.12182246772E+02  0.19033809444E+02  0.30898635915E+02  0.00000000000E+00 0.  1.
</event>
<event>
 7    1  0.4871930E-013  0.5052885E+02  0.7816164E-02  0.1300439E+00
        -11   -1    0    0    0    0  0.00000000000E+00  0.00000000000E+00  0.45593999997E+02  0.45594000000E+02  0.51100000000E-03 0.  1.
         11   -1    0    0    0    0 -0.00000000000E+00 -0.00000000000E+00 -0.45593999997E+02  0.45594000000E+02  0.51100000000E-03 0. -1.
    9900012    2    1    2    0    0 -0.12707569822E+02  0.21184505690E+02  0.32293971790E+02  0.50528853107E+02  0.29999979503E+02 0.  0.
         12    1    1    2    0    0  0.12707569822E+02 -0.21184505690E+02 -0.32293971790E+02  0.40659146893E+02  0.00000000000E+00 0. -1.
         11    1    3    3    0    0 -0.14535725832E+02  0.12243725844E+01  0.11322331049E+02  0.18465686945E+02  0.51100000000E-03 0.  1.
        -11    1    3    3    0    0  0.17457272872E+01 -0.98010146750E+00 -0.50775239310E+00  0.20654237826E+01  0.51100000000E-03 0. -1.
        -12    1    3    3    0    0  0.82428723096E-01  0.20940234573E+02  0.21479393134E+02  0.29997742380E+02  0.00000000000E+00 0.  1.
</event>
<event>
 7    1  0.6494930E-013  0.5052886E+02  0.7816164E-02  0.1300439E+00
        -11   -1    0    0    0    0  0.00000000000E+00  0.00000000000E+00  0.45593999997E+02  0.45594000000E+02  0.51100000000E-03 0.  1.
         11   -1    0    0    0    0 -0.00000000000E+00 -0.00000000000E+00 -0.45593999997E+02  0.45594000000E+02  0.51100000000E-03 0. -1.
    9900012    2    1    2    0    0  0.22753799580E+02 -0.30780109351E+02  0.13711858380E+02  0.50528860963E+02  0.30000003383E+02 0.  0.
         12    1    1    2    0    0 -0.22753799580E+02  0.30780109351E+02 -0.13711858380E+02  0.40659139037E+02  0.00000000000E+00 0. -1.
         11    1    3    3    0    0  0.12882829938E+02 -0.60790118335E+01  0.44169230070E+01  0.14914117513E+02  0.51100000000E-03 0. -1.
        -11    1    3    3    0    0  0.15445875454E+02 -0.24291259156E+02  0.79921951378E+01  0.29874998298E+02  0.51100000000E-03 0.  1.
         12    1    3    3    0    0 -0.55749058115E+01 -0.40983836188E+00  0.13027402350E+01  0.57397451520E+01  0.00000000000E+00 0. -1.
</event>
<event>
 7    1  0.4871930E-013  0.5052886E+02  0.7816164E-02  0.1300439E+00
        -11   -1    0    0    0    0  0.00000000000E+00  0.00000000000E+00  0.45593999997E+02  0.45594000000E+02  0.51100000000E-03 0.  1.
         11   -1    0    0    0    0 -0.00000000000E+00 -0.00000000000E+00 -0.45593999997E+02  0.45594000000E+02  0.51100000000E-03 0. -1.
    9900012    2    1    2    0    0 -0.81985283795E+01  0.29339679124E+02  0.26928301092E+02  0.50528855415E+02  0.29999986519E+02 0.  0.
         12    1    1    2    0    0  0.81985283795E+01 -0.29339679124E+02 -0.26928301092E+02  0.40659144585E+02  0.00000000000E+00 0. -1.
         11    1    3    3    0    0 -0.11325931792E+01 -0.26151043509E+01 -0.50215205660E+00  0.28937337515E+01  0.51100000000E-03 0. -1.
        -11    1    3    3    0    0  0.32278173585E+01  0.12238090659E+02  0.20935855571E+02  0.24464253854E+02  0.51100000000E-03 0.  1.
        -12    1    3    3    0    0 -0.10293752559E+02  0.19716692816E+02  0.64945975776E+01  0.23170867809E+02  0.00000000000E+00 0.  1.
</event>
<event>
 7    1  0.4871930E-013  0.5052886E+02  0.7816164E-02  0.1300439E+00
        -11   -1    0    0    0    0  0.00000000000E+00  0.00000000000E+00  0.45593999997E+02  0.45594000000E+02  0.51100000000E-03 0. -1.
         11   -1    0    0    0    0 -0.00000000000E+00 -0.00000000000E+00 -0.45593999997E+02  0.45594000000E+02  0.51100000000E-03 0.  1.
    9900012    2    1    2    0    0 -0.57341419704E+01 -0.19650307785E+02 -0.35130485305E+02  0.50528856158E+02  0.29999988778E+02 0.  0.
         12    1    1    2    0    0  0.57341419704E+01  0.19650307785E+02  0.35130485305E+02  0.40659143842E+02  0.00000000000E+00 0. -1.
         11    1    3    3    0    0 -0.49059736418E+01 -0.11332305694E+02 -0.52599971252E+01  0.13422268800E+02  0.51100000000E-03 0. -1.
        -11    1    3    3    0    0  0.31246285635E+01 -0.16574162263E+01  0.21657543728E+01  0.41473876683E+01  0.51100000000E-03 0.  1.
        -12    1    3    3    0    0 -0.39527968922E+01 -0.66605858649E+01 -0.32036242553E+02  0.32959199690E+02  0.00000000000E+00 0.  1.
</event>
<event>
 7    1  0.4871930E-013  0.5052886E+02  0.7816164E-02  0.1300439E+00
        -11   -1    0    0    0    0  0.00000000000E+00  0.00000000000E+00  0.45593999997E+02  0.45594000000E+02  0.51100000000E-03 0. -1.
         11   -1    0    0    0    0 -0.00000000000E+00 -0.00000000000E+00 -0.45593999997E+02  0.45594000000E+02  0.51100000000E-03 0.  1.
    9900012    2    1    2    0    0 -0.77221543221E+01  0.32655157883E+02 -0.22960277774E+02  0.50528863767E+02  0.30000011906E+02 0.  0.
         12    1    1    2    0    0  0.77221543221E+01 -0.32655157883E+02  0.22960277774E+02  0.40659136233E+02  0.00000000000E+00 0. -1.
         11    1    3    3    0    0 -0.35284230192E+01 -0.21756682341E+01 -0.45949016198E+01  0.61884103310E+01  0.51100000000E-03 0. -1.
        -11    1    3    3    0    0 -0.11229268385E+02  0.28284268189E+02 -0.11510346752E+02  0.32535893688E+02  0.51100000000E-03 0.  1.
         12    1    3    3    0    0  0.70355370819E+01  0.65465579281E+01 -0.68550294022E+01  0.11804559748E+02  0.00000000000E+00 0. -1.
</event>
<event>
 7    1  0.4871930E-013  0.5052887E+02  0.7816164E-02  0.1300439E+00
        -11   -1    0    0    0    0  0.00000000000E+00  0.00000000000E+00  0.45593999997E+02  0.45594000000E+02  0.51100000000E-03 0. -1.
         11   -1    0    0    0    0 -0.00000000000E+00 -0.00000000000E+00 -0.45593999997E+02  0.45594000000E+02  0.51100000000E-03 0.  1.
    9900012    2    1    2    0    0 -0.13007283189E+01 -0.14764858309E+02 -0.37861221960E+02  0.50528867405E+02  0.30000022965E+02 0.  0.
         12    1    1    2    0    0  0.13007283189E+01  0.14764858309E+02  0.37861221960E+02  0.40659132595E+02  0.00000000000E+00 0. -1.
         11    1    3    3    0    0  0.82703532414E+01 -0.13541898470E+02 -0.94621106722E+01  0.18474666317E+02  0.51100000000E-03 0. -1.
        -11    1    3    3    0    0 -0.27044280513E+01 -0.57741674491E+01 -0.15358962857E+02  0.16629873154E+02  0.51100000000E-03 0.  1.
        -12    1    3    3    0    0 -0.68666535091E+01  0.45512076095E+01 -0.13040148431E+02  0.15424327934E+02  0.00000000000E+00 0.  1.
</event>
<event>
 7    1  0.4871930E-013  0.5052875E+02  0.7816164E-02  0.1300439E+00
        -11   -1    0    0    0    0  0.00000000000E+00  0.00000000000E+00  0.45593999997E+02  0.45594000000E+02  0.51100000000E-03 0. -1.
         11   -1    0    0    0    0 -0.00000000000E+00 -0.00000000000E+00 -0.45593999997E+02  0.45594000000E+02  0.51100000000E-03 0.  1.
    9900012    2    1    2    0    0 -0.32991749093E+02 -0.21474986077E+02 -0.10175645968E+02  0.50528753744E+02  0.29999677479E+02 0.  0.
         12    1    1    2    0    0  0.32991749093E+02  0.21474986077E+02  0.10175645968E+02  0.40659246256E+02  0.00000000000E+00 0. -1.
         11    1    3    3    0    0 -0.21146753925E+02 -0.17974329073E+02 -0.12053702148E+02  0.30258113671E+02  0.51100000000E-03 0. -1.
        -11    1    3    3    0    0 -0.97030918040E+01 -0.89616448761E+01  0.43483096686E+01  0.13905713454E+02  0.51100000000E-03 0.  1.
         12    1    3    3    0    0 -0.21419033645E+01  0.54609878725E+01 -0.24702534890E+01  0.63649266191E+01  0.00000000000E+00 0. -1.
</event>
<event>
 7    1  0.4871930E-013  0.5052886E+02  0.7816164E-02  0.1300439E+00
        -11   -1    0    0    0    0  0.00000000000E+00  0.00000000000E+00  0.45593999997E+02  0.45594000000E+02  0.51100000000E-03 0. -1.
         11   -1    0    0    0    0 -0.00000000000E+00 -0.00000000000E+00 -0.45593999997E+02  0.45594000000E+02  0.51100000000E-03 0.  1.
    9900012    2    1    2    0    0 -0.20463985602E+00 -0.25380756585E+02 -0.31763827823E+02  0.50528862770E+02  0.30000008877E+02 0.  0.
         12    1    1    2    0    0  0.20463985602E+00  0.25380756585E+02  0.31763827823E+02  0.40659137230E+02  0.00000000000E+00 0. -1.
         11    1    3    3    0    0 -0.13214070357E+02 -0.12160884418E+02 -0.18185936997E+02  0.25558307259E+02  0.51100000000E-03 0. -1.
        -11    1    3    3    0    0  0.13162062817E+01 -0.64323188269E+01 -0.79883825425E+01  0.10340279511E+02  0.51100000000E-03 0.  1.
        -12    1    3    3    0    0  0.11693224219E+02 -0.67875533403E+01 -0.55895082831E+01  0.14630276000E+02  0.00000000000E+00 0.  1.
</event>
<event>
 7    1  0.4871930E-013  0.5052885E+02  0.7816164E-02  0.1300439E+00
        -11   -1    0    0    0    0  0.00000000000E+00  0.00000000000E+00  0.45593999997E+02  0.45594000000E+02  0.51100000000E-03 0. -1.
         11   -1    0    0    0    0 -0.00000000000E+00 -0.00000000000E+00 -0.45593999997E+02  0.45594000000E+02  0.51100000000E-03 0.  1.
    9900012    2    1    2    0    0  0.40400151843E+02 -0.98564987058E+00 -0.44746605034E+01  0.50528851445E+02  0.29999974452E+02 0.  0.
         12    1    1    2    0    0 -0.40400151843E+02  0.98564987058E+00  0.44746605034E+01  0.40659148555E+02  0.00000000000E+00 0. -1.
         11    1    3    3    0    0  0.25671973909E-01 -0.19910224105E+00  0.40201404371E+01  0.40251497050E+01  0.51100000000E-03 0. -1.
        -11    1    3    3    0    0  0.19075639745E+02  0.10179144897E+02 -0.58707279591E+01  0.22404474320E+02  0.51100000000E-03 0.  1.
         12    1    3    3    0    0  0.21298840124E+02 -0.10965692527E+02 -0.26240729814E+01  0.24099227420E+02  0.00000000000E+00 0. -1.
</event>
<event>
 7    1  0.4871930E-013  0.5052887E+02  0.7816164E-02  0.1300439E+00
        -11   -1    0    0    0    0  0.00000000000E+00  0.00000000000E+00  0.45593999997E+02  0.45594000000E+02  0.51100000000E-03 0. -1.
         11   -1    0    0    0    0 -0.00000000000E+00 -0.00000000000E+00 -0.45593999997E+02  0.45594000000E+02  0.51100000000E-03 0.  1.
    9900012    2    1    2    0    0  0.26174081532E+02  0.10823428386E+02 -0.29170806529E+02  0.50528866959E+02  0.30000021610E+02 0.  0.
         12    1    1    2    0    0 -0.26174081532E+02 -0.10823428386E+02  0.29170806529E+02  0.40659133041E+02  0.00000000000E+00 0. -1.
         11    1    3    3    0    0  0.10089131759E+02 -0.68513803465E+00 -0.14974226397E+02  0.18068963729E+02  0.51100000000E-03 0.  1.
        -11    1    3    3    0    0  0.21049592942E+02  0.11801958796E+02 -0.10809204646E+02  0.26442588749E+02  0.51100000000E-03 0. -1.
        -12    1    3    3    0    0 -0.49646431690E+01 -0.29339237579E+00 -0.33873754862E+01  0.60173144812E+01  0.00000000000E+00 0.  1.
</event>
<event>
 7    1  0.4871930E-013  0.5052886E+02  0.7816164E-02  0.1300439E+00
        -11   -1    0    0    0    0  0.00000000000E+00  0.00000000000E+00  0.45593999997E+02  0.45594000000E+02  0.51100000000E-03 0.  1.
         11   -1    0    0    0    0 -0.00000000000E+00 -0.00000000000E+00 -0.45593999997E+02  0.45594000000E+02  0.51100000000E-03 0. -1.
    9900012    2    1    2    0    0  0.11530185446E+02 -0.11383408075E+02  0.37291270575E+02  0.50528855679E+02  0.29999987322E+02 0.  0.
         12    1    1    2    0    0 -0.11530185446E+02  0.11383408075E+02 -0.37291270575E+02  0.40659144321E+02  0.00000000000E+00 0. -1.
         11    1    3    3    0    0  0.34798060353E+01  0.33606087260E+01  0.12842071300E+02  0.13723029424E+02  0.51100000000E-03 0. -1.
        -11    1    3    3    0    0  0.48984978372E+01 -0.20415410718E+02  0.19377388176E+02  0.28570394618E+02  0.51100000000E-03 0.  1.
         12    1    3    3    0    0  0.31518815733E+01  0.56713939169E+01  0.50718110995E+01  0.82354316367E+01  0.00000000000E+00 0. -1.
</event>
<event>
 7    1  0.4871930E-013  0.5052886E+02  0.7816164E-02  0.1300439E+00
        -11   -1    0    0    0    0  0.00000000000E+00  0.00000000000E+00  0.45593999997E+02  0.45594000000E+02  0.51100000000E-03 0.  1.
         11   -1    0    0    0    0 -0.00000000000E+00 -0.00000000000E+00 -0.45593999997E+02  0.45594000000E+02  0.51100000000E-03 0. -1.
    9900012    2    1    2    0    0  0.96253289048E+01 -0.17135840973E+02  0.35593275847E+02  0.50528864644E+02  0.30000014571E+02 0.  0.
         12    1    1    2    0    0 -0.96253289048E+01  0.17135840973E+02 -0.35593275847E+02  0.40659135356E+02  0.00000000000E+00 0. -1.
         11    1    3    3    0    0  0.44963603970E+01 -0.12777827526E+02  0.15769423069E+02  0.20788574681E+02  0.51100000000E-03 0. -1.
        -11    1    3    3    0    0  0.98266520881E+01 -0.18307356310E+01  0.21854945508E+02  0.24032339204E+02  0.51100000000E-03 0.  1.
         12    1    3    3    0    0 -0.46976835803E+01 -0.25272778160E+01 -0.20310927297E+01  0.57079507581E+01  0.00000000000E+00 0. -1.
</event>
<event>
 7    1  0.4871930E-013  0.5052888E+02  0.7816164E-02  0.1300439E+00
        -11   -1    0    0    0    0  0.00000000000E+00  0.00000000000E+00  0.45593999997E+02  0.45594000000E+02  0.51100000000E-03 0. -1.
         11   -1    0    0    0    0 -0.00000000000E+00 -0.00000000000E+00 -0.45593999997E+02  0.45594000000E+02  0.51100000000E-03 0.  1.
    9900012    2    1    2    0    0 -0.26084783144E+02  0.44145556949E+01 -0.30874904508E+02  0.50528881195E+02  0.30000064880E+02 0.  0.
         12    1    1    2    0    0  0.26084783144E+02 -0.44145556949E+01  0.30874904508E+02  0.40659118805E+02  0.00000000000E+00 0. -1.
         11    1    3    3    0    0 -0.14117194135E+02 -0.42953232265E-02 -0.24115487796E+02  0.27943728108E+02  0.51100000000E-03 0. -1.
        -11    1    3    3    0    0 -0.16353103867E+02  0.38691346214E+01 -0.36925246053E+01  0.17205491770E+02  0.51100000000E-03 0.  1.
         12    1    3    3    0    0  0.43855148586E+01  0.54971639670E+00 -0.30668921067E+01  0.53796613170E+01  0.00000000000E+00 0. -1.
</event>
<event>
 7    1  0.4871930E-013  0.5052886E+02  0.7816164E-02  0.1300439E+00
        -11   -1    0    0    0    0  0.00000000000E+00  0.00000000000E+00  0.45593999997E+02  0.45594000000E+02  0.51100000000E-03 0.  1.
         11   -1    0    0    0    0 -0.00000000000E+00 -0.00000000000E+00 -0.45593999997E+02  0.45594000000E+02  0.51100000000E-03 0. -1.
    9900012    2    1    2    0    0  0.13947919244E+02  0.34838447659E+02 -0.15649407145E+02  0.50528857971E+02  0.29999994290E+02 0.  0.
         12    1    1    2    0    0 -0.13947919244E+02 -0.34838447659E+02  0.15649407145E+02  0.40659142029E+02  0.00000000000E+00 0. -1.
         11    1    3    3    0    0  0.17813811744E+01 -0.43953098339E+01  0.15880599792E+01  0.50014000223E+01  0.51100000000E-03 0. -1.
        -11    1    3    3    0    0 -0.11307587953E+01  0.92455746394E+01 -0.32412148660E+01  0.98622887777E+01  0.51100000000E-03 0.  1.
        -12    1    3    3    0    0  0.13297296864E+02  0.29988182853E+02 -0.13996252258E+02  0.35665169171E+02  0.00000000000E+00 0.  1.
</event>
<event>
 7    1  0.4871930E-013  0.5052886E+02  0.7816164E-02  0.1300439E+00
        -11   -1    0    0    0    0  0.00000000000E+00  0.00000000000E+00  0.45593999997E+02  0.45594000000E+02  0.51100000000E-03 0.  1.
         11   -1    0    0    0    0 -0.00000000000E+00 -0.00000000000E+00 -0.45593999997E+02  0.45594000000E+02  0.51100000000E-03 0. -1.
    9900012    2    1    2    0    0 -0.27829887836E+02  0.22887904790E+02  0.18836315132E+02  0.50528860678E+02  0.30000002517E+02 0.  0.
         12    1    1    2    0    0  0.27829887836E+02 -0.22887904790E+02 -0.18836315132E+02  0.40659139322E+02  0.00000000000E+00 0. -1.
         11    1    3    3    0    0  0.19253831273E+01 -0.18097517511E+01 -0.17053736063E+01  0.31449325885E+01  0.51100000000E-03 0. -1.
        -11    1    3    3    0    0 -0.23173292756E+01  0.12167809880E+02  0.42070083517E+01  0.13081457555E+02  0.51100000000E-03 0.  1.
         12    1    3    3    0    0 -0.27437941688E+02  0.12529846661E+02  0.16334680387E+02  0.34302470534E+02  0.00000000000E+00 0. -1.
</event>
<event>
 7    1  0.4871930E-013  0.5052886E+02  0.7816164E-02  0.1300439E+00
        -11   -1    0    0    0    0  0.00000000000E+00  0.00000000000E+00  0.45593999997E+02  0.45594000000E+02  0.51100000000E-03 0.  1.
         11   -1    0    0    0    0 -0.00000000000E+00 -0.00000000000E+00 -0.45593999997E+02  0.45594000000E+02  0.51100000000E-03 0. -1.
    9900012    2    1    2    0    0 -0.25317119879E+02 -0.31602633153E+02  0.36718599089E+01  0.50528861588E+02  0.30000005284E+02 0.  0.
         12    1    1    2    0    0  0.25317119879E+02  0.31602633153E+02 -0.36718599089E+01  0.40659138412E+02  0.00000000000E+00 0. -1.
         11    1    3    3    0    0 -0.32846231060E+01 -0.23907485543E+01 -0.63026141280E+01  0.74984913620E+01  0.51100000000E-03 0. -1.
        -11    1    3    3    0    0 -0.22804106330E+02 -0.28123997235E+02  0.34506477294E+01  0.36371602329E+02  0.51100000000E-03 0.  1.
         12    1    3    3    0    0  0.77160955642E+00 -0.10878873641E+01  0.65238263075E+01  0.66587678977E+01  0.00000000000E+00 0. -1.
</event>
<event>
 7    1  0.4871930E-013  0.5052883E+02  0.7816164E-02  0.1300439E+00
        -11   -1    0    0    0    0  0.00000000000E+00  0.00000000000E+00  0.45593999997E+02  0.45594000000E+02  0.51100000000E-03 0.  1.
         11   -1    0    0    0    0 -0.00000000000E+00 -0.00000000000E+00 -0.45593999997E+02  0.45594000000E+02  0.51100000000E-03 0. -1.
    9900012    2    1    2    0    0 -0.30443986869E+02  0.25125447473E+02  0.97490433936E+01  0.50528827673E+02  0.29999902195E+02 0.  0.
         12    1    1    2    0    0  0.30443986869E+02 -0.25125447473E+02 -0.97490433936E+01  0.40659172327E+02  0.00000000000E+00 0. -1.
         11    1    3    3    0    0 -0.15985207328E+02  0.16495684455E+02 -0.16825617066E+01  0.23031836078E+02  0.51100000000E-03 0. -1.
        -11    1    3    3    0    0 -0.67149462756E+01  0.13697328509E+02  0.97120917071E+01  0.18084027133E+02  0.51100000000E-03 0.  1.
        -12    1    3    3    0    0 -0.77438332658E+01 -0.50675654912E+01  0.17195133932E+01  0.94129644621E+01  0.00000000000E+00 0.  1.
</event>
<event>
 7    1  0.4871930E-013  0.5052886E+02  0.7816164E-02  0.1300439E+00
        -11   -1    0    0    0    0  0.00000000000E+00  0.00000000000E+00  0.45593999997E+02  0.45594000000E+02  0.51100000000E-03 0.  1.
         11   -1    0    0    0    0 -0.00000000000E+00 -0.00000000000E+00 -0.45593999997E+02  0.45594000000E+02  0.51100000000E-03 0. -1.
    9900012    2    1    2    0    0 -0.31289582350E+02  0.17750568085E+01  0.25903218537E+02  0.50528861779E+02  0.30000005864E+02 0.  0.
         12    1    1    2    0    0  0.31289582350E+02 -0.17750568085E+01 -0.25903218537E+02  0.40659138221E+02  0.00000000000E+00 0. -1.
         11    1    3    3    0    0 -0.60231782997E+01 -0.50820057129E+00  0.12227736648E+02  0.13640179194E+02  0.51100000000E-03 0. -1.
        -11    1    3    3    0    0 -0.26591218195E+01 -0.36157102509E+01  0.12738074947E+02  0.13505659669E+02  0.51100000000E-03 0.  1.
         12    1    3    3    0    0 -0.22607282231E+02  0.58989676307E+01  0.93740694209E+00  0.23383022917E+02  0.00000000000E+00 0. -1.
</event>
<event>
 7    1  0.4871930E-013  0.5052886E+02  0.7816164E-02  0.1300439E+00
        -11   -1    0    0    0    0  0.00000000000E+00  0.00000000000E+00  0.45593999997E+02  0.45594000000E+02  0.51100000000E-03 0.  1.
         11   -1    0    0    0    0 -0.00000000000E+00 -0.00000000000E+00 -0.45593999997E+02  0.45594000000E+02  0.51100000000E-03 0. -1.
    9900012    2    1    2    0    0 -0.24147386945E+02  0.63082940907E+01  0.32097893720E+02  0.50528860168E+02  0.30000000965E+02 0.  0.
         12    1    1    2    0    0  0.24147386945E+02 -0.63082940907E+01 -0.32097893720E+02  0.40659139832E+02  0.00000000000E+00 0. -1.
         11    1    3    3    0    0 -0.55528675352E+01 -0.43310636670E+01 -0.29450697960E+01  0.76332094636E+01  0.51100000000E-03 0. -1.
        -11    1    3    3    0    0 -0.32354790816E-01  0.50487528620E+01  0.10226542333E+02  0.11404960353E+02  0.51100000000E-03 0.  1.
        -12    1    3    3    0    0 -0.18562164619E+02  0.55906048957E+01  0.24816421183E+02  0.31490690351E+02  0.00000000000E+00 0.  1.
</event>
<event>
 7    1  0.4871930E-013  0.5052886E+02  0.7816164E-02  0.1300439E+00
        -11   -1    0    0    0    0  0.00000000000E+00  0.00000000000E+00  0.45593999997E+02  0.45594000000E+02  0.51100000000E-03 0. -1.
         11   -1    0    0    0    0 -0.00000000000E+00 -0.00000000000E+00 -0.45593999997E+02  0.45594000000E+02  0.51100000000E-03 0.  1.
    9900012    2    1    2    0    0 -0.46798650682E+01 -0.40009101983E+02 -0.55259910955E+01  0.50528856427E+02  0.29999989595E+02 0.  0.
         12    1    1    2    0    0  0.46798650682E+01  0.40009101983E+02  0.55259910955E+01  0.40659143573E+02  0.00000000000E+00 0. -1.
         11    1    3    3    0    0  0.13068596563E+01 -0.48476299480E+01  0.32548951547E+01  0.59834556072E+01  0.51100000000E-03 0. -1.
        -11    1    3    3    0    0 -0.25714302862E+01  0.37421476576E+01 -0.17404052634E+01  0.48626056338E+01  0.51100000000E-03 0.  1.
        -12    1    3    3    0    0 -0.34152944383E+01 -0.38903619692E+02 -0.70404809869E+01  0.39682795186E+02  0.00000000000E+00 0.  1.
</event>
<event>
 7    1  0.4871930E-013  0.5052885E+02  0.7816164E-02  0.1300439E+00
        -11   -1    0    0    0    0  0.00000000000E+00  0.00000000000E+00  0.45593999997E+02  0.45594000000E+02  0.51100000000E-03 0. -1.
         11   -1    0    0    0    0 -0.00000000000E+00 -0.00000000000E+00 -0.45593999997E+02  0.45594000000E+02  0.51100000000E-03 0.  1.
    9900012    2    1    2    0    0  0.31647960862E+02 -0.10986108389E+02 -0.23040794375E+02  0.50528853308E+02  0.29999980116E+02 0.  0.
         12    1    1    2    0    0 -0.31647960862E+02  0.10986108389E+02  0.23040794375E+02  0.40659146692E+02  0.00000000000E+00 0. -1.
         11    1    3    3    0    0  0.87866062977E+01  0.60919706196E+01 -0.34828427884E+01  0.11244854397E+02  0.51100000000E-03 0. -1.
        -11    1    3    3    0    0  0.22650945756E+02 -0.89545550574E+01 -0.90122594594E+01  0.25970564505E+02  0.51100000000E-03 0.  1.
         12    1    3    3    0    0  0.21040880892E+00 -0.81235239508E+01 -0.10545692127E+02  0.13313434406E+02  0.00000000000E+00 0. -1.
</event>
<event>
 7    1  0.4871930E-013  0.5052886E+02  0.7816164E-02  0.1300439E+00
        -11   -1    0    0    0    0  0.00000000000E+00  0.00000000000E+00  0.45593999997E+02  0.45594000000E+02  0.51100000000E-03 0.  1.
         11   -1    0    0    0    0 -0.00000000000E+00 -0.00000000000E+00 -0.45593999997E+02  0.45594000000E+02  0.51100000000E-03 0. -1.
    9900012    2    1    2    0    0 -0.51667236245E+01  0.26445705566E+02  0.30448241454E+02  0.50528858549E+02  0.29999996045E+02 0.  0.
         12    1    1    2    0    0  0.51667236245E+01 -0.26445705566E+02 -0.30448241454E+02  0.40659141451E+02  0.00000000000E+00 0. -1.
         11    1    3    3    0    0 -0.76060430377E+01  0.31214421098E+01  0.82532442769E+01  0.11649520715E+02  0.51100000000E-03 0. -1.
        -11    1    3    3    0    0  0.40276001346E+01 -0.41251284499E-01 -0.25831441098E+01  0.47849658584E+01  0.51100000000E-03 0.  1.
        -12    1    3    3    0    0 -0.15882807214E+01  0.23365514741E+02  0.24778141287E+02  0.34094371975E+02  0.00000000000E+00 0.  1.
</event>
<event>
 7    1  0.4871930E-013  0.5052884E+02  0.7816164E-02  0.1300439E+00
        -11   -1    0    0    0    0  0.00000000000E+00  0.00000000000E+00  0.45593999997E+02  0.45594000000E+02  0.51100000000E-03 0. -1.
         11   -1    0    0    0    0 -0.00000000000E+00 -0.00000000000E+00 -0.45593999997E+02  0.45594000000E+02  0.51100000000E-03 0.  1.
    9900012    2    1    2    0    0  0.39722566832E+02  0.61784308507E+01  0.60919316836E+01  0.50528844141E+02  0.29999952251E+02 0.  0.
         12    1    1    2    0    0 -0.39722566832E+02 -0.61784308507E+01 -0.60919316836E+01  0.40659155859E+02  0.00000000000E+00 0. -1.
         11    1    3    3    0    0  0.26350997805E+02  0.39410152643E+01 -0.65061355733E+01  0.27426929959E+02  0.51100000000E-03 0. -1.
        -11    1    3    3    0    0  0.13444683103E+02 -0.20085322769E+01  0.51664189863E+01  0.14542544173E+02  0.51100000000E-03 0.  1.
         12    1    3    3    0    0 -0.73114074922E-01  0.42459478632E+01  0.74316482706E+01  0.85593700085E+01  0.00000000000E+00 0. -1.
</event>
<event>
 7    1  0.4871930E-013  0.5052886E+02  0.7816164E-02  0.1300439E+00
        -11   -1    0    0    0    0  0.00000000000E+00  0.00000000000E+00  0.45593999997E+02  0.45594000000E+02  0.51100000000E-03 0.  1.
         11   -1    0    0    0    0 -0.00000000000E+00 -0.00000000000E+00 -0.45593999997E+02  0.45594000000E+02  0.51100000000E-03 0. -1.
    9900012    2    1    2    0    0  0.10739147314E+01 -0.39440496279E+02  0.98213932498E+01  0.50528858286E+02  0.29999995245E+02 0.  0.
         12    1    1    2    0    0 -0.10739147314E+01  0.39440496279E+02 -0.98213932498E+01  0.40659141714E+02  0.00000000000E+00 0. -1.
         11    1    3    3    0    0  0.32807395362E+01  0.20498756523E+01 -0.26255177945E+01  0.46753166785E+01  0.51100000000E-03 0. -1.
        -11    1    3    3    0    0 -0.55893041418E+01 -0.10734578526E+02 -0.94317289941E+00  0.12139236892E+02  0.51100000000E-03 0.  1.
         12    1    3    3    0    0  0.33824793369E+01 -0.30755793405E+02  0.13390083944E+02  0.33714304715E+02  0.00000000000E+00 0. -1.
</event>
<event>
 7    1  0.4871930E-013  0.5052885E+02  0.7816164E-02  0.1300439E+00
        -11   -1    0    0    0    0  0.00000000000E+00  0.00000000000E+00  0.45593999997E+02  0.45594000000E+02  0.51100000000E-03 0.  1.
         11   -1    0    0    0    0 -0.00000000000E+00 -0.00000000000E+00 -0.45593999997E+02  0.45594000000E+02  0.51100000000E-03 0. -1.
    9900012    2    1    2    0    0  0.10162022541E+02 -0.24829927643E+02  0.30551171245E+02  0.50528854985E+02  0.29999985214E+02 0.  0.
         12    1    1    2    0    0 -0.10162022541E+02  0.24829927643E+02 -0.30551171245E+02  0.40659145015E+02  0.00000000000E+00 0. -1.
         11    1    3    3    0    0  0.26710166206E+01  0.32529823188E+01 -0.22956323504E+01  0.47943875420E+01  0.51100000000E-03 0. -1.
        -11    1    3    3    0    0 -0.25523606576E+01 -0.10779776655E+01  0.14722150398E+01  0.31375146467E+01  0.51100000000E-03 0.  1.
        -12    1    3    3    0    0  0.10043366578E+02 -0.27004932296E+02  0.31374588555E+02  0.42596952797E+02  0.00000000000E+00 0.  1.
</event>
<event>
 7    1  0.4871930E-013  0.5052886E+02  0.7816164E-02  0.1300439E+00
        -11   -1    0    0    0    0  0.00000000000E+00  0.00000000000E+00  0.45593999997E+02  0.45594000000E+02  0.51100000000E-03 0.  1.
         11   -1    0    0    0    0 -0.00000000000E+00 -0.00000000000E+00 -0.45593999997E+02  0.45594000000E+02  0.51100000000E-03 0. -1.
    9900012    2    1    2    0    0 -0.15293256392E+02 -0.21802259419E+02  0.30723657316E+02  0.50528864179E+02  0.30000013158E+02 0.  0.
         12    1    1    2    0    0  0.15293256392E+02  0.21802259419E+02 -0.30723657316E+02  0.40659135821E+02  0.00000000000E+00 0. -1.
         11    1    3    3    0    0 -0.22355844599E+01 -0.39425323345E+01 -0.57841148155E+01  0.73482911990E+01  0.51100000000E-03 0. -1.
        -11    1    3    3    0    0 -0.96255861000E-01 -0.27497885514E+01  0.75866009595E+01  0.80701373376E+01  0.51100000000E-03 0.  1.
         12    1    3    3    0    0 -0.12961416071E+02 -0.15109938533E+02  0.28921171172E+02  0.35110435642E+02  0.00000000000E+00 0. -1.
</event>
<event>
 7    1  0.4871930E-013  0.5052888E+02  0.7816164E-02  0.1300439E+00
        -11   -1    0    0    0    0  0.00000000000E+00  0.00000000000E+00  0.45593999997E+02  0.45594000000E+02  0.51100000000E-03 0.  1.
         11   -1    0    0    0    0 -0.00000000000E+00 -0.00000000000E+00 -0.45593999997E+02  0.45594000000E+02  0.51100000000E-03 0. -1.
    9900012    2    1    2    0    0 -0.66717013657E+01  0.27681933773E+02  0.29023493130E+02  0.50528877900E+02  0.30000054864E+02 0.  0.
         12    1    1    2    0    0  0.66717013657E+01 -0.27681933773E+02 -0.29023493130E+02  0.40659122100E+02  0.00000000000E+00 0. -1.
         11    1    3    3    0    0 -0.80947577802E+01  0.18035752706E+02  0.94922682150E+01  0.21929811566E+02  0.51100000000E-03 0.  1.
        -11    1    3    3    0    0  0.52142943950E+01  0.10592179312E+02  0.38191901515E+01  0.12408438350E+02  0.51100000000E-03 0. -1.
        -12    1    3    3    0    0 -0.37912379806E+01 -0.94599824496E+00  0.15712034763E+02  0.16190627984E+02  0.00000000000E+00 0.  1.
</event>
<event>
 7    1  0.4871930E-013  0.5052887E+02  0.7816164E-02  0.1300439E+00
        -11   -1    0    0    0    0  0.00000000000E+00  0.00000000000E+00  0.45593999997E+02  0.45594000000E+02  0.51100000000E-03 0.  1.
         11   -1    0    0    0    0 -0.00000000000E+00 -0.00000000000E+00 -0.45593999997E+02  0.45594000000E+02  0.51100000000E-03 0. -1.
    9900012    2    1    2    0    0  0.27762028078E+02  0.29595696080E+02  0.25552298539E+01  0.50528872746E+02  0.30000039199E+02 0.  0.
         12    1    1    2    0    0 -0.27762028078E+02 -0.29595696080E+02 -0.25552298539E+01  0.40659127254E+02  0.00000000000E+00 0. -1.
         11    1    3    3    0    0  0.70278315641E+01  0.44829349938E+01 -0.86742749359E+01  0.12030385221E+02  0.51100000000E-03 0. -1.
        -11    1    3    3    0    0  0.11337234772E+02  0.17428765021E+02 -0.15793254588E+01  0.20851594942E+02  0.51100000000E-03 0.  1.
        -12    1    3    3    0    0  0.93969617414E+01  0.76839960652E+01  0.12808830249E+02  0.17646892583E+02  0.00000000000E+00 0.  1.
</event>
<event>
 7    1  0.4871930E-013  0.5052885E+02  0.7816164E-02  0.1300439E+00
        -11   -1    0    0    0    0  0.00000000000E+00  0.00000000000E+00  0.45593999997E+02  0.45594000000E+02  0.51100000000E-03 0.  1.
         11   -1    0    0    0    0 -0.00000000000E+00 -0.00000000000E+00 -0.45593999997E+02  0.45594000000E+02  0.51100000000E-03 0. -1.
    9900012    2    1    2    0    0  0.76369535837E+01 -0.97680680980E+01  0.38722448416E+02  0.50528853111E+02  0.29999979517E+02 0.  0.
         12    1    1    2    0    0 -0.76369535837E+01  0.97680680980E+01 -0.38722448416E+02  0.40659146889E+02  0.00000000000E+00 0. -1.
         11    1    3    3    0    0  0.50394219508E+01  0.36316602355E+01  0.26925822974E+01  0.67701351061E+01  0.51100000000E-03 0. -1.
        -11    1    3    3    0    0 -0.99865667029E+00 -0.11512081963E+02  0.52154417793E+01  0.12677782909E+02  0.51100000000E-03 0.  1.
        -12    1    3    3    0    0  0.35961883031E+01 -0.18876463704E+01  0.30814424339E+02  0.31080935097E+02  0.00000000000E+00 0.  1.
</event>
<event>
 7    1  0.4871930E-013  0.5052885E+02  0.7816164E-02  0.1300439E+00
        -11   -1    0    0    0    0  0.00000000000E+00  0.00000000000E+00  0.45593999997E+02  0.45594000000E+02  0.51100000000E-03 0. -1.
         11   -1    0    0    0    0 -0.00000000000E+00 -0.00000000000E+00 -0.45593999997E+02  0.45594000000E+02  0.51100000000E-03 0.  1.
    9900012    2    1    2    0    0  0.22623551987E+02  0.29059875630E+02 -0.17229768252E+02  0.50528851089E+02  0.29999973370E+02 0.  0.
         12    1    1    2    0    0 -0.22623551987E+02 -0.29059875630E+02  0.17229768252E+02  0.40659148911E+02  0.00000000000E+00 0. -1.
         11    1    3    3    0    0  0.10374271499E+02  0.17688001202E+02 -0.20213818471E+02  0.28793911736E+02  0.51100000000E-03 0. -1.
        -11    1    3    3    0    0  0.31470990319E+01  0.52854823713E+01 -0.52080008786E+01  0.80600142448E+01  0.51100000000E-03 0.  1.
         12    1    3    3    0    0  0.91021814562E+01  0.60863920568E+01  0.81920510968E+01  0.13674925108E+02  0.00000000000E+00 0. -1.
</event>
<event>
 7    1  0.4871930E-013  0.5052887E+02  0.7816164E-02  0.1300439E+00
        -11   -1    0    0    0    0  0.00000000000E+00  0.00000000000E+00  0.45593999997E+02  0.45594000000E+02  0.51100000000E-03 0.  1.
         11   -1    0    0    0    0 -0.00000000000E+00 -0.00000000000E+00 -0.45593999997E+02  0.45594000000E+02  0.51100000000E-03 0. -1.
    9900012    2    1    2    0    0  0.19625001422E+01 -0.31753413424E+02  0.25318660162E+02  0.50528865439E+02  0.30000016989E+02 0.  0.
         12    1    1    2    0    0 -0.19625001422E+01  0.31753413424E+02 -0.25318660162E+02  0.40659134561E+02  0.00000000000E+00 0. -1.
         11    1    3    3    0    0  0.42357668884E+01 -0.76842948671E+00 -0.21405928352E+01  0.48077378211E+01  0.51100000000E-03 0. -1.
        -11    1    3    3    0    0 -0.52011326492E+01 -0.18827151404E+02  0.52376816615E+01  0.20222431117E+02  0.51100000000E-03 0.  1.
        -12    1    3    3    0    0  0.29278659030E+01 -0.12157832532E+02  0.22221571335E+02  0.25498696501E+02  0.00000000000E+00 0.  1.
</event>
<event>
 7    1  0.4871930E-013  0.5052886E+02  0.7816164E-02  0.1300439E+00
        -11   -1    0    0    0    0  0.00000000000E+00  0.00000000000E+00  0.45593999997E+02  0.45594000000E+02  0.51100000000E-03 0.  1.
         11   -1    0    0    0    0 -0.00000000000E+00 -0.00000000000E+00 -0.45593999997E+02  0.45594000000E+02  0.51100000000E-03 0. -1.
    9900012    2    1    2    0    0  0.28274950770E+02 -0.24122170144E+02  0.16486767014E+02  0.50528863018E+02  0.30000009630E+02 0.  0.
         12    1    1    2    0    0 -0.28274950770E+02  0.24122170144E+02 -0.16486767014E+02  0.40659136982E+02  0.00000000000E+00 0. -1.
         11    1    3    3    0    0  0.14750960504E+02 -0.19667875519E+02  0.21724666962E+02  0.32808189802E+02  0.51100000000E-03 0. -1.
        -11    1    3    3    0    0  0.42486839577E+01 -0.56768597859E+01 -0.19684356704E+00  0.70934335870E+01  0.51100000000E-03 0.  1.
        -12    1    3    3    0    0  0.92753063086E+01  0.12225651607E+01 -0.50410563813E+01  0.10627239629E+02  0.00000000000E+00 0.  1.
</event>
<event>
 7    1  0.4871930E-013  0.5052886E+02  0.7816164E-02  0.1300439E+00
        -11   -1    0    0    0    0  0.00000000000E+00  0.00000000000E+00  0.45593999997E+02  0.45594000000E+02  0.51100000000E-03 0.  1.
         11   -1    0    0    0    0 -0.00000000000E+00 -0.00000000000E+00 -0.45593999997E+02  0.45594000000E+02  0.51100000000E-03 0. -1.
    9900012    2    1    2    0    0 -0.23978497794E+02 -0.18871563633E+02  0.26871201652E+02  0.50528858978E+02  0.29999997350E+02 0.  0.
         12    1    1    2    0    0  0.23978497794E+02  0.18871563633E+02 -0.26871201652E+02  0.40659141022E+02  0.00000000000E+00 0. -1.
         11    1    3    3    0    0 -0.15467706326E+02 -0.63119052276E-01  0.14626071823E+02  0.21287928510E+02  0.51100000000E-03 0. -1.
        -11    1    3    3    0    0 -0.43921442398E+01 -0.51656197980E+01  0.13323124888E+02  0.14949254696E+02  0.51100000000E-03 0.  1.
         12    1    3    3    0    0 -0.41186472283E+01 -0.13642824783E+02 -0.10779950590E+01  0.14291675773E+02  0.00000000000E+00 0. -1.
</event>
<event>
 7    1  0.4871930E-013  0.5052883E+02  0.7816164E-02  0.1300439E+00
        -11   -1    0    0    0    0  0.00000000000E+00  0.00000000000E+00  0.45593999997E+02  0.45594000000E+02  0.51100000000E-03 0.  1.
         11   -1    0    0    0    0 -0.00000000000E+00 -0.00000000000E+00 -0.45593999997E+02  0.45594000000E+02  0.51100000000E-03 0. -1.
    9900012    2    1    2    0    0 -0.30452509246E+02  0.15535965994E+02  0.22010153906E+02  0.50528825959E+02  0.29999896985E+02 0.  0.
         12    1    1    2    0    0  0.30452509246E+02 -0.15535965994E+02 -0.22010153906E+02  0.40659174041E+02  0.00000000000E+00 0. -1.
         11    1    3    3    0    0  0.11537140459E+01  0.88256620882E+01  0.28909867568E+01  0.93584812915E+01  0.51100000000E-03 0. -1.
        -11    1    3    3    0    0 -0.14783442952E+02 -0.17040716024E+01  0.78277574967E+00  0.14901905371E+02  0.51100000000E-03 0.  1.
        -12    1    3    3    0    0 -0.16822780339E+02  0.84143755086E+01  0.18336391399E+02  0.26268439297E+02  0.00000000000E+00 0.  1.
</event>
<event>
 7    1  0.4871930E-013  0.5052886E+02  0.7816164E-02  0.1300439E+00
        -11   -1    0    0    0    0  0.00000000000E+00  0.00000000000E+00  0.45593999997E+02  0.45594000000E+02  0.51100000000E-03 0.  1.
         11   -1    0    0    0    0 -0.00000000000E+00 -0.00000000000E+00 -0.45593999997E+02  0.45594000000E+02  0.51100000000E-03 0. -1.
    9900012    2    1    2    0    0 -0.14670454343E+02  0.25554214511E+02  0.28016516397E+02  0.50528864484E+02  0.30000014085E+02 0.  0.
         12    1    1    2    0    0  0.14670454343E+02 -0.25554214511E+02 -0.28016516397E+02  0.40659135516E+02  0.00000000000E+00 0. -1.
         11    1    3    3    0    0 -0.34163663340E+01  0.14870245413E+01  0.10657489101E+02  0.11290034327E+02  0.51100000000E-03 0.  1.
        -11    1    3    3    0    0 -0.15061195668E+02  0.25971082636E+02  0.11848538766E+02  0.32275759006E+02  0.51100000000E-03 0. -1.
         12    1    3    3    0    0  0.38071076588E+01 -0.19038926663E+01  0.55104885304E+01  0.69630711511E+01  0.00000000000E+00 0. -1.
</event>
<event>
 7    1  0.4871930E-013  0.5052886E+02  0.7816164E-02  0.1300439E+00
        -11   -1    0    0    0    0  0.00000000000E+00  0.00000000000E+00  0.45593999997E+02  0.45594000000E+02  0.51100000000E-03 0.  1.
         11   -1    0    0    0    0 -0.00000000000E+00 -0.00000000000E+00 -0.45593999997E+02  0.45594000000E+02  0.51100000000E-03 0. -1.
    9900012    2    1    2    0    0  0.12249882100E+02 -0.20856031659E+02  0.32682283250E+02  0.50528864415E+02  0.30000013877E+02 0.  0.
         12    1    1    2    0    0 -0.12249882100E+02  0.20856031659E+02 -0.32682283250E+02  0.40659135585E+02  0.00000000000E+00 0. -1.
         11    1    3    3    0    0  0.81783943912E+01 -0.11902294921E+02  0.83505985845E+01  0.16681824126E+02  0.51100000000E-03 0. -1.
        -11    1    3    3    0    0  0.87880340898E+01 -0.54569450955E+01  0.25798532492E+02  0.27795180732E+02  0.51100000000E-03 0.  1.
         12    1    3    3    0    0 -0.47165463808E+01 -0.34967916428E+01 -0.14668478259E+01  0.60518595572E+01  0.00000000000E+00 0. -1.
</event>
<event>
 7    1  0.4871930E-013  0.5052886E+02  0.7816164E-02  0.1300439E+00
        -11   -1    0    0    0    0  0.00000000000E+00  0.00000000000E+00  0.45593999997E+02  0.45594000000E+02  0.51100000000E-03 0. -1.
         11   -1    0    0    0    0 -0.00000000000E+00 -0.00000000000E+00 -0.45593999997E+02  0.45594000000E+02  0.51100000000E-03 0.  1.
    9900012    2    1    2    0    0  0.76083552614E+01  0.39759521146E+02  0.38025094776E+01  0.50528859947E+02  0.30000000295E+02 0.  0.
         12    1    1    2    0    0 -0.76083552614E+01 -0.39759521146E+02 -0.38025094776E+01  0.40659140053E+02  0.00000000000E+00 0. -1.
         11    1    3    3    0    0  0.37501938606E+01  0.24268873413E+01 -0.13715857444E+01  0.46727918716E+01  0.51100000000E-03 0. -1.
        -11    1    3    3    0    0  0.92148356472E+01  0.38903132287E+02  0.46618228985E+01  0.40250459509E+02  0.51100000000E-03 0.  1.
         12    1    3    3    0    0 -0.53566742464E+01 -0.15704984823E+01  0.51227232349E+00  0.56056085663E+01  0.00000000000E+00 0. -1.
</event>
<event>
 7    1  0.4871930E-013  0.5052886E+02  0.7816164E-02  0.1300439E+00
        -11   -1    0    0    0    0  0.00000000000E+00  0.00000000000E+00  0.45593999997E+02  0.45594000000E+02  0.51100000000E-03 0.  1.
         11   -1    0    0    0    0 -0.00000000000E+00 -0.00000000000E+00 -0.45593999997E+02  0.45594000000E+02  0.51100000000E-03 0. -1.
    9900012    2    1    2    0    0  0.21811741378E+02  0.33875397372E+02  0.54654476551E+01  0.50528859243E+02  0.29999998155E+02 0.  0.
         12    1    1    2    0    0 -0.21811741378E+02 -0.33875397372E+02 -0.54654476551E+01  0.40659140757E+02  0.00000000000E+00 0. -1.
         11    1    3    3    0    0  0.54888222010E+01  0.78550604866E+01  0.31851072521E+01  0.10098220282E+02  0.51100000000E-03 0. -1.
        -11    1    3    3    0    0  0.15738160880E+02  0.14867118760E+01  0.14740852298E+01  0.15876805334E+02  0.51100000000E-03 0.  1.
         12    1    3    3    0    0  0.58475829716E+00  0.24533625009E+02  0.80625517329E+00  0.24553833627E+02  0.00000000000E+00 0. -1.
</event>
<event>
 7    1  0.4871930E-013  0.5052888E+02  0.7816164E-02  0.1300439E+00
        -11   -1    0    0    0    0  0.00000000000E+00  0.00000000000E+00  0.45593999997E+02  0.45594000000E+02  0.51100000000E-03 0.  1.
         11   -1    0    0    0    0 -0.00000000000E+00 -0.00000000000E+00 -0.45593999997E+02  0.45594000000E+02  0.51100000000E-03 0. -1.
    9900012    2    1    2    0    0  0.14593202279E+02 -0.15377929874E+02  0.34694695646E+02  0.50528878196E+02  0.30000055764E+02 0.  0.
         12    1    1    2    0    0 -0.14593202279E+02  0.15377929874E+02 -0.34694695646E+02  0.40659121804E+02  0.00000000000E+00 0. -1.
         11    1    3    3    0    0 -0.40267962414E+01 -0.32868467570E+01  0.91110373060E+01  0.10489492391E+02  0.51100000000E-03 0. -1.
        -11    1    3    3    0    0  0.14360627624E+02 -0.17029625136E+02  0.25010403071E+02  0.33492626353E+02  0.51100000000E-03 0.  1.
         12    1    3    3    0    0  0.42593708965E+01  0.49385420190E+01  0.57325526855E+00  0.65467594510E+01  0.00000000000E+00 0. -1.
</event>
<event>
 7    1  0.4871930E-013  0.5052886E+02  0.7816164E-02  0.1300439E+00
        -11   -1    0    0    0    0  0.00000000000E+00  0.00000000000E+00  0.45593999997E+02  0.45594000000E+02  0.51100000000E-03 0.  1.
         11   -1    0    0    0    0 -0.00000000000E+00 -0.00000000000E+00 -0.45593999997E+02  0.45594000000E+02  0.51100000000E-03 0. -1.
    9900012    2    1    2    0    0  0.45501340858E+01 -0.36674359918E+02 -0.16954452047E+02  0.50528857857E+02  0.29999993941E+02 0.  0.
         12    1    1    2    0    0 -0.45501340858E+01  0.36674359918E+02  0.16954452047E+02  0.40659142143E+02  0.00000000000E+00 0. -1.
         11    1    3    3    0    0 -0.62905215394E+01 -0.23110639995E+01  0.30936733463E+01  0.73812257168E+01  0.51100000000E-03 0. -1.
        -11    1    3    3    0    0  0.25779810782E+01 -0.24345007351E+02 -0.89517743930E+01  0.26066446524E+02  0.51100000000E-03 0.  1.
        -12    1    3    3    0    0  0.82626745470E+01 -0.10018288567E+02 -0.11096351001E+02  0.17081185615E+02  0.00000000000E+00 0.  1.
</event>
<event>
 7    1  0.4871930E-013  0.5052886E+02  0.7816164E-02  0.1300439E+00
        -11   -1    0    0    0    0  0.00000000000E+00  0.00000000000E+00  0.45593999997E+02  0.45594000000E+02  0.51100000000E-03 0.  1.
         11   -1    0    0    0    0 -0.00000000000E+00 -0.00000000000E+00 -0.45593999997E+02  0.45594000000E+02  0.51100000000E-03 0. -1.
    9900012    2    1    2    0    0 -0.24156778446E+01  0.37443412423E+02 -0.15662739167E+02  0.50528855499E+02  0.29999986775E+02 0.  0.
         12    1    1    2    0    0  0.24156778446E+01 -0.37443412423E+02  0.15662739167E+02  0.40659144501E+02  0.00000000000E+00 0. -1.
         11    1    3    3    0    0 -0.37971400908E+01  0.80409137762E+01 -0.11384810295E+02  0.14446053888E+02  0.51100000000E-03 0. -1.
        -11    1    3    3    0    0  0.68365619352E+01  0.14668205077E+02 -0.10381935087E+02  0.19227048543E+02  0.51100000000E-03 0.  1.
        -12    1    3    3    0    0 -0.54550996889E+01  0.14734293570E+02  0.61040062146E+01  0.16855753068E+02  0.00000000000E+00 0.  1.
</event>
<event>
 7    1  0.4871930E-013  0.5052886E+02  0.7816164E-02  0.1300439E+00
        -11   -1    0    0    0    0  0.00000000000E+00  0.00000000000E+00  0.45593999997E+02  0.45594000000E+02  0.51100000000E-03 0.  1.
         11   -1    0    0    0    0 -0.00000000000E+00 -0.00000000000E+00 -0.45593999997E+02  0.45594000000E+02  0.51100000000E-03 0. -1.
    9900012    2    1    2    0    0  0.29576874949E+02 -0.27741748033E+02  0.29613081839E+01  0.50528862505E+02  0.30000008070E+02 0.  0.
         12    1    1    2    0    0 -0.29576874949E+02  0.27741748033E+02 -0.29613081839E+01  0.40659137495E+02  0.00000000000E+00 0. -1.
         11    1    3    3    0    0  0.15557809903E+02 -0.11163161938E+02  0.10825002566E+02  0.21996415941E+02  0.51100000000E-03 0. -1.
        -11    1    3    3    0    0 -0.20392776803E+01 -0.63787535286E+01  0.21507570811E+01  0.70336979121E+01  0.51100000000E-03 0.  1.
         12    1    3    3    0    0  0.16058342727E+02 -0.10199832567E+02 -0.10014451463E+02  0.21498748652E+02  0.00000000000E+00 0. -1.
</event>
<event>
 7    1  0.4871930E-013  0.5052887E+02  0.7816164E-02  0.1300439E+00
        -11   -1    0    0    0    0  0.00000000000E+00  0.00000000000E+00  0.45593999997E+02  0.45594000000E+02  0.51100000000E-03 0. -1.
         11   -1    0    0    0    0 -0.00000000000E+00 -0.00000000000E+00 -0.45593999997E+02  0.45594000000E+02  0.51100000000E-03 0.  1.
    9900012    2    1    2    0    0 -0.36505382945E+02 -0.59274906767E+01  0.16893400500E+02  0.50528866830E+02  0.30000021217E+02 0.  0.
         12    1    1    2    0    0  0.36505382945E+02  0.59274906767E+01 -0.16893400500E+02  0.40659133170E+02  0.00000000000E+00 0. -1.
         11    1    3    3    0    0 -0.87605229194E+01 -0.99698422082E+01  0.50318364877E+01  0.14193797736E+02  0.51100000000E-03 0.  1.
        -11    1    3    3    0    0 -0.65016783973E+01 -0.75170424892E+01  0.53597088460E+01  0.11291777050E+02  0.51100000000E-03 0. -1.
         12    1    3    3    0    0 -0.21243181628E+02  0.11559394021E+02  0.65018551664E+01  0.25043292044E+02  0.00000000000E+00 0. -1.
</event>
<event>
 7    1  0.4871930E-013  0.5052886E+02  0.7816164E-02  0.1300439E+00
        -11   -1    0    0    0    0  0.00000000000E+00  0.00000000000E+00  0.45593999997E+02  0.45594000000E+02  0.51100000000E-03 0. -1.
         11   -1    0    0    0    0 -0.00000000000E+00 -0.00000000000E+00 -0.45593999997E+02  0.45594000000E+02  0.51100000000E-03 0.  1.
    9900012    2    1    2    0    0  0.38831104950E+02 -0.81916324898E+01  0.88435321682E+01  0.50528860613E+02  0.30000002320E+02 0.  0.
         12    1    1    2    0    0 -0.38831104950E+02  0.81916324898E+01 -0.88435321682E+01  0.40659139387E+02  0.00000000000E+00 0. -1.
         11    1    3    3    0    0  0.12331295746E+02 -0.10900662567E+02 -0.39312638124E+01  0.16921587827E+02  0.51100000000E-03 0. -1.
        -11    1    3    3    0    0  0.62542774914E+01 -0.59437646460E+01  0.62159149757E+01  0.10633998512E+02  0.51100000000E-03 0.  1.
         12    1    3    3    0    0  0.20245531712E+02  0.86527947233E+01  0.65588810050E+01  0.22973274274E+02  0.00000000000E+00 0. -1.
</event>
<event>
 7    1  0.4871930E-013  0.5052885E+02  0.7816164E-02  0.1300439E+00
        -11   -1    0    0    0    0  0.00000000000E+00  0.00000000000E+00  0.45593999997E+02  0.45594000000E+02  0.51100000000E-03 0.  1.
         11   -1    0    0    0    0 -0.00000000000E+00 -0.00000000000E+00 -0.45593999997E+02  0.45594000000E+02  0.51100000000E-03 0. -1.
    9900012    2    1    2    0    0  0.25949166206E+02  0.26903835655E+02  0.15999702789E+02  0.50528854791E+02  0.29999984623E+02 0.  0.
         12    1    1    2    0    0 -0.25949166206E+02 -0.26903835655E+02 -0.15999702789E+02  0.40659145209E+02  0.00000000000E+00 0. -1.
         11    1    3    3    0    0 -0.30480741942E+01 -0.10945026322E+01  0.32625498813E+01  0.45970560464E+01  0.51100000000E-03 0.  1.
        -11    1    3    3    0    0 -0.96315234452E+00  0.14140443428E+01 -0.25403665469E+01  0.30627840759E+01  0.51100000000E-03 0. -1.
         12    1    3    3    0    0  0.29960392745E+02  0.26584293945E+02  0.15277519455E+02  0.42869014669E+02  0.00000000000E+00 0. -1.
</event>
<event>
 7    1  0.4871930E-013  0.5052880E+02  0.7816164E-02  0.1300439E+00
        -11   -1    0    0    0    0  0.00000000000E+00  0.00000000000E+00  0.45593999997E+02  0.45594000000E+02  0.51100000000E-03 0. -1.
         11   -1    0    0    0    0 -0.00000000000E+00 -0.00000000000E+00 -0.45593999997E+02  0.45594000000E+02  0.51100000000E-03 0.  1.
    9900012    2    1    2    0    0  0.27919105439E+02 -0.24164511760E+00 -0.29557334228E+02  0.50528796275E+02  0.29999806757E+02 0.  0.
         12    1    1    2    0    0 -0.27919105439E+02  0.24164511760E+00  0.29557334228E+02  0.40659203725E+02  0.00000000000E+00 0. -1.
         11    1    3    3    0    0  0.10872067926E+02 -0.16059274628E+01 -0.74714974833E+01  0.13289248997E+02  0.51100000000E-03 0. -1.
        -11    1    3    3    0    0  0.56578197187E+01  0.85952584309E+01 -0.21383321024E+02  0.23730482712E+02  0.51100000000E-03 0.  1.
         12    1    3    3    0    0  0.11389217794E+02 -0.72309760857E+01 -0.70251572089E+00  0.13509064566E+02  0.00000000000E+00 0. -1.
</event>
<event>
 7    1  0.4871930E-013  0.5052886E+02  0.7816164E-02  0.1300439E+00
        -11   -1    0    0    0    0  0.00000000000E+00  0.00000000000E+00  0.45593999997E+02  0.45594000000E+02  0.51100000000E-03 0. -1.
         11   -1    0    0    0    0 -0.00000000000E+00 -0.00000000000E+00 -0.45593999997E+02  0.45594000000E+02  0.51100000000E-03 0.  1.
    9900012    2    1    2    0    0 -0.40487747377E+02 -0.47278595512E-01 -0.37290437875E+01  0.50528859693E+02  0.29999999522E+02 0.  0.
         12    1    1    2    0    0  0.40487747377E+02  0.47278595512E-01  0.37290437875E+01  0.40659140307E+02  0.00000000000E+00 0. -1.
         11    1    3    3    0    0 -0.49037031434E+01  0.19795679608E+01 -0.10682510848E+02  0.11919774834E+02  0.51100000000E-03 0. -1.
        -11    1    3    3    0    0 -0.11564632355E+02 -0.62615179404E+01  0.52489171299E+01  0.14159747870E+02  0.51100000000E-03 0.  1.
        -12    1    3    3    0    0 -0.24019411879E+02  0.42346713840E+01  0.17045499301E+01  0.24449336989E+02  0.00000000000E+00 0.  1.
</event>
<event>
 7    1  0.4871930E-013  0.5052886E+02  0.7816164E-02  0.1300439E+00
        -11   -1    0    0    0    0  0.00000000000E+00  0.00000000000E+00  0.45593999997E+02  0.45594000000E+02  0.51100000000E-03 0.  1.
         11   -1    0    0    0    0 -0.00000000000E+00 -0.00000000000E+00 -0.45593999997E+02  0.45594000000E+02  0.51100000000E-03 0. -1.
    9900012    2    1    2    0    0 -0.90382721470E+01 -0.12303880964E+02  0.37684081423E+02  0.50528857819E+02  0.29999993828E+02 0.  0.
         12    1    1    2    0    0  0.90382721470E+01  0.12303880964E+02 -0.37684081423E+02  0.40659142181E+02  0.00000000000E+00 0. -1.
         11    1    3    3    0    0  0.43332873232E+01 -0.61810212617E+01  0.99909184372E+01  0.12522014788E+02  0.51100000000E-03 0. -1.
        -11    1    3    3    0    0 -0.39349118685E+01 -0.16471961171E+01  0.27219657066E+02  0.27551887731E+02  0.51100000000E-03 0.  1.
         12    1    3    3    0    0 -0.94366476018E+01 -0.44756635855E+01  0.47350591912E+00  0.10454955301E+02  0.00000000000E+00 0. -1.
</event>
<event>
 7    1  0.4871930E-013  0.5052886E+02  0.7816164E-02  0.1300439E+00
        -11   -1    0    0    0    0  0.00000000000E+00  0.00000000000E+00  0.45593999997E+02  0.45594000000E+02  0.51100000000E-03 0.  1.
         11   -1    0    0    0    0 -0.00000000000E+00 -0.00000000000E+00 -0.45593999997E+02  0.45594000000E+02  0.51100000000E-03 0. -1.
    9900012    2    1    2    0    0 -0.27406022215E+02 -0.13188247028E+02  0.26984181382E+02  0.50528856401E+02  0.29999989517E+02 0.  0.
         12    1    1    2    0    0  0.27406022215E+02  0.13188247028E+02 -0.26984181382E+02  0.40659143599E+02  0.00000000000E+00 0. -1.
         11    1    3    3    0    0  0.13323028045E+00 -0.65812097384E+01  0.59357042082E+01  0.88635577866E+01  0.51100000000E-03 0. -1.
        -11    1    3    3    0    0 -0.10069282034E+02 -0.91893120995E+01 -0.69978039756E+00  0.13650039942E+02  0.51100000000E-03 0.  1.
         12    1    3    3    0    0 -0.17469970461E+02  0.25822748099E+01  0.21748257572E+02  0.28015258673E+02  0.00000000000E+00 0. -1.
</event>
<event>
 7    1  0.4871930E-013  0.5052886E+02  0.7816164E-02  0.1300439E+00
        -11   -1    0    0    0    0  0.00000000000E+00  0.00000000000E+00  0.45593999997E+02  0.45594000000E+02  0.51100000000E-03 0. -1.
         11   -1    0    0    0    0 -0.00000000000E+00 -0.00000000000E+00 -0.45593999997E+02  0.45594000000E+02  0.51100000000E-03 0.  1.
    9900012    2    1    2    0    0 -0.14952218126E+01 -0.36216839007E+02 -0.18419300250E+02  0.50528859113E+02  0.29999997760E+02 0.  0.
         12    1    1    2    0    0  0.14952218126E+01  0.36216839007E+02  0.18419300250E+02  0.40659140887E+02  0.00000000000E+00 0. -1.
         11    1    3    3    0    0  0.13210690823E-01 -0.18570438927E+02  0.29633566205E+01  0.18805394418E+02  0.51100000000E-03 0. -1.
        -11    1    3    3    0    0  0.18725937569E+01 -0.18396940789E+02 -0.12860218641E+02  0.22524192805E+02  0.51100000000E-03 0.  1.
         12    1    3    3    0    0 -0.33810262603E+01  0.75054070931E+00 -0.85224382300E+01  0.91992718904E+01  0.00000000000E+00 0. -1.
</event>
<event>
 7    1  0.4871930E-013  0.5052888E+02  0.7816164E-02  0.1300439E+00
        -11   -1    0    0    0    0  0.00000000000E+00  0.00000000000E+00  0.45593999997E+02  0.45594000000E+02  0.51100000000E-03 0.  1.
         11   -1    0    0    0    0 -0.00000000000E+00 -0.00000000000E+00 -0.45593999997E+02  0.45594000000E+02  0.51100000000E-03 0. -1.
    9900012    2    1    2    0    0 -0.21246771653E+02 -0.69771594514E+01  0.33956709261E+02  0.50528878471E+02  0.30000056599E+02 0.  0.
         12    1    1    2    0    0  0.21246771653E+02  0.69771594514E+01 -0.33956709261E+02  0.40659121529E+02  0.00000000000E+00 0. -1.
         11    1    3    3    0    0 -0.14883949704E+02 -0.11633278891E+02  0.18807910729E+02  0.26657131181E+02  0.51100000000E-03 0. -1.
        -11    1    3    3    0    0 -0.19989794500E+01 -0.27623306195E+01  0.14874810709E+02  0.15260615426E+02  0.51100000000E-03 0.  1.
         12    1    3    3    0    0 -0.43638424994E+01  0.74184500592E+01  0.27398782261E+00  0.86111318633E+01  0.00000000000E+00 0. -1.
</event>
<event>
 7    1  0.4871930E-013  0.5052892E+02  0.7816164E-02  0.1300439E+00
        -11   -1    0    0    0    0  0.00000000000E+00  0.00000000000E+00  0.45593999997E+02  0.45594000000E+02  0.51100000000E-03 0.  1.
         11   -1    0    0    0    0 -0.00000000000E+00 -0.00000000000E+00 -0.45593999997E+02  0.45594000000E+02  0.51100000000E-03 0. -1.
    9900012    2    1    2    0    0  0.21368290388E+02  0.17109276138E+02  0.30063756111E+02  0.50528922347E+02  0.30000189966E+02 0.  0.
         12    1    1    2    0    0 -0.21368290388E+02 -0.17109276138E+02 -0.30063756111E+02  0.40659077653E+02  0.00000000000E+00 0. -1.
         11    1    3    3    0    0  0.73179139355E+01  0.13351232808E+02  0.21063958697E+02  0.25990337399E+02  0.51100000000E-03 0. -1.
        -11    1    3    3    0    0  0.51351124987E+01  0.37381058742E+01  0.13226184035E+02  0.14672244555E+02  0.51100000000E-03 0.  1.
         12    1    3    3    0    0  0.89152639541E+01  0.19937455901E-01 -0.42263866213E+01  0.98663403927E+01  0.00000000000E+00 0. -1.
</event>
<event>
 7    1  0.4871930E-013  0.5052886E+02  0.7816164E-02  0.1300439E+00
        -11   -1    0    0    0    0  0.00000000000E+00  0.00000000000E+00  0.45593999997E+02  0.45594000000E+02  0.51100000000E-03 0.  1.
         11   -1    0    0    0    0 -0.00000000000E+00 -0.00000000000E+00 -0.45593999997E+02  0.45594000000E+02  0.51100000000E-03 0. -1.
    9900012    2    1    2    0    0 -0.30288806358E+01 -0.23795440987E+02  0.32829383496E+02  0.50528861416E+02  0.30000004759E+02 0.  0.
         12    1    1    2    0    0  0.30288806358E+01  0.23795440987E+02 -0.32829383496E+02  0.40659138584E+02  0.00000000000E+00 0. -1.
         11    1    3    3    0    0  0.65714019923E+01 -0.43936585194E+00  0.32595113931E+01  0.73485223874E+01  0.51100000000E-03 0. -1.
        -11    1    3    3    0    0 -0.16730544863E+01 -0.58790523118E+01  0.21517097371E+02  0.22368456517E+02  0.51100000000E-03 0.  1.
        -12    1    3    3    0    0 -0.79272281418E+01 -0.17477022823E+02  0.80527747319E+01  0.20811882511E+02  0.00000000000E+00 0.  1.
</event>
<event>
 7    1  0.4871930E-013  0.5052886E+02  0.7816164E-02  0.1300439E+00
        -11   -1    0    0    0    0  0.00000000000E+00  0.00000000000E+00  0.45593999997E+02  0.45594000000E+02  0.51100000000E-03 0.  1.
         11   -1    0    0    0    0 -0.00000000000E+00 -0.00000000000E+00 -0.45593999997E+02  0.45594000000E+02  0.51100000000E-03 0. -1.
    9900012    2    1    2    0    0 -0.39130604875E+02  0.78548686902E+01  0.77628918545E+01  0.50528859700E+02  0.29999999543E+02 0.  0.
         12    1    1    2    0    0  0.39130604875E+02 -0.78548686902E+01 -0.77628918545E+01  0.40659140300E+02  0.00000000000E+00 0. -1.
         11    1    3    3    0    0 -0.21185571128E+02  0.10712735091E+02  0.11734271629E+02  0.26481771996E+02  0.51100000000E-03 0. -1.
        -11    1    3    3    0    0 -0.31874174144E+01 -0.75573144564E+01 -0.82964402441E+00  0.82438426134E+01  0.51100000000E-03 0.  1.
        -12    1    3    3    0    0 -0.14757616333E+02  0.46994480556E+01 -0.31417357497E+01  0.15803245090E+02  0.00000000000E+00 0.  1.
</event>
<event>
 7    1  0.4871930E-013  0.5052886E+02  0.7816164E-02  0.1300439E+00
        -11   -1    0    0    0    0  0.00000000000E+00  0.00000000000E+00  0.45593999997E+02  0.45594000000E+02  0.51100000000E-03 0. -1.
         11   -1    0    0    0    0 -0.00000000000E+00 -0.00000000000E+00 -0.45593999997E+02  0.45594000000E+02  0.51100000000E-03 0.  1.
    9900012    2    1    2    0    0  0.14600003887E+02  0.40145111313E+01 -0.37734457230E+02  0.50528859877E+02  0.30000000083E+02 0.  0.
         12    1    1    2    0    0 -0.14600003887E+02 -0.40145111313E+01  0.37734457230E+02  0.40659140123E+02  0.00000000000E+00 0. -1.
         11    1    3    3    0    0  0.13149568760E+02  0.70839641229E+01 -0.88248105212E+01  0.17348515420E+02  0.51100000000E-03 0. -1.
        -11    1    3    3    0    0  0.71549014573E+01 -0.21523591479E+01 -0.25270854059E+02  0.26352254741E+02  0.51100000000E-03 0.  1.
        -12    1    3    3    0    0 -0.57044663308E+01 -0.91709384367E+00 -0.36387926491E+01  0.68280897168E+01  0.00000000000E+00 0.  1.
</event>
<event>
 7    1  0.4871930E-013  0.5052885E+02  0.7816164E-02  0.1300439E+00
        -11   -1    0    0    0    0  0.00000000000E+00  0.00000000000E+00  0.45593999997E+02  0.45594000000E+02  0.51100000000E-03 0.  1.
         11   -1    0    0    0    0 -0.00000000000E+00 -0.00000000000E+00 -0.45593999997E+02  0.45594000000E+02  0.51100000000E-03 0. -1.
    9900012    2    1    2    0    0 -0.28206603833E+02  0.28427082852E+02  0.70324081176E+01  0.50528852159E+02  0.29999976621E+02 0.  0.
         12    1    1    2    0    0  0.28206603833E+02 -0.28427082852E+02 -0.70324081176E+01  0.40659147841E+02  0.00000000000E+00 0. -1.
         11    1    3    3    0    0 -0.31779106182E+01  0.17803189770E+02 -0.18997732441E+01  0.18184109011E+02  0.51100000000E-03 0. -1.
        -11    1    3    3    0    0 -0.11338612432E+02 -0.26759840880E+01  0.10598205166E+01  0.11698215356E+02  0.51100000000E-03 0.  1.
        -12    1    3    3    0    0 -0.13690080783E+02  0.13299877169E+02  0.78723608450E+01  0.20646527791E+02  0.00000000000E+00 0.  1.
</event>
<event>
 7    1  0.4871930E-013  0.5052887E+02  0.7816164E-02  0.1300439E+00
        -11   -1    0    0    0    0  0.00000000000E+00  0.00000000000E+00  0.45593999997E+02  0.45594000000E+02  0.51100000000E-03 0. -1.
         11   -1    0    0    0    0 -0.00000000000E+00 -0.00000000000E+00 -0.45593999997E+02  0.45594000000E+02  0.51100000000E-03 0.  1.
    9900012    2    1    2    0    0 -0.38640860755E+02 -0.10179179398E+02  0.75121981086E+01  0.50528869001E+02  0.30000027817E+02 0.  0.
         12    1    1    2    0    0  0.38640860755E+02  0.10179179398E+02 -0.75121981086E+01  0.40659130999E+02  0.00000000000E+00 0. -1.
         11    1    3    3    0    0 -0.26025610639E+01 -0.40262502986E+01  0.55103540891E+01  0.73039727551E+01  0.51100000000E-03 0. -1.
        -11    1    3    3    0    0 -0.11280676564E+02 -0.83605994675E+01 -0.83088534694E+01  0.16315340433E+02  0.51100000000E-03 0.  1.
         12    1    3    3    0    0 -0.24757623128E+02  0.22076703680E+01  0.10310697489E+02  0.26909555814E+02  0.00000000000E+00 0. -1.
</event>
<event>
 7    1  0.4871930E-013  0.5052886E+02  0.7816164E-02  0.1300439E+00
        -11   -1    0    0    0    0  0.00000000000E+00  0.00000000000E+00  0.45593999997E+02  0.45594000000E+02  0.51100000000E-03 0. -1.
         11   -1    0    0    0    0 -0.00000000000E+00 -0.00000000000E+00 -0.45593999997E+02  0.45594000000E+02  0.51100000000E-03 0.  1.
    9900012    2    1    2    0    0 -0.40359408564E+02 -0.42010105555E+01 -0.25758700488E+01  0.50528862579E+02  0.30000008295E+02 0.  0.
         12    1    1    2    0    0  0.40359408564E+02  0.42010105555E+01  0.25758700488E+01  0.40659137421E+02  0.00000000000E+00 0. -1.
         11    1    3    3    0    0  0.34711223376E+01  0.15961736653E+01 -0.38278003099E+00  0.38396590299E+01  0.51100000000E-03 0. -1.
        -11    1    3    3    0    0 -0.12864717317E+02  0.31932850543E+01  0.40204918417E+01  0.13851439492E+02  0.51100000000E-03 0.  1.
         12    1    3    3    0    0 -0.30965813584E+02 -0.89904692751E+01 -0.62135818595E+01  0.32837764057E+02  0.00000000000E+00 0. -1.
</event>
<event>
 7    1  0.4871930E-013  0.5052888E+02  0.7816164E-02  0.1300439E+00
        -11   -1    0    0    0    0  0.00000000000E+00  0.00000000000E+00  0.45593999997E+02  0.45594000000E+02  0.51100000000E-03 0. -1.
         11   -1    0    0    0    0 -0.00000000000E+00 -0.00000000000E+00 -0.45593999997E+02  0.45594000000E+02  0.51100000000E-03 0.  1.
    9900012    2    1    2    0    0  0.67523937429E+01 -0.16834082432E+01  0.40059143639E+02  0.50528884494E+02  0.30000074909E+02 0.  0.
         12    1    1    2    0    0 -0.67523937429E+01  0.16834082432E+01 -0.40059143639E+02  0.40659115506E+02  0.00000000000E+00 0. -1.
         11    1    3    3    0    0  0.69539266839E+01  0.33668227121E+01  0.28299723145E+02  0.29335420942E+02  0.51100000000E-03 0. -1.
        -11    1    3    3    0    0  0.57168272192E+01  0.17109911199E+01 -0.50601324682E+00  0.59887940133E+01  0.51100000000E-03 0.  1.
         12    1    3    3    0    0 -0.59183601602E+01 -0.67612220752E+01  0.12265433741E+02  0.15204669539E+02  0.00000000000E+00 0. -1.
</event>
<event>
 7    1  0.8699366E-013  0.5052886E+02  0.7816164E-02  0.1300439E+00
        -11   -1    0    0    0    0  0.00000000000E+00  0.00000000000E+00  0.45593999997E+02  0.45594000000E+02  0.51100000000E-03 0. -1.
         11   -1    0    0    0    0 -0.00000000000E+00 -0.00000000000E+00 -0.45593999997E+02  0.45594000000E+02  0.51100000000E-03 0.  1.
    9900012    2    1    2    0    0 -0.73353847094E+01 -0.32353902037E+02 -0.23507077926E+02  0.50528861317E+02  0.30000004459E+02 0.  0.
         12    1    1    2    0    0  0.73353847094E+01  0.32353902037E+02  0.23507077926E+02  0.40659138683E+02  0.00000000000E+00 0. -1.
         11    1    3    3    0    0  0.52348595954E+01  0.67281898932E+00  0.79136400452E+00  0.53369183641E+01  0.51100000000E-03 0. -1.
        -11    1    3    3    0    0 -0.13348396067E+01 -0.15446973094E+02 -0.38430687801E+01  0.15973726943E+02  0.51100000000E-03 0.  1.
        -12    1    3    3    0    0 -0.11235404698E+02 -0.17579747932E+02 -0.20455373150E+02  0.29218216010E+02  0.00000000000E+00 0.  1.
</event>
<event>
 7    1  0.4871930E-013  0.5052885E+02  0.7816164E-02  0.1300439E+00
        -11   -1    0    0    0    0  0.00000000000E+00  0.00000000000E+00  0.45593999997E+02  0.45594000000E+02  0.51100000000E-03 0.  1.
         11   -1    0    0    0    0 -0.00000000000E+00 -0.00000000000E+00 -0.45593999997E+02  0.45594000000E+02  0.51100000000E-03 0. -1.
    9900012    2    1    2    0    0  0.27722640002E+02  0.24747377434E+02  0.16498145879E+02  0.50528852493E+02  0.29999977639E+02 0.  0.
         12    1    1    2    0    0 -0.27722640002E+02 -0.24747377434E+02 -0.16498145879E+02  0.40659147507E+02  0.00000000000E+00 0. -1.
         11    1    3    3    0    0  0.84621754569E+01  0.94314782931E+01  0.86521537949E+01  0.15343433834E+02  0.51100000000E-03 0.  1.
        -11    1    3    3    0    0  0.20799984671E+02  0.90523404722E+01 -0.26781609063E+01  0.22841995894E+02  0.51100000000E-03 0. -1.
         12    1    3    3    0    0 -0.15395201255E+01  0.62635586687E+01  0.10524152990E+02  0.12343422766E+02  0.00000000000E+00 0. -1.
</event>
<event>
 7    1  0.4871930E-013  0.5052886E+02  0.7816164E-02  0.1300439E+00
        -11   -1    0    0    0    0  0.00000000000E+00  0.00000000000E+00  0.45593999997E+02  0.45594000000E+02  0.51100000000E-03 0. -1.
         11   -1    0    0    0    0 -0.00000000000E+00 -0.00000000000E+00 -0.45593999997E+02  0.45594000000E+02  0.51100000000E-03 0.  1.
    9900012    2    1    2    0    0 -0.12227646425E+02 -0.38763104384E+02  0.10354500444E+01  0.50528858895E+02  0.29999997099E+02 0.  0.
         12    1    1    2    0    0  0.12227646425E+02  0.38763104384E+02 -0.10354500444E+01  0.40659141105E+02  0.00000000000E+00 0. -1.
         11    1    3    3    0    0 -0.14249060493E+02 -0.22020255650E+02 -0.91467546890E+01  0.27777517986E+02  0.51100000000E-03 0. -1.
        -11    1    3    3    0    0 -0.22713275910E+00 -0.17738039979E+02  0.79851324463E+01  0.19453842603E+02  0.51100000000E-03 0.  1.
        -12    1    3    3    0    0  0.22485468276E+01  0.99519124495E+00  0.21970722870E+01  0.32974983070E+01  0.00000000000E+00 0.  1.
</event>
<event>
 7    1  0.4871930E-013  0.5052886E+02  0.7816164E-02  0.1300439E+00
        -11   -1    0    0    0    0  0.00000000000E+00  0.00000000000E+00  0.45593999997E+02  0.45594000000E+02  0.51100000000E-03 0.  1.
         11   -1    0    0    0    0 -0.00000000000E+00 -0.00000000000E+00 -0.45593999997E+02  0.45594000000E+02  0.51100000000E-03 0. -1.
    9900012    2    1    2    0    0 -0.34246184580E+02  0.37409479478E+01  0.21595591329E+02  0.50528863085E+02  0.30000009832E+02 0.  0.
         12    1    1    2    0    0  0.34246184580E+02 -0.37409479478E+01 -0.21595591329E+02  0.40659136915E+02  0.00000000000E+00 0. -1.
         11    1    3    3    0    0 -0.18203291152E+01  0.47170620514E+01  0.37583694746E+01  0.62999693534E+01  0.51100000000E-03 0. -1.
        -11    1    3    3    0    0 -0.10602461623E+02 -0.58858938178E+01  0.18184788981E+02  0.21857321177E+02  0.51100000000E-03 0.  1.
        -12    1    3    3    0    0 -0.21823393842E+02  0.49097797142E+01 -0.34756712698E+00  0.22371572554E+02  0.00000000000E+00 0.  1.
</event>
<event>
 7    1  0.4871930E-013  0.5052880E+02  0.7816164E-02  0.1300439E+00
        -11   -1    0    0    0    0  0.00000000000E+00  0.00000000000E+00  0.45593999997E+02  0.45594000000E+02  0.51100000000E-03 0.  1.
         11   -1    0    0    0    0 -0.00000000000E+00 -0.00000000000E+00 -0.45593999997E+02  0.45594000000E+02  0.51100000000E-03 0. -1.
    9900012    2    1    2    0    0  0.38374225301E+01 -0.14569789965E+02  0.37764613845E+02  0.50528798702E+02  0.29999814135E+02 0.  0.
         12    1    1    2    0    0 -0.38374225301E+01  0.14569789965E+02 -0.37764613845E+02  0.40659201298E+02  0.00000000000E+00 0. -1.
         11    1    3    3    0    0  0.37500910026E+01 -0.47594664245E+01  0.27441912979E+02  0.28102923182E+02  0.51100000000E-03 0. -1.
        -11    1    3    3    0    0 -0.84291849691E+01 -0.61715281116E+01  0.70504273006E+01  0.12603469517E+02  0.51100000000E-03 0.  1.
         12    1    3    3    0    0  0.85165164965E+01 -0.36387954284E+01  0.32722735654E+01  0.98224060033E+01  0.00000000000E+00 0. -1.
</event>
<event>
 7    1  0.4871930E-013  0.5052886E+02  0.7816164E-02  0.1300439E+00
        -11   -1    0    0    0    0  0.00000000000E+00  0.00000000000E+00  0.45593999997E+02  0.45594000000E+02  0.51100000000E-03 0.  1.
         11   -1    0    0    0    0 -0.00000000000E+00 -0.00000000000E+00 -0.45593999997E+02  0.45594000000E+02  0.51100000000E-03 0. -1.
    9900012    2    1    2    0    0 -0.38616462939E+02  0.10710528153E+02  0.68715888469E+01  0.50528863800E+02  0.30000012007E+02 0.  0.
         12    1    1    2    0    0  0.38616462939E+02 -0.10710528153E+02 -0.68715888469E+01  0.40659136200E+02  0.00000000000E+00 0. -1.
         11    1    3    3    0    0 -0.97293715960E+01 -0.65980071530E+01  0.21178599879E+01  0.11944860871E+02  0.51100000000E-03 0. -1.
        -11    1    3    3    0    0 -0.24350182316E+02  0.46827495144E+01  0.19105060417E+01  0.24869852341E+02  0.51100000000E-03 0.  1.
         12    1    3    3    0    0 -0.45369090268E+01  0.12625785791E+02  0.28432228173E+01  0.13714150588E+02  0.00000000000E+00 0. -1.
</event>
<event>
 7    1  0.4871930E-013  0.5052886E+02  0.7816164E-02  0.1300439E+00
        -11   -1    0    0    0    0  0.00000000000E+00  0.00000000000E+00  0.45593999997E+02  0.45594000000E+02  0.51100000000E-03 0.  1.
         11   -1    0    0    0    0 -0.00000000000E+00 -0.00000000000E+00 -0.45593999997E+02  0.45594000000E+02  0.51100000000E-03 0. -1.
    9900012    2    1    2    0    0  0.51260839256E+01  0.24547012487E+02  0.32005208060E+02  0.50528857099E+02  0.29999991639E+02 0.  0.
         12    1    1    2    0    0 -0.51260839256E+01 -0.24547012487E+02 -0.32005208060E+02  0.40659142901E+02  0.00000000000E+00 0. -1.
         11    1    3    3    0    0 -0.27254312362E+01 -0.12741181159E+01  0.12557465900E+02  0.12912834797E+02  0.51100000000E-03 0. -1.
        -11    1    3    3    0    0 -0.51432127948E+01  0.12417619395E+02  0.67674938307E+01  0.15048218576E+02  0.51100000000E-03 0.  1.
         12    1    3    3    0    0  0.12994727957E+02  0.13403511208E+02  0.12680248329E+02  0.22567803727E+02  0.00000000000E+00 0. -1.
</event>
<event>
 7    1  0.4871930E-013  0.5052884E+02  0.7816164E-02  0.1300439E+00
        -11   -1    0    0    0    0  0.00000000000E+00  0.00000000000E+00  0.45593999997E+02  0.45594000000E+02  0.51100000000E-03 0. -1.
         11   -1    0    0    0    0 -0.00000000000E+00 -0.00000000000E+00 -0.45593999997E+02  0.45594000000E+02  0.51100000000E-03 0.  1.
    9900012    2    1    2    0    0 -0.29188810905E+02 -0.30576627794E+01 -0.28139495919E+02  0.50528840955E+02  0.29999942565E+02 0.  0.
         12    1    1    2    0    0  0.29188810905E+02  0.30576627794E+01  0.28139495919E+02  0.40659159045E+02  0.00000000000E+00 0. -1.
         11    1    3    3    0    0 -0.13898221550E+02  0.30957230594E+01 -0.33367980818E+01  0.14624578121E+02  0.51100000000E-03 0. -1.
        -11    1    3    3    0    0 -0.16980700949E+02  0.23874477890E+01 -0.17951492667E+02  0.24825394275E+02  0.51100000000E-03 0.  1.
        -12    1    3    3    0    0  0.16901115943E+01 -0.85408336279E+01 -0.68512051701E+01  0.11078868559E+02  0.00000000000E+00 0.  1.
</event>
<event>
 7    1  0.4871930E-013  0.5052885E+02  0.7816164E-02  0.1300439E+00
        -11   -1    0    0    0    0  0.00000000000E+00  0.00000000000E+00  0.45593999997E+02  0.45594000000E+02  0.51100000000E-03 0.  1.
         11   -1    0    0    0    0 -0.00000000000E+00 -0.00000000000E+00 -0.45593999997E+02  0.45594000000E+02  0.51100000000E-03 0. -1.
    9900012    2    1    2    0    0  0.32514820344E+01  0.30339390234E+02  0.26872206454E+02  0.50528853244E+02  0.29999979922E+02 0.  0.
         12    1    1    2    0    0 -0.32514820344E+01 -0.30339390234E+02 -0.26872206454E+02  0.40659146756E+02  0.00000000000E+00 0. -1.
         11    1    3    3    0    0 -0.21283439916E+01  0.92389463323E+00  0.59083971623E+00  0.23942684209E+01  0.51100000000E-03 0. -1.
        -11    1    3    3    0    0  0.82198018834E+01  0.25755842358E+02  0.31263246111E+02  0.41331817238E+02  0.51100000000E-03 0.  1.
        -12    1    3    3    0    0 -0.28399758575E+01  0.36596532428E+01 -0.49818793732E+01  0.68027675851E+01  0.00000000000E+00 0.  1.
</event>
<event>
 7    1  0.4871930E-013  0.5052886E+02  0.7816164E-02  0.1300439E+00
        -11   -1    0    0    0    0  0.00000000000E+00  0.00000000000E+00  0.45593999997E+02  0.45594000000E+02  0.51100000000E-03 0.  1.
         11   -1    0    0    0    0 -0.00000000000E+00 -0.00000000000E+00 -0.45593999997E+02  0.45594000000E+02  0.51100000000E-03 0. -1.
    9900012    2    1    2    0    0 -0.58573192753E+00  0.40548200351E+02  0.29437499990E+01  0.50528864524E+02  0.30000014206E+02 0.  0.
         12    1    1    2    0    0  0.58573192753E+00 -0.40548200351E+02 -0.29437499990E+01  0.40659135476E+02  0.00000000000E+00 0. -1.
         11    1    3    3    0    0 -0.22076492306E+01  0.46248375758E+01 -0.15091923157E+01  0.53423308990E+01  0.51100000000E-03 0. -1.
        -11    1    3    3    0    0  0.13187260462E+02  0.27780440155E+02  0.18709908833E+01  0.30808396597E+02  0.51100000000E-03 0.  1.
        -12    1    3    3    0    0 -0.11565343159E+02  0.81429226203E+01  0.25819514314E+01  0.14378137028E+02  0.00000000000E+00 0.  1.
</event>
<event>
 7    1  0.4871930E-013  0.5052887E+02  0.7816164E-02  0.1300439E+00
        -11   -1    0    0    0    0  0.00000000000E+00  0.00000000000E+00  0.45593999997E+02  0.45594000000E+02  0.51100000000E-03 0. -1.
         11   -1    0    0    0    0 -0.00000000000E+00 -0.00000000000E+00 -0.45593999997E+02  0.45594000000E+02  0.51100000000E-03 0.  1.
    9900012    2    1    2    0    0  0.23102577480E+02 -0.24873849060E+02 -0.22376940910E+02  0.50528868949E+02  0.30000027659E+02 0.  0.
         12    1    1    2    0    0 -0.23102577480E+02  0.24873849060E+02  0.22376940910E+02  0.40659131051E+02  0.00000000000E+00 0. -1.
         11    1    3    3    0    0  0.95518463561E+00 -0.15647727214E+02 -0.91354166359E+01  0.18144409112E+02  0.51100000000E-03 0. -1.
        -11    1    3    3    0    0  0.26005878560E+01  0.36520390093E+01  0.14928348124E+01  0.47253573580E+01  0.51100000000E-03 0.  1.
        -12    1    3    3    0    0  0.19546804989E+02 -0.12878160856E+02 -0.14734359086E+02  0.27659102480E+02  0.00000000000E+00 0.  1.
</event>
<event>
 7    1  0.4871930E-013  0.5052886E+02  0.7816164E-02  0.1300439E+00
        -11   -1    0    0    0    0  0.00000000000E+00  0.00000000000E+00  0.45593999997E+02  0.45594000000E+02  0.51100000000E-03 0.  1.
         11   -1    0    0    0    0 -0.00000000000E+00 -0.00000000000E+00 -0.45593999997E+02  0.45594000000E+02  0.51100000000E-03 0. -1.
    9900012    2    1    2    0    0  0.82394486120E+01 -0.34637354260E+02  0.19634937318E+02  0.50528860965E+02  0.30000003389E+02 0.  0.
         12    1    1    2    0    0 -0.82394486120E+01  0.34637354260E+02 -0.19634937318E+02  0.40659139035E+02  0.00000000000E+00 0. -1.
         11    1    3    3    0    0  0.90314682419E+01 -0.14040480575E+02 -0.12009962665E+01  0.16737529855E+02  0.51100000000E-03 0. -1.
        -11    1    3    3    0    0  0.79873620479E+01 -0.10721787465E+02  0.11127904151E+02  0.17394968525E+02  0.51100000000E-03 0.  1.
        -12    1    3    3    0    0 -0.87793816779E+01 -0.98750862205E+01  0.97080294339E+01  0.16396362584E+02  0.00000000000E+00 0.  1.
</event>
<event>
 7    1  0.4871930E-013  0.5052886E+02  0.7816164E-02  0.1300439E+00
        -11   -1    0    0    0    0  0.00000000000E+00  0.00000000000E+00  0.45593999997E+02  0.45594000000E+02  0.51100000000E-03 0.  1.
         11   -1    0    0    0    0 -0.00000000000E+00 -0.00000000000E+00 -0.45593999997E+02  0.45594000000E+02  0.51100000000E-03 0. -1.
    9900012    2    1    2    0    0  0.29143412613E+02  0.26132333167E+02  0.10996753136E+02  0.50528856932E+02  0.29999991130E+02 0.  0.
         12    1    1    2    0    0 -0.29143412613E+02 -0.26132333167E+02 -0.10996753136E+02  0.40659143068E+02  0.00000000000E+00 0. -1.
         11    1    3    3    0    0 -0.40987461041E+00  0.51612312000E+00  0.52385268929E+01  0.52798242907E+01  0.51100000000E-03 0. -1.
        -11    1    3    3    0    0  0.12523513817E+02 -0.14439726618E+01  0.40078948473E+01  0.13228252973E+02  0.51100000000E-03 0.  1.
         12    1    3    3    0    0  0.17029773407E+02  0.27060182709E+02  0.17503313961E+01  0.32020779668E+02  0.00000000000E+00 0. -1.
</event>
<event>
 7    1  0.4871930E-013  0.5052886E+02  0.7816164E-02  0.1300439E+00
        -11   -1    0    0    0    0  0.00000000000E+00  0.00000000000E+00  0.45593999997E+02  0.45594000000E+02  0.51100000000E-03 0.  1.
         11   -1    0    0    0    0 -0.00000000000E+00 -0.00000000000E+00 -0.45593999997E+02  0.45594000000E+02  0.51100000000E-03 0. -1.
    9900012    2    1    2    0    0  0.79662958213E+01  0.39861823366E+02  0.85936470189E+00  0.50528864017E+02  0.30000012665E+02 0.  0.
         12    1    1    2    0    0 -0.79662958213E+01 -0.39861823366E+02 -0.85936470189E+00  0.40659135983E+02  0.00000000000E+00 0. -1.
         11    1    3    3    0    0 -0.41835108505E+01  0.22272693374E+02 -0.21383512644E+01  0.22762846473E+02  0.51100000000E-03 0. -1.
        -11    1    3    3    0    0 -0.21819885155E+01  0.48120247031E+00  0.48818357693E+01  0.53688872626E+01  0.51100000000E-03 0.  1.
         12    1    3    3    0    0  0.14331795187E+02  0.17107927522E+02 -0.18841198030E+01  0.22397130281E+02  0.00000000000E+00 0. -1.
</event>
<event>
 7    1  0.4871930E-013  0.5052885E+02  0.7816164E-02  0.1300439E+00
        -11   -1    0    0    0    0  0.00000000000E+00  0.00000000000E+00  0.45593999997E+02  0.45594000000E+02  0.51100000000E-03 0.  1.
         11   -1    0    0    0    0 -0.00000000000E+00 -0.00000000000E+00 -0.45593999997E+02  0.45594000000E+02  0.51100000000E-03 0. -1.
    9900012    2    1    2    0    0  0.98183757836E+01  0.24165780230E+02  0.31189443158E+02  0.50528846028E+02  0.29999957988E+02 0.  0.
         12    1    1    2    0    0 -0.98183757836E+01 -0.24165780230E+02 -0.31189443158E+02  0.40659153972E+02  0.00000000000E+00 0. -1.
         11    1    3    3    0    0 -0.61913234337E+01  0.13567114055E+01  0.58572562184E+00  0.63652357744E+01  0.51100000000E-03 0.  1.
        -11    1    3    3    0    0  0.27230372697E+01  0.90518063934E+01  0.18529801201E+01  0.96324278634E+01  0.51100000000E-03 0. -1.
        -12    1    3    3    0    0  0.13286661948E+02  0.13757262431E+02  0.28750737416E+02  0.34531182391E+02  0.00000000000E+00 0.  1.
</event>
<event>
 7    1  0.4871930E-013  0.5052880E+02  0.7816164E-02  0.1300439E+00
        -11   -1    0    0    0    0  0.00000000000E+00  0.00000000000E+00  0.45593999997E+02  0.45594000000E+02  0.51100000000E-03 0.  1.
         11   -1    0    0    0    0 -0.00000000000E+00 -0.00000000000E+00 -0.45593999997E+02  0.45594000000E+02  0.51100000000E-03 0. -1.
    9900012    2    1    2    0    0  0.17319579230E+02  0.19236776476E+02  0.31355211374E+02  0.50528798407E+02  0.29999813238E+02 0.  0.
         12    1    1    2    0    0 -0.17319579230E+02 -0.19236776476E+02 -0.31355211374E+02  0.40659201593E+02  0.00000000000E+00 0. -1.
         11    1    3    3    0    0  0.61028830174E+01 -0.26188068178E+01  0.34859289047E+01  0.75003353833E+01  0.51100000000E-03 0. -1.
        -11    1    3    3    0    0  0.15545345816E+02  0.78761707102E+01  0.19570687753E+02  0.26205031215E+02  0.51100000000E-03 0.  1.
         12    1    3    3    0    0 -0.43286496034E+01  0.13979412584E+02  0.82985947160E+01  0.16823431809E+02  0.00000000000E+00 0. -1.
</event>
<event>
 7    1  0.4871930E-013  0.5052882E+02  0.7816164E-02  0.1300439E+00
        -11   -1    0    0    0    0  0.00000000000E+00  0.00000000000E+00  0.45593999997E+02  0.45594000000E+02  0.51100000000E-03 0.  1.
         11   -1    0    0    0    0 -0.00000000000E+00 -0.00000000000E+00 -0.45593999997E+02  0.45594000000E+02  0.51100000000E-03 0. -1.
    9900012    2    1    2    0    0 -0.60270075869E+00  0.40082500707E+02  0.67969425949E+01  0.50528824655E+02  0.29999893021E+02 0.  0.
         12    1    1    2    0    0  0.60270075869E+00 -0.40082500707E+02 -0.67969425949E+01  0.40659175345E+02  0.00000000000E+00 0. -1.
         11    1    3    3    0    0 -0.21137997641E+01  0.26776989118E+02  0.37516139164E+00  0.26862912016E+02  0.51100000000E-03 0. -1.
        -11    1    3    3    0    0  0.71042506843E+01  0.25654769240E+01 -0.31963559980E+01  0.82017523469E+01  0.51100000000E-03 0.  1.
         12    1    3    3    0    0 -0.55931516790E+01  0.10740034665E+02  0.96181372012E+01  0.15464160292E+02  0.00000000000E+00 0. -1.
</event>
<event>
 7    1  0.4871930E-013  0.5052886E+02  0.7816164E-02  0.1300439E+00
        -11   -1    0    0    0    0  0.00000000000E+00  0.00000000000E+00  0.45593999997E+02  0.45594000000E+02  0.51100000000E-03 0.  1.
         11   -1    0    0    0    0 -0.00000000000E+00 -0.00000000000E+00 -0.45593999997E+02  0.45594000000E+02  0.51100000000E-03 0. -1.
    9900012    2    1    2    0    0  0.11354608610E+02 -0.29167178654E+02  0.25952155760E+02  0.50528857905E+02  0.29999994087E+02 0.  0.
         12    1    1    2    0    0 -0.11354608610E+02  0.29167178654E+02 -0.25952155760E+02  0.40659142095E+02  0.00000000000E+00 0. -1.
         11    1    3    3    0    0  0.17522562241E+01  0.21891173396E+01 -0.37508699321E+01  0.46831252503E+01  0.51100000000E-03 0. -1.
        -11    1    3    3    0    0 -0.25969532844E+01 -0.92007702550E+01  0.68806172208E+01  0.11778846856E+02  0.51100000000E-03 0.  1.
        -12    1    3    3    0    0  0.12199305670E+02 -0.22155525739E+02  0.22822408471E+02  0.34066885799E+02  0.00000000000E+00 0.  1.
</event>
<event>
 7    1  0.5505456E-013  0.5052886E+02  0.7816164E-02  0.1300439E+00
        -11   -1    0    0    0    0  0.00000000000E+00  0.00000000000E+00  0.45593999997E+02  0.45594000000E+02  0.51100000000E-03 0. -1.
         11   -1    0    0    0    0 -0.00000000000E+00 -0.00000000000E+00 -0.45593999997E+02  0.45594000000E+02  0.51100000000E-03 0.  1.
    9900012    2    1    2    0    0  0.31987442333E+02  0.12175880320E+02 -0.21948052436E+02  0.50528861614E+02  0.30000005361E+02 0.  0.
         12    1    1    2    0    0 -0.31987442333E+02 -0.12175880320E+02  0.21948052436E+02  0.40659138386E+02  0.00000000000E+00 0. -1.
         11    1    3    3    0    0  0.27552727726E+02  0.37261254782E+01 -0.18986421780E+02  0.33667804035E+02  0.51100000000E-03 0. -1.
        -11    1    3    3    0    0  0.81721345658E+01  0.83838014847E+01 -0.48506738523E+01  0.12672842924E+02  0.51100000000E-03 0.  1.
         12    1    3    3    0    0 -0.37374199589E+01  0.65953357283E-01  0.18890431967E+01  0.41882146547E+01  0.00000000000E+00 0. -1.
</event>
<event>
 7    1  0.4871930E-013  0.5052887E+02  0.7816164E-02  0.1300439E+00
        -11   -1    0    0    0    0  0.00000000000E+00  0.00000000000E+00  0.45593999997E+02  0.45594000000E+02  0.51100000000E-03 0. -1.
         11   -1    0    0    0    0 -0.00000000000E+00 -0.00000000000E+00 -0.45593999997E+02  0.45594000000E+02  0.51100000000E-03 0.  1.
    9900012    2    1    2    0    0 -0.23331512268E+02 -0.26597913420E+02  0.20033883077E+02  0.50528868994E+02  0.30000027794E+02 0.  0.
         12    1    1    2    0    0  0.23331512268E+02  0.26597913420E+02 -0.20033883077E+02  0.40659131006E+02  0.00000000000E+00 0. -1.
         11    1    3    3    0    0  0.31588495077E+01 -0.16915370339E+02  0.83095282704E+01  0.19109064453E+02  0.51100000000E-03 0. -1.
        -11    1    3    3    0    0 -0.90860590868E+01  0.34220047976E-01  0.50726934187E+01  0.10406241373E+02  0.51100000000E-03 0.  1.
        -12    1    3    3    0    0 -0.17404302689E+02 -0.97167631292E+01  0.66516613883E+01  0.21013563168E+02  0.00000000000E+00 0.  1.
</event>
<event>
 7    1  0.4871930E-013  0.5052881E+02  0.7816164E-02  0.1300439E+00
        -11   -1    0    0    0    0  0.00000000000E+00  0.00000000000E+00  0.45593999997E+02  0.45594000000E+02  0.51100000000E-03 0.  1.
         11   -1    0    0    0    0 -0.00000000000E+00 -0.00000000000E+00 -0.45593999997E+02  0.45594000000E+02  0.51100000000E-03 0. -1.
    9900012    2    1    2    0    0 -0.29172887352E+02  0.28232860937E+02  0.22400135280E+01  0.50528813415E+02  0.29999858856E+02 0.  0.
         12    1    1    2    0    0  0.29172887352E+02 -0.28232860937E+02 -0.22400135280E+01  0.40659186585E+02  0.00000000000E+00 0. -1.
         11    1    3    3    0    0 -0.85138647643E+01  0.20488593888E+02  0.52344023201E+01  0.22796213296E+02  0.51100000000E-03 0. -1.
        -11    1    3    3    0    0 -0.11041230428E+02  0.99057759540E+01  0.43289922831E+01  0.15452292421E+02  0.51100000000E-03 0.  1.
         12    1    3    3    0    0 -0.96177921597E+01 -0.21615089052E+01 -0.73233810751E+01  0.12280307697E+02  0.00000000000E+00 0. -1.
</event>
<event>
 7    1  0.4871930E-013  0.5052891E+02  0.7816164E-02  0.1300439E+00
        -11   -1    0    0    0    0  0.00000000000E+00  0.00000000000E+00  0.45593999997E+02  0.45594000000E+02  0.51100000000E-03 0.  1.
         11   -1    0    0    0    0 -0.00000000000E+00 -0.00000000000E+00 -0.45593999997E+02  0.45594000000E+02  0.51100000000E-03 0. -1.
    9900012    2    1    2    0    0  0.10428383812E+01 -0.39183449646E+02  0.10804230547E+02  0.50528909556E+02  0.30000151085E+02 0.  0.
         12    1    1    2    0    0 -0.10428383812E+01  0.39183449646E+02 -0.10804230547E+02  0.40659090444E+02  0.00000000000E+00 0. -1.
         11    1    3    3    0    0 -0.54295332127E+01 -0.80864235521E+01  0.63382290842E+01  0.11620809996E+02  0.51100000000E-03 0. -1.
        -11    1    3    3    0    0  0.47960630234E+01 -0.19779328249E+02  0.13420867260E+02  0.24379165793E+02  0.51100000000E-03 0.  1.
         12    1    3    3    0    0  0.16763085705E+01 -0.11317697845E+02 -0.89548657977E+01  0.14528933767E+02  0.00000000000E+00 0. -1.
</event>
<event>
 7    1  0.4871930E-013  0.5052886E+02  0.7816164E-02  0.1300439E+00
        -11   -1    0    0    0    0  0.00000000000E+00  0.00000000000E+00  0.45593999997E+02  0.45594000000E+02  0.51100000000E-03 0.  1.
         11   -1    0    0    0    0 -0.00000000000E+00 -0.00000000000E+00 -0.45593999997E+02  0.45594000000E+02  0.51100000000E-03 0. -1.
    9900012    2    1    2    0    0 -0.33344425859E+02  0.82588397642E+00 -0.23251512703E+02  0.50528860029E+02  0.30000000543E+02 0.  0.
         12    1    1    2    0    0  0.33344425859E+02 -0.82588397642E+00  0.23251512703E+02  0.40659139971E+02  0.00000000000E+00 0. -1.
         11    1    3    3    0    0 -0.14881585496E+01 -0.61824183556E+01 -0.11016901232E+02  0.12720417666E+02  0.51100000000E-03 0. -1.
        -11    1    3    3    0    0 -0.26529369778E+01  0.17245895562E+01  0.30771981419E+01  0.44137775671E+01  0.51100000000E-03 0.  1.
         12    1    3    3    0    0 -0.29203330332E+02  0.52837127759E+01 -0.15311809613E+02  0.33394664795E+02  0.00000000000E+00 0. -1.
</event>
<event>
 7    1  0.4871930E-013  0.5052886E+02  0.7816164E-02  0.1300439E+00
        -11   -1    0    0    0    0  0.00000000000E+00  0.00000000000E+00  0.45593999997E+02  0.45594000000E+02  0.51100000000E-03 0. -1.
         11   -1    0    0    0    0 -0.00000000000E+00 -0.00000000000E+00 -0.45593999997E+02  0.45594000000E+02  0.51100000000E-03 0.  1.
    9900012    2    1    2    0    0  0.22413635645E+02 -0.33807478395E+02  0.28016184871E+01  0.50528859276E+02  0.29999998256E+02 0.  0.
         12    1    1    2    0    0 -0.22413635645E+02  0.33807478395E+02 -0.28016184871E+01  0.40659140724E+02  0.00000000000E+00 0. -1.
         11    1    3    3    0    0  0.82120611561E+01 -0.43907345494E+01 -0.39866157323E+01  0.10129639854E+02  0.51100000000E-03 0. -1.
        -11    1    3    3    0    0  0.14847910020E+02 -0.13105951614E+02 -0.48030326751E+01  0.20378800819E+02  0.51100000000E-03 0.  1.
        -12    1    3    3    0    0 -0.64633553094E+00 -0.16310792232E+02  0.11591266894E+02  0.20020418604E+02  0.00000000000E+00 0.  1.
</event>
<event>
 7    1  0.4871930E-013  0.5052887E+02  0.7816164E-02  0.1300439E+00
        -11   -1    0    0    0    0  0.00000000000E+00  0.00000000000E+00  0.45593999997E+02  0.45594000000E+02  0.51100000000E-03 0.  1.
         11   -1    0    0    0    0 -0.00000000000E+00 -0.00000000000E+00 -0.45593999997E+02  0.45594000000E+02  0.51100000000E-03 0. -1.
    9900012    2    1    2    0    0 -0.19173197316E+02 -0.25781208072E+02  0.24917521866E+02  0.50528867189E+02  0.30000022306E+02 0.  0.
         12    1    1    2    0    0  0.19173197316E+02  0.25781208072E+02 -0.24917521866E+02  0.40659132811E+02  0.00000000000E+00 0. -1.
         11    1    3    3    0    0 -0.13436331250E+02 -0.72770426758E+01  0.59611227551E+01  0.16401991719E+02  0.51100000000E-03 0. -1.
        -11    1    3    3    0    0 -0.12179284528E+02 -0.52182068349E+01  0.11691977979E+02  0.17671078165E+02  0.51100000000E-03 0.  1.
        -12    1    3    3    0    0  0.64424184625E+01 -0.13285958562E+02  0.72644211328E+01  0.16455797305E+02  0.00000000000E+00 0.  1.
</event>
<event>
 7    1  0.4871930E-013  0.5052886E+02  0.7816164E-02  0.1300439E+00
        -11   -1    0    0    0    0  0.00000000000E+00  0.00000000000E+00  0.45593999997E+02  0.45594000000E+02  0.51100000000E-03 0.  1.
         11   -1    0    0    0    0 -0.00000000000E+00 -0.00000000000E+00 -0.45593999997E+02  0.45594000000E+02  0.51100000000E-03 0. -1.
    9900012    2    1    2    0    0  0.17837626397E+02 -0.20934164826E+02  0.29945715841E+02  0.50528855030E+02  0.29999985350E+02 0.  0.
         12    1    1    2    0    0 -0.17837626397E+02  0.20934164826E+02 -0.29945715841E+02  0.40659144970E+02  0.00000000000E+00 0. -1.
         11    1    3    3    0    0  0.38782250726E+01  0.66341965932E+01  0.99587865990E+00  0.77488688670E+01  0.51100000000E-03 0. -1.
        -11    1    3    3    0    0  0.36536598205E+01 -0.45224890041E+01  0.28730893760E+01  0.64851198678E+01  0.51100000000E-03 0.  1.
        -12    1    3    3    0    0  0.10305741503E+02 -0.23045872415E+02  0.26076747805E+02  0.36294866296E+02  0.00000000000E+00 0.  1.
</event>
<event>
 7    1  0.4871930E-013  0.5052888E+02  0.7816164E-02  0.1300439E+00
        -11   -1    0    0    0    0  0.00000000000E+00  0.00000000000E+00  0.45593999997E+02  0.45594000000E+02  0.51100000000E-03 0. -1.
         11   -1    0    0    0    0 -0.00000000000E+00 -0.00000000000E+00 -0.45593999997E+02  0.45594000000E+02  0.51100000000E-03 0.  1.
    9900012    2    1    2    0    0 -0.38672125344E+02 -0.10069799782E+02 -0.74986668385E+01  0.50528878630E+02  0.30000057082E+02 0.  0.
         12    1    1    2    0    0  0.38672125344E+02  0.10069799782E+02  0.74986668385E+01  0.40659121370E+02  0.00000000000E+00 0. -1.
         11    1    3    3    0    0 -0.19878709119E+02  0.68351439068E+01 -0.50008664077E+01  0.21607659141E+02  0.51100000000E-03 0. -1.
        -11    1    3    3    0    0 -0.12456722335E+02 -0.63616196309E+01  0.45940613710E+01  0.14722280251E+02  0.51100000000E-03 0.  1.
        -12    1    3    3    0    0 -0.63366938898E+01 -0.10543324058E+02 -0.70918618018E+01  0.14198939237E+02  0.00000000000E+00 0.  1.
</event>
<event>
 7    1  0.4871930E-013  0.5052886E+02  0.7816164E-02  0.1300439E+00
        -11   -1    0    0    0    0  0.00000000000E+00  0.00000000000E+00  0.45593999997E+02  0.45594000000E+02  0.51100000000E-03 0.  1.
         11   -1    0    0    0    0 -0.00000000000E+00 -0.00000000000E+00 -0.45593999997E+02  0.45594000000E+02  0.51100000000E-03 0. -1.
    9900012    2    1    2    0    0 -0.17434901584E+02  0.23089137451E+02  0.28567147554E+02  0.50528856122E+02  0.29999988670E+02 0.  0.
         12    1    1    2    0    0  0.17434901584E+02 -0.23089137451E+02 -0.28567147554E+02  0.40659143878E+02  0.00000000000E+00 0. -1.
         11    1    3    3    0    0 -0.53432237177E+01  0.67485214535E+00  0.88530740674E+01  0.10362547265E+02  0.51100000000E-03 0.  1.
        -11    1    3    3    0    0 -0.63613751837E+01  0.26945420322E+02  0.15347647964E+02  0.31655537728E+02  0.51100000000E-03 0. -1.
         12    1    3    3    0    0 -0.57303026830E+01 -0.45311350161E+01  0.43664255218E+01  0.85107711290E+01  0.00000000000E+00 0. -1.
</event>
<event>
 7    1  0.4871930E-013  0.5052884E+02  0.7816164E-02  0.1300439E+00
        -11   -1    0    0    0    0  0.00000000000E+00  0.00000000000E+00  0.45593999997E+02  0.45594000000E+02  0.51100000000E-03 0.  1.
         11   -1    0    0    0    0 -0.00000000000E+00 -0.00000000000E+00 -0.45593999997E+02  0.45594000000E+02  0.51100000000E-03 0. -1.
    9900012    2    1    2    0    0  0.11197398938E+02  0.27483965528E+02  0.27792395931E+02  0.50528838969E+02  0.29999936531E+02 0.  0.
         12    1    1    2    0    0 -0.11197398938E+02 -0.27483965528E+02 -0.27792395931E+02  0.40659161031E+02  0.00000000000E+00 0. -1.
         11    1    3    3    0    0  0.11258669231E+01  0.26069058904E+02  0.23441645004E+02  0.35076689257E+02  0.51100000000E-03 0. -1.
        -11    1    3    3    0    0  0.75925854785E+00 -0.36966072904E+01  0.28385529267E+01  0.47221564968E+01  0.51100000000E-03 0.  1.
        -12    1    3    3    0    0  0.93122734669E+01  0.51115139140E+01  0.15121980012E+01  0.10729993216E+02  0.00000000000E+00 0.  1.
</event>
<event>
 7    1  0.4871930E-013  0.5052882E+02  0.7816164E-02  0.1300439E+00
        -11   -1    0    0    0    0  0.00000000000E+00  0.00000000000E+00  0.45593999997E+02  0.45594000000E+02  0.51100000000E-03 0.  1.
         11   -1    0    0    0    0 -0.00000000000E+00 -0.00000000000E+00 -0.45593999997E+02  0.45594000000E+02  0.51100000000E-03 0. -1.
    9900012    2    1    2    0    0  0.26039737301E+02 -0.11344379978E+02  0.29093064117E+02  0.50528815853E+02  0.29999866267E+02 0.  0.
         12    1    1    2    0    0 -0.26039737301E+02  0.11344379978E+02 -0.29093064117E+02  0.40659184147E+02  0.00000000000E+00 0. -1.
         11    1    3    3    0    0  0.92839523486E+01 -0.74861650452E+01  0.27752039936E+02  0.30206127842E+02  0.51100000000E-03 0. -1.
        -11    1    3    3    0    0  0.15555074120E+02 -0.15552635907E+01  0.44672353624E+01  0.16258393763E+02  0.51100000000E-03 0.  1.
        -12    1    3    3    0    0  0.12007108324E+01 -0.23029513417E+01 -0.31262111820E+01  0.40642942486E+01  0.00000000000E+00 0.  1.
</event>
<event>
 7    1  0.4871930E-013  0.5052886E+02  0.7816164E-02  0.1300439E+00
        -11   -1    0    0    0    0  0.00000000000E+00  0.00000000000E+00  0.45593999997E+02  0.45594000000E+02  0.51100000000E-03 0.  1.
         11   -1    0    0    0    0 -0.00000000000E+00 -0.00000000000E+00 -0.45593999997E+02  0.45594000000E+02  0.51100000000E-03 0. -1.
    9900012    2    1    2    0    0 -0.17501601017E+01  0.33350104963E+02  0.23192083083E+02  0.50528864751E+02  0.30000014898E+02 0.  0.
         12    1    1    2    0    0  0.17501601017E+01 -0.33350104963E+02 -0.23192083083E+02  0.40659135249E+02  0.00000000000E+00 0. -1.
         11    1    3    3    0    0 -0.78516950470E+01  0.25253088366E+02  0.13937232370E+02  0.29893377753E+02  0.51100000000E-03 0. -1.
        -11    1    3    3    0    0 -0.21315237509E+01  0.81940701168E+01  0.30197218102E+00  0.84721523853E+01  0.51100000000E-03 0.  1.
         12    1    3    3    0    0  0.82330586962E+01 -0.97053519637E-01  0.89528785326E+01  0.12163334613E+02  0.00000000000E+00 0. -1.
</event>
<event>
 7    1  0.4871930E-013  0.5052885E+02  0.7816164E-02  0.1300439E+00
        -11   -1    0    0    0    0  0.00000000000E+00  0.00000000000E+00  0.45593999997E+02  0.45594000000E+02  0.51100000000E-03 0.  1.
         11   -1    0    0    0    0 -0.00000000000E+00 -0.00000000000E+00 -0.45593999997E+02  0.45594000000E+02  0.51100000000E-03 0. -1.
    9900012    2    1    2    0    0 -0.71163423427E+01 -0.29824633654E+02  0.26702344500E+02  0.50528852164E+02  0.29999976638E+02 0.  0.
         12    1    1    2    0    0  0.71163423427E+01  0.29824633654E+02 -0.26702344500E+02  0.40659147836E+02  0.00000000000E+00 0. -1.
         11    1    3    3    0    0 -0.88439544077E+01 -0.97542812655E+01  0.15039822421E+02  0.19988941725E+02  0.51100000000E-03 0. -1.
        -11    1    3    3    0    0  0.15238198137E+01 -0.21107869402E+02  0.15710028048E+02  0.26356577150E+02  0.51100000000E-03 0.  1.
         12    1    3    3    0    0  0.20379225126E+00  0.10375170140E+01 -0.40475059691E+01  0.41833332888E+01  0.00000000000E+00 0. -1.
</event>
<event>
 7    1  0.4871930E-013  0.5052886E+02  0.7816164E-02  0.1300439E+00
        -11   -1    0    0    0    0  0.00000000000E+00  0.00000000000E+00  0.45593999997E+02  0.45594000000E+02  0.51100000000E-03 0. -1.
         11   -1    0    0    0    0 -0.00000000000E+00 -0.00000000000E+00 -0.45593999997E+02  0.45594000000E+02  0.51100000000E-03 0.  1.
    9900012    2    1    2    0    0  0.15790074927E+02  0.37384845415E+02 -0.24925344666E+01  0.50528857596E+02  0.29999993150E+02 0.  0.
         12    1    1    2    0    0 -0.15790074927E+02 -0.37384845415E+02  0.24925344666E+01  0.40659142404E+02  0.00000000000E+00 0. -1.
         11    1    3    3    0    0  0.65732139154E+01  0.48265351238E+01 -0.77697999526E+01  0.11263763760E+02  0.51100000000E-03 0. -1.
        -11    1    3    3    0    0  0.88819868323E+01  0.30912727294E+02 -0.15829179394E+01  0.32202360602E+02  0.51100000000E-03 0.  1.
         12    1    3    3    0    0  0.33487417963E+00  0.16455829973E+01  0.68601834254E+01  0.70627332349E+01  0.00000000000E+00 0. -1.
</event>
<event>
 7    1  0.4871930E-013  0.5052886E+02  0.7816164E-02  0.1300439E+00
        -11   -1    0    0    0    0  0.00000000000E+00  0.00000000000E+00  0.45593999997E+02  0.45594000000E+02  0.51100000000E-03 0. -1.
         11   -1    0    0    0    0 -0.00000000000E+00 -0.00000000000E+00 -0.45593999997E+02  0.45594000000E+02  0.51100000000E-03 0.  1.
    9900012    2    1    2    0    0  0.12314312555E+02 -0.36473678751E+02  0.13084116097E+02  0.50528860445E+02  0.30000001810E+02 0.  0.
         12    1    1    2    0    0 -0.12314312555E+02  0.36473678751E+02 -0.13084116097E+02  0.40659139555E+02  0.00000000000E+00 0. -1.
         11    1    3    3    0    0  0.28518505323E+01  0.41297595677E+01 -0.22471285530E+01  0.54988682963E+01  0.51100000000E-03 0. -1.
        -11    1    3    3    0    0  0.57621031178E+01 -0.10587935622E+02  0.52887717330E+01  0.13163484333E+02  0.51100000000E-03 0.  1.
        -12    1    3    3    0    0  0.37003589047E+01 -0.30015502696E+02  0.10042472917E+02  0.31866507816E+02  0.00000000000E+00 0.  1.
</event>
<event>
 7    1  0.4871930E-013  0.5052887E+02  0.7816164E-02  0.1300439E+00
        -11   -1    0    0    0    0  0.00000000000E+00  0.00000000000E+00  0.45593999997E+02  0.45594000000E+02  0.51100000000E-03 0. -1.
         11   -1    0    0    0    0 -0.00000000000E+00 -0.00000000000E+00 -0.45593999997E+02  0.45594000000E+02  0.51100000000E-03 0.  1.
    9900012    2    1    2    0    0 -0.38418340395E+02  0.12980435457E+02  0.29503580669E+01  0.50528865773E+02  0.30000018004E+02 0.  0.
         12    1    1    2    0    0  0.38418340395E+02 -0.12980435457E+02 -0.29503580669E+01  0.40659134227E+02  0.00000000000E+00 0. -1.
         11    1    3    3    0    0 -0.19486902768E+02 -0.53801647398E+00  0.14484299339E+02  0.24286287670E+02  0.51100000000E-03 0. -1.
        -11    1    3    3    0    0 -0.37746662764E+01  0.98364281481E+00 -0.20610443291E+01  0.44117527892E+01  0.51100000000E-03 0.  1.
         12    1    3    3    0    0 -0.15156771351E+02  0.12534809116E+02 -0.94728969432E+01  0.21830825313E+02  0.00000000000E+00 0. -1.
</event>
<event>
 7    1  0.4871930E-013  0.5052885E+02  0.7816164E-02  0.1300439E+00
        -11   -1    0    0    0    0  0.00000000000E+00  0.00000000000E+00  0.45593999997E+02  0.45594000000E+02  0.51100000000E-03 0.  1.
         11   -1    0    0    0    0 -0.00000000000E+00 -0.00000000000E+00 -0.45593999997E+02  0.45594000000E+02  0.51100000000E-03 0. -1.
    9900012    2    1    2    0    0  0.19335186696E+02 -0.95862963818E+00  0.35754690960E+02  0.50528851693E+02  0.29999975208E+02 0.  0.
         12    1    1    2    0    0 -0.19335186696E+02  0.95862963818E+00 -0.35754690960E+02  0.40659148307E+02  0.00000000000E+00 0. -1.
         11    1    3    3    0    0  0.12487476560E+02  0.29171374916E+01  0.56980079996E+01  0.14032606936E+02  0.51100000000E-03 0. -1.
        -11    1    3    3    0    0  0.75122957262E+01 -0.24556316138E+01  0.16847675348E+01  0.80810367904E+01  0.51100000000E-03 0.  1.
        -12    1    3    3    0    0 -0.66458559080E+00 -0.14201355160E+01  0.28371915426E+02  0.28415207967E+02  0.00000000000E+00 0.  1.
</event>
<event>
 7    1  0.4871930E-013  0.5052886E+02  0.7816164E-02  0.1300439E+00
        -11   -1    0    0    0    0  0.00000000000E+00  0.00000000000E+00  0.45593999997E+02  0.45594000000E+02  0.51100000000E-03 0.  1.
         11   -1    0    0    0    0 -0.00000000000E+00 -0.00000000000E+00 -0.45593999997E+02  0.45594000000E+02  0.51100000000E-03 0. -1.
    9900012    2    1    2    0    0 -0.15964098559E+02  0.35490110982E+02 -0.11779853916E+02  0.50528863528E+02  0.30000011181E+02 0.  0.
         12    1    1    2    0    0  0.15964098559E+02 -0.35490110982E+02  0.11779853916E+02  0.40659136472E+02  0.00000000000E+00 0. -1.
         11    1    3    3    0    0  0.77082798303E+01  0.16166517537E+02 -0.94138721138E+00  0.17934884370E+02  0.51100000000E-03 0. -1.
        -11    1    3    3    0    0 -0.30874260740E+01  0.41161727813E+01 -0.18947338589E+01  0.54831646688E+01  0.51100000000E-03 0.  1.
         12    1    3    3    0    0 -0.20584952316E+02  0.15207420664E+02 -0.89437328455E+01  0.27110814490E+02  0.00000000000E+00 0. -1.
</event>
<event>
 7    1  0.4871930E-013  0.5052886E+02  0.7816164E-02  0.1300439E+00
        -11   -1    0    0    0    0  0.00000000000E+00  0.00000000000E+00  0.45593999997E+02  0.45594000000E+02  0.51100000000E-03 0.  1.
         11   -1    0    0    0    0 -0.00000000000E+00 -0.00000000000E+00 -0.45593999997E+02  0.45594000000E+02  0.51100000000E-03 0. -1.
    9900012    2    1    2    0    0  0.18274876598E+02  0.36315945199E+02 -0.58868266264E+00  0.50528861573E+02  0.30000005236E+02 0.  0.
         12    1    1    2    0    0 -0.18274876598E+02 -0.36315945199E+02  0.58868266264E+00  0.40659138427E+02  0.00000000000E+00 0. -1.
         11    1    3    3    0    0  0.79685234635E+01  0.61407046961E+01 -0.96360496075E+01  0.13930508700E+02  0.51100000000E-03 0. -1.
        -11    1    3    3    0    0  0.81943228586E+01  0.22458448253E+02 -0.78826572413E+00  0.23919661122E+02  0.51100000000E-03 0.  1.
         12    1    3    3    0    0  0.21120302760E+01  0.77167922494E+01  0.98356326690E+01  0.12678691751E+02  0.00000000000E+00 0. -1.
</event>
<event>
 7    1  0.4871930E-013  0.5052886E+02  0.7816164E-02  0.1300439E+00
        -11   -1    0    0    0    0  0.00000000000E+00  0.00000000000E+00  0.45593999997E+02  0.45594000000E+02  0.51100000000E-03 0.  1.
         11   -1    0    0    0    0 -0.00000000000E+00 -0.00000000000E+00 -0.45593999997E+02  0.45594000000E+02  0.51100000000E-03 0. -1.
    9900012    2    1    2    0    0  0.28672173029E+02 -0.17026681949E+02  0.23262942275E+02  0.50528857268E+02  0.29999992150E+02 0.  0.
         12    1    1    2    0    0 -0.28672173029E+02  0.17026681949E+02 -0.23262942275E+02  0.40659142732E+02  0.00000000000E+00 0. -1.
         11    1    3    3    0    0  0.59697143026E+01  0.21622891036E+01  0.83296222018E+01  0.10473566217E+02  0.51100000000E-03 0. -1.
        -11    1    3    3    0    0  0.92212366384E+01 -0.17181098397E+02  0.17482636620E+02  0.26189004004E+02  0.51100000000E-03 0.  1.
        -12    1    3    3    0    0  0.13481222088E+02 -0.20078726557E+01 -0.25493165461E+01  0.13866287046E+02  0.00000000000E+00 0.  1.
</event>
<event>
 7    1  0.4871930E-013  0.5052884E+02  0.7816164E-02  0.1300439E+00
        -11   -1    0    0    0    0  0.00000000000E+00  0.00000000000E+00  0.45593999997E+02  0.45594000000E+02  0.51100000000E-03 0.  1.
         11   -1    0    0    0    0 -0.00000000000E+00 -0.00000000000E+00 -0.45593999997E+02  0.45594000000E+02  0.51100000000E-03 0. -1.
    9900012    2    1    2    0    0 -0.13617093683E+02 -0.78865365582E+01  0.37490591024E+02  0.50528842180E+02  0.29999946291E+02 0.  0.
         12    1    1    2    0    0  0.13617093683E+02  0.78865365582E+01 -0.37490591024E+02  0.40659157820E+02  0.00000000000E+00 0. -1.
         11    1    3    3    0    0 -0.15620676152E+01  0.23408420794E+01  0.14164237938E+01  0.31505322566E+01  0.51100000000E-03 0. -1.
        -11    1    3    3    0    0 -0.10073401715E+02 -0.48967404117E+01  0.39282914191E+02  0.40848486341E+02  0.51100000000E-03 0.  1.
         12    1    3    3    0    0 -0.19816243525E+01 -0.53306382259E+01 -0.32087469599E+01  0.65298235829E+01  0.00000000000E+00 0. -1.
</event>
<event>
 7    1  0.4871930E-013  0.5052888E+02  0.7816164E-02  0.1300439E+00
        -11   -1    0    0    0    0  0.00000000000E+00  0.00000000000E+00  0.45593999997E+02  0.45594000000E+02  0.51100000000E-03 0.  1.
         11   -1    0    0    0    0 -0.00000000000E+00 -0.00000000000E+00 -0.45593999997E+02  0.45594000000E+02  0.51100000000E-03 0. -1.
    9900012    2    1    2    0    0  0.16175168699E+01 -0.40373821655E+02  0.45279778767E+01  0.50528875323E+02  0.30000047033E+02 0.  0.
         12    1    1    2    0    0 -0.16175168699E+01  0.40373821655E+02 -0.45279778767E+01  0.40659124677E+02  0.00000000000E+00 0. -1.
         11    1    3    3    0    0  0.11525617891E+02 -0.11649321418E+02  0.25562028820E+01  0.16585557895E+02  0.51100000000E-03 0.  1.
        -11    1    3    3    0    0 -0.76672076868E+01 -0.33709567948E+01  0.13478798241E+01  0.84832896748E+01  0.51100000000E-03 0. -1.
        -12    1    3    3    0    0 -0.22408933346E+01 -0.25353543442E+02  0.62389517057E+00  0.25460027753E+02  0.00000000000E+00 0.  1.
</event>
<event>
 7    1  0.4871930E-013  0.5052886E+02  0.7816164E-02  0.1300439E+00
        -11   -1    0    0    0    0  0.00000000000E+00  0.00000000000E+00  0.45593999997E+02  0.45594000000E+02  0.51100000000E-03 0.  1.
         11   -1    0    0    0    0 -0.00000000000E+00 -0.00000000000E+00 -0.45593999997E+02  0.45594000000E+02  0.51100000000E-03 0. -1.
    9900012    2    1    2    0    0  0.16005695935E+02 -0.27041728065E+02 -0.25801715257E+02  0.50528857494E+02  0.29999992840E+02 0.  0.
         12    1    1    2    0    0 -0.16005695935E+02  0.27041728065E+02  0.25801715257E+02  0.40659142506E+02  0.00000000000E+00 0. -1.
         11    1    3    3    0    0  0.14459277544E+02 -0.12941287799E+02 -0.15688976652E+02  0.24953789806E+02  0.51100000000E-03 0. -1.
        -11    1    3    3    0    0  0.10314278791E+01 -0.27910694644E+01 -0.13447719917E+02  0.13772983826E+02  0.51100000000E-03 0.  1.
        -12    1    3    3    0    0  0.51499051192E+00 -0.11309370801E+02  0.33349813130E+01  0.11802083863E+02  0.00000000000E+00 0.  1.
</event>
<event>
 7    1  0.4871930E-013  0.5052884E+02  0.7816164E-02  0.1300439E+00
        -11   -1    0    0    0    0  0.00000000000E+00  0.00000000000E+00  0.45593999997E+02  0.45594000000E+02  0.51100000000E-03 0.  1.
         11   -1    0    0    0    0 -0.00000000000E+00 -0.00000000000E+00 -0.45593999997E+02  0.45594000000E+02  0.51100000000E-03 0. -1.
    9900012    2    1    2    0    0  0.36424566938E+01  0.20341841986E+02  0.35015838885E+02  0.50528843603E+02  0.29999950615E+02 0.  0.
         12    1    1    2    0    0 -0.36424566938E+01 -0.20341841986E+02 -0.35015838885E+02  0.40659156397E+02  0.00000000000E+00 0. -1.
         11    1    3    3    0    0 -0.22065634629E+01 -0.95638205014E+00  0.10506975467E+01  0.26244150848E+01  0.51100000000E-03 0. -1.
        -11    1    3    3    0    0 -0.61896612150E+01 -0.27535675173E+01  0.53435235607E+01  0.86282839739E+01  0.51100000000E-03 0.  1.
        -12    1    3    3    0    0  0.12038681372E+02  0.24051791553E+02  0.28621617777E+02  0.39276144544E+02  0.00000000000E+00 0.  1.
</event>
<event>
 7    1  0.4871930E-013  0.5052887E+02  0.7816164E-02  0.1300439E+00
        -11   -1    0    0    0    0  0.00000000000E+00  0.00000000000E+00  0.45593999997E+02  0.45594000000E+02  0.51100000000E-03 0.  1.
         11   -1    0    0    0    0 -0.00000000000E+00 -0.00000000000E+00 -0.45593999997E+02  0.45594000000E+02  0.51100000000E-03 0. -1.
    9900012    2    1    2    0    0 -0.37687882386E+02  0.10080001660E+02 -0.11453457385E+02  0.50528873124E+02  0.30000040349E+02 0.  0.
         12    1    1    2    0    0  0.37687882386E+02 -0.10080001660E+02  0.11453457385E+02  0.40659126876E+02  0.00000000000E+00 0. -1.
         11    1    3    3    0    0 -0.46194342522E+01  0.12902117141E+01  0.30820636318E+01  0.57011345861E+01  0.51100000000E-03 0.  1.
        -11    1    3    3    0    0 -0.13119269523E+02  0.16009919933E+02 -0.10582735296E+02  0.23247087037E+02  0.51100000000E-03 0. -1.
         12    1    3    3    0    0 -0.19949178611E+02 -0.72201299872E+01 -0.39527857208E+01  0.21580651502E+02  0.00000000000E+00 0. -1.
</event>
<event>
 7    1  0.4871930E-013  0.5052886E+02  0.7816164E-02  0.1300439E+00
        -11   -1    0    0    0    0  0.00000000000E+00  0.00000000000E+00  0.45593999997E+02  0.45594000000E+02  0.51100000000E-03 0.  1.
         11   -1    0    0    0    0 -0.00000000000E+00 -0.00000000000E+00 -0.45593999997E+02  0.45594000000E+02  0.51100000000E-03 0. -1.
    9900012    2    1    2    0    0  0.26122679530E+01 -0.40521174490E+02  0.20918877202E+01  0.50528861788E+02  0.30000005891E+02 0.  0.
         12    1    1    2    0    0 -0.26122679530E+01  0.40521174490E+02 -0.20918877202E+01  0.40659138212E+02  0.00000000000E+00 0. -1.
         11    1    3    3    0    0  0.63806764804E+01 -0.28752359023E+02 -0.47201214390E+01  0.29827683926E+02  0.51100000000E-03 0. -1.
        -11    1    3    3    0    0  0.39423783985E+01  0.17902375655E+00 -0.15095215615E+01  0.42252872740E+01  0.51100000000E-03 0.  1.
        -12    1    3    3    0    0 -0.77107869259E+01 -0.11947839223E+02  0.83215307207E+01  0.16475890588E+02  0.00000000000E+00 0.  1.
</event>
<event>
 7    1  0.4871930E-013  0.5052886E+02  0.7816164E-02  0.1300439E+00
        -11   -1    0    0    0    0  0.00000000000E+00  0.00000000000E+00  0.45593999997E+02  0.45594000000E+02  0.51100000000E-03 0.  1.
         11   -1    0    0    0    0 -0.00000000000E+00 -0.00000000000E+00 -0.45593999997E+02  0.45594000000E+02  0.51100000000E-03 0. -1.
    9900012    2    1    2    0    0 -0.36990178147E+02  0.13618787509E+02 -0.99709921370E+01  0.50528864043E+02  0.30000012746E+02 0.  0.
         12    1    1    2    0    0  0.36990178147E+02 -0.13618787509E+02  0.99709921370E+01  0.40659135957E+02  0.00000000000E+00 0. -1.
         11    1    3    3    0    0  0.27059977198E+01 -0.21659526506E+01  0.40249353551E+00  0.34893804395E+01  0.51100000000E-03 0. -1.
        -11    1    3    3    0    0 -0.15325646944E+02  0.17320218429E+01  0.32819505152E+01  0.15768530475E+02  0.51100000000E-03 0.  1.
         12    1    3    3    0    0 -0.24370528923E+02  0.14052718317E+02 -0.13655436188E+02  0.31270953128E+02  0.00000000000E+00 0. -1.
</event>
<event>
 7    1  0.4871930E-013  0.5052887E+02  0.7816164E-02  0.1300439E+00
        -11   -1    0    0    0    0  0.00000000000E+00  0.00000000000E+00  0.45593999997E+02  0.45594000000E+02  0.51100000000E-03 0. -1.
         11   -1    0    0    0    0 -0.00000000000E+00 -0.00000000000E+00 -0.45593999997E+02  0.45594000000E+02  0.51100000000E-03 0.  1.
    9900012    2    1    2    0    0  0.27983854679E+02  0.20309470634E+02 -0.21391448014E+02  0.50528871034E+02  0.30000033995E+02 0.  0.
         12    1    1    2    0    0 -0.27983854679E+02 -0.20309470634E+02  0.21391448014E+02  0.40659128966E+02  0.00000000000E+00 0. -1.
         11    1    3    3    0    0  0.58172652038E+01 -0.15333676737E+01  0.22001287095E+00  0.60199831228E+01  0.51100000000E-03 0.  1.
        -11    1    3    3    0    0  0.15750710822E+02  0.59913274241E+01 -0.21615455444E+02  0.27408188740E+02  0.51100000000E-03 0. -1.
         12    1    3    3    0    0  0.64158786533E+01  0.15851510884E+02  0.39945587381E-02  0.17100699171E+02  0.00000000000E+00 0. -1.
</event>
<event>
 7    1  0.4871930E-013  0.5052887E+02  0.7816164E-02  0.1300439E+00
        -11   -1    0    0    0    0  0.00000000000E+00  0.00000000000E+00  0.45593999997E+02  0.45594000000E+02  0.51100000000E-03 0.  1.
         11   -1    0    0    0    0 -0.00000000000E+00 -0.00000000000E+00 -0.45593999997E+02  0.45594000000E+02  0.51100000000E-03 0. -1.
    9900012    2    1    2    0    0  0.38619465028E+01  0.38808316514E+01  0.40288828165E+02  0.50528866217E+02  0.30000019352E+02 0.  0.
         12    1    1    2    0    0 -0.38619465028E+01 -0.38808316514E+01 -0.40288828165E+02  0.40659133783E+02  0.00000000000E+00 0. -1.
         11    1    3    3    0    0 -0.56146772836E+01 -0.31614785908E+01  0.38829846110E+01  0.75231055841E+01  0.51100000000E-03 0.  1.
        -11    1    3    3    0    0  0.66379987576E+01 -0.18206314889E+00  0.94746749244E+00  0.67077469695E+01  0.51100000000E-03 0. -1.
        -12    1    3    3    0    0  0.28386250287E+01  0.72243733911E+01  0.35458376062E+02  0.36298013663E+02  0.00000000000E+00 0.  1.
</event>
<event>
 7    1  0.4871930E-013  0.5052886E+02  0.7816164E-02  0.1300439E+00
        -11   -1    0    0    0    0  0.00000000000E+00  0.00000000000E+00  0.45593999997E+02  0.45594000000E+02  0.51100000000E-03 0. -1.
         11   -1    0    0    0    0 -0.00000000000E+00 -0.00000000000E+00 -0.45593999997E+02  0.45594000000E+02  0.51100000000E-03 0.  1.
    9900012    2    1    2    0    0 -0.28013192458E+02 -0.29469022655E+02 -0.57947439852E-01  0.50528860734E+02  0.30000002688E+02 0.  0.
         12    1    1    2    0    0  0.28013192458E+02  0.29469022655E+02  0.57947439852E-01  0.40659139266E+02  0.00000000000E+00 0. -1.
         11    1    3    3    0    0 -0.15391991920E+02 -0.84835977814E+01 -0.10471290418E+01  0.17606286550E+02  0.51100000000E-03 0.  1.
        -11    1    3    3    0    0 -0.11399846448E+02 -0.18961020410E+02 -0.80776076321E+01  0.23552590926E+02  0.51100000000E-03 0. -1.
        -12    1    3    3    0    0 -0.12213540904E+01 -0.20244044637E+01  0.90667892340E+01  0.93699832583E+01  0.00000000000E+00 0.  1.
</event>
<event>
 7    1  0.4871930E-013  0.5052883E+02  0.7816164E-02  0.1300439E+00
        -11   -1    0    0    0    0  0.00000000000E+00  0.00000000000E+00  0.45593999997E+02  0.45594000000E+02  0.51100000000E-03 0.  1.
         11   -1    0    0    0    0 -0.00000000000E+00 -0.00000000000E+00 -0.45593999997E+02  0.45594000000E+02  0.51100000000E-03 0. -1.
    9900012    2    1    2    0    0 -0.17144500449E+02  0.32842914543E+02  0.16750449802E+02  0.50528825145E+02  0.29999894509E+02 0.  0.
         12    1    1    2    0    0  0.17144500449E+02 -0.32842914543E+02 -0.16750449802E+02  0.40659174855E+02  0.00000000000E+00 0. -1.
         11    1    3    3    0    0 -0.13571193121E+01  0.16268764853E+02  0.81805927407E+01  0.18260245905E+02  0.51100000000E-03 0.  1.
        -11    1    3    3    0    0 -0.59682498705E+01  0.17028672629E+02 -0.16119832565E+01  0.18116130611E+02  0.51100000000E-03 0. -1.
         12    1    3    3    0    0 -0.98191312665E+01 -0.45452293864E+00  0.10181840318E+02  0.14152448629E+02  0.00000000000E+00 0. -1.
</event>
<event>
 7    1  0.4871930E-013  0.5052886E+02  0.7816164E-02  0.1300439E+00
        -11   -1    0    0    0    0  0.00000000000E+00  0.00000000000E+00  0.45593999997E+02  0.45594000000E+02  0.51100000000E-03 0.  1.
         11   -1    0    0    0    0 -0.00000000000E+00 -0.00000000000E+00 -0.45593999997E+02  0.45594000000E+02  0.51100000000E-03 0. -1.
    9900012    2    1    2    0    0  0.18776309845E+02 -0.23180780953E+02 -0.27627289527E+02  0.50528861500E+02  0.30000005014E+02 0.  0.
         12    1    1    2    0    0 -0.18776309845E+02  0.23180780953E+02  0.27627289527E+02  0.40659138500E+02  0.00000000000E+00 0. -1.
         11    1    3    3    0    0 -0.55220028505E+01 -0.34261407167E+01 -0.65347731602E+01  0.92159761398E+01  0.51100000000E-03 0. -1.
        -11    1    3    3    0    0  0.69783421071E+01  0.11894457087E+01 -0.92979959052E+01  0.11686092922E+02  0.51100000000E-03 0.  1.
        -12    1    3    3    0    0  0.17319970588E+02 -0.20944085945E+02 -0.11794520461E+02  0.29626792438E+02  0.00000000000E+00 0.  1.
</event>
<event>
 7    1  0.4871930E-013  0.5052887E+02  0.7816164E-02  0.1300439E+00
        -11   -1    0    0    0    0  0.00000000000E+00  0.00000000000E+00  0.45593999997E+02  0.45594000000E+02  0.51100000000E-03 0.  1.
         11   -1    0    0    0    0 -0.00000000000E+00 -0.00000000000E+00 -0.45593999997E+02  0.45594000000E+02  0.51100000000E-03 0. -1.
    9900012    2    1    2    0    0  0.11694974600E+02  0.64813986340E+01  0.38397708625E+02  0.50528868346E+02  0.30000025825E+02 0.  0.
         12    1    1    2    0    0 -0.11694974600E+02 -0.64813986340E+01 -0.38397708625E+02  0.40659131654E+02  0.00000000000E+00 0. -1.
         11    1    3    3    0    0  0.48462965402E+01 -0.67330649180E+01  0.14183965839E+02  0.16431848360E+02  0.51100000000E-03 0.  1.
        -11    1    3    3    0    0  0.61055490893E-01  0.21003503497E+01  0.20426967860E+02  0.20534756283E+02  0.51100000000E-03 0. -1.
        -12    1    3    3    0    0  0.67876225693E+01  0.11114113202E+02  0.37867749257E+01  0.13562263703E+02  0.00000000000E+00 0.  1.
</event>
<event>
 7    1  0.4871930E-013  0.5052886E+02  0.7816164E-02  0.1300439E+00
        -11   -1    0    0    0    0  0.00000000000E+00  0.00000000000E+00  0.45593999997E+02  0.45594000000E+02  0.51100000000E-03 0. -1.
         11   -1    0    0    0    0 -0.00000000000E+00 -0.00000000000E+00 -0.45593999997E+02  0.45594000000E+02  0.51100000000E-03 0.  1.
    9900012    2    1    2    0    0 -0.21916696928E+02 -0.86903601155E+01 -0.33125547633E+02  0.50528857496E+02  0.29999992845E+02 0.  0.
         12    1    1    2    0    0  0.21916696928E+02  0.86903601155E+01  0.33125547633E+02  0.40659142504E+02  0.00000000000E+00 0. -1.
         11    1    3    3    0    0 -0.19655668597E+02 -0.48700228170E+01 -0.23304909043E+02  0.30873633022E+02  0.51100000000E-03 0. -1.
        -11    1    3    3    0    0 -0.74921034833E+01 -0.73686811737E+01 -0.46612609473E+01  0.11495931051E+02  0.51100000000E-03 0.  1.
         12    1    3    3    0    0  0.52310751524E+01  0.35483438752E+01 -0.51593776428E+01  0.81592934233E+01  0.00000000000E+00 0. -1.
</event>
<event>
 7    1  0.4871930E-013  0.5052886E+02  0.7816164E-02  0.1300439E+00
        -11   -1    0    0    0    0  0.00000000000E+00  0.00000000000E+00  0.45593999997E+02  0.45594000000E+02  0.51100000000E-03 0.  1.
         11   -1    0    0    0    0 -0.00000000000E+00 -0.00000000000E+00 -0.45593999997E+02  0.45594000000E+02  0.51100000000E-03 0. -1.
    9900012    2    1    2    0    0 -0.11225887445E+02  0.32728922109E+02  0.21353279887E+02  0.50528862610E+02  0.30000008389E+02 0.  0.
         12    1    1    2    0    0  0.11225887445E+02 -0.32728922109E+02 -0.21353279887E+02  0.40659137390E+02  0.00000000000E+00 0. -1.
         11    1    3    3    0    0 -0.44726996394E+01 -0.15707933665E+01  0.26006406942E+01  0.54070108329E+01  0.51100000000E-03 0. -1.
        -11    1    3    3    0    0 -0.91635586639E+01  0.13302702752E+02 -0.10122618923E+01  0.16185097538E+02  0.51100000000E-03 0.  1.
        -12    1    3    3    0    0  0.24103708583E+01  0.20997012723E+02  0.19764901085E+02  0.28936754239E+02  0.00000000000E+00 0.  1.
</event>
<event>
 7    1  0.4871930E-013  0.5052886E+02  0.7816164E-02  0.1300439E+00
        -11   -1    0    0    0    0  0.00000000000E+00  0.00000000000E+00  0.45593999997E+02  0.45594000000E+02  0.51100000000E-03 0. -1.
         11   -1    0    0    0    0 -0.00000000000E+00 -0.00000000000E+00 -0.45593999997E+02  0.45594000000E+02  0.51100000000E-03 0.  1.
    9900012    2    1    2    0    0  0.18055928920E+02 -0.23085175190E+02 -0.28181970936E+02  0.50528863652E+02  0.30000011557E+02 0.  0.
         12    1    1    2    0    0 -0.18055928920E+02  0.23085175190E+02  0.28181970936E+02  0.40659136348E+02  0.00000000000E+00 0. -1.
         11    1    3    3    0    0  0.49323252227E+00 -0.46373618393E+01  0.20579766429E+01  0.50974180988E+01  0.51100000000E-03 0. -1.
        -11    1    3    3    0    0  0.16260285714E+02 -0.55139770870E+01 -0.64874785238E+01  0.18354514776E+02  0.51100000000E-03 0.  1.
        -12    1    3    3    0    0  0.13024106842E+01 -0.12933836263E+02 -0.23752469055E+02  0.27076930777E+02  0.00000000000E+00 0.  1.
</event>
<event>
 7    1  0.4871930E-013  0.5052886E+02  0.7816164E-02  0.1300439E+00
        -11   -1    0    0    0    0  0.00000000000E+00  0.00000000000E+00  0.45593999997E+02  0.45594000000E+02  0.51100000000E-03 0.  1.
         11   -1    0    0    0    0 -0.00000000000E+00 -0.00000000000E+00 -0.45593999997E+02  0.45594000000E+02  0.51100000000E-03 0. -1.
    9900012    2    1    2    0    0  0.63229539206E+01 -0.33188945074E+02  0.22620336379E+02  0.50528862782E+02  0.30000008912E+02 0.  0.
         12    1    1    2    0    0 -0.63229539206E+01  0.33188945074E+02 -0.22620336379E+02  0.40659137218E+02  0.00000000000E+00 0. -1.
         11    1    3    3    0    0  0.90994587401E+01 -0.21123789208E+01  0.12833900329E+02  0.15873603623E+02  0.51100000000E-03 0. -1.
        -11    1    3    3    0    0 -0.26664458673E+01 -0.80165476141E+00 -0.15780453843E+00  0.27888145247E+01  0.51100000000E-03 0.  1.
        -12    1    3    3    0    0 -0.11005895216E+00 -0.30274911392E+02  0.99442405883E+01  0.31866444634E+02  0.00000000000E+00 0.  1.
</event>
<event>
 7    1  0.4871930E-013  0.5052886E+02  0.7816164E-02  0.1300439E+00
        -11   -1    0    0    0    0  0.00000000000E+00  0.00000000000E+00  0.45593999997E+02  0.45594000000E+02  0.51100000000E-03 0. -1.
         11   -1    0    0    0    0 -0.00000000000E+00 -0.00000000000E+00 -0.45593999997E+02  0.45594000000E+02  0.51100000000E-03 0.  1.
    9900012    2    1    2    0    0  0.13639176894E+02 -0.30755152836E+02 -0.22831103989E+02  0.50528857342E+02  0.29999992376E+02 0.  0.
         12    1    1    2    0    0 -0.13639176894E+02  0.30755152836E+02  0.22831103989E+02  0.40659142658E+02  0.00000000000E+00 0. -1.
         11    1    3    3    0    0  0.46522875029E+01 -0.23278302881E+01 -0.10092286821E+02  0.11354154588E+02  0.51100000000E-03 0. -1.
        -11    1    3    3    0    0  0.84118505977E+01 -0.31406388851E+02 -0.14572328684E+02  0.35629668181E+02  0.51100000000E-03 0.  1.
         12    1    3    3    0    0  0.57503879325E+00  0.29790663026E+01  0.18335115154E+01  0.35450345734E+01  0.00000000000E+00 0. -1.
</event>
<event>
 7    1  0.4871930E-013  0.5052886E+02  0.7816164E-02  0.1300439E+00
        -11   -1    0    0    0    0  0.00000000000E+00  0.00000000000E+00  0.45593999997E+02  0.45594000000E+02  0.51100000000E-03 0.  1.
         11   -1    0    0    0    0 -0.00000000000E+00 -0.00000000000E+00 -0.45593999997E+02  0.45594000000E+02  0.51100000000E-03 0. -1.
    9900012    2    1    2    0    0  0.15671123329E+02 -0.28058988561E+02  0.24905313585E+02  0.50528860926E+02  0.30000003272E+02 0.  0.
         12    1    1    2    0    0 -0.15671123329E+02  0.28058988561E+02 -0.24905313585E+02  0.40659139074E+02  0.00000000000E+00 0. -1.
         11    1    3    3    0    0 -0.15673468365E+01 -0.16360495981E+01 -0.30098390687E+01  0.37672756568E+01  0.51100000000E-03 0. -1.
        -11    1    3    3    0    0 -0.57225729246E+00 -0.33817826415E+01 -0.28054433490E+01  0.44310771702E+01  0.51100000000E-03 0.  1.
        -12    1    3    3    0    0  0.17810727458E+02 -0.23041156321E+02  0.30720596003E+02  0.42330508099E+02  0.00000000000E+00 0.  1.
</event>
<event>
 7    1  0.4871930E-013  0.5052885E+02  0.7816164E-02  0.1300439E+00
        -11   -1    0    0    0    0  0.00000000000E+00  0.00000000000E+00  0.45593999997E+02  0.45594000000E+02  0.51100000000E-03 0.  1.
         11   -1    0    0    0    0 -0.00000000000E+00 -0.00000000000E+00 -0.45593999997E+02  0.45594000000E+02  0.51100000000E-03 0. -1.
    9900012    2    1    2    0    0  0.40000650305E+02  0.48543522953E+01  0.54359614793E+01  0.50528850498E+02  0.29999971573E+02 0.  0.
         12    1    1    2    0    0 -0.40000650305E+02 -0.48543522953E+01 -0.54359614793E+01  0.40659149502E+02  0.00000000000E+00 0. -1.
         11    1    3    3    0    0  0.28063226959E+02  0.14717970235E+01 -0.64044826980E+01  0.28822357515E+02  0.51100000000E-03 0. -1.
        -11    1    3    3    0    0  0.12428129192E+02  0.40101095578E+01  0.37637802124E+01  0.13590637057E+02  0.51100000000E-03 0.  1.
        -12    1    3    3    0    0 -0.49070584544E+00 -0.62755428600E+00  0.80766639648E+01  0.81158559259E+01  0.00000000000E+00 0.  1.
</event>
<event>
 7    1  0.4871930E-013  0.5052886E+02  0.7816164E-02  0.1300439E+00
        -11   -1    0    0    0    0  0.00000000000E+00  0.00000000000E+00  0.45593999997E+02  0.45594000000E+02  0.51100000000E-03 0. -1.
         11   -1    0    0    0    0 -0.00000000000E+00 -0.00000000000E+00 -0.45593999997E+02  0.45594000000E+02  0.51100000000E-03 0.  1.
    9900012    2    1    2    0    0 -0.22175552666E+02  0.33125348401E+02 -0.80076286097E+01  0.50528856395E+02  0.29999989498E+02 0.  0.
         12    1    1    2    0    0  0.22175552666E+02 -0.33125348401E+02  0.80076286097E+01  0.40659143605E+02  0.00000000000E+00 0. -1.
         11    1    3    3    0    0 -0.82282907090E+01  0.53961714291E+01 -0.75702570572E+00  0.98689676392E+01  0.51100000000E-03 0. -1.
        -11    1    3    3    0    0 -0.12376327271E+02  0.32035298753E+02 -0.93871180575E+01  0.35602694120E+02  0.51100000000E-03 0.  1.
         12    1    3    3    0    0 -0.15709346860E+01 -0.43061217810E+01  0.21365151535E+01  0.50571946356E+01  0.00000000000E+00 0. -1.
</event>
<event>
 7    1  0.4871930E-013  0.5052886E+02  0.7816164E-02  0.1300439E+00
        -11   -1    0    0    0    0  0.00000000000E+00  0.00000000000E+00  0.45593999997E+02  0.45594000000E+02  0.51100000000E-03 0.  1.
         11   -1    0    0    0    0 -0.00000000000E+00 -0.00000000000E+00 -0.45593999997E+02  0.45594000000E+02  0.51100000000E-03 0. -1.
    9900012    2    1    2    0    0  0.19266768579E+01  0.40425113673E+02 -0.39069292966E+01  0.50528855940E+02  0.29999988114E+02 0.  0.
         12    1    1    2    0    0 -0.19266768579E+01 -0.40425113673E+02  0.39069292966E+01  0.40659144060E+02  0.00000000000E+00 0. -1.
         11    1    3    3    0    0  0.32472351438E+01  0.18893223195E+02 -0.60440938354E+01  0.20100484803E+02  0.51100000000E-03 0. -1.
        -11    1    3    3    0    0  0.86932460056E+01  0.14777817005E+02  0.52942279219E+01  0.17943947478E+02  0.51100000000E-03 0.  1.
         12    1    3    3    0    0 -0.10013804292E+02  0.67540734729E+01 -0.31570633831E+01  0.12484423658E+02  0.00000000000E+00 0. -1.
</event>
<event>
 7    1  0.4871930E-013  0.5052887E+02  0.7816164E-02  0.1300439E+00
        -11   -1    0    0    0    0  0.00000000000E+00  0.00000000000E+00  0.45593999997E+02  0.45594000000E+02  0.51100000000E-03 0. -1.
         11   -1    0    0    0    0 -0.00000000000E+00 -0.00000000000E+00 -0.45593999997E+02  0.45594000000E+02  0.51100000000E-03 0.  1.
    9900012    2    1    2    0    0  0.34226201898E+01 -0.77712140357E+01 -0.39762531781E+02  0.50528867813E+02  0.30000024204E+02 0.  0.
         12    1    1    2    0    0 -0.34226201898E+01  0.77712140357E+01  0.39762531781E+02  0.40659132187E+02  0.00000000000E+00 0. -1.
         11    1    3    3    0    0 -0.20163054976E+01 -0.45598444366E+01  0.18156041605E+01  0.53060425813E+01  0.51100000000E-03 0. -1.
        -11    1    3    3    0    0 -0.34819608144E+01  0.19722131507E+01 -0.27384996115E+02  0.27675832206E+02  0.51100000000E-03 0.  1.
         12    1    3    3    0    0  0.89208865019E+01 -0.51835827498E+01 -0.14193139827E+02  0.17546993026E+02  0.00000000000E+00 0. -1.
</event>
<event>
 7    1  0.4871930E-013  0.5052889E+02  0.7816164E-02  0.1300439E+00
        -11   -1    0    0    0    0  0.00000000000E+00  0.00000000000E+00  0.45593999997E+02  0.45594000000E+02  0.51100000000E-03 0. -1.
         11   -1    0    0    0    0 -0.00000000000E+00 -0.00000000000E+00 -0.45593999997E+02  0.45594000000E+02  0.51100000000E-03 0.  1.
    9900012    2    1    2    0    0 -0.21446479106E+02 -0.29265107112E+02 -0.18351172783E+02  0.50528886595E+02  0.30000081295E+02 0.  0.
         12    1    1    2    0    0  0.21446479106E+02  0.29265107112E+02  0.18351172783E+02  0.40659113405E+02  0.00000000000E+00 0. -1.
         11    1    3    3    0    0  0.26571238083E+01 -0.39414589851E+01 -0.85961228907E+01  0.98228679558E+01  0.51100000000E-03 0. -1.
        -11    1    3    3    0    0 -0.14537631378E+02 -0.69270142281E+01 -0.11662819147E+02  0.19883349892E+02  0.51100000000E-03 0.  1.
        -12    1    3    3    0    0 -0.95659715364E+01 -0.18396633899E+02  0.19077692547E+01  0.20822668748E+02  0.00000000000E+00 0.  1.
</event>
<event>
 7    1  0.4871930E-013  0.5052887E+02  0.7816164E-02  0.1300439E+00
        -11   -1    0    0    0    0  0.00000000000E+00  0.00000000000E+00  0.45593999997E+02  0.45594000000E+02  0.51100000000E-03 0.  1.
         11   -1    0    0    0    0 -0.00000000000E+00 -0.00000000000E+00 -0.45593999997E+02  0.45594000000E+02  0.51100000000E-03 0. -1.
    9900012    2    1    2    0    0 -0.21735705916E+02  0.28641861699E+02  0.18983358089E+02  0.50528867722E+02  0.30000023928E+02 0.  0.
         12    1    1    2    0    0  0.21735705916E+02 -0.28641861699E+02 -0.18983358089E+02  0.40659132278E+02  0.00000000000E+00 0. -1.
         11    1    3    3    0    0 -0.25511846510E+01 -0.51318637138E+01  0.23891375560E+01  0.62090697229E+01  0.51100000000E-03 0. -1.
        -11    1    3    3    0    0 -0.10563234793E+02  0.68053404387E+01  0.30318825664E+01  0.12926209805E+02  0.51100000000E-03 0.  1.
        -12    1    3    3    0    0 -0.86212864723E+01  0.26968384975E+02  0.13562337966E+02  0.31393588194E+02  0.00000000000E+00 0.  1.
</event>
<event>
 7    1  0.4871930E-013  0.5052886E+02  0.7816164E-02  0.1300439E+00
        -11   -1    0    0    0    0  0.00000000000E+00  0.00000000000E+00  0.45593999997E+02  0.45594000000E+02  0.51100000000E-03 0.  1.
         11   -1    0    0    0    0 -0.00000000000E+00 -0.00000000000E+00 -0.45593999997E+02  0.45594000000E+02  0.51100000000E-03 0. -1.
    9900012    2    1    2    0    0 -0.39408876779E+02  0.92009235141E+01  0.39305546650E+01  0.50528858070E+02  0.29999994589E+02 0.  0.
         12    1    1    2    0    0  0.39408876779E+02 -0.92009235141E+01 -0.39305546650E+01  0.40659141930E+02  0.00000000000E+00 0. -1.
         11    1    3    3    0    0 -0.58346548106E+01  0.67010354307E+01  0.10935644042E+02  0.14090258460E+02  0.51100000000E-03 0. -1.
        -11    1    3    3    0    0 -0.97602684433E+01 -0.35721748223E+01  0.13512378441E+01  0.10480892950E+02  0.51100000000E-03 0.  1.
        -12    1    3    3    0    0 -0.23813953525E+02  0.60720629058E+01 -0.83563272210E+01  0.25957706660E+02  0.00000000000E+00 0.  1.
</event>
<event>
 7    1  0.4871930E-013  0.5052892E+02  0.7816164E-02  0.1300439E+00
        -11   -1    0    0    0    0  0.00000000000E+00  0.00000000000E+00  0.45593999997E+02  0.45594000000E+02  0.51100000000E-03 0. -1.
         11   -1    0    0    0    0 -0.00000000000E+00 -0.00000000000E+00 -0.45593999997E+02  0.45594000000E+02  0.51100000000E-03 0.  1.
    9900012    2    1    2    0    0  0.89474224346E+01 -0.30381019524E+02 -0.25497024147E+02  0.50528917916E+02  0.30000176498E+02 0.  0.
         12    1    1    2    0    0 -0.89474224346E+01  0.30381019524E+02  0.25497024147E+02  0.40659082084E+02  0.00000000000E+00 0. -1.
         11    1    3    3    0    0 -0.44061991354E+00 -0.13426493300E+02 -0.84850957103E+01  0.15889043952E+02  0.51100000000E-03 0. -1.
        -11    1    3    3    0    0  0.32128787109E+01 -0.21826883019E+02 -0.14425552844E+02  0.26359665913E+02  0.51100000000E-03 0.  1.
         12    1    3    3    0    0  0.61751636372E+01  0.48723567939E+01 -0.25863755925E+01  0.82802080517E+01  0.00000000000E+00 0. -1.
</event>
<event>
 7    1  0.4871930E-013  0.5052886E+02  0.7816164E-02  0.1300439E+00
        -11   -1    0    0    0    0  0.00000000000E+00  0.00000000000E+00  0.45593999997E+02  0.45594000000E+02  0.51100000000E-03 0.  1.
         11   -1    0    0    0    0 -0.00000000000E+00 -0.00000000000E+00 -0.45593999997E+02  0.45594000000E+02  0.51100000000E-03 0. -1.
    9900012    2    1    2    0    0 -0.12435288089E+02 -0.43835696700E+01  0.38461844087E+02  0.50528861747E+02  0.30000005765E+02 0.  0.
         12    1    1    2    0    0  0.12435288089E+02  0.43835696700E+01 -0.38461844087E+02  0.40659138253E+02  0.00000000000E+00 0. -1.
         11    1    3    3    0    0  0.30009085055E+01 -0.61923439559E+01  0.65026875335E+01  0.94676037595E+01  0.51100000000E-03 0. -1.
        -11    1    3    3    0    0 -0.67569442146E+01 -0.53168630321E+01  0.27778489260E+02  0.29078682801E+02  0.51100000000E-03 0.  1.
        -12    1    3    3    0    0 -0.86792523799E+01  0.71256373180E+01  0.41806672939E+01  0.11982575186E+02  0.00000000000E+00 0.  1.
</event>
<event>
 7    1  0.4871930E-013  0.5052887E+02  0.7816164E-02  0.1300439E+00
        -11   -1    0    0    0    0  0.00000000000E+00  0.00000000000E+00  0.45593999997E+02  0.45594000000E+02  0.51100000000E-03 0.  1.
         11   -1    0    0    0    0 -0.00000000000E+00 -0.00000000000E+00 -0.45593999997E+02  0.45594000000E+02  0.51100000000E-03 0. -1.
    9900012    2    1    2    0    0  0.22416746347E+02  0.12136152627E+01  0.33899584892E+02  0.50528865299E+02  0.30000016564E+02 0.  0.
         12    1    1    2    0    0 -0.22416746347E+02 -0.12136152627E+01 -0.33899584892E+02  0.40659134701E+02  0.00000000000E+00 0. -1.
         11    1    3    3    0    0  0.21838278078E+02  0.37000644658E+01  0.18876449559E+02  0.29101910843E+02  0.51100000000E-03 0. -1.
        -11    1    3    3    0    0 -0.14805213439E+01  0.61592809232E+01  0.53588047796E+01  0.82973172693E+01  0.51100000000E-03 0.  1.
        -12    1    3    3    0    0  0.20589896127E+01 -0.86457301263E+01  0.96643305528E+01  0.13129637188E+02  0.00000000000E+00 0.  1.
</event>
<event>
 7    1  0.4871930E-013  0.5052886E+02  0.7816164E-02  0.1300439E+00
        -11   -1    0    0    0    0  0.00000000000E+00  0.00000000000E+00  0.45593999997E+02  0.45594000000E+02  0.51100000000E-03 0.  1.
         11   -1    0    0    0    0 -0.00000000000E+00 -0.00000000000E+00 -0.45593999997E+02  0.45594000000E+02  0.51100000000E-03 0. -1.
    9900012    2    1    2    0    0  0.39913977741E+02  0.51467380052E+01 -0.57923334513E+01  0.50528860093E+02  0.30000000739E+02 0.  0.
         12    1    1    2    0    0 -0.39913977741E+02 -0.51467380052E+01  0.57923334513E+01  0.40659139907E+02  0.00000000000E+00 0. -1.
         11    1    3    3    0    0  0.12257015953E+02  0.70986162010E+01 -0.89957598905E+00  0.14192745656E+02  0.51100000000E-03 0. -1.
        -11    1    3    3    0    0 -0.15962149664E+01 -0.21876590737E+01  0.48057390695E+01  0.55162380938E+01  0.51100000000E-03 0.  1.
         12    1    3    3    0    0  0.29253176754E+02  0.23578087791E+00 -0.96984965317E+01  0.30819876343E+02  0.00000000000E+00 0. -1.
</event>
<event>
 7    1  0.4871930E-013  0.5052886E+02  0.7816164E-02  0.1300439E+00
        -11   -1    0    0    0    0  0.00000000000E+00  0.00000000000E+00  0.45593999997E+02  0.45594000000E+02  0.51100000000E-03 0.  1.
         11   -1    0    0    0    0 -0.00000000000E+00 -0.00000000000E+00 -0.45593999997E+02  0.45594000000E+02  0.51100000000E-03 0. -1.
    9900012    2    1    2    0    0  0.25370238555E+01 -0.39324692276E+02  0.10014878209E+02  0.50528859599E+02  0.29999999236E+02 0.  0.
         12    1    1    2    0    0 -0.25370238555E+01  0.39324692276E+02 -0.10014878209E+02  0.40659140401E+02  0.00000000000E+00 0. -1.
         11    1    3    3    0    0 -0.66643250391E+01 -0.18416410560E+02  0.74411474633E+01  0.20951087847E+02  0.51100000000E-03 0. -1.
        -11    1    3    3    0    0 -0.21808190850E+01  0.22872554398E+01 -0.13633450305E+01  0.34418337063E+01  0.51100000000E-03 0.  1.
        -12    1    3    3    0    0  0.11382167980E+02 -0.23195537155E+02  0.39370757767E+01  0.26135938045E+02  0.00000000000E+00 0.  1.
</event>
<event>
 7    1  0.4871930E-013  0.5052886E+02  0.7816164E-02  0.1300439E+00
        -11   -1    0    0    0    0  0.00000000000E+00  0.00000000000E+00  0.45593999997E+02  0.45594000000E+02  0.51100000000E-03 0.  1.
         11   -1    0    0    0    0 -0.00000000000E+00 -0.00000000000E+00 -0.45593999997E+02  0.45594000000E+02  0.51100000000E-03 0. -1.
    9900012    2    1    2    0    0 -0.69118809359E+01  0.29054316894E+02  0.27590542518E+02  0.50528862470E+02  0.30000007964E+02 0.  0.
         12    1    1    2    0    0  0.69118809359E+01 -0.29054316894E+02 -0.27590542518E+02  0.40659137530E+02  0.00000000000E+00 0. -1.
         11    1    3    3    0    0  0.15352714229E+01  0.16521319492E+01  0.75594257970E+01  0.78886955171E+01  0.51100000000E-03 0.  1.
        -11    1    3    3    0    0 -0.10430630513E+01  0.26194961063E+02  0.62514652494E+01  0.26950784472E+02  0.51100000000E-03 0. -1.
         12    1    3    3    0    0 -0.74040893075E+01  0.12072238820E+01  0.13779651471E+02  0.15689382481E+02  0.00000000000E+00 0. -1.
</event>
<event>
 7    1  0.1028915E-012  0.5052886E+02  0.7816164E-02  0.1300439E+00
        -11   -1    0    0    0    0  0.00000000000E+00  0.00000000000E+00  0.45593999997E+02  0.45594000000E+02  0.51100000000E-03 0. -1.
         11   -1    0    0    0    0 -0.00000000000E+00 -0.00000000000E+00 -0.45593999997E+02  0.45594000000E+02  0.51100000000E-03 0.  1.
    9900012    2    1    2    0    0 -0.23380967699E+02 -0.24901862628E+02 -0.22054323413E+02  0.50528860878E+02  0.30000003125E+02 0.  0.
         12    1    1    2    0    0  0.23380967699E+02  0.24901862628E+02  0.22054323413E+02  0.40659139122E+02  0.00000000000E+00 0. -1.
         11    1    3    3    0    0  0.28169136575E+01 -0.60607536532E+00  0.20293017676E+01  0.35242581953E+01  0.51100000000E-03 0. -1.
        -11    1    3    3    0    0 -0.11462726109E+02 -0.11079290593E+02 -0.14518993609E+00  0.15942579787E+02  0.51100000000E-03 0.  1.
        -12    1    3    3    0    0 -0.14735155248E+02 -0.13216496670E+02 -0.23938435245E+02  0.31062022896E+02  0.00000000000E+00 0.  1.
</event>
<event>
 7    1  0.4871930E-013  0.5052891E+02  0.7816164E-02  0.1300439E+00
        -11   -1    0    0    0    0  0.00000000000E+00  0.00000000000E+00  0.45593999997E+02  0.45594000000E+02  0.51100000000E-03 0. -1.
         11   -1    0    0    0    0 -0.00000000000E+00 -0.00000000000E+00 -0.45593999997E+02  0.45594000000E+02  0.51100000000E-03 0.  1.
    9900012    2    1    2    0    0 -0.25900591060E+02 -0.26352429448E+02 -0.16966737307E+02  0.50528913317E+02  0.30000162517E+02 0.  0.
         12    1    1    2    0    0  0.25900591060E+02  0.26352429448E+02  0.16966737307E+02  0.40659086683E+02  0.00000000000E+00 0. -1.
         11    1    3    3    0    0 -0.63355229935E+01 -0.85310399675E+01  0.44657825273E+01  0.11526521955E+02  0.51100000000E-03 0. -1.
        -11    1    3    3    0    0  0.27695613961E+01 -0.71357749580E+01 -0.34167126231E+01  0.83823433471E+01  0.51100000000E-03 0.  1.
        -12    1    3    3    0    0 -0.22334629463E+02 -0.10685614522E+02 -0.18015807211E+02  0.30620048015E+02  0.00000000000E+00 0.  1.
</event>
<event>
 7    1  0.4871930E-013  0.5052887E+02  0.7816164E-02  0.1300439E+00
        -11   -1    0    0    0    0  0.00000000000E+00  0.00000000000E+00  0.45593999997E+02  0.45594000000E+02  0.51100000000E-03 0.  1.
         11   -1    0    0    0    0 -0.00000000000E+00 -0.00000000000E+00 -0.45593999997E+02  0.45594000000E+02  0.51100000000E-03 0. -1.
    9900012    2    1    2    0    0 -0.26074725778E+02 -0.27063091835E+02  0.15519761335E+02  0.50528865037E+02  0.30000015765E+02 0.  0.
         12    1    1    2    0    0  0.26074725778E+02  0.27063091835E+02 -0.15519761335E+02  0.40659134963E+02  0.00000000000E+00 0. -1.
         11    1    3    3    0    0 -0.11051670397E+02 -0.73917334884E-01  0.55571475721E+01  0.12370399013E+02  0.51100000000E-03 0. -1.
        -11    1    3    3    0    0 -0.61402919371E+01 -0.37703111531E+01 -0.53379329720E+01  0.89672715995E+01  0.51100000000E-03 0.  1.
        -12    1    3    3    0    0 -0.88827634437E+01 -0.23218863347E+02  0.15300546735E+02  0.29191194424E+02  0.00000000000E+00 0.  1.
</event>
<event>
 7    1  0.4871930E-013  0.5052886E+02  0.7816164E-02  0.1300439E+00
        -11   -1    0    0    0    0  0.00000000000E+00  0.00000000000E+00  0.45593999997E+02  0.45594000000E+02  0.51100000000E-03 0.  1.
         11   -1    0    0    0    0 -0.00000000000E+00 -0.00000000000E+00 -0.45593999997E+02  0.45594000000E+02  0.51100000000E-03 0. -1.
    9900012    2    1    2    0    0 -0.78732148251E+01 -0.39884699658E+02  0.62378747188E+00  0.50528857249E+02  0.29999992093E+02 0.  0.
         12    1    1    2    0    0  0.78732148251E+01  0.39884699658E+02 -0.62378747188E+00  0.40659142751E+02  0.00000000000E+00 0. -1.
         11    1    3    3    0    0  0.35686083168E+01 -0.95596375384E+01  0.16004050591E+01  0.10328742992E+02  0.51100000000E-03 0. -1.
        -11    1    3    3    0    0 -0.82183126853E+01 -0.94840243780E+00  0.55149297632E+01  0.99425641125E+01  0.51100000000E-03 0.  1.
         12    1    3    3    0    0 -0.32235104566E+01 -0.29376659682E+02 -0.64915473504E+01  0.30257550144E+02  0.00000000000E+00 0. -1.
</event>
<event>
 7    1  0.5304172E-013  0.5052885E+02  0.7816164E-02  0.1300439E+00
        -11   -1    0    0    0    0  0.00000000000E+00  0.00000000000E+00  0.45593999997E+02  0.45594000000E+02  0.51100000000E-03 0. -1.
         11   -1    0    0    0    0 -0.00000000000E+00 -0.00000000000E+00 -0.45593999997E+02  0.45594000000E+02  0.51100000000E-03 0.  1.
    9900012    2    1    2    0    0 -0.25490217518E+02 -0.20496432267E+02 -0.24151838505E+02  0.50528853083E+02  0.29999979432E+02 0.  0.
         12    1    1    2    0    0  0.25490217518E+02  0.20496432267E+02  0.24151838505E+02  0.40659146917E+02  0.00000000000E+00 0. -1.
         11    1    3    3    0    0  0.18105298963E+01 -0.48318848636E+00 -0.87592631410E+01  0.89574650797E+01  0.51100000000E-03 0. -1.
        -11    1    3    3    0    0 -0.13345869172E+02 -0.26083004893E+01 -0.13534057409E+02  0.19185571808E+02  0.51100000000E-03 0.  1.
         12    1    3    3    0    0 -0.13954878243E+02 -0.17404943292E+02 -0.18585179555E+01  0.22385816196E+02  0.00000000000E+00 0. -1.
</event>
<event>
 7    1  0.4871930E-013  0.5052885E+02  0.7816164E-02  0.1300439E+00
        -11   -1    0    0    0    0  0.00000000000E+00  0.00000000000E+00  0.45593999997E+02  0.45594000000E+02  0.51100000000E-03 0. -1.
         11   -1    0    0    0    0 -0.00000000000E+00 -0.00000000000E+00 -0.45593999997E+02  0.45594000000E+02  0.51100000000E-03 0.  1.
    9900012    2    1    2    0    0  0.14353571263E+02 -0.15842339958E+02 -0.34585569967E+02  0.50528851051E+02  0.29999973254E+02 0.  0.
         12    1    1    2    0    0 -0.14353571263E+02  0.15842339958E+02  0.34585569967E+02  0.40659148949E+02  0.00000000000E+00 0. -1.
         11    1    3    3    0    0  0.73099911878E+00  0.40700980932E+01  0.18972967611E+01  0.45497025684E+01  0.51100000000E-03 0. -1.
        -11    1    3    3    0    0 -0.22680568389E+01 -0.68956223526E+01 -0.11951188056E+02  0.13983010608E+02  0.51100000000E-03 0.  1.
        -12    1    3    3    0    0  0.15890628983E+02 -0.13016815698E+02 -0.24531678672E+02  0.31996137874E+02  0.00000000000E+00 0.  1.
</event>
<event>
 7    1  0.4871930E-013  0.5052886E+02  0.7816164E-02  0.1300439E+00
        -11   -1    0    0    0    0  0.00000000000E+00  0.00000000000E+00  0.45593999997E+02  0.45594000000E+02  0.51100000000E-03 0.  1.
         11   -1    0    0    0    0 -0.00000000000E+00 -0.00000000000E+00 -0.45593999997E+02  0.45594000000E+02  0.51100000000E-03 0. -1.
    9900012    2    1    2    0    0  0.78485203223E+01 -0.45599688553E+01  0.39632974903E+02  0.50528864657E+02  0.30000014612E+02 0.  0.
         12    1    1    2    0    0 -0.78485203223E+01  0.45599688553E+01 -0.39632974903E+02  0.40659135343E+02  0.00000000000E+00 0. -1.
         11    1    3    3    0    0  0.72881364500E+01 -0.10214077348E+02  0.12184261826E+02  0.17490012735E+02  0.51100000000E-03 0. -1.
        -11    1    3    3    0    0  0.48501934247E+01 -0.18340727492E+00  0.24885653081E+02  0.25354560616E+02  0.51100000000E-03 0.  1.
        -12    1    3    3    0    0 -0.42898095525E+01  0.58375157674E+01  0.25630599953E+01  0.76842913057E+01  0.00000000000E+00 0.  1.
</event>
<event>
 7    1  0.4871930E-013  0.5052886E+02  0.7816164E-02  0.1300439E+00
        -11   -1    0    0    0    0  0.00000000000E+00  0.00000000000E+00  0.45593999997E+02  0.45594000000E+02  0.51100000000E-03 0. -1.
         11   -1    0    0    0    0 -0.00000000000E+00 -0.00000000000E+00 -0.45593999997E+02  0.45594000000E+02  0.51100000000E-03 0.  1.
    9900012    2    1    2    0    0  0.20333741728E+02  0.24078589308E+02 -0.25689022209E+02  0.50528863538E+02  0.30000011211E+02 0.  0.
         12    1    1    2    0    0 -0.20333741728E+02 -0.24078589308E+02  0.25689022209E+02  0.40659136462E+02  0.00000000000E+00 0. -1.
         11    1    3    3    0    0  0.18472292139E+01  0.11037524010E+02  0.33161200605E+01  0.11672011162E+02  0.51100000000E-03 0. -1.
        -11    1    3    3    0    0 -0.33714282306E-01  0.80520921578E-01 -0.79962146707E+01  0.79966911652E+01  0.51100000000E-03 0.  1.
        -12    1    3    3    0    0  0.18520226797E+02  0.12960544376E+02 -0.21008927599E+02  0.30860161211E+02  0.00000000000E+00 0.  1.
</event>
<event>
 7    1  0.4871930E-013  0.5052886E+02  0.7816164E-02  0.1300439E+00
        -11   -1    0    0    0    0  0.00000000000E+00  0.00000000000E+00  0.45593999997E+02  0.45594000000E+02  0.51100000000E-03 0.  1.
         11   -1    0    0    0    0 -0.00000000000E+00 -0.00000000000E+00 -0.45593999997E+02  0.45594000000E+02  0.51100000000E-03 0. -1.
    9900012    2    1    2    0    0 -0.17491465626E+02  0.25796851958E+02  0.26110088046E+02  0.50528860333E+02  0.30000001468E+02 0.  0.
         12    1    1    2    0    0  0.17491465626E+02 -0.25796851958E+02 -0.26110088046E+02  0.40659139667E+02  0.00000000000E+00 0. -1.
         11    1    3    3    0    0 -0.64932896134E+01  0.20223557884E+02  0.12140593646E+02  0.24465263494E+02  0.51100000000E-03 0. -1.
        -11    1    3    3    0    0 -0.10632205010E+02 -0.15927991938E+01  0.15366005132E+02  0.18753530511E+02  0.51100000000E-03 0.  1.
         12    1    3    3    0    0 -0.36597100339E+00  0.71660932679E+01 -0.13965107322E+01  0.73100663283E+01  0.00000000000E+00 0. -1.
</event>
<event>
 7    1  0.4871930E-013  0.5052885E+02  0.7816164E-02  0.1300439E+00
        -11   -1    0    0    0    0  0.00000000000E+00  0.00000000000E+00  0.45593999997E+02  0.45594000000E+02  0.51100000000E-03 0.  1.
         11   -1    0    0    0    0 -0.00000000000E+00 -0.00000000000E+00 -0.45593999997E+02  0.45594000000E+02  0.51100000000E-03 0. -1.
    9900012    2    1    2    0    0  0.24478989831E+02 -0.12494810901E+02  0.29963725841E+02  0.50528854549E+02  0.29999983886E+02 0.  0.
         12    1    1    2    0    0 -0.24478989831E+02  0.12494810901E+02 -0.29963725841E+02  0.40659145451E+02  0.00000000000E+00 0. -1.
         11    1    3    3    0    0  0.20399306677E+02 -0.15416965968E+01  0.27487139985E+02  0.34264433544E+02  0.51100000000E-03 0.  1.
        -11    1    3    3    0    0  0.68108556721E+01 -0.26065599593E+01  0.11554473066E+01  0.73835606957E+01  0.51100000000E-03 0. -1.
        -12    1    3    3    0    0 -0.27311725184E+01 -0.83465543449E+01  0.13211385491E+01  0.88808603087E+01  0.00000000000E+00 0.  1.
</event>
<event>
 7    1  0.4871930E-013  0.5052880E+02  0.7816164E-02  0.1300439E+00
        -11   -1    0    0    0    0  0.00000000000E+00  0.00000000000E+00  0.45593999997E+02  0.45594000000E+02  0.51100000000E-03 0.  1.
         11   -1    0    0    0    0 -0.00000000000E+00 -0.00000000000E+00 -0.45593999997E+02  0.45594000000E+02  0.51100000000E-03 0. -1.
    9900012    2    1    2    0    0  0.38230283247E+02 -0.11726338676E+02  0.73558695367E+01  0.50528801870E+02  0.29999823765E+02 0.  0.
         12    1    1    2    0    0 -0.38230283247E+02  0.11726338676E+02 -0.73558695367E+01  0.40659198130E+02  0.00000000000E+00 0. -1.
         11    1    3    3    0    0  0.18955153936E+02  0.42977405823E+01 -0.10084361892E+01  0.19462409374E+02  0.51100000000E-03 0. -1.
        -11    1    3    3    0    0  0.10693030711E+02 -0.10910471133E+01  0.87175117833E+01  0.13839302784E+02  0.51100000000E-03 0.  1.
        -12    1    3    3    0    0  0.85820986003E+01 -0.14933032145E+02 -0.35320605742E+00  0.17227089712E+02  0.00000000000E+00 0.  1.
</event>
<event>
 7    1  0.4871930E-013  0.5052886E+02  0.7816164E-02  0.1300439E+00
        -11   -1    0    0    0    0  0.00000000000E+00  0.00000000000E+00  0.45593999997E+02  0.45594000000E+02  0.51100000000E-03 0.  1.
         11   -1    0    0    0    0 -0.00000000000E+00 -0.00000000000E+00 -0.45593999997E+02  0.45594000000E+02  0.51100000000E-03 0. -1.
    9900012    2    1    2    0    0  0.27535664809E+02  0.25484446247E+02  0.15668317027E+02  0.50528855943E+02  0.29999988124E+02 0.  0.
         12    1    1    2    0    0 -0.27535664809E+02 -0.25484446247E+02 -0.15668317027E+02  0.40659144057E+02  0.00000000000E+00 0. -1.
         11    1    3    3    0    0  0.15884068564E+01  0.17225095698E+00  0.63940935165E+01  0.65906857680E+01  0.51100000000E-03 0. -1.
        -11    1    3    3    0    0  0.19924762876E+02  0.13231424199E+02  0.16080118656E+02  0.28820773380E+02  0.51100000000E-03 0.  1.
         12    1    3    3    0    0  0.60224950766E+01  0.12080771092E+02 -0.68058951453E+01  0.15117396795E+02  0.00000000000E+00 0. -1.
</event>
<event>
 7    1  0.4871930E-013  0.5052885E+02  0.7816164E-02  0.1300439E+00
        -11   -1    0    0    0    0  0.00000000000E+00  0.00000000000E+00  0.45593999997E+02  0.45594000000E+02  0.51100000000E-03 0.  1.
         11   -1    0    0    0    0 -0.00000000000E+00 -0.00000000000E+00 -0.45593999997E+02  0.45594000000E+02  0.51100000000E-03 0. -1.
    9900012    2    1    2    0    0  0.26768308228E+02  0.91878414120E+01  0.29192595011E+02  0.50528851476E+02  0.29999974548E+02 0.  0.
         12    1    1    2    0    0 -0.26768308228E+02 -0.91878414120E+01 -0.29192595011E+02  0.40659148524E+02  0.00000000000E+00 0. -1.
         11    1    3    3    0    0  0.18368971243E+02  0.11764710781E+02  0.10826124319E+02  0.24352258464E+02  0.51100000000E-03 0. -1.
        -11    1    3    3    0    0  0.74372661438E+01  0.56034022446E+01  0.14108454795E+02  0.16904423722E+02  0.51100000000E-03 0.  1.
         12    1    3    3    0    0  0.96207084118E+00 -0.81802716131E+01  0.42580158970E+01  0.92721692902E+01  0.00000000000E+00 0. -1.
</event>
<event>
 7    1  0.4871930E-013  0.5052885E+02  0.7816164E-02  0.1300439E+00
        -11   -1    0    0    0    0  0.00000000000E+00  0.00000000000E+00  0.45593999997E+02  0.45594000000E+02  0.51100000000E-03 0.  1.
         11   -1    0    0    0    0 -0.00000000000E+00 -0.00000000000E+00 -0.45593999997E+02  0.45594000000E+02  0.51100000000E-03 0. -1.
    9900012    2    1    2    0    0 -0.13966797282E+02 -0.23635461576E+02  0.29990993043E+02  0.50528854240E+02  0.29999982948E+02 0.  0.
         12    1    1    2    0    0  0.13966797282E+02  0.23635461576E+02 -0.29990993043E+02  0.40659145760E+02  0.00000000000E+00 0. -1.
         11    1    3    3    0    0 -0.15156229384E+01 -0.97910211312E+01  0.17299615808E+01  0.10057533247E+02  0.51100000000E-03 0. -1.
        -11    1    3    3    0    0 -0.16737764871E+02 -0.51798604943E+01  0.24451375721E+02  0.30080782945E+02  0.51100000000E-03 0.  1.
         12    1    3    3    0    0  0.42865905277E+01 -0.86645799507E+01  0.38096557405E+01  0.10390538048E+02  0.00000000000E+00 0. -1.
</event>
<event>
 7    1  0.4871930E-013  0.5052872E+02  0.7816164E-02  0.1300439E+00
        -11   -1    0    0    0    0  0.00000000000E+00  0.00000000000E+00  0.45593999997E+02  0.45594000000E+02  0.51100000000E-03 0.  1.
         11   -1    0    0    0    0 -0.00000000000E+00 -0.00000000000E+00 -0.45593999997E+02  0.45594000000E+02  0.51100000000E-03 0. -1.
    9900012    2    1    2    0    0 -0.79115032891E+01  0.39816834144E+02  0.22813419599E+01  0.50528724469E+02  0.29999588493E+02 0.  0.
         12    1    1    2    0    0  0.79115032891E+01 -0.39816834144E+02 -0.22813419599E+01  0.40659275531E+02  0.00000000000E+00 0. -1.
         11    1    3    3    0    0 -0.14300177910E+02  0.10855255792E+02  0.49813152996E+01  0.18631832141E+02  0.51100000000E-03 0. -1.
        -11    1    3    3    0    0  0.33403093325E+01  0.22037005955E+02  0.29102656927E+01  0.22477921268E+02  0.51100000000E-03 0.  1.
        -12    1    3    3    0    0  0.30483652882E+01  0.69245723982E+01 -0.56102390323E+01  0.94189710599E+01  0.00000000000E+00 0.  1.
</event>
<event>
 7    1  0.4871930E-013  0.5052886E+02  0.7816164E-02  0.1300439E+00
        -11   -1    0    0    0    0  0.00000000000E+00  0.00000000000E+00  0.45593999997E+02  0.45594000000E+02  0.51100000000E-03 0.  1.
         11   -1    0    0    0    0 -0.00000000000E+00 -0.00000000000E+00 -0.45593999997E+02  0.45594000000E+02  0.51100000000E-03 0. -1.
    9900012    2    1    2    0    0  0.27545518386E+01 -0.37242402483E+01  0.40394410834E+02  0.50528856528E+02  0.29999989903E+02 0.  0.
         12    1    1    2    0    0 -0.27545518386E+01  0.37242402483E+01 -0.40394410834E+02  0.40659143472E+02  0.00000000000E+00 0. -1.
         11    1    3    3    0    0  0.99853915353E+01  0.87827538556E+00  0.25099110887E+02  0.27026741929E+02  0.51100000000E-03 0. -1.
        -11    1    3    3    0    0  0.92133101135E-02  0.54199751261E+01  0.37955611303E+01  0.66168345761E+01  0.51100000000E-03 0.  1.
         12    1    3    3    0    0 -0.72400530068E+01 -0.10022490760E+02  0.11499738817E+02  0.16885280022E+02  0.00000000000E+00 0. -1.
</event>
<event>
 7    1  0.4871930E-013  0.5052881E+02  0.7816164E-02  0.1300439E+00
        -11   -1    0    0    0    0  0.00000000000E+00  0.00000000000E+00  0.45593999997E+02  0.45594000000E+02  0.51100000000E-03 0.  1.
         11   -1    0    0    0    0 -0.00000000000E+00 -0.00000000000E+00 -0.45593999997E+02  0.45594000000E+02  0.51100000000E-03 0. -1.
    9900012    2    1    2    0    0  0.35811806396E+02 -0.50644438350E+01  0.18575144264E+02  0.50528806045E+02  0.29999836453E+02 0.  0.
         12    1    1    2    0    0 -0.35811806396E+02  0.50644438350E+01 -0.18575144264E+02  0.40659193955E+02  0.00000000000E+00 0. -1.
         11    1    3    3    0    0  0.24561452756E+02  0.48362554799E+00 -0.76660620591E+00  0.24578172033E+02  0.51100000000E-03 0. -1.
        -11    1    3    3    0    0  0.11587749925E+02 -0.81931112269E+01  0.13772043890E+02  0.19775545835E+02  0.51100000000E-03 0.  1.
        -12    1    3    3    0    0 -0.33739628487E+00  0.26450418439E+01  0.55697065799E+01  0.61750881771E+01  0.00000000000E+00 0.  1.
</event>
<event>
 7    1  0.4871930E-013  0.5052886E+02  0.7816164E-02  0.1300439E+00
        -11   -1    0    0    0    0  0.00000000000E+00  0.00000000000E+00  0.45593999997E+02  0.45594000000E+02  0.51100000000E-03 0. -1.
         11   -1    0    0    0    0 -0.00000000000E+00 -0.00000000000E+00 -0.45593999997E+02  0.45594000000E+02  0.51100000000E-03 0.  1.
    9900012    2    1    2    0    0 -0.27343411773E+02  0.18876680120E+01 -0.30032321384E+02  0.50528858523E+02  0.29999995967E+02 0.  0.
         12    1    1    2    0    0  0.27343411773E+02 -0.18876680120E+01  0.30032321384E+02  0.40659141477E+02  0.00000000000E+00 0. -1.
         11    1    3    3    0    0 -0.10018802751E+02 -0.13379384667E+02 -0.11280407315E+02  0.20165116714E+02  0.51100000000E-03 0.  1.
        -11    1    3    3    0    0 -0.36360875671E+01  0.69995865538E+01 -0.63929512226E+01  0.10153086738E+02  0.51100000000E-03 0. -1.
        -12    1    3    3    0    0 -0.13688521454E+02  0.82674661252E+01 -0.12358962846E+02  0.20210655071E+02  0.00000000000E+00 0.  1.
</event>
<event>
 7    1  0.4871930E-013  0.5052888E+02  0.7816164E-02  0.1300439E+00
        -11   -1    0    0    0    0  0.00000000000E+00  0.00000000000E+00  0.45593999997E+02  0.45594000000E+02  0.51100000000E-03 0. -1.
         11   -1    0    0    0    0 -0.00000000000E+00 -0.00000000000E+00 -0.45593999997E+02  0.45594000000E+02  0.51100000000E-03 0.  1.
    9900012    2    1    2    0    0  0.39900603200E+02 -0.62236369581E+01 -0.47299507225E+01  0.50528877696E+02  0.30000054244E+02 0.  0.
         12    1    1    2    0    0 -0.39900603200E+02  0.62236369581E+01  0.47299507225E+01  0.40659122304E+02  0.00000000000E+00 0. -1.
         11    1    3    3    0    0  0.17528097325E+02  0.14386750247E+01 -0.52485818978E+01  0.18353517207E+02  0.51100000000E-03 0. -1.
        -11    1    3    3    0    0  0.25724225884E+02 -0.82795674237E+01  0.39828479773E+01  0.27315748431E+02  0.51100000000E-03 0.  1.
         12    1    3    3    0    0 -0.33517200093E+01  0.61725544097E+00 -0.34642168021E+01  0.48596120578E+01  0.00000000000E+00 0. -1.
</event>
<event>
 7    1  0.4871930E-013  0.5052886E+02  0.7816164E-02  0.1300439E+00
        -11   -1    0    0    0    0  0.00000000000E+00  0.00000000000E+00  0.45593999997E+02  0.45594000000E+02  0.51100000000E-03 0.  1.
         11   -1    0    0    0    0 -0.00000000000E+00 -0.00000000000E+00 -0.45593999997E+02  0.45594000000E+02  0.51100000000E-03 0. -1.
    9900012    2    1    2    0    0  0.25605384301E+02  0.19987539934E+02  0.24454612642E+02  0.50528861577E+02  0.30000005250E+02 0.  0.
         12    1    1    2    0    0 -0.25605384301E+02 -0.19987539934E+02 -0.24454612642E+02  0.40659138423E+02  0.00000000000E+00 0. -1.
         11    1    3    3    0    0  0.17812333107E+02  0.40540892124E+01  0.22721856814E+02  0.29154718784E+02  0.51100000000E-03 0. -1.
        -11    1    3    3    0    0 -0.27631309896E+01  0.23465736326E+01  0.20518135055E+01  0.41654819171E+01  0.51100000000E-03 0.  1.
        -12    1    3    3    0    0  0.10556182183E+02  0.13586877089E+02 -0.31905767742E+00  0.17208660876E+02  0.00000000000E+00 0.  1.
</event>
<event>
 7    1  0.4871930E-013  0.5052885E+02  0.7816164E-02  0.1300439E+00
        -11   -1    0    0    0    0  0.00000000000E+00  0.00000000000E+00  0.45593999997E+02  0.45594000000E+02  0.51100000000E-03 0.  1.
         11   -1    0    0    0    0 -0.00000000000E+00 -0.00000000000E+00 -0.45593999997E+02  0.45594000000E+02  0.51100000000E-03 0. -1.
    9900012    2    1    2    0    0 -0.26548858414E+02 -0.21586888550E+02  0.21962027084E+02  0.50528852518E+02  0.29999977713E+02 0.  0.
         12    1    1    2    0    0  0.26548858414E+02  0.21586888550E+02 -0.21962027084E+02  0.40659147482E+02  0.00000000000E+00 0. -1.
         11    1    3    3    0    0 -0.11626003052E+01 -0.10852453022E+02  0.15666620957E+02  0.19093726418E+02  0.51100000000E-03 0. -1.
        -11    1    3    3    0    0 -0.55104836436E+00 -0.43433394346E+01 -0.15066850793E+01  0.46301567936E+01  0.51100000000E-03 0.  1.
        -12    1    3    3    0    0 -0.24835209744E+02 -0.63910960941E+01  0.78020912062E+01  0.26804969306E+02  0.00000000000E+00 0.  1.
</event>
<event>
 7    1  0.4871930E-013  0.5052886E+02  0.7816164E-02  0.1300439E+00
        -11   -1    0    0    0    0  0.00000000000E+00  0.00000000000E+00  0.45593999997E+02  0.45594000000E+02  0.51100000000E-03 0. -1.
         11   -1    0    0    0    0 -0.00000000000E+00 -0.00000000000E+00 -0.45593999997E+02  0.45594000000E+02  0.51100000000E-03 0.  1.
    9900012    2    1    2    0    0 -0.12502341487E+02 -0.34376089407E+02 -0.17752226844E+02  0.50528860517E+02  0.30000002027E+02 0.  0.
         12    1    1    2    0    0  0.12502341487E+02  0.34376089407E+02  0.17752226844E+02  0.40659139483E+02  0.00000000000E+00 0. -1.
         11    1    3    3    0    0 -0.94935868276E+01 -0.18227743803E+02 -0.13654499275E+02  0.24674362924E+02  0.51100000000E-03 0. -1.
        -11    1    3    3    0    0 -0.89928904056E+01 -0.16359810279E+02 -0.59380565022E+01  0.19590201262E+02  0.51100000000E-03 0.  1.
         12    1    3    3    0    0  0.59841357459E+01  0.21146467407E+00  0.18403289337E+01  0.62642963307E+01  0.00000000000E+00 0. -1.
</event>
<event>
 7    1  0.4871930E-013  0.5052886E+02  0.7816164E-02  0.1300439E+00
        -11   -1    0    0    0    0  0.00000000000E+00  0.00000000000E+00  0.45593999997E+02  0.45594000000E+02  0.51100000000E-03 0. -1.
         11   -1    0    0    0    0 -0.00000000000E+00 -0.00000000000E+00 -0.45593999997E+02  0.45594000000E+02  0.51100000000E-03 0.  1.
    9900012    2    1    2    0    0 -0.37875502988E+02 -0.14749531636E+02  0.10310495646E+01  0.50528862364E+02  0.30000007642E+02 0.  0.
         12    1    1    2    0    0  0.37875502988E+02  0.14749531636E+02 -0.10310495646E+01  0.40659137636E+02  0.00000000000E+00 0. -1.
         11    1    3    3    0    0 -0.18470077901E+01 -0.36644263987E+01 -0.62044233294E+01  0.74387047071E+01  0.51100000000E-03 0. -1.
        -11    1    3    3    0    0 -0.23247586242E+02 -0.15523010580E+02  0.45681902593E+00  0.27957517905E+02  0.51100000000E-03 0.  1.
        -12    1    3    3    0    0 -0.12780908956E+02  0.44379053435E+01  0.67786538680E+01  0.15132639752E+02  0.00000000000E+00 0.  1.
</event>
<event>
 7    1  0.4871930E-013  0.5052884E+02  0.7816164E-02  0.1300439E+00
        -11   -1    0    0    0    0  0.00000000000E+00  0.00000000000E+00  0.45593999997E+02  0.45594000000E+02  0.51100000000E-03 0.  1.
         11   -1    0    0    0    0 -0.00000000000E+00 -0.00000000000E+00 -0.45593999997E+02  0.45594000000E+02  0.51100000000E-03 0. -1.
    9900012    2    1    2    0    0  0.56714959682E+01  0.22516774510E+02  0.33376578533E+02  0.50528843646E+02  0.29999950746E+02 0.  0.
         12    1    1    2    0    0 -0.56714959682E+01 -0.22516774510E+02 -0.33376578533E+02  0.40659156354E+02  0.00000000000E+00 0. -1.
         11    1    3    3    0    0 -0.59639344963E+01  0.99359161895E+01  0.58265532057E+01  0.12970723485E+02  0.51100000000E-03 0. -1.
        -11    1    3    3    0    0  0.81789120859E+01  0.17566511933E+02  0.22223711525E+02  0.29485086037E+02  0.51100000000E-03 0.  1.
         12    1    3    3    0    0  0.34565183786E+01 -0.49856536125E+01  0.53263138027E+01  0.80730341242E+01  0.00000000000E+00 0. -1.
</event>
<event>
 7    1  0.4871930E-013  0.5052886E+02  0.7816164E-02  0.1300439E+00
        -11   -1    0    0    0    0  0.00000000000E+00  0.00000000000E+00  0.45593999997E+02  0.45594000000E+02  0.51100000000E-03 0.  1.
         11   -1    0    0    0    0 -0.00000000000E+00 -0.00000000000E+00 -0.45593999997E+02  0.45594000000E+02  0.51100000000E-03 0. -1.
    9900012    2    1    2    0    0  0.51792229556E+01  0.38796882462E+02  0.11006504547E+02  0.50528861033E+02  0.30000003596E+02 0.  0.
         12    1    1    2    0    0 -0.51792229556E+01 -0.38796882462E+02 -0.11006504547E+02  0.40659138967E+02  0.00000000000E+00 0. -1.
         11    1    3    3    0    0 -0.59740992983E+01  0.30532544069E+01 -0.13549025446E+01  0.68445588657E+01  0.51100000000E-03 0. -1.
        -11    1    3    3    0    0  0.11102941176E+02  0.75211289386E+01  0.17119501212E+01  0.13519373386E+02  0.51100000000E-03 0.  1.
        -12    1    3    3    0    0  0.50381078220E-01  0.28222499117E+02  0.10649456970E+02  0.30164928782E+02  0.00000000000E+00 0.  1.
</event>
<event>
 7    1  0.4871930E-013  0.5052886E+02  0.7816164E-02  0.1300439E+00
        -11   -1    0    0    0    0  0.00000000000E+00  0.00000000000E+00  0.45593999997E+02  0.45594000000E+02  0.51100000000E-03 0.  1.
         11   -1    0    0    0    0 -0.00000000000E+00 -0.00000000000E+00 -0.45593999997E+02  0.45594000000E+02  0.51100000000E-03 0. -1.
    9900012    2    1    2    0    0  0.32215796445E+02  0.54280964423E+01  0.24204210282E+02  0.50528861213E+02  0.30000004142E+02 0.  0.
         12    1    1    2    0    0 -0.32215796445E+02 -0.54280964423E+01 -0.24204210282E+02  0.40659138787E+02  0.00000000000E+00 0. -1.
         11    1    3    3    0    0  0.12042549035E+02 -0.40615756423E+01  0.59423148495E+01  0.14029629004E+02  0.51100000000E-03 0. -1.
        -11    1    3    3    0    0  0.13822994730E+00 -0.14204736455E+01  0.13011887389E+02  0.13089922329E+02  0.51100000000E-03 0.  1.
        -12    1    3    3    0    0  0.20035017463E+02  0.10910145730E+02  0.52500080428E+01  0.23409309879E+02  0.00000000000E+00 0.  1.
</event>
<event>
 7    1  0.4871930E-013  0.5052886E+02  0.7816164E-02  0.1300439E+00
        -11   -1    0    0    0    0  0.00000000000E+00  0.00000000000E+00  0.45593999997E+02  0.45594000000E+02  0.51100000000E-03 0.  1.
         11   -1    0    0    0    0 -0.00000000000E+00 -0.00000000000E+00 -0.45593999997E+02  0.45594000000E+02  0.51100000000E-03 0. -1.
    9900012    2    1    2    0    0  0.38327789522E+02 -0.12110043140E+02  0.61231857442E+01  0.50528855909E+02  0.29999988022E+02 0.  0.
         12    1    1    2    0    0 -0.38327789522E+02  0.12110043140E+02 -0.61231857442E+01  0.40659144091E+02  0.00000000000E+00 0. -1.
         11    1    3    3    0    0  0.57628820813E+00 -0.37004553962E+01  0.23648928526E+01  0.44292433556E+01  0.51100000000E-03 0. -1.
        -11    1    3    3    0    0 -0.17414068664E+01 -0.48437171194E+01 -0.28739666294E+01  0.58952334861E+01  0.51100000000E-03 0.  1.
        -12    1    3    3    0    0  0.39492908180E+02 -0.35658706249E+01  0.66322595211E+01  0.40204379068E+02  0.00000000000E+00 0.  1.
</event>
<event>
 7    1  0.4871930E-013  0.5052886E+02  0.7816164E-02  0.1300439E+00
        -11   -1    0    0    0    0  0.00000000000E+00  0.00000000000E+00  0.45593999997E+02  0.45594000000E+02  0.51100000000E-03 0.  1.
         11   -1    0    0    0    0 -0.00000000000E+00 -0.00000000000E+00 -0.45593999997E+02  0.45594000000E+02  0.51100000000E-03 0. -1.
    9900012    2    1    2    0    0  0.14359589990E+02  0.17571419411E+02  0.33737416259E+02  0.50528857601E+02  0.29999993164E+02 0.  0.
         12    1    1    2    0    0 -0.14359589990E+02 -0.17571419411E+02 -0.33737416259E+02  0.40659142399E+02  0.00000000000E+00 0. -1.
         11    1    3    3    0    0  0.41103207877E+01  0.75936896263E+01  0.25856762632E+02  0.27260429805E+02  0.51100000000E-03 0. -1.
        -11    1    3    3    0    0 -0.38544468134E+01 -0.65227143280E+00  0.30510809160E+01  0.49589629235E+01  0.51100000000E-03 0.  1.
         12    1    3    3    0    0  0.14103716016E+02  0.10630001217E+02  0.48295727112E+01  0.18309464872E+02  0.00000000000E+00 0. -1.
</event>
<event>
 7    1  0.4871930E-013  0.5052886E+02  0.7816164E-02  0.1300439E+00
        -11   -1    0    0    0    0  0.00000000000E+00  0.00000000000E+00  0.45593999997E+02  0.45594000000E+02  0.51100000000E-03 0.  1.
         11   -1    0    0    0    0 -0.00000000000E+00 -0.00000000000E+00 -0.45593999997E+02  0.45594000000E+02  0.51100000000E-03 0. -1.
    9900012    2    1    2    0    0  0.29090338844E+01 -0.19521390531E+02  0.35547413527E+02  0.50528858656E+02  0.29999996370E+02 0.  0.
         12    1    1    2    0    0 -0.29090338844E+01  0.19521390531E+02 -0.35547413527E+02  0.40659141344E+02  0.00000000000E+00 0. -1.
         11    1    3    3    0    0  0.73279715226E+00  0.50695538539E+01  0.14863270943E+02  0.15721138360E+02  0.51100000000E-03 0.  1.
        -11    1    3    3    0    0 -0.25204627594E+01 -0.20984315848E+02  0.19525047699E+02  0.28773629108E+02  0.51100000000E-03 0. -1.
        -12    1    3    3    0    0  0.46966994915E+01 -0.36066285365E+01  0.11590948850E+01  0.60340911881E+01  0.00000000000E+00 0.  1.
</event>
<event>
 7    1  0.4871930E-013  0.5052886E+02  0.7816164E-02  0.1300439E+00
        -11   -1    0    0    0    0  0.00000000000E+00  0.00000000000E+00  0.45593999997E+02  0.45594000000E+02  0.51100000000E-03 0. -1.
         11   -1    0    0    0    0 -0.00000000000E+00 -0.00000000000E+00 -0.45593999997E+02  0.45594000000E+02  0.51100000000E-03 0.  1.
    9900012    2    1    2    0    0  0.17080226635E+02 -0.34418446138E+02 -0.13296690605E+02  0.50528861329E+02  0.30000004495E+02 0.  0.
         12    1    1    2    0    0 -0.17080226635E+02  0.34418446138E+02  0.13296690605E+02  0.40659138671E+02  0.00000000000E+00 0. -1.
         11    1    3    3    0    0 -0.48479296881E+01 -0.11464430669E+02  0.48587427762E-01  0.12447407514E+02  0.51100000000E-03 0. -1.
        -11    1    3    3    0    0  0.21160803016E+01 -0.12031872338E+02 -0.86693379852E+01  0.14980025673E+02  0.51100000000E-03 0.  1.
        -12    1    3    3    0    0  0.19812076021E+02 -0.10922143131E+02 -0.46759400480E+01  0.23101428142E+02  0.00000000000E+00 0.  1.
</event>
<event>
 7    1  0.4871930E-013  0.5052886E+02  0.7816164E-02  0.1300439E+00
        -11   -1    0    0    0    0  0.00000000000E+00  0.00000000000E+00  0.45593999997E+02  0.45594000000E+02  0.51100000000E-03 0. -1.
         11   -1    0    0    0    0 -0.00000000000E+00 -0.00000000000E+00 -0.45593999997E+02  0.45594000000E+02  0.51100000000E-03 0.  1.
    9900012    2    1    2    0    0  0.27876653396E+02 -0.14211310988E+02 -0.25963371055E+02  0.50528858333E+02  0.29999995389E+02 0.  0.
         12    1    1    2    0    0 -0.27876653396E+02  0.14211310988E+02  0.25963371055E+02  0.40659141667E+02  0.00000000000E+00 0. -1.
         11    1    3    3    0    0  0.23710604442E+01 -0.12286177770E+02 -0.48979092296E+01  0.13437321419E+02  0.51100000000E-03 0.  1.
        -11    1    3    3    0    0  0.79076126567E+01 -0.29829273405E+01  0.13660332000E+01  0.85612055466E+01  0.51100000000E-03 0. -1.
        -12    1    3    3    0    0  0.17597980295E+02  0.10577941226E+01 -0.22431495026E+02  0.28530331368E+02  0.00000000000E+00 0.  1.
</event>
<event>
 7    1  0.4871930E-013  0.5052885E+02  0.7816164E-02  0.1300439E+00
        -11   -1    0    0    0    0  0.00000000000E+00  0.00000000000E+00  0.45593999997E+02  0.45594000000E+02  0.51100000000E-03 0. -1.
         11   -1    0    0    0    0 -0.00000000000E+00 -0.00000000000E+00 -0.45593999997E+02  0.45594000000E+02  0.51100000000E-03 0.  1.
    9900012    2    1    2    0    0 -0.15094792233E+02  0.26849712848E+02 -0.26540654904E+02  0.50528853486E+02  0.29999980655E+02 0.  0.
         12    1    1    2    0    0  0.15094792233E+02 -0.26849712848E+02  0.26540654904E+02  0.40659146514E+02  0.00000000000E+00 0. -1.
         11    1    3    3    0    0 -0.93844614542E+01 -0.18566199113E+01 -0.17032467703E+01  0.97168000958E+01  0.51100000000E-03 0. -1.
        -11    1    3    3    0    0  0.16070058995E+01  0.50165903964E+00  0.92247204768E+00  0.19196574415E+01  0.51100000000E-03 0.  1.
        -12    1    3    3    0    0 -0.73173366779E+01  0.28204673719E+02 -0.25759880181E+02  0.38892395948E+02  0.00000000000E+00 0.  1.
</event>
<event>
 7    1  0.4871930E-013  0.5052886E+02  0.7816164E-02  0.1300439E+00
        -11   -1    0    0    0    0  0.00000000000E+00  0.00000000000E+00  0.45593999997E+02  0.45594000000E+02  0.51100000000E-03 0.  1.
         11   -1    0    0    0    0 -0.00000000000E+00 -0.00000000000E+00 -0.45593999997E+02  0.45594000000E+02  0.51100000000E-03 0. -1.
    9900012    2    1    2    0    0 -0.18320513420E+02 -0.24108782785E+02  0.27134688228E+02  0.50528856815E+02  0.29999990774E+02 0.  0.
         12    1    1    2    0    0  0.18320513420E+02  0.24108782785E+02 -0.27134688228E+02  0.40659143185E+02  0.00000000000E+00 0. -1.
         11    1    3    3    0    0 -0.11549990286E+02 -0.11517413952E+01  0.95317259476E+01  0.15019406901E+02  0.51100000000E-03 0. -1.
        -11    1    3    3    0    0  0.57992696408E+01 -0.14593339957E+02  0.80960465625E+01  0.17667571131E+02  0.51100000000E-03 0.  1.
         12    1    3    3    0    0 -0.12569792774E+02 -0.83637014329E+01  0.95069157180E+01  0.17841878783E+02  0.00000000000E+00 0. -1.
</event>
<event>
 7    1  0.4871930E-013  0.5052887E+02  0.7816164E-02  0.1300439E+00
        -11   -1    0    0    0    0  0.00000000000E+00  0.00000000000E+00  0.45593999997E+02  0.45594000000E+02  0.51100000000E-03 0. -1.
         11   -1    0    0    0    0 -0.00000000000E+00 -0.00000000000E+00 -0.45593999997E+02  0.45594000000E+02  0.51100000000E-03 0.  1.
    9900012    2    1    2    0    0 -0.12989352421E+02 -0.37156372838E+02 -0.10190457053E+02  0.50528871459E+02  0.30000035286E+02 0.  0.
         12    1    1    2    0    0  0.12989352421E+02  0.37156372838E+02  0.10190457053E+02  0.40659128541E+02  0.00000000000E+00 0. -1.
         11    1    3    3    0    0 -0.77830105558E+01 -0.27137858403E+02  0.49460903728E+01  0.28661863552E+02  0.51100000000E-03 0. -1.
        -11    1    3    3    0    0 -0.20451087649E+01 -0.11835902834E+02 -0.10390076082E+02  0.15881585154E+02  0.51100000000E-03 0.  1.
         12    1    3    3    0    0 -0.31612331000E+01  0.18173883995E+01 -0.47464713445E+01  0.59854227529E+01  0.00000000000E+00 0. -1.
</event>
<event>
 7    1  0.6644718E-013  0.5052887E+02  0.7816164E-02  0.1300439E+00
        -11   -1    0    0    0    0  0.00000000000E+00  0.00000000000E+00  0.45593999997E+02  0.45594000000E+02  0.51100000000E-03 0.  1.
         11   -1    0    0    0    0 -0.00000000000E+00 -0.00000000000E+00 -0.45593999997E+02  0.45594000000E+02  0.51100000000E-03 0. -1.
    9900012    2    1    2    0    0 -0.22841053607E+02 -0.22081397383E+02  0.25374462917E+02  0.50528865619E+02  0.30000017537E+02 0.  0.
         12    1    1    2    0    0  0.22841053607E+02  0.22081397383E+02 -0.25374462917E+02  0.40659134381E+02  0.00000000000E+00 0. -1.
         11    1    3    3    0    0  0.39869587784E+01 -0.94694275591E+01  0.13589924355E+01  0.10364012703E+02  0.51100000000E-03 0. -1.
        -11    1    3    3    0    0 -0.16739596966E+02 -0.57995213942E+01  0.65757174794E+01  0.18896788500E+02  0.51100000000E-03 0.  1.
        -12    1    3    3    0    0 -0.10088415420E+02 -0.68124484296E+01  0.17439753002E+02  0.21268064417E+02  0.00000000000E+00 0.  1.
</event>
<event>
 7    1  0.4871930E-013  0.5052887E+02  0.7816164E-02  0.1300439E+00
        -11   -1    0    0    0    0  0.00000000000E+00  0.00000000000E+00  0.45593999997E+02  0.45594000000E+02  0.51100000000E-03 0.  1.
         11   -1    0    0    0    0 -0.00000000000E+00 -0.00000000000E+00 -0.45593999997E+02  0.45594000000E+02  0.51100000000E-03 0. -1.
    9900012    2    1    2    0    0 -0.40254194332E+02  0.71220328429E+00 -0.56795525274E+01  0.50528871729E+02  0.30000036108E+02 0.  0.
         12    1    1    2    0    0  0.40254194332E+02 -0.71220328429E+00  0.56795525274E+01  0.40659128271E+02  0.00000000000E+00 0. -1.
         11    1    3    3    0    0 -0.12312858253E+02 -0.10888584215E+02 -0.11326615762E+01  0.16475759984E+02  0.51100000000E-03 0. -1.
        -11    1    3    3    0    0 -0.16863641200E+02  0.83598926065E+00  0.25117622135E+01  0.17070155894E+02  0.51100000000E-03 0.  1.
         12    1    3    3    0    0 -0.11077694879E+02  0.10764798238E+02 -0.70586531646E+01  0.16982955851E+02  0.00000000000E+00 0. -1.
</event>
<event>
 7    1  0.4871930E-013  0.5052888E+02  0.7816164E-02  0.1300439E+00
        -11   -1    0    0    0    0  0.00000000000E+00  0.00000000000E+00  0.45593999997E+02  0.45594000000E+02  0.51100000000E-03 0.  1.
         11   -1    0    0    0    0 -0.00000000000E+00 -0.00000000000E+00 -0.45593999997E+02  0.45594000000E+02  0.51100000000E-03 0. -1.
    9900012    2    1    2    0    0  0.14627335511E+02  0.33196289153E+02  0.18363321475E+02  0.50528878843E+02  0.30000057730E+02 0.  0.
         12    1    1    2    0    0 -0.14627335511E+02 -0.33196289153E+02 -0.18363321475E+02  0.40659121157E+02  0.00000000000E+00 0. -1.
         11    1    3    3    0    0  0.35481861074E+01  0.11891881299E+02 -0.16465954542E+01  0.12518695712E+02  0.51100000000E-03 0. -1.
        -11    1    3    3    0    0  0.56045446129E+01  0.24524842795E+02  0.12246451978E+02  0.27979535750E+02  0.51100000000E-03 0.  1.
        -12    1    3    3    0    0  0.54746047904E+01 -0.32204349414E+01  0.77634649513E+01  0.10030647381E+02  0.00000000000E+00 0.  1.
</event>
<event>
 7    1  0.4871930E-013  0.5052887E+02  0.7816164E-02  0.1300439E+00
        -11   -1    0    0    0    0  0.00000000000E+00  0.00000000000E+00  0.45593999997E+02  0.45594000000E+02  0.51100000000E-03 0.  1.
         11   -1    0    0    0    0 -0.00000000000E+00 -0.00000000000E+00 -0.45593999997E+02  0.45594000000E+02  0.51100000000E-03 0. -1.
    9900012    2    1    2    0    0 -0.31351638545E+02  0.18667537862E+02  0.17937749473E+02  0.50528867380E+02  0.30000022887E+02 0.  0.
         12    1    1    2    0    0  0.31351638545E+02 -0.18667537862E+02 -0.17937749473E+02  0.40659132620E+02  0.00000000000E+00 0. -1.
         11    1    3    3    0    0 -0.49669990679E+01  0.93676711157E+01 -0.13134080118E+01  0.10684071450E+02  0.51100000000E-03 0. -1.
        -11    1    3    3    0    0  0.59725173036E+00  0.35886144623E+01  0.10181714200E+02  0.10812130581E+02  0.51100000000E-03 0.  1.
         12    1    3    3    0    0 -0.26981891207E+02  0.57112522840E+01  0.90694432851E+01  0.29032665349E+02  0.00000000000E+00 0. -1.
</event>
<event>
 7    1  0.4871930E-013  0.5052886E+02  0.7816164E-02  0.1300439E+00
        -11   -1    0    0    0    0  0.00000000000E+00  0.00000000000E+00  0.45593999997E+02  0.45594000000E+02  0.51100000000E-03 0. -1.
         11   -1    0    0    0    0 -0.00000000000E+00 -0.00000000000E+00 -0.45593999997E+02  0.45594000000E+02  0.51100000000E-03 0.  1.
    9900012    2    1    2    0    0 -0.35827560612E+02 -0.18917117033E+02  0.34196443785E+01  0.50528863463E+02  0.30000010983E+02 0.  0.
         12    1    1    2    0    0  0.35827560612E+02  0.18917117033E+02 -0.34196443785E+01  0.40659136537E+02  0.00000000000E+00 0. -1.
         11    1    3    3    0    0 -0.30788557889E+02 -0.66393925114E+01  0.11214615005E+02  0.33433283114E+02  0.51100000000E-03 0.  1.
        -11    1    3    3    0    0  0.87463694387E+00  0.26237772011E+00 -0.17430562203E+01  0.19677594111E+01  0.51100000000E-03 0. -1.
        -12    1    3    3    0    0 -0.59136396662E+01 -0.12540102242E+02 -0.60519144066E+01  0.15127820938E+02  0.00000000000E+00 0.  1.
</event>
<event>
 7    1  0.4871930E-013  0.5052891E+02  0.7816164E-02  0.1300439E+00
        -11   -1    0    0    0    0  0.00000000000E+00  0.00000000000E+00  0.45593999997E+02  0.45594000000E+02  0.51100000000E-03 0.  1.
         11   -1    0    0    0    0 -0.00000000000E+00 -0.00000000000E+00 -0.45593999997E+02  0.45594000000E+02  0.51100000000E-03 0. -1.
    9900012    2    1    2    0    0 -0.18831722870E+01  0.37718718199E+02  0.15063657687E+02  0.50528907249E+02  0.30000144073E+02 0.  0.
         12    1    1    2    0    0  0.18831722870E+01 -0.37718718199E+02 -0.15063657687E+02  0.40659092751E+02  0.00000000000E+00 0. -1.
         11    1    3    3    0    0  0.43971247240E+01  0.15750947985E+02  0.63381667084E+01  0.17538512643E+02  0.51100000000E-03 0. -1.
        -11    1    3    3    0    0 -0.11126580205E+02  0.23917528503E+02  0.86670064850E+01  0.27766273759E+02  0.51100000000E-03 0.  1.
         12    1    3    3    0    0  0.48462831944E+01 -0.19497582889E+01  0.58484493535E-01  0.52241208467E+01  0.00000000000E+00 0. -1.
</event>
<event>
 7    1  0.4871930E-013  0.5052886E+02  0.7816164E-02  0.1300439E+00
        -11   -1    0    0    0    0  0.00000000000E+00  0.00000000000E+00  0.45593999997E+02  0.45594000000E+02  0.51100000000E-03 0. -1.
         11   -1    0    0    0    0 -0.00000000000E+00 -0.00000000000E+00 -0.45593999997E+02  0.45594000000E+02  0.51100000000E-03 0.  1.
    9900012    2    1    2    0    0  0.22537428707E+01 -0.34376711231E+02 -0.21594634964E+02  0.50528857224E+02  0.29999992019E+02 0.  0.
         12    1    1    2    0    0 -0.22537428707E+01  0.34376711231E+02  0.21594634964E+02  0.40659142776E+02  0.00000000000E+00 0. -1.
         11    1    3    3    0    0  0.32423207319E-01 -0.74039026068E+00  0.32601321979E+01  0.33433054320E+01  0.51100000000E-03 0. -1.
        -11    1    3    3    0    0  0.11446204283E+02 -0.13633764888E+02 -0.13894562011E+02  0.22582160908E+02  0.51100000000E-03 0.  1.
        -12    1    3    3    0    0 -0.92248846195E+01 -0.20002556082E+02 -0.10960205151E+02  0.24603390885E+02  0.00000000000E+00 0.  1.
</event>
<event>
 7    1  0.4871930E-013  0.5052886E+02  0.7816164E-02  0.1300439E+00
        -11   -1    0    0    0    0  0.00000000000E+00  0.00000000000E+00  0.45593999997E+02  0.45594000000E+02  0.51100000000E-03 0.  1.
         11   -1    0    0    0    0 -0.00000000000E+00 -0.00000000000E+00 -0.45593999997E+02  0.45594000000E+02  0.51100000000E-03 0. -1.
    9900012    2    1    2    0    0  0.29782448787E+02  0.71032591498E+01  0.26752851471E+02  0.50528860705E+02  0.30000002600E+02 0.  0.
         12    1    1    2    0    0 -0.29782448787E+02 -0.71032591498E+01 -0.26752851471E+02  0.40659139295E+02  0.00000000000E+00 0. -1.
         11    1    3    3    0    0  0.30100788051E+01 -0.16213062033E+01  0.84654832330E+01  0.91298200884E+01  0.51100000000E-03 0. -1.
        -11    1    3    3    0    0 -0.11925663437E+01  0.90824614782E+01  0.49936276081E+01  0.10433102987E+02  0.51100000000E-03 0.  1.
        -12    1    3    3    0    0  0.27964936326E+02 -0.35789612509E+00  0.13293740630E+02  0.30965937630E+02  0.00000000000E+00 0.  1.
</event>
<event>
 7    1  0.4871930E-013  0.5052886E+02  0.7816164E-02  0.1300439E+00
        -11   -1    0    0    0    0  0.00000000000E+00  0.00000000000E+00  0.45593999997E+02  0.45594000000E+02  0.51100000000E-03 0. -1.
         11   -1    0    0    0    0 -0.00000000000E+00 -0.00000000000E+00 -0.45593999997E+02  0.45594000000E+02  0.51100000000E-03 0.  1.
    9900012    2    1    2    0    0 -0.36595228496E+02  0.15896620256E+02 -0.78263894498E+01  0.50528860117E+02  0.30000000812E+02 0.  0.
         12    1    1    2    0    0  0.36595228496E+02 -0.15896620256E+02  0.78263894498E+01  0.40659139883E+02  0.00000000000E+00 0. -1.
         11    1    3    3    0    0 -0.14195063202E+02  0.12023098431E+02 -0.14682464200E+02  0.23698722971E+02  0.51100000000E-03 0. -1.
        -11    1    3    3    0    0 -0.97896827821E+01 -0.13907407019E+01 -0.25856042700E+01  0.10220440224E+02  0.51100000000E-03 0.  1.
        -12    1    3    3    0    0 -0.12610482511E+02  0.52642625260E+01  0.94416790205E+01  0.16609696922E+02  0.00000000000E+00 0.  1.
</event>
<event>
 7    1  0.4871930E-013  0.5052886E+02  0.7816164E-02  0.1300439E+00
        -11   -1    0    0    0    0  0.00000000000E+00  0.00000000000E+00  0.45593999997E+02  0.45594000000E+02  0.51100000000E-03 0.  1.
         11   -1    0    0    0    0 -0.00000000000E+00 -0.00000000000E+00 -0.45593999997E+02  0.45594000000E+02  0.51100000000E-03 0. -1.
    9900012    2    1    2    0    0  0.18725004126E+02 -0.14342676372E+02  0.33118386749E+02  0.50528859750E+02  0.29999999695E+02 0.  0.
         12    1    1    2    0    0 -0.18725004126E+02  0.14342676372E+02 -0.33118386749E+02  0.40659140250E+02  0.00000000000E+00 0. -1.
         11    1    3    3    0    0  0.31149155232E+01  0.33400746446E+01  0.19252483171E+01  0.49563473135E+01  0.51100000000E-03 0.  1.
        -11    1    3    3    0    0  0.72872820362E+01 -0.16290202556E+02  0.57232963597E+01  0.18741165926E+02  0.51100000000E-03 0. -1.
         12    1    3    3    0    0  0.83228065660E+01 -0.13925484608E+01  0.25469842073E+02  0.26831346510E+02  0.00000000000E+00 0. -1.
</event>
<event>
 7    1  0.4871930E-013  0.5052886E+02  0.7816164E-02  0.1300439E+00
        -11   -1    0    0    0    0  0.00000000000E+00  0.00000000000E+00  0.45593999997E+02  0.45594000000E+02  0.51100000000E-03 0.  1.
         11   -1    0    0    0    0 -0.00000000000E+00 -0.00000000000E+00 -0.45593999997E+02  0.45594000000E+02  0.51100000000E-03 0. -1.
    9900012    2    1    2    0    0 -0.25530650394E+02 -0.25620954180E+02  0.18571977518E+02  0.50528858942E+02  0.29999997241E+02 0.  0.
         12    1    1    2    0    0  0.25530650394E+02  0.25620954180E+02 -0.18571977518E+02  0.40659141058E+02  0.00000000000E+00 0. -1.
         11    1    3    3    0    0 -0.16498611359E+01  0.31552556319E+01  0.35568021253E+00  0.35782940831E+01  0.51100000000E-03 0. -1.
        -11    1    3    3    0    0 -0.66785904668E+01 -0.51328564219E+00 -0.33165010678E+01  0.74743703660E+01  0.51100000000E-03 0.  1.
        -12    1    3    3    0    0 -0.17202198791E+02 -0.28262924170E+02  0.21532798373E+02  0.39476194493E+02  0.00000000000E+00 0.  1.
</event>
<event>
 7    1  0.4871930E-013  0.5052885E+02  0.7816164E-02  0.1300439E+00
        -11   -1    0    0    0    0  0.00000000000E+00  0.00000000000E+00  0.45593999997E+02  0.45594000000E+02  0.51100000000E-03 0.  1.
         11   -1    0    0    0    0 -0.00000000000E+00 -0.00000000000E+00 -0.45593999997E+02  0.45594000000E+02  0.51100000000E-03 0. -1.
    9900012    2    1    2    0    0 -0.95520808267E+01 -0.38894472870E+02  0.70102748696E+01  0.50528853161E+02  0.29999979668E+02 0.  0.
         12    1    1    2    0    0  0.95520808267E+01  0.38894472870E+02 -0.70102748696E+01  0.40659146839E+02  0.00000000000E+00 0. -1.
         11    1    3    3    0    0 -0.70534220901E+00 -0.75410592539E+01 -0.70374001849E+01  0.10338766074E+02  0.51100000000E-03 0. -1.
        -11    1    3    3    0    0  0.14043510308E+01 -0.25023204693E+02  0.62214174168E+01  0.25823226170E+02  0.51100000000E-03 0.  1.
         12    1    3    3    0    0 -0.10251089649E+02 -0.63302089232E+01  0.78262576377E+01  0.14366860917E+02  0.00000000000E+00 0. -1.
</event>
<event>
 7    1  0.4871930E-013  0.5052881E+02  0.7816164E-02  0.1300439E+00
        -11   -1    0    0    0    0  0.00000000000E+00  0.00000000000E+00  0.45593999997E+02  0.45594000000E+02  0.51100000000E-03 0.  1.
         11   -1    0    0    0    0 -0.00000000000E+00 -0.00000000000E+00 -0.45593999997E+02  0.45594000000E+02  0.51100000000E-03 0. -1.
    9900012    2    1    2    0    0 -0.16052147357E+01  0.39289538295E+02  0.10340453092E+02  0.50528812798E+02  0.29999856981E+02 0.  0.
         12    1    1    2    0    0  0.16052147357E+01 -0.39289538295E+02 -0.10340453092E+02  0.40659187202E+02  0.00000000000E+00 0. -1.
         11    1    3    3    0    0 -0.74245370845E+01  0.13664695402E+02 -0.52657083142E+01  0.16418749516E+02  0.51100000000E-03 0. -1.
        -11    1    3    3    0    0  0.45145740605E+01  0.13354472301E+02 -0.14914692940E+00  0.14097714512E+02  0.51100000000E-03 0.  1.
         12    1    3    3    0    0  0.13047482884E+01  0.12270370591E+02  0.15755308336E+02  0.20012348770E+02  0.00000000000E+00 0. -1.
</event>
<event>
 7    1  0.4871930E-013  0.5052886E+02  0.7816164E-02  0.1300439E+00
        -11   -1    0    0    0    0  0.00000000000E+00  0.00000000000E+00  0.45593999997E+02  0.45594000000E+02  0.51100000000E-03 0.  1.
         11   -1    0    0    0    0 -0.00000000000E+00 -0.00000000000E+00 -0.45593999997E+02  0.45594000000E+02  0.51100000000E-03 0. -1.
    9900012    2    1    2    0    0  0.11644932112E+02 -0.24838221854E+02  0.30010393775E+02  0.50528862733E+02  0.30000008763E+02 0.  0.
         12    1    1    2    0    0 -0.11644932112E+02  0.24838221854E+02 -0.30010393775E+02  0.40659137267E+02  0.00000000000E+00 0. -1.
         11    1    3    3    0    0  0.31799070975E+01  0.38190722634E+01  0.89195006084E+01  0.10210514848E+02  0.51100000000E-03 0.  1.
        -11    1    3    3    0    0  0.87259755568E+01 -0.42501057427E+01  0.38833645002E+01  0.10454021635E+02  0.51100000000E-03 0. -1.
        -12    1    3    3    0    0 -0.26095054233E+00 -0.24407188375E+02  0.17207528667E+02  0.29864326250E+02  0.00000000000E+00 0.  1.
</event>
<event>
 7    1  0.4871930E-013  0.5052885E+02  0.7816164E-02  0.1300439E+00
        -11   -1    0    0    0    0  0.00000000000E+00  0.00000000000E+00  0.45593999997E+02  0.45594000000E+02  0.51100000000E-03 0. -1.
         11   -1    0    0    0    0 -0.00000000000E+00 -0.00000000000E+00 -0.45593999997E+02  0.45594000000E+02  0.51100000000E-03 0.  1.
    9900012    2    1    2    0    0  0.37533081790E+02  0.14109028353E+02 -0.67356685049E+01  0.50528854167E+02  0.29999982725E+02 0.  0.
         12    1    1    2    0    0 -0.37533081790E+02 -0.14109028353E+02  0.67356685049E+01  0.40659145833E+02  0.00000000000E+00 0. -1.
         11    1    3    3    0    0  0.12696284282E+01  0.16127537443E+01 -0.86664797590E+01  0.89062226931E+01  0.51100000000E-03 0. -1.
        -11    1    3    3    0    0  0.15430378102E+02  0.10879263816E+02 -0.51327978895E+01  0.19565289775E+02  0.51100000000E-03 0.  1.
        -12    1    3    3    0    0  0.20833075259E+02  0.16170107925E+01  0.70636091435E+01  0.22057341698E+02  0.00000000000E+00 0.  1.
</event>
<event>
 7    1  0.4871930E-013  0.5052887E+02  0.7816164E-02  0.1300439E+00
        -11   -1    0    0    0    0  0.00000000000E+00  0.00000000000E+00  0.45593999997E+02  0.45594000000E+02  0.51100000000E-03 0.  1.
         11   -1    0    0    0    0 -0.00000000000E+00 -0.00000000000E+00 -0.45593999997E+02  0.45594000000E+02  0.51100000000E-03 0. -1.
    9900012    2    1    2    0    0 -0.24366321324E+02  0.14926727026E+02  0.28924729687E+02  0.50528870865E+02  0.30000033482E+02 0.  0.
         12    1    1    2    0    0  0.24366321324E+02 -0.14926727026E+02 -0.28924729687E+02  0.40659129135E+02  0.00000000000E+00 0. -1.
         11    1    3    3    0    0 -0.70854543037E+01 -0.51515894080E+01  0.11568592157E+02  0.14511197776E+02  0.51100000000E-03 0. -1.
        -11    1    3    3    0    0 -0.96324069404E+01  0.61945260181E+01  0.16575886821E+02  0.20147343255E+02  0.51100000000E-03 0.  1.
         12    1    3    3    0    0 -0.76484600797E+01  0.13883790416E+02  0.78025070801E+00  0.15870329835E+02  0.00000000000E+00 0. -1.
</event>
<event>
 7    1  0.4871930E-013  0.5052886E+02  0.7816164E-02  0.1300439E+00
        -11   -1    0    0    0    0  0.00000000000E+00  0.00000000000E+00  0.45593999997E+02  0.45594000000E+02  0.51100000000E-03 0.  1.
         11   -1    0    0    0    0 -0.00000000000E+00 -0.00000000000E+00 -0.45593999997E+02  0.45594000000E+02  0.51100000000E-03 0. -1.
    9900012    2    1    2    0    0  0.23976843960E+02 -0.32754799599E+02 -0.23237497185E+01  0.50528858890E+02  0.29999997083E+02 0.  0.
         12    1    1    2    0    0 -0.23976843960E+02  0.32754799599E+02  0.23237497185E+01  0.40659141110E+02  0.00000000000E+00 0. -1.
         11    1    3    3    0    0  0.17664491424E+02 -0.23781965766E+02 -0.62574756350E+01  0.30278245566E+02  0.51100000000E-03 0. -1.
        -11    1    3    3    0    0 -0.28257482516E+00 -0.12393712339E+02  0.30684017370E+01  0.12771023590E+02  0.51100000000E-03 0.  1.
        -12    1    3    3    0    0  0.65949273608E+01  0.34208785063E+01  0.86532417955E+00  0.74795897337E+01  0.00000000000E+00 0.  1.
</event>
<event>
 7    1  0.4871930E-013  0.5052888E+02  0.7816164E-02  0.1300439E+00
        -11   -1    0    0    0    0  0.00000000000E+00  0.00000000000E+00  0.45593999997E+02  0.45594000000E+02  0.51100000000E-03 0. -1.
         11   -1    0    0    0    0 -0.00000000000E+00 -0.00000000000E+00 -0.45593999997E+02  0.45594000000E+02  0.51100000000E-03 0.  1.
    9900012    2    1    2    0    0 -0.36158221701E+02 -0.13830564097E+02  0.12428280762E+02  0.50528884631E+02  0.30000075325E+02 0.  0.
         12    1    1    2    0    0  0.36158221701E+02  0.13830564097E+02 -0.12428280762E+02  0.40659115369E+02  0.00000000000E+00 0. -1.
         11    1    3    3    0    0 -0.15083103950E+02  0.19417600207E+01  0.70184914062E+01  0.16749020229E+02  0.51100000000E-03 0. -1.
        -11    1    3    3    0    0 -0.19920791630E+02 -0.43106072093E+01 -0.13443863535E+01  0.20426126618E+02  0.51100000000E-03 0.  1.
         12    1    3    3    0    0 -0.11543261208E+01 -0.11461716909E+02  0.67541757095E+01  0.13353737784E+02  0.00000000000E+00 0. -1.
</event>
<event>
 7    1  0.4871930E-013  0.5052889E+02  0.7816164E-02  0.1300439E+00
        -11   -1    0    0    0    0  0.00000000000E+00  0.00000000000E+00  0.45593999997E+02  0.45594000000E+02  0.51100000000E-03 0.  1.
         11   -1    0    0    0    0 -0.00000000000E+00 -0.00000000000E+00 -0.45593999997E+02  0.45594000000E+02  0.51100000000E-03 0. -1.
    9900012    2    1    2    0    0  0.32069990414E+02 -0.44238346259E+01  0.24598957164E+02  0.50528889194E+02  0.30000089195E+02 0.  0.
         12    1    1    2    0    0 -0.32069990414E+02  0.44238346259E+01 -0.24598957164E+02  0.40659110806E+02  0.00000000000E+00 0. -1.
         11    1    3    3    0    0  0.53022618751E+01 -0.79151951260E+01  0.11775183253E+02  0.15146591556E+02  0.51100000000E-03 0. -1.
        -11    1    3    3    0    0  0.21523810532E+02 -0.56014431670E+01  0.10666841657E+02  0.24666416371E+02  0.51100000000E-03 0.  1.
        -12    1    3    3    0    0  0.52439180065E+01  0.90928036672E+01  0.21569322545E+01  0.10715881268E+02  0.00000000000E+00 0.  1.
</event>
<event>
 7    1  0.4871930E-013  0.5052886E+02  0.7816164E-02  0.1300439E+00
        -11   -1    0    0    0    0  0.00000000000E+00  0.00000000000E+00  0.45593999997E+02  0.45594000000E+02  0.51100000000E-03 0.  1.
         11   -1    0    0    0    0 -0.00000000000E+00 -0.00000000000E+00 -0.45593999997E+02  0.45594000000E+02  0.51100000000E-03 0. -1.
    9900012    2    1    2    0    0 -0.18127393663E+02  0.24452196350E+02  0.26956504542E+02  0.50528862719E+02  0.30000008720E+02 0.  0.
         12    1    1    2    0    0  0.18127393663E+02 -0.24452196350E+02 -0.26956504542E+02  0.40659137281E+02  0.00000000000E+00 0. -1.
         11    1    3    3    0    0  0.31251858237E+01  0.87578056784E+00  0.43033783243E+00  0.32739836510E+01  0.51100000000E-03 0. -1.
        -11    1    3    3    0    0 -0.30569734668E+01  0.25870226447E+01  0.17641461763E+02  0.18090299786E+02  0.51100000000E-03 0.  1.
        -12    1    3    3    0    0 -0.18195606020E+02  0.20989393137E+02  0.88847049463E+01  0.29164579282E+02  0.00000000000E+00 0.  1.
</event>
<event>
 7    1  0.4871930E-013  0.5052884E+02  0.7816164E-02  0.1300439E+00
        -11   -1    0    0    0    0  0.00000000000E+00  0.00000000000E+00  0.45593999997E+02  0.45594000000E+02  0.51100000000E-03 0.  1.
         11   -1    0    0    0    0 -0.00000000000E+00 -0.00000000000E+00 -0.45593999997E+02  0.45594000000E+02  0.51100000000E-03 0. -1.
    9900012    2    1    2    0    0 -0.15527923015E+02 -0.32788024183E+02  0.18357461080E+02  0.50528839897E+02  0.29999939352E+02 0.  0.
         12    1    1    2    0    0  0.15527923015E+02  0.32788024183E+02 -0.18357461080E+02  0.40659160103E+02  0.00000000000E+00 0. -1.
         11    1    3    3    0    0 -0.95305317868E+00 -0.16959469101E+02  0.46063306618E+01  0.17599721162E+02  0.51100000000E-03 0. -1.
        -11    1    3    3    0    0 -0.18743626369E+02 -0.16493007846E+02  0.89173868105E+01  0.26511556444E+02  0.51100000000E-03 0.  1.
         12    1    3    3    0    0  0.41687565327E+01  0.66445276447E+00  0.48337436076E+01  0.64175622918E+01  0.00000000000E+00 0. -1.
</event>
<event>
 7    1  0.4871930E-013  0.5052887E+02  0.7816164E-02  0.1300439E+00
        -11   -1    0    0    0    0  0.00000000000E+00  0.00000000000E+00  0.45593999997E+02  0.45594000000E+02  0.51100000000E-03 0.  1.
         11   -1    0    0    0    0 -0.00000000000E+00 -0.00000000000E+00 -0.45593999997E+02  0.45594000000E+02  0.51100000000E-03 0. -1.
    9900012    2    1    2    0    0  0.46977017536E+01  0.40378291882E+02 -0.83069578301E+00  0.50528869259E+02  0.30000028601E+02 0.  0.
         12    1    1    2    0    0 -0.46977017536E+01 -0.40378291882E+02  0.83069578301E+00  0.40659130741E+02  0.00000000000E+00 0. -1.
         11    1    3    3    0    0  0.28878152584E+01  0.75647680080E+00 -0.63814567760E+01  0.70451916200E+01  0.51100000000E-03 0. -1.
        -11    1    3    3    0    0  0.41227644085E+01  0.55613008637E+01  0.62656852453E+01  0.93372407873E+01  0.51100000000E-03 0.  1.
        -12    1    3    3    0    0 -0.23128779133E+01  0.34060514218E+02 -0.71492425230E+00  0.34146436852E+02  0.00000000000E+00 0.  1.
</event>
<event>
 7    1  0.4871930E-013  0.5052886E+02  0.7816164E-02  0.1300439E+00
        -11   -1    0    0    0    0  0.00000000000E+00  0.00000000000E+00  0.45593999997E+02  0.45594000000E+02  0.51100000000E-03 0. -1.
         11   -1    0    0    0    0 -0.00000000000E+00 -0.00000000000E+00 -0.45593999997E+02  0.45594000000E+02  0.51100000000E-03 0.  1.
    9900012    2    1    2    0    0  0.24475912491E+02  0.24964560334E+02 -0.20757323906E+02  0.50528855141E+02  0.29999985687E+02 0.  0.
         12    1    1    2    0    0 -0.24475912491E+02 -0.24964560334E+02  0.20757323906E+02  0.40659144859E+02  0.00000000000E+00 0. -1.
         11    1    3    3    0    0 -0.40294594053E+01 -0.16350920151E+00 -0.26982227849E+01  0.48521835101E+01  0.51100000000E-03 0. -1.
        -11    1    3    3    0    0  0.11276851133E+02  0.63354379639E+01 -0.15297192163E+02  0.20032704111E+02  0.51100000000E-03 0.  1.
        -12    1    3    3    0    0  0.17228520763E+02  0.18792631572E+02 -0.27619089580E+01  0.25643967520E+02  0.00000000000E+00 0.  1.
</event>
<event>
 7    1  0.4871930E-013  0.5052886E+02  0.7816164E-02  0.1300439E+00
        -11   -1    0    0    0    0  0.00000000000E+00  0.00000000000E+00  0.45593999997E+02  0.45594000000E+02  0.51100000000E-03 0.  1.
         11   -1    0    0    0    0 -0.00000000000E+00 -0.00000000000E+00 -0.45593999997E+02  0.45594000000E+02  0.51100000000E-03 0. -1.
    9900012    2    1    2    0    0 -0.49776799679E+01 -0.92948368201E+01  0.39268239189E+02  0.50528857137E+02  0.29999991754E+02 0.  0.
         12    1    1    2    0    0  0.49776799679E+01  0.92948368201E+01 -0.39268239189E+02  0.40659142863E+02  0.00000000000E+00 0. -1.
         11    1    3    3    0    0 -0.41919095272E+01  0.15639768737E+00  0.21299822075E+02  0.21708960971E+02  0.51100000000E-03 0.  1.
        -11    1    3    3    0    0 -0.58122550494E+01  0.36829786817E+01  0.12848023935E+01  0.69998112961E+01  0.51100000000E-03 0. -1.
         12    1    3    3    0    0  0.50264846088E+01 -0.13134213189E+02  0.16683614720E+02  0.21820084870E+02  0.00000000000E+00 0. -1.
</event>
<event>
 7    1  0.4871930E-013  0.5052886E+02  0.7816164E-02  0.1300439E+00
        -11   -1    0    0    0    0  0.00000000000E+00  0.00000000000E+00  0.45593999997E+02  0.45594000000E+02  0.51100000000E-03 0.  1.
         11   -1    0    0    0    0 -0.00000000000E+00 -0.00000000000E+00 -0.45593999997E+02  0.45594000000E+02  0.51100000000E-03 0. -1.
    9900012    2    1    2    0    0  0.38839498351E+02  0.15823634370E+01 -0.11922877553E+02  0.50528861847E+02  0.30000006069E+02 0.  0.
         12    1    1    2    0    0 -0.38839498351E+02 -0.15823634370E+01  0.11922877553E+02  0.40659138153E+02  0.00000000000E+00 0. -1.
         11    1    3    3    0    0 -0.13667191121E+01  0.59571119153E+01  0.25912265185E+00  0.61173726642E+01  0.51100000000E-03 0. -1.
        -11    1    3    3    0    0  0.21763474073E+02  0.42262432881E+00  0.48890835463E-01  0.21767632063E+02  0.51100000000E-03 0.  1.
        -12    1    3    3    0    0  0.18442743390E+02 -0.47973728071E+01 -0.12230891041E+02  0.22643857120E+02  0.00000000000E+00 0.  1.
</event>
<event>
 7    1  0.4871930E-013  0.5052886E+02  0.7816164E-02  0.1300439E+00
        -11   -1    0    0    0    0  0.00000000000E+00  0.00000000000E+00  0.45593999997E+02  0.45594000000E+02  0.51100000000E-03 0.  1.
         11   -1    0    0    0    0 -0.00000000000E+00 -0.00000000000E+00 -0.45593999997E+02  0.45594000000E+02  0.51100000000E-03 0. -1.
    9900012    2    1    2    0    0  0.19450318087E+02  0.29760131250E+02  0.19727786250E+02  0.50528857903E+02  0.29999994083E+02 0.  0.
         12    1    1    2    0    0 -0.19450318087E+02 -0.29760131250E+02 -0.19727786250E+02  0.40659142097E+02  0.00000000000E+00 0. -1.
         11    1    3    3    0    0  0.79764952775E+01  0.34808847994E+01  0.40933220073E+01  0.96175007781E+01  0.51100000000E-03 0. -1.
        -11    1    3    3    0    0 -0.64980987093E+00  0.85845388737E+00  0.12530912722E+02  0.12577081134E+02  0.51100000000E-03 0.  1.
         12    1    3    3    0    0  0.12123632680E+02  0.25420792563E+02  0.31035515209E+01  0.28334275991E+02  0.00000000000E+00 0. -1.
</event>
<event>
 7    1  0.4871930E-013  0.5052886E+02  0.7816164E-02  0.1300439E+00
        -11   -1    0    0    0    0  0.00000000000E+00  0.00000000000E+00  0.45593999997E+02  0.45594000000E+02  0.51100000000E-03 0. -1.
         11   -1    0    0    0    0 -0.00000000000E+00 -0.00000000000E+00 -0.45593999997E+02  0.45594000000E+02  0.51100000000E-03 0.  1.
    9900012    2    1    2    0    0  0.16034752949E+02  0.29896125473E+02 -0.22411466179E+02  0.50528862814E+02  0.30000009009E+02 0.  0.
         12    1    1    2    0    0 -0.16034752949E+02 -0.29896125473E+02  0.22411466179E+02  0.40659137186E+02  0.00000000000E+00 0. -1.
         11    1    3    3    0    0  0.63378292309E+01  0.29706586138E+01  0.34218242281E+01  0.77911342736E+01  0.51100000000E-03 0. -1.
        -11    1    3    3    0    0  0.13680608717E+02  0.16503186844E+02 -0.10763153639E+02  0.23986656861E+02  0.51100000000E-03 0.  1.
         12    1    3    3    0    0 -0.39836849987E+01  0.10422280015E+02 -0.15070136768E+02  0.18751071679E+02  0.00000000000E+00 0. -1.
</event>
<event>
 7    1  0.4871930E-013  0.5052884E+02  0.7816164E-02  0.1300439E+00
        -11   -1    0    0    0    0  0.00000000000E+00  0.00000000000E+00  0.45593999997E+02  0.45594000000E+02  0.51100000000E-03 0. -1.
         11   -1    0    0    0    0 -0.00000000000E+00 -0.00000000000E+00 -0.45593999997E+02  0.45594000000E+02  0.51100000000E-03 0.  1.
    9900012    2    1    2    0    0 -0.11499269725E+02 -0.16837764390E+02 -0.35177030285E+02  0.50528843915E+02  0.29999951565E+02 0.  0.
         12    1    1    2    0    0  0.11499269725E+02  0.16837764390E+02  0.35177030285E+02  0.40659156085E+02  0.00000000000E+00 0. -1.
         11    1    3    3    0    0  0.24634205991E+01 -0.60156319016E+01  0.15636047991E+01  0.66858902513E+01  0.51100000000E-03 0. -1.
        -11    1    3    3    0    0  0.36335450014E+00 -0.35328511217E+01  0.19960629533E+00  0.35570924187E+01  0.51100000000E-03 0.  1.
        -12    1    3    3    0    0 -0.14326044824E+02 -0.72892813664E+01 -0.36940241379E+02  0.40285861246E+02  0.00000000000E+00 0.  1.
</event>
<event>
 7    1  0.4871930E-013  0.5052887E+02  0.7816164E-02  0.1300439E+00
        -11   -1    0    0    0    0  0.00000000000E+00  0.00000000000E+00  0.45593999997E+02  0.45594000000E+02  0.51100000000E-03 0.  1.
         11   -1    0    0    0    0 -0.00000000000E+00 -0.00000000000E+00 -0.45593999997E+02  0.45594000000E+02  0.51100000000E-03 0. -1.
    9900012    2    1    2    0    0  0.22722464545E+02  0.75122764979E+01  0.32869750443E+02  0.50528865880E+02  0.30000018329E+02 0.  0.
         12    1    1    2    0    0 -0.22722464545E+02 -0.75122764979E+01 -0.32869750443E+02  0.40659134120E+02  0.00000000000E+00 0. -1.
         11    1    3    3    0    0 -0.75048748777E+00  0.50290903792E+01  0.10363557357E+02  0.11543756012E+02  0.51100000000E-03 0. -1.
        -11    1    3    3    0    0  0.72646439612E+01 -0.49033612810E+01  0.18869346338E+02  0.20805533764E+02  0.51100000000E-03 0.  1.
         12    1    3    3    0    0  0.16208308072E+02  0.73865473997E+01  0.36368467483E+01  0.18179576104E+02  0.00000000000E+00 0. -1.
</event>
<event>
 7    1  0.4871930E-013  0.5052886E+02  0.7816164E-02  0.1300439E+00
        -11   -1    0    0    0    0  0.00000000000E+00  0.00000000000E+00  0.45593999997E+02  0.45594000000E+02  0.51100000000E-03 0.  1.
         11   -1    0    0    0    0 -0.00000000000E+00 -0.00000000000E+00 -0.45593999997E+02  0.45594000000E+02  0.51100000000E-03 0. -1.
    9900012    2    1    2    0    0 -0.18672503013E+02 -0.15474956570E+02  0.32634781126E+02  0.50528860944E+02  0.30000003325E+02 0.  0.
         12    1    1    2    0    0  0.18672503013E+02  0.15474956570E+02 -0.32634781126E+02  0.40659139056E+02  0.00000000000E+00 0. -1.
         11    1    3    3    0    0 -0.11543138671E+02  0.70109958144E+01  0.16038171566E+02  0.20967142393E+02  0.51100000000E-03 0. -1.
        -11    1    3    3    0    0 -0.25959240572E+01 -0.51326484606E+01  0.74984683442E+01  0.94503930977E+01  0.51100000000E-03 0.  1.
        -12    1    3    3    0    0 -0.45334402854E+01 -0.17353303924E+02  0.90981412165E+01  0.20111325454E+02  0.00000000000E+00 0.  1.
</event>
<event>
 7    1  0.4871930E-013  0.5052886E+02  0.7816164E-02  0.1300439E+00
        -11   -1    0    0    0    0  0.00000000000E+00  0.00000000000E+00  0.45593999997E+02  0.45594000000E+02  0.51100000000E-03 0.  1.
         11   -1    0    0    0    0 -0.00000000000E+00 -0.00000000000E+00 -0.45593999997E+02  0.45594000000E+02  0.51100000000E-03 0. -1.
    9900012    2    1    2    0    0  0.31968004060E+02 -0.22456267593E+02  0.11266260773E+02  0.50528857490E+02  0.29999992828E+02 0.  0.
         12    1    1    2    0    0 -0.31968004060E+02  0.22456267593E+02 -0.11266260773E+02  0.40659142510E+02  0.00000000000E+00 0. -1.
         11    1    3    3    0    0  0.18022628633E+01 -0.64107459290E+01 -0.85388634239E+01  0.10828573481E+02  0.51100000000E-03 0. -1.
        -11    1    3    3    0    0  0.48480765049E+01 -0.30481296240E+01  0.17134977778E+01  0.59775425467E+01  0.51100000000E-03 0.  1.
         12    1    3    3    0    0  0.25317664692E+02 -0.12997392040E+02  0.18091626419E+02  0.33722741463E+02  0.00000000000E+00 0. -1.
</event>
<event>
 7    1  0.4871930E-013  0.5052886E+02  0.7816164E-02  0.1300439E+00
        -11   -1    0    0    0    0  0.00000000000E+00  0.00000000000E+00  0.45593999997E+02  0.45594000000E+02  0.51100000000E-03 0. -1.
         11   -1    0    0    0    0 -0.00000000000E+00 -0.00000000000E+00 -0.45593999997E+02  0.45594000000E+02  0.51100000000E-03 0.  1.
    9900012    2    1    2    0    0  0.67592970539E+01  0.94504902844E-01 -0.40093253167E+02  0.50528856165E+02  0.29999988800E+02 0.  0.
         12    1    1    2    0    0 -0.67592970539E+01 -0.94504902844E-01  0.40093253167E+02  0.40659143835E+02  0.00000000000E+00 0. -1.
         11    1    3    3    0    0  0.14364390730E+01 -0.53156179028E+01 -0.33523348849E+01  0.64464951983E+01  0.51100000000E-03 0. -1.
        -11    1    3    3    0    0  0.11091518178E+02 -0.22769387516E+01 -0.30722536095E+02  0.32742639630E+02  0.51100000000E-03 0.  1.
         12    1    3    3    0    0 -0.57686601968E+01  0.76870615573E+01 -0.60183821871E+01  0.11339721337E+02  0.00000000000E+00 0. -1.
</event>
<event>
 7    1  0.4871930E-013  0.5052886E+02  0.7816164E-02  0.1300439E+00
        -11   -1    0    0    0    0  0.00000000000E+00  0.00000000000E+00  0.45593999997E+02  0.45594000000E+02  0.51100000000E-03 0.  1.
         11   -1    0    0    0    0 -0.00000000000E+00 -0.00000000000E+00 -0.45593999997E+02  0.45594000000E+02  0.51100000000E-03 0. -1.
    9900012    2    1    2    0    0  0.10070668291E+02  0.11612623927E+02  0.37641654600E+02  0.50528861355E+02  0.30000004576E+02 0.  0.
         12    1    1    2    0    0 -0.10070668291E+02 -0.11612623927E+02 -0.37641654600E+02  0.40659138645E+02  0.00000000000E+00 0. -1.
         11    1    3    3    0    0  0.10503834112E+02 -0.44421617170E+01  0.23765712309E+02  0.26360432727E+02  0.51100000000E-03 0. -1.
        -11    1    3    3    0    0  0.51190269302E+01  0.59020245613E+01  0.80311580408E+01  0.11204366576E+02  0.51100000000E-03 0.  1.
         12    1    3    3    0    0 -0.55521927511E+01  0.10152761083E+02  0.58447842502E+01  0.12964062052E+02  0.00000000000E+00 0. -1.
</event>
<event>
 7    1  0.4871930E-013  0.5052886E+02  0.7816164E-02  0.1300439E+00
        -11   -1    0    0    0    0  0.00000000000E+00  0.00000000000E+00  0.45593999997E+02  0.45594000000E+02  0.51100000000E-03 0. -1.
         11   -1    0    0    0    0 -0.00000000000E+00 -0.00000000000E+00 -0.45593999997E+02  0.45594000000E+02  0.51100000000E-03 0.  1.
    9900012    2    1    2    0    0  0.37157886868E+02  0.95798991016E+01 -0.13441819358E+02  0.50528861655E+02  0.30000005487E+02 0.  0.
         12    1    1    2    0    0 -0.37157886868E+02 -0.95798991016E+01  0.13441819358E+02  0.40659138345E+02  0.00000000000E+00 0. -1.
         11    1    3    3    0    0  0.30251433144E+01  0.54959810476E+01 -0.73897163442E+01  0.96935652706E+01  0.51100000000E-03 0. -1.
        -11    1    3    3    0    0  0.28476101169E+01  0.83348554440E+01 -0.10881708426E+01  0.88748416715E+01  0.51100000000E-03 0.  1.
        -12    1    3    3    0    0  0.31285133437E+02 -0.42509373900E+01 -0.49639321712E+01  0.31960454713E+02  0.00000000000E+00 0.  1.
</event>
<event>
 7    1  0.4871930E-013  0.5052886E+02  0.7816164E-02  0.1300439E+00
        -11   -1    0    0    0    0  0.00000000000E+00  0.00000000000E+00  0.45593999997E+02  0.45594000000E+02  0.51100000000E-03 0.  1.
         11   -1    0    0    0    0 -0.00000000000E+00 -0.00000000000E+00 -0.45593999997E+02  0.45594000000E+02  0.51100000000E-03 0. -1.
    9900012    2    1    2    0    0  0.88773871484E+00  0.79387490201E+01  0.39866700092E+02  0.50528860901E+02  0.30000003194E+02 0.  0.
         12    1    1    2    0    0 -0.88773871484E+00 -0.79387490201E+01 -0.39866700092E+02  0.40659139099E+02  0.00000000000E+00 0. -1.
         11    1    3    3    0    0 -0.69520619658E+01  0.11964780453E+01  0.22755777009E+02  0.23824107808E+02  0.51100000000E-03 0. -1.
        -11    1    3    3    0    0  0.37305856969E+01  0.55899541903E+01  0.20295864636E+02  0.21379592584E+02  0.51100000000E-03 0.  1.
         12    1    3    3    0    0  0.41092149837E+01  0.11523167844E+01 -0.31849415523E+01  0.53251605089E+01  0.00000000000E+00 0. -1.
</event>
<event>
 7    1  0.4871930E-013  0.5052885E+02  0.7816164E-02  0.1300439E+00
        -11   -1    0    0    0    0  0.00000000000E+00  0.00000000000E+00  0.45593999997E+02  0.45594000000E+02  0.51100000000E-03 0. -1.
         11   -1    0    0    0    0 -0.00000000000E+00 -0.00000000000E+00 -0.45593999997E+02  0.45594000000E+02  0.51100000000E-03 0.  1.
    9900012    2    1    2    0    0  0.30409147406E+02  0.12841423623E+02 -0.23739161224E+02  0.50528853646E+02  0.29999981142E+02 0.  0.
         12    1    1    2    0    0 -0.30409147406E+02 -0.12841423623E+02  0.23739161224E+02  0.40659146354E+02  0.00000000000E+00 0. -1.
         11    1    3    3    0    0  0.21545761531E+02  0.63443049789E+01 -0.74442590380E+01  0.23661932265E+02  0.51100000000E-03 0. -1.
        -11    1    3    3    0    0  0.12424640702E+02  0.32790650418E+01 -0.17693552149E+02  0.21867458746E+02  0.51100000000E-03 0.  1.
         12    1    3    3    0    0 -0.35612548260E+01  0.32180536021E+01  0.13986499628E+01  0.49994626351E+01  0.00000000000E+00 0. -1.
</event>
<event>
 7    1  0.4871930E-013  0.5052886E+02  0.7816164E-02  0.1300439E+00
        -11   -1    0    0    0    0  0.00000000000E+00  0.00000000000E+00  0.45593999997E+02  0.45594000000E+02  0.51100000000E-03 0. -1.
         11   -1    0    0    0    0 -0.00000000000E+00 -0.00000000000E+00 -0.45593999997E+02  0.45594000000E+02  0.51100000000E-03 0.  1.
    9900012    2    1    2    0    0 -0.34562671567E+02  0.18366857743E+02  0.11011162374E+02  0.50528862945E+02  0.30000009409E+02 0.  0.
         12    1    1    2    0    0  0.34562671567E+02 -0.18366857743E+02 -0.11011162374E+02  0.40659137055E+02  0.00000000000E+00 0. -1.
         11    1    3    3    0    0 -0.78358711820E+01  0.23309227298E+01  0.95147232762E+01  0.12544482342E+02  0.51100000000E-03 0. -1.
        -11    1    3    3    0    0 -0.26106130614E+02  0.15930962095E+02  0.78702782598E+01  0.31579532756E+02  0.51100000000E-03 0.  1.
         12    1    3    3    0    0 -0.62066977075E+00  0.10497291813E+00 -0.63738391625E+01  0.64048478473E+01  0.00000000000E+00 0. -1.
</event>
<event>
 7    1  0.4871930E-013  0.5052887E+02  0.7816164E-02  0.1300439E+00
        -11   -1    0    0    0    0  0.00000000000E+00  0.00000000000E+00  0.45593999997E+02  0.45594000000E+02  0.51100000000E-03 0. -1.
         11   -1    0    0    0    0 -0.00000000000E+00 -0.00000000000E+00 -0.45593999997E+02  0.45594000000E+02  0.51100000000E-03 0.  1.
    9900012    2    1    2    0    0 -0.14517052360E+02 -0.26997706868E+02 -0.26712246046E+02  0.50528867272E+02  0.30000022561E+02 0.  0.
         12    1    1    2    0    0  0.14517052360E+02  0.26997706868E+02  0.26712246046E+02  0.40659132728E+02  0.00000000000E+00 0. -1.
         11    1    3    3    0    0  0.64574784567E+01 -0.16013245321E+01 -0.75982884002E+01  0.10099369047E+02  0.51100000000E-03 0. -1.
        -11    1    3    3    0    0 -0.14365319556E+01 -0.67097853608E+01  0.71896915856E+00  0.68994029133E+01  0.51100000000E-03 0.  1.
        -12    1    3    3    0    0 -0.19537998861E+02 -0.18686596976E+02 -0.19832926804E+02  0.33530095312E+02  0.00000000000E+00 0.  1.
</event>
<event>
 7    1  0.4871930E-013  0.5052885E+02  0.7816164E-02  0.1300439E+00
        -11   -1    0    0    0    0  0.00000000000E+00  0.00000000000E+00  0.45593999997E+02  0.45594000000E+02  0.51100000000E-03 0. -1.
         11   -1    0    0    0    0 -0.00000000000E+00 -0.00000000000E+00 -0.45593999997E+02  0.45594000000E+02  0.51100000000E-03 0.  1.
    9900012    2    1    2    0    0  0.22333416799E+02 -0.13264166981E+02 -0.31280128714E+02  0.50528854855E+02  0.29999984816E+02 0.  0.
         12    1    1    2    0    0 -0.22333416799E+02  0.13264166981E+02  0.31280128714E+02  0.40659145145E+02  0.00000000000E+00 0. -1.
         11    1    3    3    0    0  0.62702037118E+01  0.62945833223E+01 -0.74473104437E+01  0.11593087030E+02  0.51100000000E-03 0. -1.
        -11    1    3    3    0    0 -0.16177272698E+01 -0.21127389078E+01 -0.10322994997E+02  0.10660437758E+02  0.51100000000E-03 0.  1.
        -12    1    3    3    0    0  0.17680940357E+02 -0.17446011395E+02 -0.13509823273E+02  0.28275330067E+02  0.00000000000E+00 0.  1.
</event>
<event>
 7    1  0.4871930E-013  0.5052886E+02  0.7816164E-02  0.1300439E+00
        -11   -1    0    0    0    0  0.00000000000E+00  0.00000000000E+00  0.45593999997E+02  0.45594000000E+02  0.51100000000E-03 0.  1.
         11   -1    0    0    0    0 -0.00000000000E+00 -0.00000000000E+00 -0.45593999997E+02  0.45594000000E+02  0.51100000000E-03 0. -1.
    9900012    2    1    2    0    0 -0.18929600514E+02 -0.13092911080E+02  0.33517334109E+02  0.50528858568E+02  0.29999996104E+02 0.  0.
         12    1    1    2    0    0  0.18929600514E+02  0.13092911080E+02 -0.33517334109E+02  0.40659141432E+02  0.00000000000E+00 0. -1.
         11    1    3    3    0    0 -0.12692455916E+02  0.49609568990E+01  0.16192371305E+02  0.21163705235E+02  0.51100000000E-03 0. -1.
        -11    1    3    3    0    0 -0.20155761617E+01 -0.64049705919E+01  0.15434097875E+02  0.16831445957E+02  0.51100000000E-03 0.  1.
         12    1    3    3    0    0 -0.42215684363E+01 -0.11648897387E+02  0.18908649293E+01  0.12533707376E+02  0.00000000000E+00 0. -1.
</event>
<event>
 7    1  0.7669611E-013  0.5052886E+02  0.7816164E-02  0.1300439E+00
        -11   -1    0    0    0    0  0.00000000000E+00  0.00000000000E+00  0.45593999997E+02  0.45594000000E+02  0.51100000000E-03 0. -1.
         11   -1    0    0    0    0 -0.00000000000E+00 -0.00000000000E+00 -0.45593999997E+02  0.45594000000E+02  0.51100000000E-03 0.  1.
    9900012    2    1    2    0    0  0.82784019076E+01  0.25979939744E+02 -0.30160845567E+02  0.50528858192E+02  0.29999994961E+02 0.  0.
         12    1    1    2    0    0 -0.82784019076E+01 -0.25979939744E+02  0.30160845567E+02  0.40659141808E+02  0.00000000000E+00 0. -1.
         11    1    3    3    0    0 -0.51896201526E+01  0.74476966228E+01 -0.81021948192E+00  0.91135502513E+01  0.51100000000E-03 0. -1.
        -11    1    3    3    0    0  0.66366519906E+01  0.18556695609E+02 -0.28326169435E+02  0.34507506092E+02  0.51100000000E-03 0.  1.
         12    1    3    3    0    0  0.68313700696E+01 -0.24452488156E-01 -0.10244566498E+01  0.69078018486E+01  0.00000000000E+00 0. -1.
</event>
<event>
 7    1  0.4871930E-013  0.5052887E+02  0.7816164E-02  0.1300439E+00
        -11   -1    0    0    0    0  0.00000000000E+00  0.00000000000E+00  0.45593999997E+02  0.45594000000E+02  0.51100000000E-03 0.  1.
         11   -1    0    0    0    0 -0.00000000000E+00 -0.00000000000E+00 -0.45593999997E+02  0.45594000000E+02  0.51100000000E-03 0. -1.
    9900012    2    1    2    0    0  0.14870466348E+02 -0.32481789768E+02  0.19415655060E+02  0.50528866987E+02  0.30000021694E+02 0.  0.
         12    1    1    2    0    0 -0.14870466348E+02  0.32481789768E+02 -0.19415655060E+02  0.40659133013E+02  0.00000000000E+00 0. -1.
         11    1    3    3    0    0  0.46493648235E+01 -0.13225979586E+02  0.86776085298E+01  0.16487692965E+02  0.51100000000E-03 0. -1.
        -11    1    3    3    0    0  0.13438158399E+02 -0.48989868406E+01  0.12787782912E+02  0.19186233744E+02  0.51100000000E-03 0.  1.
         12    1    3    3    0    0 -0.32170568746E+01 -0.14356823342E+02 -0.20497363817E+01  0.14854940277E+02  0.00000000000E+00 0. -1.
</event>
<event>
 7    1  0.4871930E-013  0.5052886E+02  0.7816164E-02  0.1300439E+00
        -11   -1    0    0    0    0  0.00000000000E+00  0.00000000000E+00  0.45593999997E+02  0.45594000000E+02  0.51100000000E-03 0.  1.
         11   -1    0    0    0    0 -0.00000000000E+00 -0.00000000000E+00 -0.45593999997E+02  0.45594000000E+02  0.51100000000E-03 0. -1.
    9900012    2    1    2    0    0  0.35795414919E+02  0.31648138054E+01  0.19022035676E+02  0.50528860598E+02  0.30000002274E+02 0.  0.
         12    1    1    2    0    0 -0.35795414919E+02 -0.31648138054E+01 -0.19022035676E+02  0.40659139402E+02  0.00000000000E+00 0. -1.
         11    1    3    3    0    0  0.30231868020E+02  0.51962051820E-02  0.16981285420E+02  0.34674629425E+02  0.51100000000E-03 0.  1.
        -11    1    3    3    0    0  0.37681418079E+01 -0.52110057199E+01  0.32550207748E+01  0.72075400659E+01  0.51100000000E-03 0. -1.
         12    1    3    3    0    0  0.17954050915E+01  0.83706233201E+01 -0.12142705190E+01  0.86466911072E+01  0.00000000000E+00 0. -1.
</event>
<event>
 7    1  0.4871930E-013  0.5052885E+02  0.7816164E-02  0.1300439E+00
        -11   -1    0    0    0    0  0.00000000000E+00  0.00000000000E+00  0.45593999997E+02  0.45594000000E+02  0.51100000000E-03 0.  1.
         11   -1    0    0    0    0 -0.00000000000E+00 -0.00000000000E+00 -0.45593999997E+02  0.45594000000E+02  0.51100000000E-03 0. -1.
    9900012    2    1    2    0    0  0.15112051839E+02 -0.37209114168E+02  0.63461777420E+01  0.50528852691E+02  0.29999978239E+02 0.  0.
         12    1    1    2    0    0 -0.15112051839E+02  0.37209114168E+02 -0.63461777420E+01  0.40659147309E+02  0.00000000000E+00 0. -1.
         11    1    3    3    0    0 -0.75106732155E+01 -0.40832961987E+01  0.40514593053E+01  0.94603299498E+01  0.51100000000E-03 0. -1.
        -11    1    3    3    0    0  0.92425958623E+01 -0.20964098561E+02  0.17737148816E+01  0.22979666479E+02  0.51100000000E-03 0.  1.
        -12    1    3    3    0    0  0.13380129192E+02 -0.12161719409E+02  0.52100355508E+00  0.18088856262E+02  0.00000000000E+00 0.  1.
</event>
<event>
 7    1  0.4871930E-013  0.5052886E+02  0.7816164E-02  0.1300439E+00
        -11   -1    0    0    0    0  0.00000000000E+00  0.00000000000E+00  0.45593999997E+02  0.45594000000E+02  0.51100000000E-03 0.  1.
         11   -1    0    0    0    0 -0.00000000000E+00 -0.00000000000E+00 -0.45593999997E+02  0.45594000000E+02  0.51100000000E-03 0. -1.
    9900012    2    1    2    0    0  0.28885886313E+01 -0.39077952241E+02  0.10850603593E+02  0.50528857191E+02  0.29999991919E+02 0.  0.
         12    1    1    2    0    0 -0.28885886313E+01  0.39077952241E+02 -0.10850603593E+02  0.40659142809E+02  0.00000000000E+00 0. -1.
         11    1    3    3    0    0 -0.96158252877E+00 -0.27175905508E+02 -0.32236107310E+01  0.27383318782E+02  0.51100000000E-03 0.  1.
        -11    1    3    3    0    0 -0.18854469871E+00  0.12077141036E+01 -0.17934062289E+01  0.21703521886E+01  0.51100000000E-03 0. -1.
        -12    1    3    3    0    0  0.40387158588E+01 -0.13109760837E+02  0.15867620553E+02  0.20975186221E+02  0.00000000000E+00 0.  1.
</event>
<event>
 7    1  0.4871930E-013  0.5052886E+02  0.7816164E-02  0.1300439E+00
        -11   -1    0    0    0    0  0.00000000000E+00  0.00000000000E+00  0.45593999997E+02  0.45594000000E+02  0.51100000000E-03 0. -1.
         11   -1    0    0    0    0 -0.00000000000E+00 -0.00000000000E+00 -0.45593999997E+02  0.45594000000E+02  0.51100000000E-03 0.  1.
    9900012    2    1    2    0    0  0.17789276545E+02 -0.34176015989E+02  0.12988721502E+02  0.50528864309E+02  0.30000013554E+02 0.  0.
         12    1    1    2    0    0 -0.17789276545E+02  0.34176015989E+02 -0.12988721502E+02  0.40659135691E+02  0.00000000000E+00 0. -1.
         11    1    3    3    0    0 -0.21969661487E+01 -0.16701903740E+02  0.10174297625E+02  0.19679852165E+02  0.51100000000E-03 0. -1.
        -11    1    3    3    0    0  0.18123994922E+00 -0.41283823728E+01  0.54307672575E+01  0.68241938866E+01  0.51100000000E-03 0.  1.
        -12    1    3    3    0    0  0.19805002744E+02 -0.13345729876E+02 -0.26163433810E+01  0.24024818257E+02  0.00000000000E+00 0.  1.
</event>
<event>
 7    1  0.4871930E-013  0.5052886E+02  0.7816164E-02  0.1300439E+00
        -11   -1    0    0    0    0  0.00000000000E+00  0.00000000000E+00  0.45593999997E+02  0.45594000000E+02  0.51100000000E-03 0. -1.
         11   -1    0    0    0    0 -0.00000000000E+00 -0.00000000000E+00 -0.45593999997E+02  0.45594000000E+02  0.51100000000E-03 0.  1.
    9900012    2    1    2    0    0  0.10569459251E+02  0.23813795744E+01 -0.39189045730E+02  0.50528859050E+02  0.29999997568E+02 0.  0.
         12    1    1    2    0    0 -0.10569459251E+02 -0.23813795744E+01  0.39189045730E+02  0.40659140950E+02  0.00000000000E+00 0. -1.
         11    1    3    3    0    0  0.77650348518E+01  0.13605890595E+01 -0.44922700655E+01  0.90734480458E+01  0.51100000000E-03 0. -1.
        -11    1    3    3    0    0 -0.48240022670E+01  0.82518632860E+01 -0.26360397153E+02  0.28039878457E+02  0.51100000000E-03 0.  1.
         12    1    3    3    0    0  0.76284266661E+01 -0.72310727711E+01 -0.83363785117E+01  0.13415532547E+02  0.00000000000E+00 0. -1.
</event>
<event>
 7    1  0.4871930E-013  0.5052886E+02  0.7816164E-02  0.1300439E+00
        -11   -1    0    0    0    0  0.00000000000E+00  0.00000000000E+00  0.45593999997E+02  0.45594000000E+02  0.51100000000E-03 0.  1.
         11   -1    0    0    0    0 -0.00000000000E+00 -0.00000000000E+00 -0.45593999997E+02  0.45594000000E+02  0.51100000000E-03 0. -1.
    9900012    2    1    2    0    0  0.30188049350E+02  0.19854573682E+02  0.18645199932E+02  0.50528857115E+02  0.29999991686E+02 0.  0.
         12    1    1    2    0    0 -0.30188049350E+02 -0.19854573682E+02 -0.18645199932E+02  0.40659142885E+02  0.00000000000E+00 0. -1.
         11    1    3    3    0    0 -0.21427533672E+01 -0.48438020890E+01  0.48601398623E+01  0.71885165655E+01  0.51100000000E-03 0. -1.
        -11    1    3    3    0    0  0.11431308259E+02  0.55356492781E+01  0.34582949946E+01  0.13163511157E+02  0.51100000000E-03 0.  1.
         12    1    3    3    0    0  0.20899494459E+02  0.19162726493E+02  0.10326765075E+02  0.30176829393E+02  0.00000000000E+00 0. -1.
</event>
<event>
 7    1  0.4871930E-013  0.5052886E+02  0.7816164E-02  0.1300439E+00
        -11   -1    0    0    0    0  0.00000000000E+00  0.00000000000E+00  0.45593999997E+02  0.45594000000E+02  0.51100000000E-03 0.  1.
         11   -1    0    0    0    0 -0.00000000000E+00 -0.00000000000E+00 -0.45593999997E+02  0.45594000000E+02  0.51100000000E-03 0. -1.
    9900012    2    1    2    0    0 -0.21192124238E+01  0.25329559446E+02  0.31734653542E+02  0.50528857381E+02  0.29999992497E+02 0.  0.
         12    1    1    2    0    0  0.21192124238E+01 -0.25329559446E+02 -0.31734653542E+02  0.40659142619E+02  0.00000000000E+00 0. -1.
         11    1    3    3    0    0 -0.95552092597E+01  0.13259301688E+02  0.75161145598E+01  0.17988971166E+02  0.51100000000E-03 0. -1.
        -11    1    3    3    0    0  0.33434760000E+01  0.12911606885E+02  0.74883449392E+01  0.15295873114E+02  0.51100000000E-03 0.  1.
         12    1    3    3    0    0  0.40925208360E+01 -0.84134912722E+00  0.16730194043E+02  0.17244013102E+02  0.00000000000E+00 0. -1.
</event>
<event>
 7    1  0.4871930E-013  0.5052886E+02  0.7816164E-02  0.1300439E+00
        -11   -1    0    0    0    0  0.00000000000E+00  0.00000000000E+00  0.45593999997E+02  0.45594000000E+02  0.51100000000E-03 0. -1.
         11   -1    0    0    0    0 -0.00000000000E+00 -0.00000000000E+00 -0.45593999997E+02  0.45594000000E+02  0.51100000000E-03 0.  1.
    9900012    2    1    2    0    0 -0.31572112823E+02  0.24047907240E+02  0.88354837316E+01  0.50528856828E+02  0.29999990813E+02 0.  0.
         12    1    1    2    0    0  0.31572112823E+02 -0.24047907240E+02 -0.88354837316E+01  0.40659143172E+02  0.00000000000E+00 0. -1.
         11    1    3    3    0    0  0.72993812441E+00 -0.26420492013E+01 -0.19624391730E+01  0.33711127860E+01  0.51100000000E-03 0. -1.
        -11    1    3    3    0    0 -0.20167699982E+02  0.45824693583E+01  0.51904614068E+01  0.21323133866E+02  0.51100000000E-03 0.  1.
        -12    1    3    3    0    0 -0.12134350966E+02  0.22107487083E+02  0.56074614977E+01  0.25834610176E+02  0.00000000000E+00 0.  1.
</event>
<event>
 7    1  0.4871930E-013  0.5052885E+02  0.7816164E-02  0.1300439E+00
        -11   -1    0    0    0    0  0.00000000000E+00  0.00000000000E+00  0.45593999997E+02  0.45594000000E+02  0.51100000000E-03 0. -1.
         11   -1    0    0    0    0 -0.00000000000E+00 -0.00000000000E+00 -0.45593999997E+02  0.45594000000E+02  0.51100000000E-03 0.  1.
    9900012    2    1    2    0    0 -0.86173610208E+01 -0.17214245093E+02 -0.35813084726E+02  0.50528853640E+02  0.29999981125E+02 0.  0.
         12    1    1    2    0    0  0.86173610208E+01  0.17214245093E+02  0.35813084726E+02  0.40659146360E+02  0.00000000000E+00 0. -1.
         11    1    3    3    0    0 -0.54402959342E+01 -0.49185226377E+01  0.40125478005E+01  0.83599775659E+01  0.51100000000E-03 0. -1.
        -11    1    3    3    0    0 -0.27248442378E+01 -0.16155646579E+01 -0.87005099830E+01  0.92592494031E+01  0.51100000000E-03 0.  1.
         12    1    3    3    0    0 -0.45222084886E+00 -0.10680157797E+02 -0.31125122544E+02  0.32909626671E+02  0.00000000000E+00 0. -1.
</event>
<event>
 7    1  0.4871930E-013  0.5052886E+02  0.7816164E-02  0.1300439E+00
        -11   -1    0    0    0    0  0.00000000000E+00  0.00000000000E+00  0.45593999997E+02  0.45594000000E+02  0.51100000000E-03 0.  1.
         11   -1    0    0    0    0 -0.00000000000E+00 -0.00000000000E+00 -0.45593999997E+02  0.45594000000E+02  0.51100000000E-03 0. -1.
    9900012    2    1    2    0    0  0.38623372016E+02 -0.27282351531E+01  0.12407948738E+02  0.50528864189E+02  0.30000013190E+02 0.  0.
         12    1    1    2    0    0 -0.38623372016E+02  0.27282351531E+01 -0.12407948738E+02  0.40659135811E+02  0.00000000000E+00 0. -1.
         11    1    3    3    0    0  0.42188348778E+01 -0.38589947785E+01  0.51197690450E+01  0.76747927504E+01  0.51100000000E-03 0. -1.
        -11    1    3    3    0    0  0.82509341397E+00 -0.59692206384E+01  0.60065781349E+01  0.85083109559E+01  0.51100000000E-03 0.  1.
         12    1    3    3    0    0  0.33579443725E+02  0.70999802638E+01  0.12816015582E+01  0.34345760483E+02  0.00000000000E+00 0. -1.
</event>
<event>
 7    1  0.4871930E-013  0.5052886E+02  0.7816164E-02  0.1300439E+00
        -11   -1    0    0    0    0  0.00000000000E+00  0.00000000000E+00  0.45593999997E+02  0.45594000000E+02  0.51100000000E-03 0. -1.
         11   -1    0    0    0    0 -0.00000000000E+00 -0.00000000000E+00 -0.45593999997E+02  0.45594000000E+02  0.51100000000E-03 0.  1.
    9900012    2    1    2    0    0 -0.33119672131E+02  0.20537320083E+01 -0.23495420282E+02  0.50528864847E+02  0.30000015188E+02 0.  0.
         12    1    1    2    0    0  0.33119672131E+02 -0.20537320083E+01  0.23495420282E+02  0.40659135153E+02  0.00000000000E+00 0. -1.
         11    1    3    3    0    0 -0.53222208304E+00  0.40615650763E+01 -0.68335720365E+01  0.79672629085E+01  0.51100000000E-03 0. -1.
        -11    1    3    3    0    0 -0.29298355314E+02  0.65025614019E+01 -0.13469689727E+02  0.32895432365E+02  0.51100000000E-03 0.  1.
         12    1    3    3    0    0 -0.32890947333E+01 -0.85103944699E+01 -0.31921585187E+01  0.96661695726E+01  0.00000000000E+00 0. -1.
</event>
<event>
 7    1  0.4871930E-013  0.5052886E+02  0.7816164E-02  0.1300439E+00
        -11   -1    0    0    0    0  0.00000000000E+00  0.00000000000E+00  0.45593999997E+02  0.45594000000E+02  0.51100000000E-03 0. -1.
         11   -1    0    0    0    0 -0.00000000000E+00 -0.00000000000E+00 -0.45593999997E+02  0.45594000000E+02  0.51100000000E-03 0.  1.
    9900012    2    1    2    0    0  0.78570877745E+00 -0.36117470234E+02 -0.18656817910E+02  0.50528857745E+02  0.29999993602E+02 0.  0.
         12    1    1    2    0    0 -0.78570877745E+00  0.36117470234E+02  0.18656817910E+02  0.40659142255E+02  0.00000000000E+00 0. -1.
         11    1    3    3    0    0 -0.10306516477E+02 -0.55659780995E+01 -0.72917889069E+01  0.13797629500E+02  0.51100000000E-03 0. -1.
        -11    1    3    3    0    0  0.30372413882E+01 -0.21435719611E+02 -0.11605281156E+02  0.24564149923E+02  0.51100000000E-03 0.  1.
         12    1    3    3    0    0  0.80549838666E+01 -0.91157725235E+01  0.24025215279E+00  0.12167078322E+02  0.00000000000E+00 0. -1.
</event>
<event>
 7    1  0.4871930E-013  0.5052885E+02  0.7816164E-02  0.1300439E+00
        -11   -1    0    0    0    0  0.00000000000E+00  0.00000000000E+00  0.45593999997E+02  0.45594000000E+02  0.51100000000E-03 0. -1.
         11   -1    0    0    0    0 -0.00000000000E+00 -0.00000000000E+00 -0.45593999997E+02  0.45594000000E+02  0.51100000000E-03 0.  1.
    9900012    2    1    2    0    0 -0.19985556159E+02 -0.29475975080E+02 -0.19619139844E+02  0.50528853303E+02  0.29999980101E+02 0.  0.
         12    1    1    2    0    0  0.19985556159E+02  0.29475975080E+02  0.19619139844E+02  0.40659146697E+02  0.00000000000E+00 0. -1.
         11    1    3    3    0    0 -0.10607639248E+01 -0.11405809822E+02 -0.11694510216E+02  0.16370072915E+02  0.51100000000E-03 0. -1.
        -11    1    3    3    0    0  0.29442335292E+01 -0.11501044048E+01  0.30665463916E+01  0.44039707367E+01  0.51100000000E-03 0.  1.
        -12    1    3    3    0    0 -0.21869025763E+02 -0.16920060853E+02 -0.10991176019E+02  0.29754809651E+02  0.00000000000E+00 0.  1.
</event>
<event>
 7    1  0.4871930E-013  0.5052886E+02  0.7816164E-02  0.1300439E+00
        -11   -1    0    0    0    0  0.00000000000E+00  0.00000000000E+00  0.45593999997E+02  0.45594000000E+02  0.51100000000E-03 0.  1.
         11   -1    0    0    0    0 -0.00000000000E+00 -0.00000000000E+00 -0.45593999997E+02  0.45594000000E+02  0.51100000000E-03 0. -1.
    9900012    2    1    2    0    0  0.33355172293E+02 -0.22772894570E+02 -0.46897498620E+01  0.50528855892E+02  0.29999987971E+02 0.  0.
         12    1    1    2    0    0 -0.33355172293E+02  0.22772894570E+02  0.46897498620E+01  0.40659144108E+02  0.00000000000E+00 0. -1.
         11    1    3    3    0    0  0.18134594016E-01 -0.88194480641E+01  0.39645882797E+01  0.96695891075E+01  0.51100000000E-03 0. -1.
        -11    1    3    3    0    0  0.17448221705E+02 -0.15711195115E+02 -0.20695186002E+01  0.23570426388E+02  0.51100000000E-03 0.  1.
        -12    1    3    3    0    0  0.15888815994E+02  0.17577486098E+01 -0.65848195415E+01  0.17288840397E+02  0.00000000000E+00 0.  1.
</event>
<event>
 7    1  0.4871930E-013  0.5052887E+02  0.7816164E-02  0.1300439E+00
        -11   -1    0    0    0    0  0.00000000000E+00  0.00000000000E+00  0.45593999997E+02  0.45594000000E+02  0.51100000000E-03 0.  1.
         11   -1    0    0    0    0 -0.00000000000E+00 -0.00000000000E+00 -0.45593999997E+02  0.45594000000E+02  0.51100000000E-03 0. -1.
    9900012    2    1    2    0    0 -0.25728311746E+02  0.24219449723E+02  0.20115588442E+02  0.50528872260E+02  0.30000037723E+02 0.  0.
         12    1    1    2    0    0  0.25728311746E+02 -0.24219449723E+02 -0.20115588442E+02  0.40659127740E+02  0.00000000000E+00 0. -1.
         11    1    3    3    0    0 -0.17827340899E+01 -0.24053132165E+01 -0.88530956687E+00  0.31220899723E+01  0.51100000000E-03 0. -1.
        -11    1    3    3    0    0 -0.33165855313E+01  0.67426058717E+01  0.16859806021E+02  0.18458481326E+02  0.51100000000E-03 0.  1.
         12    1    3    3    0    0 -0.20628992125E+02  0.19882157067E+02  0.41410919878E+01  0.28948300962E+02  0.00000000000E+00 0. -1.
</event>
<event>
 7    1  0.4871930E-013  0.5052886E+02  0.7816164E-02  0.1300439E+00
        -11   -1    0    0    0    0  0.00000000000E+00  0.00000000000E+00  0.45593999997E+02  0.45594000000E+02  0.51100000000E-03 0.  1.
         11   -1    0    0    0    0 -0.00000000000E+00 -0.00000000000E+00 -0.45593999997E+02  0.45594000000E+02  0.51100000000E-03 0. -1.
    9900012    2    1    2    0    0 -0.10357063928E+02  0.30382520058E+02  0.24955956114E+02  0.50528855348E+02  0.29999986316E+02 0.  0.
         12    1    1    2    0    0  0.10357063928E+02 -0.30382520058E+02 -0.24955956114E+02  0.40659144652E+02  0.00000000000E+00 0. -1.
         11    1    3    3    0    0  0.24741156671E-01  0.22074204615E+02  0.16852238733E+01  0.22138453001E+02  0.51100000000E-03 0. -1.
        -11    1    3    3    0    0 -0.55847039459E+01  0.56276669069E+01  0.51486899670E+01  0.94534946774E+01  0.51100000000E-03 0.  1.
        -12    1    3    3    0    0 -0.47971011392E+01  0.26806485354E+01  0.18122042273E+02  0.18936907669E+02  0.00000000000E+00 0.  1.
</event>
<event>
 7    1  0.4871930E-013  0.5052885E+02  0.7816164E-02  0.1300439E+00
        -11   -1    0    0    0    0  0.00000000000E+00  0.00000000000E+00  0.45593999997E+02  0.45594000000E+02  0.51100000000E-03 0.  1.
         11   -1    0    0    0    0 -0.00000000000E+00 -0.00000000000E+00 -0.45593999997E+02  0.45594000000E+02  0.51100000000E-03 0. -1.
    9900012    2    1    2    0    0 -0.14161503101E+02 -0.53437064185E+01  0.37736755720E+02  0.50528854650E+02  0.29999984193E+02 0.  0.
         12    1    1    2    0    0  0.14161503101E+02  0.53437064185E+01 -0.37736755720E+02  0.40659145350E+02  0.00000000000E+00 0. -1.
         11    1    3    3    0    0 -0.47871713098E+01  0.12523542506E+01 -0.20688666590E+01  0.53633580742E+01  0.51100000000E-03 0. -1.
        -11    1    3    3    0    0 -0.91030265268E+01 -0.58474240651E+01  0.82653971280E+01  0.13615221265E+02  0.51100000000E-03 0.  1.
        -12    1    3    3    0    0 -0.27130526392E+00 -0.74863660396E+00  0.31540225251E+02  0.31550275311E+02  0.00000000000E+00 0.  1.
</event>
<event>
 7    1  0.4871930E-013  0.5052886E+02  0.7816164E-02  0.1300439E+00
        -11   -1    0    0    0    0  0.00000000000E+00  0.00000000000E+00  0.45593999997E+02  0.45594000000E+02  0.51100000000E-03 0.  1.
         11   -1    0    0    0    0 -0.00000000000E+00 -0.00000000000E+00 -0.45593999997E+02  0.45594000000E+02  0.51100000000E-03 0. -1.
    9900012    2    1    2    0    0 -0.30946910045E+02  0.25968361401E+02  0.45933028081E+01  0.50528862455E+02  0.30000007919E+02 0.  0.
         12    1    1    2    0    0  0.30946910045E+02 -0.25968361401E+02 -0.45933028081E+01  0.40659137545E+02  0.00000000000E+00 0. -1.
         11    1    3    3    0    0 -0.16767928752E+01  0.66797119706E+01 -0.11392875681E+01  0.69805560510E+01  0.51100000000E-03 0. -1.
        -11    1    3    3    0    0 -0.21728037908E+02  0.21990389581E+02  0.12217881847E+02  0.33240961213E+02  0.51100000000E-03 0.  1.
         12    1    3    3    0    0 -0.75420792620E+01 -0.27017401507E+01 -0.64852914711E+01  0.10307345192E+02  0.00000000000E+00 0. -1.
</event>
<event>
 7    1  0.4871930E-013  0.5052885E+02  0.7816164E-02  0.1300439E+00
        -11   -1    0    0    0    0  0.00000000000E+00  0.00000000000E+00  0.45593999997E+02  0.45594000000E+02  0.51100000000E-03 0.  1.
         11   -1    0    0    0    0 -0.00000000000E+00 -0.00000000000E+00 -0.45593999997E+02  0.45594000000E+02  0.51100000000E-03 0. -1.
    9900012    2    1    2    0    0 -0.20372552931E+02 -0.10090950666E+02  0.33709019348E+02  0.50528853628E+02  0.29999981089E+02 0.  0.
         12    1    1    2    0    0  0.20372552931E+02  0.10090950666E+02 -0.33709019348E+02  0.40659146372E+02  0.00000000000E+00 0. -1.
         11    1    3    3    0    0 -0.18949515392E+01 -0.26794835242E+01  0.10969947635E+02  0.11450337316E+02  0.51100000000E-03 0. -1.
        -11    1    3    3    0    0 -0.90303143457E+01 -0.15167120156E+02  0.66271901654E+01  0.18854913438E+02  0.51100000000E-03 0.  1.
        -12    1    3    3    0    0 -0.94472870460E+01  0.77556530134E+01  0.16111881548E+02  0.20223602874E+02  0.00000000000E+00 0.  1.
</event>
<event>
 7    1  0.4871930E-013  0.5052886E+02  0.7816164E-02  0.1300439E+00
        -11   -1    0    0    0    0  0.00000000000E+00  0.00000000000E+00  0.45593999997E+02  0.45594000000E+02  0.51100000000E-03 0. -1.
         11   -1    0    0    0    0 -0.00000000000E+00 -0.00000000000E+00 -0.45593999997E+02  0.45594000000E+02  0.51100000000E-03 0.  1.
    9900012    2    1    2    0    0  0.17280646956E+02 -0.35844072807E+02 -0.83514948567E+01  0.50528858581E+02  0.29999996143E+02 0.  0.
         12    1    1    2    0    0 -0.17280646956E+02  0.35844072807E+02  0.83514948567E+01  0.40659141419E+02  0.00000000000E+00 0. -1.
         11    1    3    3    0    0  0.58202331868E+01 -0.17039178342E+01 -0.46679619931E+01  0.76529941699E+01  0.51100000000E-03 0. -1.
        -11    1    3    3    0    0  0.71295000782E+01 -0.21484990850E+02 -0.13434317310E+02  0.26323287884E+02  0.51100000000E-03 0.  1.
         12    1    3    3    0    0  0.43309136912E+01 -0.12655164122E+02  0.97507844461E+01  0.16552576527E+02  0.00000000000E+00 0. -1.
</event>
<event>
 7    1  0.4871930E-013  0.5052885E+02  0.7816164E-02  0.1300439E+00
        -11   -1    0    0    0    0  0.00000000000E+00  0.00000000000E+00  0.45593999997E+02  0.45594000000E+02  0.51100000000E-03 0.  1.
         11   -1    0    0    0    0 -0.00000000000E+00 -0.00000000000E+00 -0.45593999997E+02  0.45594000000E+02  0.51100000000E-03 0. -1.
    9900012    2    1    2    0    0 -0.36949200030E+01  0.85987295912E+01  0.39567356381E+02  0.50528852500E+02  0.29999977659E+02 0.  0.
         12    1    1    2    0    0  0.36949200030E+01 -0.85987295912E+01 -0.39567356381E+02  0.40659147500E+02  0.00000000000E+00 0. -1.
         11    1    3    3    0    0  0.21802731558E+01  0.64579201098E+01  0.13734593353E+01  0.69530363141E+01  0.51100000000E-03 0. -1.
        -11    1    3    3    0    0 -0.12569107346E+02  0.17534761284E-01  0.16300583335E+02  0.20583774781E+02  0.51100000000E-03 0.  1.
         12    1    3    3    0    0  0.66939141870E+01  0.21232747201E+01  0.21893313711E+02  0.22992041405E+02  0.00000000000E+00 0. -1.
</event>
<event>
 7    1  0.4871930E-013  0.5052886E+02  0.7816164E-02  0.1300439E+00
        -11   -1    0    0    0    0  0.00000000000E+00  0.00000000000E+00  0.45593999997E+02  0.45594000000E+02  0.51100000000E-03 0.  1.
         11   -1    0    0    0    0 -0.00000000000E+00 -0.00000000000E+00 -0.45593999997E+02  0.45594000000E+02  0.51100000000E-03 0. -1.
    9900012    2    1    2    0    0  0.32608678763E+02  0.23938911124E+02  0.40948605967E+01  0.50528864744E+02  0.30000014876E+02 0.  0.
         12    1    1    2    0    0 -0.32608678763E+02 -0.23938911124E+02 -0.40948605967E+01  0.40659135256E+02  0.00000000000E+00 0. -1.
         11    1    3    3    0    0 -0.12588892738E+01  0.11168524576E+02  0.42891807386E+01  0.12029871781E+02  0.51100000000E-03 0. -1.
        -11    1    3    3    0    0  0.92112456145E+01  0.72383583244E+01  0.49390008329E+01  0.12713559946E+02  0.51100000000E-03 0.  1.
         12    1    3    3    0    0  0.24656322422E+02  0.55320282234E+01 -0.51333209748E+01  0.25785433017E+02  0.00000000000E+00 0. -1.
</event>
<event>
 7    1  0.4871930E-013  0.5052886E+02  0.7816164E-02  0.1300439E+00
        -11   -1    0    0    0    0  0.00000000000E+00  0.00000000000E+00  0.45593999997E+02  0.45594000000E+02  0.51100000000E-03 0. -1.
         11   -1    0    0    0    0 -0.00000000000E+00 -0.00000000000E+00 -0.45593999997E+02  0.45594000000E+02  0.51100000000E-03 0.  1.
    9900012    2    1    2    0    0 -0.22084107867E+02  0.16635911996E+02 -0.29811138691E+02  0.50528863533E+02  0.30000011194E+02 0.  0.
         12    1    1    2    0    0  0.22084107867E+02 -0.16635911996E+02  0.29811138691E+02  0.40659136467E+02  0.00000000000E+00 0. -1.
         11    1    3    3    0    0 -0.16669436470E+01  0.78004317961E+01 -0.10243853599E+00  0.79772132504E+01  0.51100000000E-03 0. -1.
        -11    1    3    3    0    0 -0.12637960271E+02  0.38831787468E+01 -0.20285932040E+01  0.13375810541E+02  0.51100000000E-03 0.  1.
         12    1    3    3    0    0 -0.77792039492E+01  0.49523014529E+01 -0.27680106951E+02  0.29175839741E+02  0.00000000000E+00 0. -1.
</event>
<event>
 7    1  0.4871930E-013  0.5052886E+02  0.7816164E-02  0.1300439E+00
        -11   -1    0    0    0    0  0.00000000000E+00  0.00000000000E+00  0.45593999997E+02  0.45594000000E+02  0.51100000000E-03 0.  1.
         11   -1    0    0    0    0 -0.00000000000E+00 -0.00000000000E+00 -0.45593999997E+02  0.45594000000E+02  0.51100000000E-03 0. -1.
    9900012    2    1    2    0    0 -0.28408615547E+02  0.11189786204E+02  0.26849676715E+02  0.50528857211E+02  0.29999991979E+02 0.  0.
         12    1    1    2    0    0  0.28408615547E+02 -0.11189786204E+02 -0.26849676715E+02  0.40659142789E+02  0.00000000000E+00 0. -1.
         11    1    3    3    0    0 -0.13186922729E+02 -0.61973985368E+01  0.14009613050E+02  0.20213162488E+02  0.51100000000E-03 0. -1.
        -11    1    3    3    0    0 -0.16248417134E+02  0.11299414883E+02  0.13717046004E+02  0.24079974821E+02  0.51100000000E-03 0.  1.
         12    1    3    3    0    0  0.10267243167E+01  0.60877698585E+01 -0.87698233835E+00  0.62357199019E+01  0.00000000000E+00 0. -1.
</event>
<event>
 7    1  0.4871930E-013  0.5052885E+02  0.7816164E-02  0.1300439E+00
        -11   -1    0    0    0    0  0.00000000000E+00  0.00000000000E+00  0.45593999997E+02  0.45594000000E+02  0.51100000000E-03 0. -1.
         11   -1    0    0    0    0 -0.00000000000E+00 -0.00000000000E+00 -0.45593999997E+02  0.45594000000E+02  0.51100000000E-03 0.  1.
    9900012    2    1    2    0    0 -0.20293273064E+02 -0.13653850838E+02 -0.32479557167E+02  0.50528853328E+02  0.29999980175E+02 0.  0.
         12    1    1    2    0    0  0.20293273064E+02  0.13653850838E+02  0.32479557167E+02  0.40659146672E+02  0.00000000000E+00 0. -1.
         11    1    3    3    0    0 -0.42519771038E+01  0.91756294191E+01 -0.58376802569E+01  0.11676900084E+02  0.51100000000E-03 0. -1.
        -11    1    3    3    0    0 -0.36427963924E+01 -0.26134496016E+01 -0.32155279864E+01  0.55172189434E+01  0.51100000000E-03 0.  1.
        -12    1    3    3    0    0 -0.12398499568E+02 -0.20216030655E+02 -0.23426348924E+02  0.33334734300E+02  0.00000000000E+00 0.  1.
</event>
<event>
 7    1  0.4871930E-013  0.5052885E+02  0.7816164E-02  0.1300439E+00
        -11   -1    0    0    0    0  0.00000000000E+00  0.00000000000E+00  0.45593999997E+02  0.45594000000E+02  0.51100000000E-03 0. -1.
         11   -1    0    0    0    0 -0.00000000000E+00 -0.00000000000E+00 -0.45593999997E+02  0.45594000000E+02  0.51100000000E-03 0.  1.
    9900012    2    1    2    0    0  0.28918585828E+02 -0.25705850435E+02 -0.12493633050E+02  0.50528853186E+02  0.29999979744E+02 0.  0.
         12    1    1    2    0    0 -0.28918585828E+02  0.25705850435E+02  0.12493633050E+02  0.40659146814E+02  0.00000000000E+00 0. -1.
         11    1    3    3    0    0 -0.20715770825E+01 -0.94338683342E+01 -0.60882226689E+01  0.11417344651E+02  0.51100000000E-03 0. -1.
        -11    1    3    3    0    0  0.11412396966E+02 -0.14829020554E+02 -0.53061680709E+01  0.19449886245E+02  0.51100000000E-03 0.  1.
         12    1    3    3    0    0  0.19577765944E+02 -0.14429615466E+01 -0.10992423100E+01  0.19661622289E+02  0.00000000000E+00 0. -1.
</event>
<event>
 7    1  0.4871930E-013  0.5052886E+02  0.7816164E-02  0.1300439E+00
        -11   -1    0    0    0    0  0.00000000000E+00  0.00000000000E+00  0.45593999997E+02  0.45594000000E+02  0.51100000000E-03 0.  1.
         11   -1    0    0    0    0 -0.00000000000E+00 -0.00000000000E+00 -0.45593999997E+02  0.45594000000E+02  0.51100000000E-03 0. -1.
    9900012    2    1    2    0    0 -0.29603148833E+02 -0.18289342466E+02  0.21031389734E+02  0.50528858066E+02  0.29999994578E+02 0.  0.
         12    1    1    2    0    0  0.29603148833E+02  0.18289342466E+02 -0.21031389734E+02  0.40659141934E+02  0.00000000000E+00 0. -1.
         11    1    3    3    0    0  0.41596877628E-01  0.25869665137E+01 -0.17878212309E+01  0.31449055722E+01  0.51100000000E-03 0. -1.
        -11    1    3    3    0    0 -0.77400105752E+00 -0.54371742909E+01  0.11497704287E+02  0.12742022839E+02  0.51100000000E-03 0.  1.
        -12    1    3    3    0    0 -0.28870744653E+02 -0.15439134689E+02  0.11321506678E+02  0.34641929655E+02  0.00000000000E+00 0.  1.
</event>
<event>
 7    1  0.4871930E-013  0.5052886E+02  0.7816164E-02  0.1300439E+00
        -11   -1    0    0    0    0  0.00000000000E+00  0.00000000000E+00  0.45593999997E+02  0.45594000000E+02  0.51100000000E-03 0.  1.
         11   -1    0    0    0    0 -0.00000000000E+00 -0.00000000000E+00 -0.45593999997E+02  0.45594000000E+02  0.51100000000E-03 0. -1.
    9900012    2    1    2    0    0  0.20252565161E+02  0.34391795606E+02  0.77591042452E+01  0.50528859585E+02  0.29999999194E+02 0.  0.
         12    1    1    2    0    0 -0.20252565161E+02 -0.34391795606E+02 -0.77591042452E+01  0.40659140415E+02  0.00000000000E+00 0. -1.
         11    1    3    3    0    0  0.71736666448E+01  0.46088436015E+01 -0.71764602804E+01  0.11144707932E+02  0.51100000000E-03 0. -1.
        -11    1    3    3    0    0  0.89233643139E+01  0.32142384762E+01  0.49475308032E+01  0.10697467970E+02  0.51100000000E-03 0.  1.
         12    1    3    3    0    0  0.41555342020E+01  0.26568713529E+02  0.99880337224E+01  0.28686683683E+02  0.00000000000E+00 0. -1.
</event>
<event>
 7    1  0.4871930E-013  0.5052886E+02  0.7816164E-02  0.1300439E+00
        -11   -1    0    0    0    0  0.00000000000E+00  0.00000000000E+00  0.45593999997E+02  0.45594000000E+02  0.51100000000E-03 0. -1.
         11   -1    0    0    0    0 -0.00000000000E+00 -0.00000000000E+00 -0.45593999997E+02  0.45594000000E+02  0.51100000000E-03 0.  1.
    9900012    2    1    2    0    0  0.38956464573E+02 -0.64102863667E+01  0.97194657254E+01  0.50528856904E+02  0.29999991045E+02 0.  0.
         12    1    1    2    0    0 -0.38956464573E+02  0.64102863667E+01 -0.97194657254E+01  0.40659143096E+02  0.00000000000E+00 0. -1.
         11    1    3    3    0    0 -0.11984527839E+01  0.49451862227E+01 -0.33708429966E+01  0.61035840800E+01  0.51100000000E-03 0. -1.
        -11    1    3    3    0    0  0.23138650099E+02 -0.57776592109E+01  0.34779923666E+01  0.24101346550E+02  0.51100000000E-03 0.  1.
        -12    1    3    3    0    0  0.17016267257E+02 -0.55778133785E+01  0.96123163555E+01  0.20323926274E+02  0.00000000000E+00 0.  1.
</event>
<event>
 7    1  0.4871930E-013  0.5052885E+02  0.7816164E-02  0.1300439E+00
        -11   -1    0    0    0    0  0.00000000000E+00  0.00000000000E+00  0.45593999997E+02  0.45594000000E+02  0.51100000000E-03 0.  1.
         11   -1    0    0    0    0 -0.00000000000E+00 -0.00000000000E+00 -0.45593999997E+02  0.45594000000E+02  0.51100000000E-03 0. -1.
    9900012    2    1    2    0    0  0.13062337269E+02 -0.33976686698E+02  0.18114254307E+02  0.50528854620E+02  0.29999984103E+02 0.  0.
         12    1    1    2    0    0 -0.13062337269E+02  0.33976686698E+02 -0.18114254307E+02  0.40659145380E+02  0.00000000000E+00 0. -1.
         11    1    3    3    0    0  0.10719623721E+02 -0.17382553042E+02 -0.42962710812E+00  0.20426650795E+02  0.51100000000E-03 0. -1.
        -11    1    3    3    0    0  0.56148233704E+01  0.38825950919E+00  0.15094942768E+01  0.58271399640E+01  0.51100000000E-03 0.  1.
        -12    1    3    3    0    0 -0.32721098218E+01 -0.16982393165E+02  0.17034387138E+02  0.24275063861E+02  0.00000000000E+00 0.  1.
</event>
<event>
 7    1  0.4871930E-013  0.5052887E+02  0.7816164E-02  0.1300439E+00
        -11   -1    0    0    0    0  0.00000000000E+00  0.00000000000E+00  0.45593999997E+02  0.45594000000E+02  0.51100000000E-03 0. -1.
         11   -1    0    0    0    0 -0.00000000000E+00 -0.00000000000E+00 -0.45593999997E+02  0.45594000000E+02  0.51100000000E-03 0.  1.
    9900012    2    1    2    0    0  0.12914644931E+02  0.35465741919E+02 -0.15118141785E+02  0.50528866775E+02  0.30000021051E+02 0.  0.
         12    1    1    2    0    0 -0.12914644931E+02 -0.35465741919E+02  0.15118141785E+02  0.40659133225E+02  0.00000000000E+00 0. -1.
         11    1    3    3    0    0  0.31140267708E+01  0.31267822958E+02 -0.88131069241E+01  0.32635023658E+02  0.51100000000E-03 0. -1.
        -11    1    3    3    0    0 -0.10172452778E+01  0.31739850946E+01 -0.61862324479E+01  0.70269795429E+01  0.51100000000E-03 0.  1.
         12    1    3    3    0    0  0.10817863438E+02  0.10239338667E+01 -0.11880241262E+00  0.10866863575E+02  0.00000000000E+00 0. -1.
</event>
<event>
 7    1  0.4871930E-013  0.5052886E+02  0.7816164E-02  0.1300439E+00
        -11   -1    0    0    0    0  0.00000000000E+00  0.00000000000E+00  0.45593999997E+02  0.45594000000E+02  0.51100000000E-03 0.  1.
         11   -1    0    0    0    0 -0.00000000000E+00 -0.00000000000E+00 -0.45593999997E+02  0.45594000000E+02  0.51100000000E-03 0. -1.
    9900012    2    1    2    0    0  0.13054262322E+02 -0.10566274207E+02  0.37028443587E+02  0.50528861422E+02  0.30000004778E+02 0.  0.
         12    1    1    2    0    0 -0.13054262322E+02  0.10566274207E+02 -0.37028443587E+02  0.40659138578E+02  0.00000000000E+00 0. -1.
         11    1    3    3    0    0  0.25951439928E+01 -0.20099473635E+01 -0.21470066257E+01  0.39222823024E+01  0.51100000000E-03 0. -1.
        -11    1    3    3    0    0  0.12803392768E+02  0.19413437326E+01  0.13196886851E+02  0.18489280805E+02  0.51100000000E-03 0.  1.
        -12    1    3    3    0    0 -0.23442744385E+01 -0.10497670576E+02  0.25978563362E+02  0.28117298315E+02  0.00000000000E+00 0.  1.
</event>
<event>
 7    1  0.4871930E-013  0.5052886E+02  0.7816164E-02  0.1300439E+00
        -11   -1    0    0    0    0  0.00000000000E+00  0.00000000000E+00  0.45593999997E+02  0.45594000000E+02  0.51100000000E-03 0. -1.
         11   -1    0    0    0    0 -0.00000000000E+00 -0.00000000000E+00 -0.45593999997E+02  0.45594000000E+02  0.51100000000E-03 0.  1.
    9900012    2    1    2    0    0  0.27371135271E+02 -0.29776273413E+02 -0.41665665362E+01  0.50528858579E+02  0.29999996137E+02 0.  0.
         12    1    1    2    0    0 -0.27371135271E+02  0.29776273413E+02  0.41665665362E+01  0.40659141421E+02  0.00000000000E+00 0. -1.
         11    1    3    3    0    0 -0.38853451532E+01 -0.26010843557E+00  0.28489288369E+01  0.48249309981E+01  0.51100000000E-03 0. -1.
        -11    1    3    3    0    0  0.10071450056E+02 -0.93625229134E+01  0.42133124894E+01  0.14382035459E+02  0.51100000000E-03 0.  1.
         12    1    3    3    0    0  0.21185030367E+02 -0.20153642064E+02 -0.11228807862E+02  0.31321892122E+02  0.00000000000E+00 0. -1.
</event>
<event>
 7    1  0.4871930E-013  0.5052887E+02  0.7816164E-02  0.1300439E+00
        -11   -1    0    0    0    0  0.00000000000E+00  0.00000000000E+00  0.45593999997E+02  0.45594000000E+02  0.51100000000E-03 0.  1.
         11   -1    0    0    0    0 -0.00000000000E+00 -0.00000000000E+00 -0.45593999997E+02  0.45594000000E+02  0.51100000000E-03 0. -1.
    9900012    2    1    2    0    0  0.14076213174E+02 -0.15216548132E+02  0.34978300026E+02  0.50528873262E+02  0.30000040767E+02 0.  0.
         12    1    1    2    0    0 -0.14076213174E+02  0.15216548132E+02 -0.34978300026E+02  0.40659126738E+02  0.00000000000E+00 0. -1.
         11    1    3    3    0    0  0.13956961784E+02 -0.54164422511E+01  0.23620091822E+02  0.27965038295E+02  0.51100000000E-03 0.  1.
        -11    1    3    3    0    0 -0.55339807305E+01  0.14637185811E+01  0.73966900474E+01  0.93529908975E+01  0.51100000000E-03 0. -1.
         12    1    3    3    0    0  0.56532321199E+01 -0.11263824462E+02  0.39615181565E+01  0.13210844069E+02  0.00000000000E+00 0. -1.
</event>
<event>
 7    1  0.4871930E-013  0.5052886E+02  0.7816164E-02  0.1300439E+00
        -11   -1    0    0    0    0  0.00000000000E+00  0.00000000000E+00  0.45593999997E+02  0.45594000000E+02  0.51100000000E-03 0.  1.
         11   -1    0    0    0    0 -0.00000000000E+00 -0.00000000000E+00 -0.45593999997E+02  0.45594000000E+02  0.51100000000E-03 0. -1.
    9900012    2    1    2    0    0 -0.18135067713E+02  0.17146417479E+02  0.32098064270E+02  0.50528855356E+02  0.29999986340E+02 0.  0.
         12    1    1    2    0    0  0.18135067713E+02 -0.17146417479E+02 -0.32098064270E+02  0.40659144644E+02  0.00000000000E+00 0. -1.
         11    1    3    3    0    0 -0.10929693310E+02  0.77890691406E+01 -0.91631084473E+00  0.13452413157E+02  0.51100000000E-03 0. -1.
        -11    1    3    3    0    0 -0.55740949360E+01 -0.92769734266E+00  0.66301520720E+01  0.87114908870E+01  0.51100000000E-03 0.  1.
        -12    1    3    3    0    0 -0.16312794670E+01  0.10285045681E+02  0.26384223043E+02  0.28364951312E+02  0.00000000000E+00 0.  1.
</event>
<event>
 7    1  0.4871930E-013  0.5052887E+02  0.7816164E-02  0.1300439E+00
        -11   -1    0    0    0    0  0.00000000000E+00  0.00000000000E+00  0.45593999997E+02  0.45594000000E+02  0.51100000000E-03 0.  1.
         11   -1    0    0    0    0 -0.00000000000E+00 -0.00000000000E+00 -0.45593999997E+02  0.45594000000E+02  0.51100000000E-03 0. -1.
    9900012    2    1    2    0    0  0.34637169514E+02 -0.84434061927E+00  0.21277190079E+02  0.50528865225E+02  0.30000016337E+02 0.  0.
         12    1    1    2    0    0 -0.34637169514E+02  0.84434061927E+00 -0.21277190079E+02  0.40659134775E+02  0.00000000000E+00 0. -1.
         11    1    3    3    0    0  0.95873790455E+01  0.60604633459E+01 -0.20117736749E+01  0.11519300609E+02  0.51100000000E-03 0. -1.
        -11    1    3    3    0    0  0.26623869038E+02 -0.81990163807E+01  0.17563393257E+02  0.32932158374E+02  0.51100000000E-03 0.  1.
         12    1    3    3    0    0 -0.15740785702E+01  0.12942124155E+01  0.57255704969E+01  0.60774062425E+01  0.00000000000E+00 0. -1.
</event>
<event>
 7    1  0.4871930E-013  0.5052885E+02  0.7816164E-02  0.1300439E+00
        -11   -1    0    0    0    0  0.00000000000E+00  0.00000000000E+00  0.45593999997E+02  0.45594000000E+02  0.51100000000E-03 0.  1.
         11   -1    0    0    0    0 -0.00000000000E+00 -0.00000000000E+00 -0.45593999997E+02  0.45594000000E+02  0.51100000000E-03 0. -1.
    9900012    2    1    2    0    0 -0.37211410380E+02 -0.17392723392E+01  0.16292709319E+02  0.50528849643E+02  0.29999968975E+02 0.  0.
         12    1    1    2    0    0  0.37211410380E+02  0.17392723392E+01 -0.16292709319E+02  0.40659150357E+02  0.00000000000E+00 0. -1.
         11    1    3    3    0    0 -0.14349632215E+02 -0.35879223130E+01  0.69664083105E+00  0.14807783086E+02  0.51100000000E-03 0.  1.
        -11    1    3    3    0    0  0.13965561821E+01 -0.50955792843E+01 -0.11888297900E+01  0.54155898979E+01  0.51100000000E-03 0. -1.
        -12    1    3    3    0    0 -0.24258334348E+02  0.69442292580E+01  0.16784898278E+02  0.30305476659E+02  0.00000000000E+00 0.  1.
</event>
<event>
 7    1  0.4871930E-013  0.5052885E+02  0.7816164E-02  0.1300439E+00
        -11   -1    0    0    0    0  0.00000000000E+00  0.00000000000E+00  0.45593999997E+02  0.45594000000E+02  0.51100000000E-03 0.  1.
         11   -1    0    0    0    0 -0.00000000000E+00 -0.00000000000E+00 -0.45593999997E+02  0.45594000000E+02  0.51100000000E-03 0. -1.
    9900012    2    1    2    0    0 -0.52857120834E+01 -0.16079335614E+02  0.36968669073E+02  0.50528852456E+02  0.29999977525E+02 0.  0.
         12    1    1    2    0    0  0.52857120834E+01  0.16079335614E+02 -0.36968669073E+02  0.40659147544E+02  0.00000000000E+00 0. -1.
         11    1    3    3    0    0  0.17780674829E-01 -0.85582983330E+01  0.33992697866E+02  0.35053506172E+02  0.51100000000E-03 0. -1.
        -11    1    3    3    0    0 -0.32472991285E+01 -0.19288623576E+01  0.72281165015E+01  0.81554356134E+01  0.51100000000E-03 0.  1.
         12    1    3    3    0    0 -0.20561936297E+01 -0.55921749230E+01 -0.42521452947E+01  0.73199106702E+01  0.00000000000E+00 0. -1.
</event>
<event>
 7    1  0.4871930E-013  0.5052890E+02  0.7816164E-02  0.1300439E+00
        -11   -1    0    0    0    0  0.00000000000E+00  0.00000000000E+00  0.45593999997E+02  0.45594000000E+02  0.51100000000E-03 0.  1.
         11   -1    0    0    0    0 -0.00000000000E+00 -0.00000000000E+00 -0.45593999997E+02  0.45594000000E+02  0.51100000000E-03 0. -1.
    9900012    2    1    2    0    0  0.11713394659E+02  0.19504953227E+02  0.33697414092E+02  0.50528898543E+02  0.30000117611E+02 0.  0.
         12    1    1    2    0    0 -0.11713394659E+02 -0.19504953227E+02 -0.33697414092E+02  0.40659101457E+02  0.00000000000E+00 0. -1.
         11    1    3    3    0    0  0.22669033375E+01  0.55635238787E+01  0.15768081015E+02  0.16873767446E+02  0.51100000000E-03 0. -1.
        -11    1    3    3    0    0  0.67290729104E+01 -0.46023838976E+01  0.10959632490E+02  0.13659279056E+02  0.51100000000E-03 0.  1.
         12    1    3    3    0    0  0.27174184111E+01  0.18543813246E+02  0.69697005875E+01  0.19995852040E+02  0.00000000000E+00 0. -1.
</event>
<event>
 7    1  0.4871930E-013  0.5052884E+02  0.7816164E-02  0.1300439E+00
        -11   -1    0    0    0    0  0.00000000000E+00  0.00000000000E+00  0.45593999997E+02  0.45594000000E+02  0.51100000000E-03 0.  1.
         11   -1    0    0    0    0 -0.00000000000E+00 -0.00000000000E+00 -0.45593999997E+02  0.45594000000E+02  0.51100000000E-03 0. -1.
    9900012    2    1    2    0    0  0.24544047074E+02 -0.17114939634E+02  0.27528822108E+02  0.50528838030E+02  0.29999933675E+02 0.  0.
         12    1    1    2    0    0 -0.24544047074E+02  0.17114939634E+02 -0.27528822108E+02  0.40659161970E+02  0.00000000000E+00 0. -1.
         11    1    3    3    0    0  0.16629970739E+02 -0.17386105972E+02  0.23515174580E+02  0.33642176556E+02  0.51100000000E-03 0. -1.
        -11    1    3    3    0    0  0.96663147865E+01 -0.48248024672E+01  0.13883441536E+01  0.10892376240E+02  0.51100000000E-03 0.  1.
         12    1    3    3    0    0 -0.17522384511E+01  0.50959688053E+01  0.26253033752E+01  0.59942852340E+01  0.00000000000E+00 0. -1.
</event>
<event>
 7    1  0.4871930E-013  0.5052886E+02  0.7816164E-02  0.1300439E+00
        -11   -1    0    0    0    0  0.00000000000E+00  0.00000000000E+00  0.45593999997E+02  0.45594000000E+02  0.51100000000E-03 0. -1.
         11   -1    0    0    0    0 -0.00000000000E+00 -0.00000000000E+00 -0.45593999997E+02  0.45594000000E+02  0.51100000000E-03 0.  1.
    9900012    2    1    2    0    0  0.21954621208E+02  0.24017853749E+02 -0.24378325676E+02  0.50528862603E+02  0.30000008369E+02 0.  0.
         12    1    1    2    0    0 -0.21954621208E+02 -0.24017853749E+02  0.24378325676E+02  0.40659137397E+02  0.00000000000E+00 0. -1.
         11    1    3    3    0    0  0.67389195289E+01 -0.71552999278E+00  0.26819302381E+01  0.72881938538E+01  0.51100000000E-03 0. -1.
        -11    1    3    3    0    0  0.14958260089E+02  0.94622981804E+01 -0.19015254914E+02  0.25978155275E+02  0.51100000000E-03 0.  1.
        -12    1    3    3    0    0  0.25744158959E+00  0.15271085561E+02 -0.80450009995E+01  0.17262513475E+02  0.00000000000E+00 0.  1.
</event>
<event>
 7    1  0.4871930E-013  0.5052886E+02  0.7816164E-02  0.1300439E+00
        -11   -1    0    0    0    0  0.00000000000E+00  0.00000000000E+00  0.45593999997E+02  0.45594000000E+02  0.51100000000E-03 0. -1.
         11   -1    0    0    0    0 -0.00000000000E+00 -0.00000000000E+00 -0.45593999997E+02  0.45594000000E+02  0.51100000000E-03 0.  1.
    9900012    2    1    2    0    0 -0.29070705243E+02  0.15944403591E+02 -0.23533711316E+02  0.50528862313E+02  0.30000007487E+02 0.  0.
         12    1    1    2    0    0  0.29070705243E+02 -0.15944403591E+02  0.23533711316E+02  0.40659137687E+02  0.00000000000E+00 0. -1.
         11    1    3    3    0    0 -0.21655004933E-01  0.26126725899E+01  0.21676232256E+01  0.33948663759E+01  0.51100000000E-03 0. -1.
        -11    1    3    3    0    0 -0.13909925493E+02 -0.49282692087E+01 -0.47967007505E+01  0.15517158340E+02  0.51100000000E-03 0.  1.
        -12    1    3    3    0    0 -0.15139124745E+02  0.18260000210E+02 -0.20904633791E+02  0.31616837597E+02  0.00000000000E+00 0.  1.
</event>
<event>
 7    1  0.4871930E-013  0.5052885E+02  0.7816164E-02  0.1300439E+00
        -11   -1    0    0    0    0  0.00000000000E+00  0.00000000000E+00  0.45593999997E+02  0.45594000000E+02  0.51100000000E-03 0.  1.
         11   -1    0    0    0    0 -0.00000000000E+00 -0.00000000000E+00 -0.45593999997E+02  0.45594000000E+02  0.51100000000E-03 0. -1.
    9900012    2    1    2    0    0  0.27794601860E+02  0.29675165623E+02  0.10507225584E+00  0.50528851122E+02  0.29999973471E+02 0.  0.
         12    1    1    2    0    0 -0.27794601860E+02 -0.29675165623E+02 -0.10507225584E+00  0.40659148878E+02  0.00000000000E+00 0. -1.
         11    1    3    3    0    0  0.39870052720E+00  0.71585451891E+01 -0.98426805412E+00  0.72368857390E+01  0.51100000000E-03 0. -1.
        -11    1    3    3    0    0  0.43839647811E+01  0.14616889913E+02 -0.81092944600E+01  0.17281009080E+02  0.51100000000E-03 0.  1.
        -12    1    3    3    0    0  0.23011936552E+02  0.78997305207E+01  0.91986347699E+01  0.26010956303E+02  0.00000000000E+00 0.  1.
</event>
<event>
 7    1  0.4871930E-013  0.5052886E+02  0.7816164E-02  0.1300439E+00
        -11   -1    0    0    0    0  0.00000000000E+00  0.00000000000E+00  0.45593999997E+02  0.45594000000E+02  0.51100000000E-03 0. -1.
         11   -1    0    0    0    0 -0.00000000000E+00 -0.00000000000E+00 -0.45593999997E+02  0.45594000000E+02  0.51100000000E-03 0.  1.
    9900012    2    1    2    0    0  0.19297830656E+02  0.35669521144E+02  0.29059543449E+01  0.50528861085E+02  0.30000003753E+02 0.  0.
         12    1    1    2    0    0 -0.19297830656E+02 -0.35669521144E+02 -0.29059543449E+01  0.40659138915E+02  0.00000000000E+00 0. -1.
         11    1    3    3    0    0  0.25044696168E+01  0.21568506386E+02  0.93789235012E+01  0.23652421484E+02  0.51100000000E-03 0. -1.
        -11    1    3    3    0    0  0.54662782185E-01  0.35910247841E+01  0.32553798363E+01  0.48472616145E+01  0.51100000000E-03 0.  1.
        -12    1    3    3    0    0  0.16738698257E+02  0.10509989974E+02 -0.97283489926E+01  0.22029177986E+02  0.00000000000E+00 0.  1.
</event>
<event>
 7    1  0.4871930E-013  0.5052886E+02  0.7816164E-02  0.1300439E+00
        -11   -1    0    0    0    0  0.00000000000E+00  0.00000000000E+00  0.45593999997E+02  0.45594000000E+02  0.51100000000E-03 0.  1.
         11   -1    0    0    0    0 -0.00000000000E+00 -0.00000000000E+00 -0.45593999997E+02  0.45594000000E+02  0.51100000000E-03 0. -1.
    9900012    2    1    2    0    0  0.74115320410E+01 -0.28810830703E+02  0.27715893040E+02  0.50528862035E+02  0.30000006643E+02 0.  0.
         12    1    1    2    0    0 -0.74115320410E+01  0.28810830703E+02 -0.27715893040E+02  0.40659137965E+02  0.00000000000E+00 0. -1.
         11    1    3    3    0    0  0.11665737082E+02 -0.11078705290E+02  0.29956492307E+01  0.16364627925E+02  0.51100000000E-03 0. -1.
        -11    1    3    3    0    0  0.19881858464E+01 -0.13926142371E+02  0.86628821189E+01  0.16520770296E+02  0.51100000000E-03 0.  1.
        -12    1    3    3    0    0 -0.62423908870E+01 -0.38059830420E+01  0.16057361690E+02  0.17643463814E+02  0.00000000000E+00 0.  1.
</event>
<event>
 7    1  0.4871930E-013  0.5052884E+02  0.7816164E-02  0.1300439E+00
        -11   -1    0    0    0    0  0.00000000000E+00  0.00000000000E+00  0.45593999997E+02  0.45594000000E+02  0.51100000000E-03 0. -1.
         11   -1    0    0    0    0 -0.00000000000E+00 -0.00000000000E+00 -0.45593999997E+02  0.45594000000E+02  0.51100000000E-03 0.  1.
    9900012    2    1    2    0    0 -0.28718252341E+02  0.28780481600E+02  0.33628662064E+00  0.50528840794E+02  0.29999942077E+02 0.  0.
         12    1    1    2    0    0  0.28718252341E+02 -0.28780481600E+02 -0.33628662064E+00  0.40659159206E+02  0.00000000000E+00 0. -1.
         11    1    3    3    0    0 -0.36385607860E+01  0.76575153068E+01  0.40705144893E+01  0.94045602628E+01  0.51100000000E-03 0. -1.
        -11    1    3    3    0    0 -0.20253781960E+02  0.44764758292E+01  0.55364414970E+01  0.21468737835E+02  0.51100000000E-03 0.  1.
        -12    1    3    3    0    0 -0.48259095956E+01  0.16646490464E+02 -0.92706693657E+01  0.19655542696E+02  0.00000000000E+00 0.  1.
</event>
<event>
 7    1  0.4871930E-013  0.5052886E+02  0.7816164E-02  0.1300439E+00
        -11   -1    0    0    0    0  0.00000000000E+00  0.00000000000E+00  0.45593999997E+02  0.45594000000E+02  0.51100000000E-03 0. -1.
         11   -1    0    0    0    0 -0.00000000000E+00 -0.00000000000E+00 -0.45593999997E+02  0.45594000000E+02  0.51100000000E-03 0.  1.
    9900012    2    1    2    0    0  0.38220622763E+02  0.12858797511E+02  0.51962856575E+01  0.50528855119E+02  0.29999985620E+02 0.  0.
         12    1    1    2    0    0 -0.38220622763E+02 -0.12858797511E+02 -0.51962856575E+01  0.40659144881E+02  0.00000000000E+00 0. -1.
         11    1    3    3    0    0  0.12001959134E+02  0.51897224990E+01 -0.10866602077E+02  0.17001861181E+02  0.51100000000E-03 0. -1.
        -11    1    3    3    0    0  0.38902386698E+01 -0.27607972410E+01  0.29915032779E+01  0.56307237933E+01  0.51100000000E-03 0.  1.
         12    1    3    3    0    0  0.22328424959E+02  0.10429872253E+02  0.13071384456E+02  0.27896270144E+02  0.00000000000E+00 0. -1.
</event>
<event>
 7    1  0.4871930E-013  0.5052886E+02  0.7816164E-02  0.1300439E+00
        -11   -1    0    0    0    0  0.00000000000E+00  0.00000000000E+00  0.45593999997E+02  0.45594000000E+02  0.51100000000E-03 0. -1.
         11   -1    0    0    0    0 -0.00000000000E+00 -0.00000000000E+00 -0.45593999997E+02  0.45594000000E+02  0.51100000000E-03 0.  1.
    9900012    2    1    2    0    0  0.15682740067E+02  0.36609979756E+02  0.81808606619E+01  0.50528862837E+02  0.30000009078E+02 0.  0.
         12    1    1    2    0    0 -0.15682740067E+02 -0.36609979756E+02 -0.81808606619E+01  0.40659137163E+02  0.00000000000E+00 0. -1.
         11    1    3    3    0    0 -0.26889149014E+01  0.47251411839E+01 -0.27143408375E+01  0.60765836617E+01  0.51100000000E-03 0. -1.
        -11    1    3    3    0    0 -0.13628108339E+01  0.15461897890E+02  0.10564589595E+02  0.18775997798E+02  0.51100000000E-03 0.  1.
        -12    1    3    3    0    0  0.19734465802E+02  0.16422940681E+02  0.33061190472E+00  0.25676281377E+02  0.00000000000E+00 0.  1.
</event>
<event>
 7    1  0.4871930E-013  0.5052884E+02  0.7816164E-02  0.1300439E+00
        -11   -1    0    0    0    0  0.00000000000E+00  0.00000000000E+00  0.45593999997E+02  0.45594000000E+02  0.51100000000E-03 0.  1.
         11   -1    0    0    0    0 -0.00000000000E+00 -0.00000000000E+00 -0.45593999997E+02  0.45594000000E+02  0.51100000000E-03 0. -1.
    9900012    2    1    2    0    0 -0.45178449834E+01 -0.83624883639E+00  0.40398725847E+02  0.50528840079E+02  0.29999939904E+02 0.  0.
         12    1    1    2    0    0  0.45178449834E+01  0.83624883639E+00 -0.40398725847E+02  0.40659159921E+02  0.00000000000E+00 0. -1.
         11    1    3    3    0    0 -0.12685615081E+01  0.47857447756E+01  0.14382241171E+02  0.15210570756E+02  0.51100000000E-03 0. -1.
        -11    1    3    3    0    0 -0.86502496724E+01  0.27331326605E+01  0.23302300768E+02  0.25005880406E+02  0.51100000000E-03 0.  1.
         12    1    3    3    0    0  0.54009661970E+01 -0.83551262725E+01  0.27141839082E+01  0.10312388917E+02  0.00000000000E+00 0. -1.
</event>
<event>
 7    1  0.4871930E-013  0.5052885E+02  0.7816164E-02  0.1300439E+00
        -11   -1    0    0    0    0  0.00000000000E+00  0.00000000000E+00  0.45593999997E+02  0.45594000000E+02  0.51100000000E-03 0.  1.
         11   -1    0    0    0    0 -0.00000000000E+00 -0.00000000000E+00 -0.45593999997E+02  0.45594000000E+02  0.51100000000E-03 0. -1.
    9900012    2    1    2    0    0 -0.12780689231E+02 -0.16379922605E+02 -0.34950227335E+02  0.50528852536E+02  0.29999977769E+02 0.  0.
         12    1    1    2    0    0  0.12780689231E+02  0.16379922605E+02  0.34950227335E+02  0.40659147464E+02  0.00000000000E+00 0. -1.
         11    1    3    3    0    0  0.44756037772E+01 -0.65581931573E+01 -0.81547402671E+01  0.11381595483E+02  0.51100000000E-03 0. -1.
        -11    1    3    3    0    0 -0.76948591670E+01  0.26300913504E+01 -0.47153407283E-01  0.81320638103E+01  0.51100000000E-03 0.  1.
        -12    1    3    3    0    0 -0.95614338411E+01 -0.12451820798E+02 -0.26748333660E+02  0.31015193243E+02  0.00000000000E+00 0.  1.
</event>
<event>
 7    1  0.4871930E-013  0.5052886E+02  0.7816164E-02  0.1300439E+00
        -11   -1    0    0    0    0  0.00000000000E+00  0.00000000000E+00  0.45593999997E+02  0.45594000000E+02  0.51100000000E-03 0.  1.
         11   -1    0    0    0    0 -0.00000000000E+00 -0.00000000000E+00 -0.45593999997E+02  0.45594000000E+02  0.51100000000E-03 0. -1.
    9900012    2    1    2    0    0 -0.40136049196E+02 -0.57605835555E+01  0.30131407671E+01  0.50528858528E+02  0.29999995982E+02 0.  0.
         12    1    1    2    0    0  0.40136049196E+02  0.57605835555E+01 -0.30131407671E+01  0.40659141472E+02  0.00000000000E+00 0. -1.
         11    1    3    3    0    0 -0.45095291910E+01  0.57131563766E+01 -0.66748462482E+01  0.98757066586E+01  0.51100000000E-03 0. -1.
        -11    1    3    3    0    0  0.44444940750E+00  0.10697865851E+01  0.89585448215E+00  0.14644227968E+01  0.51100000000E-03 0.  1.
        -12    1    3    3    0    0 -0.36070969412E+02 -0.12543526517E+02  0.87921325331E+01  0.39188729073E+02  0.00000000000E+00 0.  1.
</event>
<event>
 7    1  0.4871930E-013  0.5052890E+02  0.7816164E-02  0.1300439E+00
        -11   -1    0    0    0    0  0.00000000000E+00  0.00000000000E+00  0.45593999997E+02  0.45594000000E+02  0.51100000000E-03 0. -1.
         11   -1    0    0    0    0 -0.00000000000E+00 -0.00000000000E+00 -0.45593999997E+02  0.45594000000E+02  0.51100000000E-03 0.  1.
    9900012    2    1    2    0    0  0.19236795180E+02  0.29371297053E+02  0.20504504743E+02  0.50528903920E+02  0.30000133953E+02 0.  0.
         12    1    1    2    0    0 -0.19236795180E+02 -0.29371297053E+02 -0.20504504743E+02  0.40659096080E+02  0.00000000000E+00 0. -1.
         11    1    3    3    0    0  0.12463574080E+00  0.24436574829E+02  0.13062451939E+02  0.27709012511E+02  0.51100000000E-03 0. -1.
        -11    1    3    3    0    0  0.10707171678E+02  0.56637655397E+01  0.90413135477E+00  0.12146572323E+02  0.51100000000E-03 0.  1.
        -12    1    3    3    0    0  0.84049877606E+01 -0.72904331606E+00  0.65379214488E+01  0.10673319085E+02  0.00000000000E+00 0.  1.
</event>
<event>
 7    1  0.5356024E-013  0.5052887E+02  0.7816164E-02  0.1300439E+00
        -11   -1    0    0    0    0  0.00000000000E+00  0.00000000000E+00  0.45593999997E+02  0.45594000000E+02  0.51100000000E-03 0.  1.
         11   -1    0    0    0    0 -0.00000000000E+00 -0.00000000000E+00 -0.45593999997E+02  0.45594000000E+02  0.51100000000E-03 0. -1.
    9900012    2    1    2    0    0 -0.20247563756E+02 -0.17883509351E+02  0.30387185300E+02  0.50528870949E+02  0.30000033736E+02 0.  0.
         12    1    1    2    0    0  0.20247563756E+02  0.17883509351E+02 -0.30387185300E+02  0.40659129051E+02  0.00000000000E+00 0. -1.
         11    1    3    3    0    0  0.28655731632E+01 -0.15406931202E+01 -0.16579388785E+01  0.36515758831E+01  0.51100000000E-03 0. -1.
        -11    1    3    3    0    0 -0.57486834108E+01 -0.51937177750E+01  0.23139550587E+02  0.24402066857E+02  0.51100000000E-03 0.  1.
        -12    1    3    3    0    0 -0.17364453509E+02 -0.11149098456E+02  0.89055735911E+01  0.22475228208E+02  0.00000000000E+00 0.  1.
</event>
<event>
 7    1  0.4871930E-013  0.5052886E+02  0.7816164E-02  0.1300439E+00
        -11   -1    0    0    0    0  0.00000000000E+00  0.00000000000E+00  0.45593999997E+02  0.45594000000E+02  0.51100000000E-03 0.  1.
         11   -1    0    0    0    0 -0.00000000000E+00 -0.00000000000E+00 -0.45593999997E+02  0.45594000000E+02  0.51100000000E-03 0. -1.
    9900012    2    1    2    0    0 -0.32587487846E+02  0.17797097412E+02  0.16567566923E+02  0.50528864321E+02  0.30000013591E+02 0.  0.
         12    1    1    2    0    0  0.32587487846E+02 -0.17797097412E+02 -0.16567566923E+02  0.40659135679E+02  0.00000000000E+00 0. -1.
         11    1    3    3    0    0  0.53560956696E+00 -0.40228193579E+01  0.45822050809E+01  0.61209931269E+01  0.51100000000E-03 0. -1.
        -11    1    3    3    0    0 -0.14435171460E+02  0.10780478907E+02  0.13702289275E+02  0.22635053174E+02  0.51100000000E-03 0.  1.
        -12    1    3    3    0    0 -0.18687925953E+02  0.11039437863E+02 -0.17169274330E+01  0.21772818021E+02  0.00000000000E+00 0.  1.
</event>
<event>
 7    1  0.4871930E-013  0.5052886E+02  0.7816164E-02  0.1300439E+00
        -11   -1    0    0    0    0  0.00000000000E+00  0.00000000000E+00  0.45593999997E+02  0.45594000000E+02  0.51100000000E-03 0. -1.
         11   -1    0    0    0    0 -0.00000000000E+00 -0.00000000000E+00 -0.45593999997E+02  0.45594000000E+02  0.51100000000E-03 0.  1.
    9900012    2    1    2    0    0  0.34594163440E+02 -0.20018081704E+02 -0.74623036093E+01  0.50528859399E+02  0.29999998630E+02 0.  0.
         12    1    1    2    0    0 -0.34594163440E+02  0.20018081704E+02  0.74623036093E+01  0.40659140601E+02  0.00000000000E+00 0. -1.
         11    1    3    3    0    0  0.12392564106E+02  0.15528599142E+01 -0.28799762887E+01  0.12817226015E+02  0.51100000000E-03 0.  1.
        -11    1    3    3    0    0  0.19581461893E+02 -0.15745039426E+02 -0.12065087528E+02  0.27873038115E+02  0.51100000000E-03 0. -1.
         12    1    3    3    0    0  0.26201374409E+01 -0.58259021914E+01  0.74827602075E+01  0.98385952695E+01  0.00000000000E+00 0. -1.
</event>
<event>
 7    1  0.4871930E-013  0.5052887E+02  0.7816164E-02  0.1300439E+00
        -11   -1    0    0    0    0  0.00000000000E+00  0.00000000000E+00  0.45593999997E+02  0.45594000000E+02  0.51100000000E-03 0.  1.
         11   -1    0    0    0    0 -0.00000000000E+00 -0.00000000000E+00 -0.45593999997E+02  0.45594000000E+02  0.51100000000E-03 0. -1.
    9900012    2    1    2    0    0 -0.27175828849E+02 -0.19191370587E+02  0.23373719264E+02  0.50528866575E+02  0.30000020441E+02 0.  0.
         12    1    1    2    0    0  0.27175828849E+02  0.19191370587E+02 -0.23373719264E+02  0.40659133425E+02  0.00000000000E+00 0. -1.
         11    1    3    3    0    0 -0.54486666315E+01 -0.29860594003E+01  0.14462035265E+02  0.15740234531E+02  0.51100000000E-03 0.  1.
        -11    1    3    3    0    0 -0.24684385597E+02 -0.17583703381E+02  0.86415046208E+01  0.31514776205E+02  0.51100000000E-03 0. -1.
         12    1    3    3    0    0  0.29572233793E+01  0.13783921945E+01  0.27017937794E+00  0.32738558388E+01  0.00000000000E+00 0. -1.
</event>
<event>
 7    1  0.4871930E-013  0.5052887E+02  0.7816164E-02  0.1300439E+00
        -11   -1    0    0    0    0  0.00000000000E+00  0.00000000000E+00  0.45593999997E+02  0.45594000000E+02  0.51100000000E-03 0.  1.
         11   -1    0    0    0    0 -0.00000000000E+00 -0.00000000000E+00 -0.45593999997E+02  0.45594000000E+02  0.51100000000E-03 0. -1.
    9900012    2    1    2    0    0  0.31611019222E+02  0.20787869404E+02  0.14892049084E+02  0.50528866014E+02  0.30000018736E+02 0.  0.
         12    1    1    2    0    0 -0.31611019222E+02 -0.20787869404E+02 -0.14892049084E+02  0.40659133986E+02  0.00000000000E+00 0. -1.
         11    1    3    3    0    0  0.39019772443E+01 -0.19921944327E+01 -0.18345038751E+01  0.47497020751E+01  0.51100000000E-03 0. -1.
        -11    1    3    3    0    0  0.12309696116E+02 -0.12623929788E+01 -0.58751846872E+00  0.12388197315E+02  0.51100000000E-03 0.  1.
        -12    1    3    3    0    0  0.15399345861E+02  0.24042456815E+02  0.17314071428E+02  0.33390966624E+02  0.00000000000E+00 0.  1.
</event>
<event>
 7    1  0.4871930E-013  0.5052885E+02  0.7816164E-02  0.1300439E+00
        -11   -1    0    0    0    0  0.00000000000E+00  0.00000000000E+00  0.45593999997E+02  0.45594000000E+02  0.51100000000E-03 0.  1.
         11   -1    0    0    0    0 -0.00000000000E+00 -0.00000000000E+00 -0.45593999997E+02  0.45594000000E+02  0.51100000000E-03 0. -1.
    9900012    2    1    2    0    0  0.17490338330E+02 -0.12677380704E+02  0.34446173356E+02  0.50528846353E+02  0.29999958975E+02 0.  0.
         12    1    1    2    0    0 -0.17490338330E+02  0.12677380704E+02 -0.34446173356E+02  0.40659153647E+02  0.00000000000E+00 0. -1.
         11    1    3    3    0    0  0.73097499917E+00  0.31596223814E+01  0.88291588648E+01  0.94059334765E+01  0.51100000000E-03 0. -1.
        -11    1    3    3    0    0  0.64128927241E+01 -0.17924004286E+02  0.23694357809E+02  0.30394369791E+02  0.51100000000E-03 0.  1.
         12    1    3    3    0    0  0.10346470607E+02  0.20870012006E+01  0.19226566821E+01  0.10728543086E+02  0.00000000000E+00 0. -1.
</event>
<event>
 7    1  0.4871930E-013  0.5052886E+02  0.7816164E-02  0.1300439E+00
        -11   -1    0    0    0    0  0.00000000000E+00  0.00000000000E+00  0.45593999997E+02  0.45594000000E+02  0.51100000000E-03 0.  1.
         11   -1    0    0    0    0 -0.00000000000E+00 -0.00000000000E+00 -0.45593999997E+02  0.45594000000E+02  0.51100000000E-03 0. -1.
    9900012    2    1    2    0    0 -0.44722328659E+01  0.20550367620E+02  0.34797224866E+02  0.50528864071E+02  0.30000012829E+02 0.  0.
         12    1    1    2    0    0  0.44722328659E+01 -0.20550367620E+02 -0.34797224866E+02  0.40659135929E+02  0.00000000000E+00 0. -1.
         11    1    3    3    0    0  0.17683333214E+01  0.73661899326E+00  0.29446940237E+01  0.35129522386E+01  0.51100000000E-03 0. -1.
        -11    1    3    3    0    0 -0.97122311981E+01  0.18258461684E+02  0.69394943206E+01  0.21814111020E+02  0.51100000000E-03 0.  1.
        -12    1    3    3    0    0  0.34716650109E+01  0.15552869429E+01  0.24913036522E+02  0.25201800812E+02  0.00000000000E+00 0.  1.
</event>
<event>
 7    1  0.4871930E-013  0.5052886E+02  0.7816164E-02  0.1300439E+00
        -11   -1    0    0    0    0  0.00000000000E+00  0.00000000000E+00  0.45593999997E+02  0.45594000000E+02  0.51100000000E-03 0. -1.
         11   -1    0    0    0    0 -0.00000000000E+00 -0.00000000000E+00 -0.45593999997E+02  0.45594000000E+02  0.51100000000E-03 0.  1.
    9900012    2    1    2    0    0  0.10247480705E+01  0.36316159088E+02 -0.18255191290E+02  0.50528861685E+02  0.30000005577E+02 0.  0.
         12    1    1    2    0    0 -0.10247480705E+01 -0.36316159088E+02  0.18255191290E+02  0.40659138315E+02  0.00000000000E+00 0. -1.
         11    1    3    3    0    0 -0.27492378309E+01  0.46702368147E+00  0.59901846917E+00  0.28522347655E+01  0.51100000000E-03 0. -1.
        -11    1    3    3    0    0 -0.94506695834E+01  0.65861673953E+01 -0.32218523677E+01  0.11961316377E+02  0.51100000000E-03 0.  1.
        -12    1    3    3    0    0  0.13224655485E+02  0.29262968011E+02 -0.15632357391E+02  0.35715310542E+02  0.00000000000E+00 0.  1.
</event>
<event>
 7    1  0.4871930E-013  0.5052883E+02  0.7816164E-02  0.1300439E+00
        -11   -1    0    0    0    0  0.00000000000E+00  0.00000000000E+00  0.45593999997E+02  0.45594000000E+02  0.51100000000E-03 0. -1.
         11   -1    0    0    0    0 -0.00000000000E+00 -0.00000000000E+00 -0.45593999997E+02  0.45594000000E+02  0.51100000000E-03 0.  1.
    9900012    2    1    2    0    0  0.26530106128E+02 -0.22594874153E+02  0.20947391046E+02  0.50528830545E+02  0.29999910925E+02 0.  0.
         12    1    1    2    0    0 -0.26530106128E+02  0.22594874153E+02 -0.20947391046E+02  0.40659169455E+02  0.00000000000E+00 0. -1.
         11    1    3    3    0    0  0.17253152452E+01 -0.89059827207E+00 -0.22573461151E+01  0.29774972246E+01  0.51100000000E-03 0. -1.
        -11    1    3    3    0    0  0.23529483316E+02 -0.22870234087E+02  0.10098497241E+02  0.34331673991E+02  0.51100000000E-03 0.  1.
         12    1    3    3    0    0  0.12753075676E+01  0.11659582061E+01  0.13106239920E+02  0.13219659329E+02  0.00000000000E+00 0. -1.
</event>
<event>
 7    1  0.4871930E-013  0.5052886E+02  0.7816164E-02  0.1300439E+00
        -11   -1    0    0    0    0  0.00000000000E+00  0.00000000000E+00  0.45593999997E+02  0.45594000000E+02  0.51100000000E-03 0.  1.
         11   -1    0    0    0    0 -0.00000000000E+00 -0.00000000000E+00 -0.45593999997E+02  0.45594000000E+02  0.51100000000E-03 0. -1.
    9900012    2    1    2    0    0 -0.18380099810E+02  0.25705325600E+02  0.25584638112E+02  0.50528861537E+02  0.30000005128E+02 0.  0.
         12    1    1    2    0    0  0.18380099810E+02 -0.25705325600E+02 -0.25584638112E+02  0.40659138463E+02  0.00000000000E+00 0. -1.
         11    1    3    3    0    0  0.38366609623E+01  0.84907640085E+01 -0.29924477084E+01  0.97861015903E+01  0.51100000000E-03 0. -1.
        -11    1    3    3    0    0 -0.10986773050E+00  0.58176860545E+00 -0.37270547902E+00  0.69959650064E+00  0.51100000000E-03 0.  1.
        -12    1    3    3    0    0 -0.22106893042E+02  0.16632792986E+02  0.28949791299E+02  0.40043163446E+02  0.00000000000E+00 0.  1.
</event>
<event>
 7    1  0.4871930E-013  0.5052887E+02  0.7816164E-02  0.1300439E+00
        -11   -1    0    0    0    0  0.00000000000E+00  0.00000000000E+00  0.45593999997E+02  0.45594000000E+02  0.51100000000E-03 0.  1.
         11   -1    0    0    0    0 -0.00000000000E+00 -0.00000000000E+00 -0.45593999997E+02  0.45594000000E+02  0.51100000000E-03 0. -1.
    9900012    2    1    2    0    0  0.47834214225E+01 -0.25798858513E+02  0.31059666933E+02  0.50528866573E+02  0.30000020435E+02 0.  0.
         12    1    1    2    0    0 -0.47834214225E+01  0.25798858513E+02 -0.31059666933E+02  0.40659133427E+02  0.00000000000E+00 0. -1.
         11    1    3    3    0    0 -0.12767113238E+01  0.43334052302E+01  0.17423019257E+01  0.48419013781E+01  0.51100000000E-03 0. -1.
        -11    1    3    3    0    0  0.92933706007E+01 -0.90312155018E+01  0.67077247401E+01  0.14591886856E+02  0.51100000000E-03 0.  1.
        -12    1    3    3    0    0 -0.32332378544E+01 -0.21101048241E+02  0.22609640267E+02  0.31095078339E+02  0.00000000000E+00 0.  1.
</event>
<event>
 7    1  0.4871930E-013  0.5052886E+02  0.7816164E-02  0.1300439E+00
        -11   -1    0    0    0    0  0.00000000000E+00  0.00000000000E+00  0.45593999997E+02  0.45594000000E+02  0.51100000000E-03 0.  1.
         11   -1    0    0    0    0 -0.00000000000E+00 -0.00000000000E+00 -0.45593999997E+02  0.45594000000E+02  0.51100000000E-03 0. -1.
    9900012    2    1    2    0    0 -0.23686960288E+02 -0.28475159469E+02  0.16770777191E+02  0.50528858813E+02  0.29999996847E+02 0.  0.
         12    1    1    2    0    0  0.23686960288E+02  0.28475159469E+02 -0.16770777191E+02  0.40659141187E+02  0.00000000000E+00 0. -1.
         11    1    3    3    0    0 -0.37265076627E+01 -0.19964558696E+02  0.12017950987E+02  0.23598762881E+02  0.51100000000E-03 0. -1.
        -11    1    3    3    0    0 -0.13950591562E+02 -0.12881477386E+02  0.24226945859E+01  0.19142124070E+02  0.51100000000E-03 0.  1.
         12    1    3    3    0    0 -0.60098610639E+01  0.43708766132E+01  0.23301316176E+01  0.77879718624E+01  0.00000000000E+00 0. -1.
</event>
<event>
 7    1  0.4871930E-013  0.5052886E+02  0.7816164E-02  0.1300439E+00
        -11   -1    0    0    0    0  0.00000000000E+00  0.00000000000E+00  0.45593999997E+02  0.45594000000E+02  0.51100000000E-03 0.  1.
         11   -1    0    0    0    0 -0.00000000000E+00 -0.00000000000E+00 -0.45593999997E+02  0.45594000000E+02  0.51100000000E-03 0. -1.
    9900012    2    1    2    0    0  0.21639851422E+02  0.33876972932E+02 -0.61018957578E+01  0.50528860850E+02  0.30000003039E+02 0.  0.
         12    1    1    2    0    0 -0.21639851422E+02 -0.33876972932E+02  0.61018957578E+01  0.40659139150E+02  0.00000000000E+00 0. -1.
         11    1    3    3    0    0  0.14413367520E+02  0.13675566490E+02 -0.11518850811E+02  0.22966284122E+02  0.51100000000E-03 0. -1.
        -11    1    3    3    0    0  0.11760065813E+02  0.11967498331E+02  0.13176889502E+00  0.16779080056E+02  0.51100000000E-03 0.  1.
         12    1    3    3    0    0 -0.45335819121E+01  0.82339081110E+01  0.52851861583E+01  0.10783496671E+02  0.00000000000E+00 0. -1.
</event>
<event>
 7    1  0.4871930E-013  0.5052886E+02  0.7816164E-02  0.1300439E+00
        -11   -1    0    0    0    0  0.00000000000E+00  0.00000000000E+00  0.45593999997E+02  0.45594000000E+02  0.51100000000E-03 0.  1.
         11   -1    0    0    0    0 -0.00000000000E+00 -0.00000000000E+00 -0.45593999997E+02  0.45594000000E+02  0.51100000000E-03 0. -1.
    9900012    2    1    2    0    0  0.57629782355E+01 -0.13522691580E+02  0.37908981297E+02  0.50528856272E+02  0.29999989123E+02 0.  0.
         12    1    1    2    0    0 -0.57629782355E+01  0.13522691580E+02 -0.37908981297E+02  0.40659143728E+02  0.00000000000E+00 0. -1.
         11    1    3    3    0    0  0.11321341140E+02 -0.47664469663E+01  0.25342924700E+02  0.28163018562E+02  0.51100000000E-03 0. -1.
        -11    1    3    3    0    0 -0.71841062173E+00  0.32199295071E+01  0.80199564252E+01  0.86720102153E+01  0.51100000000E-03 0.  1.
         12    1    3    3    0    0 -0.48399522825E+01 -0.11976174121E+02  0.45461001717E+01  0.13693827494E+02  0.00000000000E+00 0. -1.
</event>
<event>
 7    1  0.4871930E-013  0.5052874E+02  0.7816164E-02  0.1300439E+00
        -11   -1    0    0    0    0  0.00000000000E+00  0.00000000000E+00  0.45593999997E+02  0.45594000000E+02  0.51100000000E-03 0.  1.
         11   -1    0    0    0    0 -0.00000000000E+00 -0.00000000000E+00 -0.45593999997E+02  0.45594000000E+02  0.51100000000E-03 0. -1.
    9900012    2    1    2    0    0 -0.35504949856E+02  0.19681774754E+02 -0.22806818468E+01  0.50528742365E+02  0.29999642891E+02 0.  0.
         12    1    1    2    0    0  0.35504949856E+02 -0.19681774754E+02  0.22806818468E+01  0.40659257635E+02  0.00000000000E+00 0. -1.
         11    1    3    3    0    0 -0.78961291142E+01  0.13054432883E+02  0.20867710685E+00  0.15258132890E+02  0.51100000000E-03 0. -1.
        -11    1    3    3    0    0  0.21392152233E+01 -0.37370665618E+00  0.35091161223E+01  0.41267171769E+01  0.51100000000E-03 0.  1.
        -12    1    3    3    0    0 -0.29748035965E+02  0.70010485269E+01 -0.59984750759E+01  0.31143892298E+02  0.00000000000E+00 0.  1.
</event>
<event>
 7    1  0.4871930E-013  0.5052888E+02  0.7816164E-02  0.1300439E+00
        -11   -1    0    0    0    0  0.00000000000E+00  0.00000000000E+00  0.45593999997E+02  0.45594000000E+02  0.51100000000E-03 0.  1.
         11   -1    0    0    0    0 -0.00000000000E+00 -0.00000000000E+00 -0.45593999997E+02  0.45594000000E+02  0.51100000000E-03 0. -1.
    9900012    2    1    2    0    0 -0.13138030404E+02 -0.23577440395E+02  0.30408232473E+02  0.50528878752E+02  0.30000057456E+02 0.  0.
         12    1    1    2    0    0  0.13138030404E+02  0.23577440395E+02 -0.30408232473E+02  0.40659121248E+02  0.00000000000E+00 0. -1.
         11    1    3    3    0    0 -0.11852426285E+01 -0.97614437165E+01  0.52646198143E+00  0.98472202168E+01  0.51100000000E-03 0. -1.
        -11    1    3    3    0    0 -0.12645957386E+02 -0.85428333303E+01  0.63046122173E+01  0.16512067556E+02  0.51100000000E-03 0.  1.
        -12    1    3    3    0    0  0.69316961006E+00 -0.52731633481E+01  0.23577158275E+02  0.24169590979E+02  0.00000000000E+00 0.  1.
</event>
<event>
 7    1  0.4871930E-013  0.5052886E+02  0.7816164E-02  0.1300439E+00
        -11   -1    0    0    0    0  0.00000000000E+00  0.00000000000E+00  0.45593999997E+02  0.45594000000E+02  0.51100000000E-03 0.  1.
         11   -1    0    0    0    0 -0.00000000000E+00 -0.00000000000E+00 -0.45593999997E+02  0.45594000000E+02  0.51100000000E-03 0. -1.
    9900012    2    1    2    0    0  0.23943652368E+02 -0.63566863454E+01  0.32240657992E+02  0.50528856160E+02  0.29999988784E+02 0.  0.
         12    1    1    2    0    0 -0.23943652368E+02  0.63566863454E+01 -0.32240657992E+02  0.40659143840E+02  0.00000000000E+00 0. -1.
         11    1    3    3    0    0  0.50554025936E+01 -0.69662806212E+01  0.83585576862E+00  0.86478214716E+01  0.51100000000E-03 0. -1.
        -11    1    3    3    0    0  0.16817464094E+02 -0.18000502572E+01  0.88223867243E+01  0.19076209982E+02  0.51100000000E-03 0.  1.
         12    1    3    3    0    0  0.20707856804E+01  0.24096445330E+01  0.22582415499E+02  0.22804824707E+02  0.00000000000E+00 0. -1.
</event>
<event>
 7    1  0.4871930E-013  0.5052887E+02  0.7816164E-02  0.1300439E+00
        -11   -1    0    0    0    0  0.00000000000E+00  0.00000000000E+00  0.45593999997E+02  0.45594000000E+02  0.51100000000E-03 0.  1.
         11   -1    0    0    0    0 -0.00000000000E+00 -0.00000000000E+00 -0.45593999997E+02  0.45594000000E+02  0.51100000000E-03 0. -1.
    9900012    2    1    2    0    0  0.17129685385E+02  0.22371109894E+02  0.29313343322E+02  0.50528870938E+02  0.30000033704E+02 0.  0.
         12    1    1    2    0    0 -0.17129685385E+02 -0.22371109894E+02 -0.29313343322E+02  0.40659129062E+02  0.00000000000E+00 0. -1.
         11    1    3    3    0    0  0.15108219271E+02  0.14492254921E+02  0.71625577815E+01  0.22126589807E+02  0.51100000000E-03 0.  1.
        -11    1    3    3    0    0  0.64237942134E+01  0.21768130182E+01  0.19632430607E+02  0.20771037018E+02  0.51100000000E-03 0. -1.
         12    1    3    3    0    0 -0.44023280988E+01  0.57020419552E+01  0.25183549336E+01  0.76312441135E+01  0.00000000000E+00 0. -1.
</event>
<event>
 7    1  0.4871930E-013  0.5052885E+02  0.7816164E-02  0.1300439E+00
        -11   -1    0    0    0    0  0.00000000000E+00  0.00000000000E+00  0.45593999997E+02  0.45594000000E+02  0.51100000000E-03 0.  1.
         11   -1    0    0    0    0 -0.00000000000E+00 -0.00000000000E+00 -0.45593999997E+02  0.45594000000E+02  0.51100000000E-03 0. -1.
    9900012    2    1    2    0    0 -0.17315338167E+02 -0.13120302609E+02  0.34368633272E+02  0.50528853066E+02  0.29999979380E+02 0.  0.
         12    1    1    2    0    0  0.17315338167E+02  0.13120302609E+02 -0.34368633272E+02  0.40659146934E+02  0.00000000000E+00 0. -1.
         11    1    3    3    0    0  0.40102233321E+01 -0.24686042819E+01  0.18680598041E+01  0.50661174450E+01  0.51100000000E-03 0. -1.
        -11    1    3    3    0    0 -0.69164658753E+01 -0.15179169481E+02  0.17466957667E+02  0.24152418031E+02  0.51100000000E-03 0.  1.
        -12    1    3    3    0    0 -0.14409095624E+02  0.45274711534E+01  0.15033615801E+02  0.21310317590E+02  0.00000000000E+00 0.  1.
</event>
<event>
 7    1  0.4871930E-013  0.5052887E+02  0.7816164E-02  0.1300439E+00
        -11   -1    0    0    0    0  0.00000000000E+00  0.00000000000E+00  0.45593999997E+02  0.45594000000E+02  0.51100000000E-03 0.  1.
         11   -1    0    0    0    0 -0.00000000000E+00 -0.00000000000E+00 -0.45593999997E+02  0.45594000000E+02  0.51100000000E-03 0. -1.
    9900012    2    1    2    0    0  0.17563894206E+02 -0.27240556794E+02 -0.24548456284E+02  0.50528867938E+02  0.30000024585E+02 0.  0.
         12    1    1    2    0    0 -0.17563894206E+02  0.27240556794E+02  0.24548456284E+02  0.40659132062E+02  0.00000000000E+00 0. -1.
         11    1    3    3    0    0  0.46223677768E+01  0.25560907322E+01 -0.73654810072E+01  0.90636744439E+01  0.51100000000E-03 0. -1.
        -11    1    3    3    0    0  0.13366650525E+01 -0.55964139960E+01  0.42214205238E+01  0.71363095909E+01  0.51100000000E-03 0.  1.
         12    1    3    3    0    0  0.11604861377E+02 -0.24200233530E+02 -0.21404395800E+02  0.34328883903E+02  0.00000000000E+00 0. -1.
</event>
<event>
 7    1  0.4871930E-013  0.5052887E+02  0.7816164E-02  0.1300439E+00
        -11   -1    0    0    0    0  0.00000000000E+00  0.00000000000E+00  0.45593999997E+02  0.45594000000E+02  0.51100000000E-03 0.  1.
         11   -1    0    0    0    0 -0.00000000000E+00 -0.00000000000E+00 -0.45593999997E+02  0.45594000000E+02  0.51100000000E-03 0. -1.
    9900012    2    1    2    0    0  0.16294476278E+02 -0.28619497076E+02  0.23844901024E+02  0.50528869723E+02  0.30000030009E+02 0.  0.
         12    1    1    2    0    0 -0.16294476278E+02  0.28619497076E+02 -0.23844901024E+02  0.40659130277E+02  0.00000000000E+00 0. -1.
         11    1    3    3    0    0  0.83835674367E+01 -0.53080195703E+01 -0.79539389914E-01  0.99229834979E+01  0.51100000000E-03 0. -1.
        -11    1    3    3    0    0  0.14810605396E+02 -0.20654595016E+02  0.18527257390E+02  0.31451956920E+02  0.51100000000E-03 0.  1.
        -12    1    3    3    0    0 -0.68996965549E+01 -0.26568824900E+01  0.53971830239E+01  0.91539293044E+01  0.00000000000E+00 0.  1.
</event>
<event>
 7    1  0.4871930E-013  0.5052886E+02  0.7816164E-02  0.1300439E+00
        -11   -1    0    0    0    0  0.00000000000E+00  0.00000000000E+00  0.45593999997E+02  0.45594000000E+02  0.51100000000E-03 0.  1.
         11   -1    0    0    0    0 -0.00000000000E+00 -0.00000000000E+00 -0.45593999997E+02  0.45594000000E+02  0.51100000000E-03 0. -1.
    9900012    2    1    2    0    0 -0.31885642078E+02 -0.34733486895E+01  0.24988147919E+02  0.50528857630E+02  0.29999993252E+02 0.  0.
         12    1    1    2    0    0  0.31885642078E+02  0.34733486895E+01 -0.24988147919E+02  0.40659142370E+02  0.00000000000E+00 0. -1.
         11    1    3    3    0    0 -0.19399499193E+01  0.41517429379E+01 -0.25119941340E+01  0.52259439245E+01  0.51100000000E-03 0. -1.
        -11    1    3    3    0    0 -0.25448815849E+02 -0.60009697773E+01  0.11428774845E+02  0.28535429926E+02  0.51100000000E-03 0.  1.
        -12    1    3    3    0    0 -0.44968763100E+01 -0.16241218501E+01  0.16071367208E+02  0.16767483779E+02  0.00000000000E+00 0.  1.
</event>
<event>
 7    1  0.4871930E-013  0.5052885E+02  0.7816164E-02  0.1300439E+00
        -11   -1    0    0    0    0  0.00000000000E+00  0.00000000000E+00  0.45593999997E+02  0.45594000000E+02  0.51100000000E-03 0.  1.
         11   -1    0    0    0    0 -0.00000000000E+00 -0.00000000000E+00 -0.45593999997E+02  0.45594000000E+02  0.51100000000E-03 0. -1.
    9900012    2    1    2    0    0 -0.26397362808E+02 -0.12566953325E+02  0.28256274150E+02  0.50528854560E+02  0.29999983920E+02 0.  0.
         12    1    1    2    0    0  0.26397362808E+02  0.12566953325E+02 -0.28256274150E+02  0.40659145440E+02  0.00000000000E+00 0. -1.
         11    1    3    3    0    0 -0.54612197399E+01  0.52502590642E+01  0.59215268210E+00  0.75987358389E+01  0.51100000000E-03 0. -1.
        -11    1    3    3    0    0 -0.39171371998E+01 -0.28227323040E+01  0.17356788871E+02  0.18015823647E+02  0.51100000000E-03 0.  1.
        -12    1    3    3    0    0 -0.17019005868E+02 -0.14994480085E+02  0.10307332597E+02  0.24914295074E+02  0.00000000000E+00 0.  1.
</event>
<event>
 7    1  0.4871930E-013  0.5052887E+02  0.7816164E-02  0.1300439E+00
        -11   -1    0    0    0    0  0.00000000000E+00  0.00000000000E+00  0.45593999997E+02  0.45594000000E+02  0.51100000000E-03 0. -1.
         11   -1    0    0    0    0 -0.00000000000E+00 -0.00000000000E+00 -0.45593999997E+02  0.45594000000E+02  0.51100000000E-03 0.  1.
    9900012    2    1    2    0    0  0.34786172690E+02  0.97244894835E+01 -0.18668735820E+02  0.50528865685E+02  0.30000017736E+02 0.  0.
         12    1    1    2    0    0 -0.34786172690E+02 -0.97244894835E+01  0.18668735820E+02  0.40659134315E+02  0.00000000000E+00 0. -1.
         11    1    3    3    0    0  0.50829770871E+00  0.49302233650E+01 -0.90182232987E+01  0.10290472327E+02  0.51100000000E-03 0. -1.
        -11    1    3    3    0    0  0.13416492117E+02 -0.14169589318E+01 -0.12368767327E+02  0.18302907933E+02  0.51100000000E-03 0.  1.
        -12    1    3    3    0    0  0.20861382864E+02  0.62112250502E+01  0.27182548058E+01  0.21935485425E+02  0.00000000000E+00 0.  1.
</event>
<event>
 7    1  0.4871930E-013  0.5052887E+02  0.7816164E-02  0.1300439E+00
        -11   -1    0    0    0    0  0.00000000000E+00  0.00000000000E+00  0.45593999997E+02  0.45594000000E+02  0.51100000000E-03 0.  1.
         11   -1    0    0    0    0 -0.00000000000E+00 -0.00000000000E+00 -0.45593999997E+02  0.45594000000E+02  0.51100000000E-03 0. -1.
    9900012    2    1    2    0    0 -0.17560432024E+02  0.22055293647E+02  0.29297782142E+02  0.50528870777E+02  0.30000033214E+02 0.  0.
         12    1    1    2    0    0  0.17560432024E+02 -0.22055293647E+02 -0.29297782142E+02  0.40659129223E+02  0.00000000000E+00 0. -1.
         11    1    3    3    0    0 -0.14381981401E+02  0.20134177627E+02  0.14751074742E+02  0.28806608687E+02  0.51100000000E-03 0. -1.
        -11    1    3    3    0    0 -0.95650015874E+01  0.16103498380E+01  0.94945411819E+01  0.13573090823E+02  0.51100000000E-03 0.  1.
         12    1    3    3    0    0  0.63865509646E+01  0.31076618149E+00  0.50521662181E+01  0.81491712669E+01  0.00000000000E+00 0. -1.
</event>
<event>
 7    1  0.4871930E-013  0.5052887E+02  0.7816164E-02  0.1300439E+00
        -11   -1    0    0    0    0  0.00000000000E+00  0.00000000000E+00  0.45593999997E+02  0.45594000000E+02  0.51100000000E-03 0.  1.
         11   -1    0    0    0    0 -0.00000000000E+00 -0.00000000000E+00 -0.45593999997E+02  0.45594000000E+02  0.51100000000E-03 0. -1.
    9900012    2    1    2    0    0  0.96693046312E+01 -0.16129208027E+02  0.36048828593E+02  0.50528870072E+02  0.30000031070E+02 0.  0.
         12    1    1    2    0    0 -0.96693046312E+01  0.16129208027E+02 -0.36048828593E+02  0.40659129928E+02  0.00000000000E+00 0. -1.
         11    1    3    3    0    0  0.61831478304E+01 -0.81107716857E+01  0.21368506287E+02  0.23677605361E+02  0.51100000000E-03 0. -1.
        -11    1    3    3    0    0  0.64951771778E+01 -0.14310921613E+01  0.17772852687E+02  0.18976555120E+02  0.51100000000E-03 0.  1.
         12    1    3    3    0    0 -0.30090203770E+01 -0.65873441799E+01 -0.30925303813E+01  0.78747095904E+01  0.00000000000E+00 0. -1.
</event>
<event>
 7    1  0.4871930E-013  0.5052886E+02  0.7816164E-02  0.1300439E+00
        -11   -1    0    0    0    0  0.00000000000E+00  0.00000000000E+00  0.45593999997E+02  0.45594000000E+02  0.51100000000E-03 0.  1.
         11   -1    0    0    0    0 -0.00000000000E+00 -0.00000000000E+00 -0.45593999997E+02  0.45594000000E+02  0.51100000000E-03 0. -1.
    9900012    2    1    2    0    0 -0.22542773857E+02  0.32650227702E+02 -0.88854820795E+01  0.50528858175E+02  0.29999994908E+02 0.  0.
         12    1    1    2    0    0  0.22542773857E+02 -0.32650227702E+02  0.88854820795E+01  0.40659141825E+02  0.00000000000E+00 0. -1.
         11    1    3    3    0    0 -0.31843561981E+01  0.65360186733E+01 -0.63960247852E+01  0.96834290315E+01  0.51100000000E-03 0. -1.
        -11    1    3    3    0    0 -0.20408033345E+02  0.88357488131E+01 -0.63140466077E+01  0.23117644061E+02  0.51100000000E-03 0.  1.
        -12    1    3    3    0    0  0.10496156856E+01  0.17278460216E+02  0.38245893134E+01  0.17727785082E+02  0.00000000000E+00 0.  1.
</event>
<event>
 7    1  0.4871930E-013  0.5052887E+02  0.7816164E-02  0.1300439E+00
        -11   -1    0    0    0    0  0.00000000000E+00  0.00000000000E+00  0.45593999997E+02  0.45594000000E+02  0.51100000000E-03 0. -1.
         11   -1    0    0    0    0 -0.00000000000E+00 -0.00000000000E+00 -0.45593999997E+02  0.45594000000E+02  0.51100000000E-03 0.  1.
    9900012    2    1    2    0    0 -0.37350112403E+02  0.70431500358E+01 -0.14440502773E+02  0.50528868439E+02  0.30000026108E+02 0.  0.
         12    1    1    2    0    0  0.37350112403E+02 -0.70431500358E+01  0.14440502773E+02  0.40659131561E+02  0.00000000000E+00 0. -1.
         11    1    3    3    0    0 -0.40153946152E+01  0.75635253846E+01  0.40257315240E+01  0.94623900112E+01  0.51100000000E-03 0. -1.
        -11    1    3    3    0    0 -0.16137772426E+02  0.26961123771E+01 -0.16866361625E+02  0.23498316441E+02  0.51100000000E-03 0.  1.
         12    1    3    3    0    0 -0.17196945361E+02 -0.32164877258E+01 -0.15998726729E+01  0.17568161988E+02  0.00000000000E+00 0. -1.
</event>
<event>
 7    1  0.4871930E-013  0.5052888E+02  0.7816164E-02  0.1300439E+00
        -11   -1    0    0    0    0  0.00000000000E+00  0.00000000000E+00  0.45593999997E+02  0.45594000000E+02  0.51100000000E-03 0.  1.
         11   -1    0    0    0    0 -0.00000000000E+00 -0.00000000000E+00 -0.45593999997E+02  0.45594000000E+02  0.51100000000E-03 0. -1.
    9900012    2    1    2    0    0 -0.25444031913E+02  0.25127944862E+02  0.19348172299E+02  0.50528878707E+02  0.30000057317E+02 0.  0.
         12    1    1    2    0    0  0.25444031913E+02 -0.25127944862E+02 -0.19348172299E+02  0.40659121293E+02  0.00000000000E+00 0. -1.
         11    1    3    3    0    0 -0.52587632648E+00  0.11549566385E+02 -0.10167974649E+01  0.11606158147E+02  0.51100000000E-03 0. -1.
        -11    1    3    3    0    0  0.94303582919E+00  0.26122182792E+01  0.75554844339E+01  0.80497419962E+01  0.51100000000E-03 0.  1.
        -12    1    3    3    0    0 -0.25861191416E+02  0.10966160198E+02  0.12809485330E+02  0.30872978563E+02  0.00000000000E+00 0.  1.
</event>
<event>
 7    1  0.4871930E-013  0.5052887E+02  0.7816164E-02  0.1300439E+00
        -11   -1    0    0    0    0  0.00000000000E+00  0.00000000000E+00  0.45593999997E+02  0.45594000000E+02  0.51100000000E-03 0.  1.
         11   -1    0    0    0    0 -0.00000000000E+00 -0.00000000000E+00 -0.45593999997E+02  0.45594000000E+02  0.51100000000E-03 0. -1.
    9900012    2    1    2    0    0 -0.12133574761E+02  0.12972479932E+02  0.36573980797E+02  0.50528868880E+02  0.30000027448E+02 0.  0.
         12    1    1    2    0    0  0.12133574761E+02 -0.12972479932E+02 -0.36573980797E+02  0.40659131120E+02  0.00000000000E+00 0. -1.
         11    1    3    3    0    0  0.18264566209E+01  0.33791368221E+00 -0.13469465919E+01  0.22944269061E+01  0.51100000000E-03 0. -1.
        -11    1    3    3    0    0  0.15007035383E+01 -0.22760696303E+01  0.20215286922E+02  0.20398294773E+02  0.51100000000E-03 0.  1.
        -12    1    3    3    0    0 -0.15460734920E+02  0.14910635880E+02  0.17705640468E+02  0.27836147201E+02  0.00000000000E+00 0.  1.
</event>
<event>
 7    1  0.4871930E-013  0.5052895E+02  0.7816164E-02  0.1300438E+00
        -11   -1    0    0    0    0  0.00000000000E+00  0.00000000000E+00  0.45593999997E+02  0.45594000000E+02  0.51100000000E-03 0. -1.
         11   -1    0    0    0    0 -0.00000000000E+00 -0.00000000000E+00 -0.45593999997E+02  0.45594000000E+02  0.51100000000E-03 0.  1.
    9900012    2    1    2    0    0 -0.12882676754E+02  0.23822307314E+02 -0.30326430997E+02  0.50528952998E+02  0.30000283131E+02 0.  0.
         12    1    1    2    0    0  0.12882676754E+02 -0.23822307314E+02  0.30326430997E+02  0.40659047002E+02  0.00000000000E+00 0. -1.
         11    1    3    3    0    0 -0.17096945485E+02  0.13864986891E+01 -0.12440346505E+02  0.21189387555E+02  0.51100000000E-03 0.  1.
        -11    1    3    3    0    0  0.97989434583E+00  0.63033151850E+01 -0.26247025948E+01  0.68979010737E+01  0.51100000000E-03 0. -1.
        -12    1    3    3    0    0  0.32343743848E+01  0.16132493440E+02 -0.15261381897E+02  0.22441664369E+02  0.00000000000E+00 0.  1.
</event>
<event>
 7    1  0.4871930E-013  0.5052886E+02  0.7816164E-02  0.1300439E+00
        -11   -1    0    0    0    0  0.00000000000E+00  0.00000000000E+00  0.45593999997E+02  0.45594000000E+02  0.51100000000E-03 0.  1.
         11   -1    0    0    0    0 -0.00000000000E+00 -0.00000000000E+00 -0.45593999997E+02  0.45594000000E+02  0.51100000000E-03 0. -1.
    9900012    2    1    2    0    0  0.34989227070E+02  0.32080193108E+01  0.20460405236E+02  0.50528861036E+02  0.30000003606E+02 0.  0.
         12    1    1    2    0    0 -0.34989227070E+02 -0.32080193108E+01 -0.20460405236E+02  0.40659138964E+02  0.00000000000E+00 0. -1.
         11    1    3    3    0    0  0.98443443129E+01  0.12910323190E+02  0.12580603764E+02  0.20539210090E+02  0.51100000000E-03 0. -1.
        -11    1    3    3    0    0  0.17793864015E+00 -0.27157891907E+01 -0.44948459482E+00  0.27584796085E+01  0.51100000000E-03 0.  1.
        -12    1    3    3    0    0  0.24966944117E+02 -0.69865146881E+01  0.83292860668E+01  0.27231171337E+02  0.00000000000E+00 0.  1.
</event>
<event>
 7    1  0.4871930E-013  0.5052886E+02  0.7816164E-02  0.1300439E+00
        -11   -1    0    0    0    0  0.00000000000E+00  0.00000000000E+00  0.45593999997E+02  0.45594000000E+02  0.51100000000E-03 0. -1.
         11   -1    0    0    0    0 -0.00000000000E+00 -0.00000000000E+00 -0.45593999997E+02  0.45594000000E+02  0.51100000000E-03 0.  1.
    9900012    2    1    2    0    0  0.23859942062E+02  0.20038411855E+02 -0.26121467531E+02  0.50528857722E+02  0.29999993531E+02 0.  0.
         12    1    1    2    0    0 -0.23859942062E+02 -0.20038411855E+02  0.26121467531E+02  0.40659142278E+02  0.00000000000E+00 0. -1.
         11    1    3    3    0    0  0.74940902156E+01  0.85563956869E+01  0.14384294269E+01  0.11464832087E+02  0.51100000000E-03 0. -1.
        -11    1    3    3    0    0 -0.38876448354E+01  0.51378661002E+01 -0.58315969761E+01  0.86901653599E+01  0.51100000000E-03 0.  1.
        -12    1    3    3    0    0  0.20253496681E+02  0.63441500675E+01 -0.21728299981E+02  0.30373860275E+02  0.00000000000E+00 0.  1.
</event>
<event>
 7    1  0.4871930E-013  0.5052886E+02  0.7816164E-02  0.1300439E+00
        -11   -1    0    0    0    0  0.00000000000E+00  0.00000000000E+00  0.45593999997E+02  0.45594000000E+02  0.51100000000E-03 0. -1.
         11   -1    0    0    0    0 -0.00000000000E+00 -0.00000000000E+00 -0.45593999997E+02  0.45594000000E+02  0.51100000000E-03 0.  1.
    9900012    2    1    2    0    0  0.27381386605E+02 -0.24478344642E+01 -0.29957195240E+02  0.50528858683E+02  0.29999996452E+02 0.  0.
         12    1    1    2    0    0 -0.27381386605E+02  0.24478344642E+01  0.29957195240E+02  0.40659141317E+02  0.00000000000E+00 0. -1.
         11    1    3    3    0    0 -0.27115962201E+01 -0.13684280636E+01 -0.14375829582E+01  0.33603562979E+01  0.51100000000E-03 0. -1.
        -11    1    3    3    0    0  0.65720240727E+01  0.92966671394E+01 -0.54294809081E+01  0.12613436626E+02  0.51100000000E-03 0.  1.
         12    1    3    3    0    0  0.23520958753E+02 -0.10376073540E+02 -0.23090131374E+02  0.34555065759E+02  0.00000000000E+00 0. -1.
</event>
<event>
 7    1  0.4871930E-013  0.5052889E+02  0.7816164E-02  0.1300439E+00
        -11   -1    0    0    0    0  0.00000000000E+00  0.00000000000E+00  0.45593999997E+02  0.45594000000E+02  0.51100000000E-03 0.  1.
         11   -1    0    0    0    0 -0.00000000000E+00 -0.00000000000E+00 -0.45593999997E+02  0.45594000000E+02  0.51100000000E-03 0. -1.
    9900012    2    1    2    0    0 -0.36344655527E+02 -0.17180520884E+02  0.60875871892E+01  0.50528892767E+02  0.30000100055E+02 0.  0.
         12    1    1    2    0    0  0.36344655527E+02  0.17180520884E+02 -0.60875871892E+01  0.40659107233E+02  0.00000000000E+00 0. -1.
         11    1    3    3    0    0 -0.14110228602E+02 -0.26940962104E+00  0.37156105244E+01  0.14593727919E+02  0.51100000000E-03 0.  1.
        -11    1    3    3    0    0 -0.55880816091E+01 -0.12885459999E+02  0.99448770877E+01  0.17209367101E+02  0.51100000000E-03 0. -1.
         12    1    3    3    0    0 -0.16646345316E+02 -0.40256512636E+01 -0.75729004229E+01  0.18725797747E+02  0.00000000000E+00 0. -1.
</event>
<event>
 7    1  0.4871930E-013  0.5052886E+02  0.7816164E-02  0.1300439E+00
        -11   -1    0    0    0    0  0.00000000000E+00  0.00000000000E+00  0.45593999997E+02  0.45594000000E+02  0.51100000000E-03 0.  1.
         11   -1    0    0    0    0 -0.00000000000E+00 -0.00000000000E+00 -0.45593999997E+02  0.45594000000E+02  0.51100000000E-03 0. -1.
    9900012    2    1    2    0    0  0.10222508691E+02  0.39158182820E+02  0.39118159839E+01  0.50528864864E+02  0.30000015242E+02 0.  0.
         12    1    1    2    0    0 -0.10222508691E+02 -0.39158182820E+02 -0.39118159839E+01  0.40659135136E+02  0.00000000000E+00 0. -1.
         11    1    3    3    0    0 -0.17213278709E+00  0.90489241870E+01  0.47494719326E+01  0.10221063670E+02  0.51100000000E-03 0. -1.
        -11    1    3    3    0    0  0.60090579266E+01  0.31767852689E+02  0.51118311900E+01  0.32732797925E+02  0.51100000000E-03 0.  1.
         12    1    3    3    0    0  0.43855835513E+01 -0.16585940559E+01 -0.59494871387E+01  0.75750032701E+01  0.00000000000E+00 0. -1.
</event>
<event>
 7    1  0.4871930E-013  0.5052886E+02  0.7816164E-02  0.1300439E+00
        -11   -1    0    0    0    0  0.00000000000E+00  0.00000000000E+00  0.45593999997E+02  0.45594000000E+02  0.51100000000E-03 0. -1.
         11   -1    0    0    0    0 -0.00000000000E+00 -0.00000000000E+00 -0.45593999997E+02  0.45594000000E+02  0.51100000000E-03 0.  1.
    9900012    2    1    2    0    0 -0.34040113204E+02 -0.87353526177E+01  0.20448230410E+02  0.50528858110E+02  0.29999994711E+02 0.  0.
         12    1    1    2    0    0  0.34040113204E+02  0.87353526177E+01 -0.20448230410E+02  0.40659141890E+02  0.00000000000E+00 0. -1.
         11    1    3    3    0    0 -0.46166717793E+01 -0.45534075693E+01  0.11076584312E+02  0.12835026260E+02  0.51100000000E-03 0. -1.
        -11    1    3    3    0    0 -0.14760097945E+01 -0.65178619671E+01  0.67953045781E+01  0.95308600927E+01  0.51100000000E-03 0.  1.
        -12    1    3    3    0    0 -0.27947431630E+02  0.23359169187E+01  0.25763415203E+01  0.28162971758E+02  0.00000000000E+00 0.  1.
</event>
<event>
 7    1  0.4871930E-013  0.5052886E+02  0.7816164E-02  0.1300439E+00
        -11   -1    0    0    0    0  0.00000000000E+00  0.00000000000E+00  0.45593999997E+02  0.45594000000E+02  0.51100000000E-03 0.  1.
         11   -1    0    0    0    0 -0.00000000000E+00 -0.00000000000E+00 -0.45593999997E+02  0.45594000000E+02  0.51100000000E-03 0. -1.
    9900012    2    1    2    0    0  0.14082810989E+02 -0.30881341556E+02  0.22387117212E+02  0.50528857870E+02  0.29999993982E+02 0.  0.
         12    1    1    2    0    0 -0.14082810989E+02  0.30881341556E+02 -0.22387117212E+02  0.40659142130E+02  0.00000000000E+00 0. -1.
         11    1    3    3    0    0  0.94039215844E+01 -0.51026534361E+01  0.51941416000E+01  0.11893272068E+02  0.51100000000E-03 0.  1.
        -11    1    3    3    0    0  0.11730073415E+02 -0.55450716165E+01  0.45095246645E+01  0.13736020330E+02  0.51100000000E-03 0. -1.
        -12    1    3    3    0    0 -0.70511840101E+01 -0.20233616504E+02  0.12683450947E+02  0.24899565472E+02  0.00000000000E+00 0.  1.
</event>
<event>
 7    1  0.4871930E-013  0.5052886E+02  0.7816164E-02  0.1300439E+00
        -11   -1    0    0    0    0  0.00000000000E+00  0.00000000000E+00  0.45593999997E+02  0.45594000000E+02  0.51100000000E-03 0.  1.
         11   -1    0    0    0    0 -0.00000000000E+00 -0.00000000000E+00 -0.45593999997E+02  0.45594000000E+02  0.51100000000E-03 0. -1.
    9900012    2    1    2    0    0  0.66255257472E+01 -0.25161959288E+02  0.31243305430E+02  0.50528856861E+02  0.29999990914E+02 0.  0.
         12    1    1    2    0    0 -0.66255257472E+01  0.25161959288E+02 -0.31243305430E+02  0.40659143139E+02  0.00000000000E+00 0. -1.
         11    1    3    3    0    0 -0.66290511635E+00 -0.13278870532E+02  0.15561197903E+01  0.13386162813E+02  0.51100000000E-03 0. -1.
        -11    1    3    3    0    0  0.59988701429E+01  0.71025358894E+00  0.20841287075E+02  0.21699081786E+02  0.51100000000E-03 0.  1.
         12    1    3    3    0    0  0.12895607206E+01 -0.12593342345E+02  0.88458985648E+01  0.15443612262E+02  0.00000000000E+00 0. -1.
</event>
<event>
 7    1  0.4871930E-013  0.5052886E+02  0.7816164E-02  0.1300439E+00
        -11   -1    0    0    0    0  0.00000000000E+00  0.00000000000E+00  0.45593999997E+02  0.45594000000E+02  0.51100000000E-03 0.  1.
         11   -1    0    0    0    0 -0.00000000000E+00 -0.00000000000E+00 -0.45593999997E+02  0.45594000000E+02  0.51100000000E-03 0. -1.
    9900012    2    1    2    0    0 -0.34114431164E+02  0.18808969293E+02  0.11644479796E+02  0.50528860201E+02  0.30000001067E+02 0.  0.
         12    1    1    2    0    0  0.34114431164E+02 -0.18808969293E+02 -0.11644479796E+02  0.40659139799E+02  0.00000000000E+00 0. -1.
         11    1    3    3    0    0 -0.11461272512E+02  0.14776227063E+02  0.76176517331E+01  0.20192232962E+02  0.51100000000E-03 0. -1.
        -11    1    3    3    0    0 -0.65730024224E+01  0.32168507780E+01 -0.75433376632E+01  0.10509730403E+02  0.51100000000E-03 0.  1.
        -12    1    3    3    0    0 -0.16080156230E+02  0.81589145137E+00  0.11570165726E+02  0.19826896836E+02  0.00000000000E+00 0.  1.
</event>
<event>
 7    1  0.4871930E-013  0.5052891E+02  0.7816164E-02  0.1300439E+00
        -11   -1    0    0    0    0  0.00000000000E+00  0.00000000000E+00  0.45593999997E+02  0.45594000000E+02  0.51100000000E-03 0. -1.
         11   -1    0    0    0    0 -0.00000000000E+00 -0.00000000000E+00 -0.45593999997E+02  0.45594000000E+02  0.51100000000E-03 0.  1.
    9900012    2    1    2    0    0 -0.34312642629E+02 -0.21791962129E+02  0.95638242328E+00  0.50528908459E+02  0.30000147752E+02 0.  0.
         12    1    1    2    0    0  0.34312642629E+02  0.21791962129E+02 -0.95638242328E+00  0.40659091541E+02  0.00000000000E+00 0. -1.
         11    1    3    3    0    0  0.30136198483E+01 -0.42096221785E+01  0.52217426239E+01  0.73531911281E+01  0.51100000000E-03 0. -1.
        -11    1    3    3    0    0 -0.11178900090E+02 -0.70496784591E+01  0.39855145240E+01  0.13803988550E+02  0.51100000000E-03 0.  1.
         12    1    3    3    0    0 -0.26147362387E+02 -0.10532661491E+02 -0.82508747246E+01  0.29371728781E+02  0.00000000000E+00 0. -1.
</event>
<event>
 7    1  0.4871930E-013  0.5052886E+02  0.7816164E-02  0.1300439E+00
        -11   -1    0    0    0    0  0.00000000000E+00  0.00000000000E+00  0.45593999997E+02  0.45594000000E+02  0.51100000000E-03 0. -1.
         11   -1    0    0    0    0 -0.00000000000E+00 -0.00000000000E+00 -0.45593999997E+02  0.45594000000E+02  0.51100000000E-03 0.  1.
    9900012    2    1    2    0    0 -0.40513200855E+02  0.33440907199E+01  0.81435027756E+00  0.50528861389E+02  0.30000004678E+02 0.  0.
         12    1    1    2    0    0  0.40513200855E+02 -0.33440907199E+01 -0.81435027756E+00  0.40659138611E+02  0.00000000000E+00 0. -1.
         11    1    3    3    0    0 -0.34833877275E+01 -0.63165689359E+01  0.48712261987E+01  0.87041299463E+01  0.51100000000E-03 0. -1.
        -11    1    3    3    0    0  0.10770044677E+00  0.40553188090E+01 -0.90919701729E-01  0.40577674504E+01  0.51100000000E-03 0.  1.
        -12    1    3    3    0    0 -0.37137513574E+02  0.56053408468E+01 -0.39659562194E+01  0.37766963992E+02  0.00000000000E+00 0.  1.
</event>
<event>
 7    1  0.4871930E-013  0.5052885E+02  0.7816164E-02  0.1300439E+00
        -11   -1    0    0    0    0  0.00000000000E+00  0.00000000000E+00  0.45593999997E+02  0.45594000000E+02  0.51100000000E-03 0.  1.
         11   -1    0    0    0    0 -0.00000000000E+00 -0.00000000000E+00 -0.45593999997E+02  0.45594000000E+02  0.51100000000E-03 0. -1.
    9900012    2    1    2    0    0  0.38386783052E+02 -0.35735046492E+01 -0.12917086805E+02  0.50528853672E+02  0.29999981222E+02 0.  0.
         12    1    1    2    0    0 -0.38386783052E+02  0.35735046492E+01  0.12917086805E+02  0.40659146328E+02  0.00000000000E+00 0. -1.
         11    1    3    3    0    0 -0.21571203648E+01 -0.39749394199E+01 -0.41219735533E+01  0.61191484616E+01  0.51100000000E-03 0. -1.
        -11    1    3    3    0    0  0.72574776660E+01  0.63829393678E+01 -0.11159342676E+01  0.97292449140E+01  0.51100000000E-03 0.  1.
        -12    1    3    3    0    0  0.33286425751E+02 -0.59815045971E+01 -0.76791789846E+01  0.34680460297E+02  0.00000000000E+00 0.  1.
</event>
<event>
 7    1  0.4871930E-013  0.5052889E+02  0.7816164E-02  0.1300439E+00
        -11   -1    0    0    0    0  0.00000000000E+00  0.00000000000E+00  0.45593999997E+02  0.45594000000E+02  0.51100000000E-03 0.  1.
         11   -1    0    0    0    0 -0.00000000000E+00 -0.00000000000E+00 -0.45593999997E+02  0.45594000000E+02  0.51100000000E-03 0. -1.
    9900012    2    1    2    0    0 -0.20133734373E+02 -0.33571611386E+02  0.10988315545E+02  0.50528887499E+02  0.30000084040E+02 0.  0.
         12    1    1    2    0    0  0.20133734373E+02  0.33571611386E+02 -0.10988315545E+02  0.40659112501E+02  0.00000000000E+00 0. -1.
         11    1    3    3    0    0 -0.12947066682E+01 -0.15000009775E+02 -0.28158943051E+01  0.15316847574E+02  0.51100000000E-03 0. -1.
        -11    1    3    3    0    0 -0.17474176135E+02 -0.21402360168E+02  0.82582582382E+01  0.28837591469E+02  0.51100000000E-03 0.  1.
        -12    1    3    3    0    0 -0.13648515700E+01  0.28307585572E+01  0.55459516124E+01  0.63744484549E+01  0.00000000000E+00 0.  1.
</event>
<event>
 7    1  0.4871930E-013  0.5052888E+02  0.7816164E-02  0.1300439E+00
        -11   -1    0    0    0    0  0.00000000000E+00  0.00000000000E+00  0.45593999997E+02  0.45594000000E+02  0.51100000000E-03 0.  1.
         11   -1    0    0    0    0 -0.00000000000E+00 -0.00000000000E+00 -0.45593999997E+02  0.45594000000E+02  0.51100000000E-03 0. -1.
    9900012    2    1    2    0    0 -0.82531299935E+01  0.39526674301E+02  0.47635663770E+01  0.50528884163E+02  0.30000073902E+02 0.  0.
         12    1    1    2    0    0  0.82531299935E+01 -0.39526674301E+02 -0.47635663770E+01  0.40659115837E+02  0.00000000000E+00 0. -1.
         11    1    3    3    0    0  0.88411286949E+01  0.18670198613E+02  0.50268103515E+01  0.21260543159E+02  0.51100000000E-03 0. -1.
        -11    1    3    3    0    0 -0.32548978726E+01  0.11309883566E+02  0.29923255745E+01  0.12143386638E+02  0.51100000000E-03 0.  1.
         12    1    3    3    0    0 -0.13839360816E+02  0.95465921219E+01 -0.32555695491E+01  0.17124954366E+02  0.00000000000E+00 0. -1.
</event>
<event>
 7    1  0.4871930E-013  0.5052886E+02  0.7816164E-02  0.1300439E+00
        -11   -1    0    0    0    0  0.00000000000E+00  0.00000000000E+00  0.45593999997E+02  0.45594000000E+02  0.51100000000E-03 0. -1.
         11   -1    0    0    0    0 -0.00000000000E+00 -0.00000000000E+00 -0.45593999997E+02  0.45594000000E+02  0.51100000000E-03 0.  1.
    9900012    2    1    2    0    0 -0.31038939356E+02  0.59383529376E+01 -0.25582925292E+02  0.50528857628E+02  0.29999993245E+02 0.  0.
         12    1    1    2    0    0  0.31038939356E+02 -0.59383529376E+01  0.25582925292E+02  0.40659142372E+02  0.00000000000E+00 0. -1.
         11    1    3    3    0    0 -0.60332751936E+00  0.60763227686E+01 -0.71116709268E+01  0.93734500647E+01  0.51100000000E-03 0. -1.
        -11    1    3    3    0    0 -0.76992775973E+00  0.34904068628E+01 -0.91901033315E+01  0.98607164206E+01  0.51100000000E-03 0.  1.
        -12    1    3    3    0    0 -0.29665684077E+02 -0.36283766937E+01 -0.92811510336E+01  0.31294691142E+02  0.00000000000E+00 0.  1.
</event>
<event>
 7    1  0.4871930E-013  0.5052885E+02  0.7816164E-02  0.1300439E+00
        -11   -1    0    0    0    0  0.00000000000E+00  0.00000000000E+00  0.45593999997E+02  0.45594000000E+02  0.51100000000E-03 0.  1.
         11   -1    0    0    0    0 -0.00000000000E+00 -0.00000000000E+00 -0.45593999997E+02  0.45594000000E+02  0.51100000000E-03 0. -1.
    9900012    2    1    2    0    0 -0.33116643298E+02  0.22054638317E+02  0.83694102831E+01  0.50528853881E+02  0.29999981858E+02 0.  0.
         12    1    1    2    0    0  0.33116643298E+02 -0.22054638317E+02 -0.83694102831E+01  0.40659146119E+02  0.00000000000E+00 0. -1.
         11    1    3    3    0    0 -0.32791316337E+01  0.92841646214E+01  0.11410788211E+02  0.15071645725E+02  0.51100000000E-03 0.  1.
        -11    1    3    3    0    0 -0.18254745825E+02  0.23758805361E+01  0.32083275589E+01  0.18686195959E+02  0.51100000000E-03 0. -1.
        -12    1    3    3    0    0 -0.11582765839E+02  0.10394593160E+02 -0.62497054871E+01  0.16771012197E+02  0.00000000000E+00 0.  1.
</event>
<event>
 7    1  0.4871930E-013  0.5052886E+02  0.7816164E-02  0.1300439E+00
        -11   -1    0    0    0    0  0.00000000000E+00  0.00000000000E+00  0.45593999997E+02  0.45594000000E+02  0.51100000000E-03 0.  1.
         11   -1    0    0    0    0 -0.00000000000E+00 -0.00000000000E+00 -0.45593999997E+02  0.45594000000E+02  0.51100000000E-03 0. -1.
    9900012    2    1    2    0    0  0.16821590137E+02 -0.11072809171E+02  0.35321280457E+02  0.50528857722E+02  0.29999993531E+02 0.  0.
         12    1    1    2    0    0 -0.16821590137E+02  0.11072809171E+02 -0.35321280457E+02  0.40659142278E+02  0.00000000000E+00 0. -1.
         11    1    3    3    0    0  0.17116649570E+02 -0.74820538658E+01  0.14337818743E+02  0.23548542823E+02  0.51100000000E-03 0. -1.
        -11    1    3    3    0    0  0.51910833836E+01  0.54077512748E+00  0.19183089570E+02  0.19880410211E+02  0.51100000000E-03 0.  1.
         12    1    3    3    0    0 -0.54861428161E+01 -0.41315304325E+01  0.18003721434E+01  0.70999046872E+01  0.00000000000E+00 0. -1.
</event>
<event>
 7    1  0.4871930E-013  0.5052885E+02  0.7816164E-02  0.1300439E+00
        -11   -1    0    0    0    0  0.00000000000E+00  0.00000000000E+00  0.45593999997E+02  0.45594000000E+02  0.51100000000E-03 0.  1.
         11   -1    0    0    0    0 -0.00000000000E+00 -0.00000000000E+00 -0.45593999997E+02  0.45594000000E+02  0.51100000000E-03 0. -1.
    9900012    2    1    2    0    0 -0.35399787658E+02 -0.16584436319E+02  0.11179340638E+02  0.50528854026E+02  0.29999982297E+02 0.  0.
         12    1    1    2    0    0  0.35399787658E+02  0.16584436319E+02 -0.11179340638E+02  0.40659145974E+02  0.00000000000E+00 0. -1.
         11    1    3    3    0    0  0.26347644259E+01 -0.79326943321E+01 -0.98814811764E+00  0.84170101527E+01  0.51100000000E-03 0. -1.
        -11    1    3    3    0    0 -0.10170101994E+02  0.18904372911E+01  0.14239990759E+01  0.10441862925E+02  0.51100000000E-03 0.  1.
        -12    1    3    3    0    0 -0.27864450090E+02 -0.10542179278E+02  0.10743489679E+02  0.31669980948E+02  0.00000000000E+00 0.  1.
</event>
<event>
 7    1  0.4871930E-013  0.5052885E+02  0.7816164E-02  0.1300439E+00
        -11   -1    0    0    0    0  0.00000000000E+00  0.00000000000E+00  0.45593999997E+02  0.45594000000E+02  0.51100000000E-03 0. -1.
         11   -1    0    0    0    0 -0.00000000000E+00 -0.00000000000E+00 -0.45593999997E+02  0.45594000000E+02  0.51100000000E-03 0.  1.
    9900012    2    1    2    0    0  0.46824374813E+01 -0.30725927624E+02 -0.26213715424E+02  0.50528846966E+02  0.29999960838E+02 0.  0.
         12    1    1    2    0    0 -0.46824374813E+01  0.30725927624E+02  0.26213715424E+02  0.40659153034E+02  0.00000000000E+00 0. -1.
         11    1    3    3    0    0 -0.35324408019E+01 -0.77478068058E+01 -0.12445967142E+02  0.15080077807E+02  0.51100000000E-03 0.  1.
        -11    1    3    3    0    0  0.44944720178E+01  0.14805872333E+01 -0.91219449946E+01  0.10276297875E+02  0.51100000000E-03 0. -1.
        -12    1    3    3    0    0  0.37204062654E+01 -0.24458708052E+02 -0.46458032873E+01  0.25172471284E+02  0.00000000000E+00 0.  1.
</event>
<event>
 7    1  0.4871930E-013  0.5052887E+02  0.7816164E-02  0.1300439E+00
        -11   -1    0    0    0    0  0.00000000000E+00  0.00000000000E+00  0.45593999997E+02  0.45594000000E+02  0.51100000000E-03 0.  1.
         11   -1    0    0    0    0 -0.00000000000E+00 -0.00000000000E+00 -0.45593999997E+02  0.45594000000E+02  0.51100000000E-03 0. -1.
    9900012    2    1    2    0    0  0.28951165290E+01  0.30023731822E+01  0.40444642427E+02  0.50528867625E+02  0.30000023632E+02 0.  0.
         12    1    1    2    0    0 -0.28951165290E+01 -0.30023731822E+01 -0.40444642427E+02  0.40659132375E+02  0.00000000000E+00 0. -1.
         11    1    3    3    0    0  0.87734893709E+01  0.13648157303E+02  0.25260323032E+02  0.30022162371E+02  0.51100000000E-03 0.  1.
        -11    1    3    3    0    0 -0.13897530101E+00 -0.43567036665E+01  0.19618315699E+01  0.47800590312E+01  0.51100000000E-03 0. -1.
        -12    1    3    3    0    0 -0.57393975409E+01 -0.62890804545E+01  0.13222487826E+02  0.15726646222E+02  0.00000000000E+00 0.  1.
</event>
<event>
 7    1  0.4871930E-013  0.5052886E+02  0.7816164E-02  0.1300439E+00
        -11   -1    0    0    0    0  0.00000000000E+00  0.00000000000E+00  0.45593999997E+02  0.45594000000E+02  0.51100000000E-03 0. -1.
         11   -1    0    0    0    0 -0.00000000000E+00 -0.00000000000E+00 -0.45593999997E+02  0.45594000000E+02  0.51100000000E-03 0.  1.
    9900012    2    1    2    0    0 -0.33343757633E+02  0.35006334379E+01 -0.23002288440E+02  0.50528857350E+02  0.29999992402E+02 0.  0.
         12    1    1    2    0    0  0.33343757633E+02 -0.35006334379E+01  0.23002288440E+02  0.40659142650E+02  0.00000000000E+00 0. -1.
         11    1    3    3    0    0  0.50825590817E+01  0.38715486001E+00 -0.48159807669E+01  0.70125577868E+01  0.51100000000E-03 0. -1.
        -11    1    3    3    0    0 -0.19125412617E+02 -0.15990849133E+00 -0.45535994356E+01  0.19660677674E+02  0.51100000000E-03 0.  1.
        -12    1    3    3    0    0 -0.19300904097E+02  0.32733870693E+01 -0.13632708237E+02  0.23855621890E+02  0.00000000000E+00 0.  1.
</event>
<event>
 7    1  0.4871930E-013  0.5052880E+02  0.7816164E-02  0.1300439E+00
        -11   -1    0    0    0    0  0.00000000000E+00  0.00000000000E+00  0.45593999997E+02  0.45594000000E+02  0.51100000000E-03 0.  1.
         11   -1    0    0    0    0 -0.00000000000E+00 -0.00000000000E+00 -0.45593999997E+02  0.45594000000E+02  0.51100000000E-03 0. -1.
    9900012    2    1    2    0    0  0.29029816927E+02  0.47237807376E+01  0.28073585102E+02  0.50528799864E+02  0.29999817666E+02 0.  0.
         12    1    1    2    0    0 -0.29029816927E+02 -0.47237807376E+01 -0.28073585102E+02  0.40659200136E+02  0.00000000000E+00 0. -1.
         11    1    3    3    0    0  0.14790925933E+02  0.12655603619E+02  0.10665496397E+02  0.22196589976E+02  0.51100000000E-03 0. -1.
        -11    1    3    3    0    0  0.16409931731E+02 -0.28586736616E+01  0.11459417278E+02  0.20218212560E+02  0.51100000000E-03 0.  1.
         12    1    3    3    0    0 -0.21710407366E+01 -0.50731492202E+01  0.59486714264E+01  0.81139973274E+01  0.00000000000E+00 0. -1.
</event>
<event>
 7    1  0.4871930E-013  0.5052888E+02  0.7816164E-02  0.1300439E+00
        -11   -1    0    0    0    0  0.00000000000E+00  0.00000000000E+00  0.45593999997E+02  0.45594000000E+02  0.51100000000E-03 0.  1.
         11   -1    0    0    0    0 -0.00000000000E+00 -0.00000000000E+00 -0.45593999997E+02  0.45594000000E+02  0.51100000000E-03 0. -1.
    9900012    2    1    2    0    0 -0.19272979131E+02  0.22387561834E+01  0.35731002089E+02  0.50528877233E+02  0.30000052839E+02 0.  0.
         12    1    1    2    0    0  0.19272979131E+02 -0.22387561834E+01 -0.35731002089E+02  0.40659122767E+02  0.00000000000E+00 0. -1.
         11    1    3    3    0    0  0.26057780645E+01  0.58075769767E+01  0.79687071069E+01  0.10198937341E+02  0.51100000000E-03 0. -1.
        -11    1    3    3    0    0 -0.61159801462E+01  0.50761649507E+00 -0.19583538352E+01  0.64418970544E+01  0.51100000000E-03 0.  1.
        -12    1    3    3    0    0 -0.15762777049E+02 -0.40764372884E+01  0.29720648818E+02  0.33888042838E+02  0.00000000000E+00 0.  1.
</event>
<event>
 7    1  0.4871930E-013  0.5052886E+02  0.7816164E-02  0.1300439E+00
        -11   -1    0    0    0    0  0.00000000000E+00  0.00000000000E+00  0.45593999997E+02  0.45594000000E+02  0.51100000000E-03 0.  1.
         11   -1    0    0    0    0 -0.00000000000E+00 -0.00000000000E+00 -0.45593999997E+02  0.45594000000E+02  0.51100000000E-03 0. -1.
    9900012    2    1    2    0    0  0.39725301909E+02 -0.70410010409E+01  0.50487890272E+01  0.50528861076E+02  0.30000003725E+02 0.  0.
         12    1    1    2    0    0 -0.39725301909E+02  0.70410010409E+01 -0.50487890272E+01  0.40659138924E+02  0.00000000000E+00 0. -1.
         11    1    3    3    0    0  0.71624629576E+01 -0.10533080628E+02 -0.32996904581E+01  0.13158062947E+02  0.51100000000E-03 0. -1.
        -11    1    3    3    0    0  0.11359932409E+02  0.90268273619E+01  0.30812738849E+01  0.14833270899E+02  0.51100000000E-03 0.  1.
        -12    1    3    3    0    0  0.21202906543E+02 -0.55347477752E+01  0.52672056004E+01  0.22537527230E+02  0.00000000000E+00 0.  1.
</event>
<event>
 7    1  0.4871930E-013  0.5052886E+02  0.7816164E-02  0.1300439E+00
        -11   -1    0    0    0    0  0.00000000000E+00  0.00000000000E+00  0.45593999997E+02  0.45594000000E+02  0.51100000000E-03 0. -1.
         11   -1    0    0    0    0 -0.00000000000E+00 -0.00000000000E+00 -0.45593999997E+02  0.45594000000E+02  0.51100000000E-03 0.  1.
    9900012    2    1    2    0    0  0.19313118204E+02 -0.35411435689E+02 -0.51184985658E+01  0.50528864005E+02  0.30000012629E+02 0.  0.
         12    1    1    2    0    0 -0.19313118204E+02  0.35411435689E+02  0.51184985658E+01  0.40659135995E+02  0.00000000000E+00 0. -1.
         11    1    3    3    0    0 -0.43773444666E+01 -0.83079287963E+01  0.29437853122E+01  0.98411735931E+01  0.51100000000E-03 0. -1.
        -11    1    3    3    0    0  0.49115758761E+01 -0.16972653044E+02 -0.78876514520E+01  0.19349666008E+02  0.51100000000E-03 0.  1.
         12    1    3    3    0    0  0.18778886795E+02 -0.10130853848E+02 -0.17463242610E+00  0.21338024403E+02  0.00000000000E+00 0. -1.
</event>
<event>
 7    1  0.4871930E-013  0.5052886E+02  0.7816164E-02  0.1300439E+00
        -11   -1    0    0    0    0  0.00000000000E+00  0.00000000000E+00  0.45593999997E+02  0.45594000000E+02  0.51100000000E-03 0. -1.
         11   -1    0    0    0    0 -0.00000000000E+00 -0.00000000000E+00 -0.45593999997E+02  0.45594000000E+02  0.51100000000E-03 0.  1.
    9900012    2    1    2    0    0 -0.38288783794E+02  0.13678502948E+02 -0.18216328395E+00  0.50528860919E+02  0.30000003249E+02 0.  0.
         12    1    1    2    0    0  0.38288783794E+02 -0.13678502948E+02  0.18216328395E+00  0.40659139081E+02  0.00000000000E+00 0. -1.
         11    1    3    3    0    0 -0.56403991458E+01 -0.33636854094E+01  0.22973570353E+01  0.69574658940E+01  0.51100000000E-03 0. -1.
        -11    1    3    3    0    0 -0.10019134342E+02  0.14213393166E+02  0.71682482445E+01  0.18809236598E+02  0.51100000000E-03 0.  1.
        -12    1    3    3    0    0 -0.22629250307E+02  0.28287951917E+01 -0.96477685637E+01  0.24762158427E+02  0.00000000000E+00 0.  1.
</event>
<event>
 7    1  0.4871930E-013  0.5052886E+02  0.7816164E-02  0.1300439E+00
        -11   -1    0    0    0    0  0.00000000000E+00  0.00000000000E+00  0.45593999997E+02  0.45594000000E+02  0.51100000000E-03 0.  1.
         11   -1    0    0    0    0 -0.00000000000E+00 -0.00000000000E+00 -0.45593999997E+02  0.45594000000E+02  0.51100000000E-03 0. -1.
    9900012    2    1    2    0    0 -0.26199160702E+02 -0.74756846736E+01  0.30180851555E+02  0.50528859780E+02  0.29999999787E+02 0.  0.
         12    1    1    2    0    0  0.26199160702E+02  0.74756846736E+01 -0.30180851555E+02  0.40659140220E+02  0.00000000000E+00 0. -1.
         11    1    3    3    0    0 -0.30025911553E+02 -0.49374350215E+01  0.18264376877E+02  0.35489732208E+02  0.51100000000E-03 0.  1.
        -11    1    3    3    0    0  0.84970956181E+00 -0.46560765952E+01  0.96270313310E+01  0.10727571398E+02  0.51100000000E-03 0. -1.
        -12    1    3    3    0    0  0.29770412893E+01  0.21178269431E+01  0.22894433470E+01  0.43115561737E+01  0.00000000000E+00 0.  1.
</event>
<event>
 7    1  0.4871930E-013  0.5052886E+02  0.7816164E-02  0.1300439E+00
        -11   -1    0    0    0    0  0.00000000000E+00  0.00000000000E+00  0.45593999997E+02  0.45594000000E+02  0.51100000000E-03 0. -1.
         11   -1    0    0    0    0 -0.00000000000E+00 -0.00000000000E+00 -0.45593999997E+02  0.45594000000E+02  0.51100000000E-03 0.  1.
    9900012    2    1    2    0    0 -0.26639448281E+02 -0.76870916250E+01 -0.29739097758E+02  0.50528861816E+02  0.30000005975E+02 0.  0.
         12    1    1    2    0    0  0.26639448281E+02  0.76870916250E+01  0.29739097758E+02  0.40659138184E+02  0.00000000000E+00 0. -1.
         11    1    3    3    0    0 -0.15336438440E+02 -0.53183658511E+01 -0.35515252959E+01  0.16616398272E+02  0.51100000000E-03 0. -1.
        -11    1    3    3    0    0 -0.18557185706E+01 -0.78647316260E+01 -0.36546829439E+01  0.88687317382E+01  0.51100000000E-03 0.  1.
        -12    1    3    3    0    0 -0.94472912708E+01  0.54960058522E+01 -0.22532889519E+02  0.25043731805E+02  0.00000000000E+00 0.  1.
</event>
<event>
 7    1  0.4871930E-013  0.5052886E+02  0.7816164E-02  0.1300439E+00
        -11   -1    0    0    0    0  0.00000000000E+00  0.00000000000E+00  0.45593999997E+02  0.45594000000E+02  0.51100000000E-03 0.  1.
         11   -1    0    0    0    0 -0.00000000000E+00 -0.00000000000E+00 -0.45593999997E+02  0.45594000000E+02  0.51100000000E-03 0. -1.
    9900012    2    1    2    0    0 -0.84393594843E+01  0.28723361600E+02  0.27512023442E+02  0.50528859282E+02  0.29999998272E+02 0.  0.
         12    1    1    2    0    0  0.84393594843E+01 -0.28723361600E+02 -0.27512023442E+02  0.40659140718E+02  0.00000000000E+00 0. -1.
         11    1    3    3    0    0 -0.95064327021E+01  0.45449602675E+01  0.45608764083E+01  0.11481747272E+02  0.51100000000E-03 0. -1.
        -11    1    3    3    0    0 -0.14871471198E+01 -0.24999454343E+01  0.76546431907E+01  0.81887054147E+01  0.51100000000E-03 0.  1.
        -12    1    3    3    0    0  0.25542203376E+01  0.26678346767E+02  0.15296503843E+02  0.30858406594E+02  0.00000000000E+00 0.  1.
</event>
<event>
 7    1  0.4871930E-013  0.5052875E+02  0.7816164E-02  0.1300439E+00
        -11   -1    0    0    0    0  0.00000000000E+00  0.00000000000E+00  0.45593999997E+02  0.45594000000E+02  0.51100000000E-03 0. -1.
         11   -1    0    0    0    0 -0.00000000000E+00 -0.00000000000E+00 -0.45593999997E+02  0.45594000000E+02  0.51100000000E-03 0.  1.
    9900012    2    1    2    0    0 -0.26495603931E+02  0.18053397100E+02 -0.25004647800E+02  0.50528750301E+02  0.29999667012E+02 0.  0.
         12    1    1    2    0    0  0.26495603931E+02 -0.18053397100E+02  0.25004647800E+02  0.40659249699E+02  0.00000000000E+00 0. -1.
         11    1    3    3    0    0  0.34608144458E+01 -0.10541557479E+01  0.13456329218E+01  0.38599493767E+01  0.51100000000E-03 0. -1.
        -11    1    3    3    0    0 -0.10816310303E+02  0.12593138000E+02 -0.51685231727E+01  0.17386584636E+02  0.51100000000E-03 0.  1.
        -12    1    3    3    0    0 -0.19140108074E+02  0.65144148485E+01 -0.21181757549E+02  0.29282216288E+02  0.00000000000E+00 0.  1.
</event>
<event>
 7    1  0.4871930E-013  0.5052886E+02  0.7816164E-02  0.1300439E+00
        -11   -1    0    0    0    0  0.00000000000E+00  0.00000000000E+00  0.45593999997E+02  0.45594000000E+02  0.51100000000E-03 0.  1.
         11   -1    0    0    0    0 -0.00000000000E+00 -0.00000000000E+00 -0.45593999997E+02  0.45594000000E+02  0.51100000000E-03 0. -1.
    9900012    2    1    2    0    0  0.34841225233E+02 -0.20545600117E+02  0.41392442891E+01  0.50528855848E+02  0.29999987835E+02 0.  0.
         12    1    1    2    0    0 -0.34841225233E+02  0.20545600117E+02 -0.41392442891E+01  0.40659144152E+02  0.00000000000E+00 0. -1.
         11    1    3    3    0    0  0.20153432771E+01  0.41242059625E+01  0.14934157617E+01  0.48271082693E+01  0.51100000000E-03 0. -1.
        -11    1    3    3    0    0  0.10567525709E+02 -0.23858486804E+01 -0.68351428018E+01  0.12809529692E+02  0.51100000000E-03 0.  1.
         12    1    3    3    0    0  0.22258356246E+02 -0.22283957400E+02  0.94809713291E+01  0.32892217887E+02  0.00000000000E+00 0. -1.
</event>
<event>
 7    1  0.4871930E-013  0.5052887E+02  0.7816164E-02  0.1300439E+00
        -11   -1    0    0    0    0  0.00000000000E+00  0.00000000000E+00  0.45593999997E+02  0.45594000000E+02  0.51100000000E-03 0. -1.
         11   -1    0    0    0    0 -0.00000000000E+00 -0.00000000000E+00 -0.45593999997E+02  0.45594000000E+02  0.51100000000E-03 0.  1.
    9900012    2    1    2    0    0  0.26757240997E+02 -0.12490142803E+02 -0.27950161143E+02  0.50528866697E+02  0.30000020813E+02 0.  0.
         12    1    1    2    0    0 -0.26757240997E+02  0.12490142803E+02  0.27950161143E+02  0.40659133303E+02  0.00000000000E+00 0. -1.
         11    1    3    3    0    0  0.32121597077E+00  0.58299708638E+01 -0.35043524137E+00  0.58493200538E+01  0.51100000000E-03 0. -1.
        -11    1    3    3    0    0  0.93627160809E+01 -0.24748961125E-01 -0.11885663247E+02  0.15130434759E+02  0.51100000000E-03 0.  1.
         12    1    3    3    0    0  0.17073308945E+02 -0.18295364705E+02 -0.15714062655E+02  0.29549111884E+02  0.00000000000E+00 0. -1.
</event>
<event>
 7    1  0.4871930E-013  0.5052886E+02  0.7816164E-02  0.1300439E+00
        -11   -1    0    0    0    0  0.00000000000E+00  0.00000000000E+00  0.45593999997E+02  0.45594000000E+02  0.51100000000E-03 0.  1.
         11   -1    0    0    0    0 -0.00000000000E+00 -0.00000000000E+00 -0.45593999997E+02  0.45594000000E+02  0.51100000000E-03 0. -1.
    9900012    2    1    2    0    0  0.24468477761E+02  0.16003511816E+01  0.32432982583E+02  0.50528857276E+02  0.29999992177E+02 0.  0.
         12    1    1    2    0    0 -0.24468477761E+02 -0.16003511816E+01 -0.32432982583E+02  0.40659142724E+02  0.00000000000E+00 0. -1.
         11    1    3    3    0    0  0.10251705046E+02 -0.10234252750E+02  0.10368421111E+02  0.17814082696E+02  0.51100000000E-03 0. -1.
        -11    1    3    3    0    0  0.72941651285E+01 -0.59221458178E+00  0.15306821834E+02  0.16966271186E+02  0.51100000000E-03 0.  1.
         12    1    3    3    0    0  0.69226075859E+01  0.12426818513E+02  0.67577396374E+01  0.15748503394E+02  0.00000000000E+00 0. -1.
</event>
<event>
 7    1  0.4871930E-013  0.5052886E+02  0.7816164E-02  0.1300439E+00
        -11   -1    0    0    0    0  0.00000000000E+00  0.00000000000E+00  0.45593999997E+02  0.45594000000E+02  0.51100000000E-03 0.  1.
         11   -1    0    0    0    0 -0.00000000000E+00 -0.00000000000E+00 -0.45593999997E+02  0.45594000000E+02  0.51100000000E-03 0. -1.
    9900012    2    1    2    0    0 -0.26035629260E+02  0.13211606133E+02  0.28297793722E+02  0.50528860104E+02  0.30000000772E+02 0.  0.
         12    1    1    2    0    0  0.26035629260E+02 -0.13211606133E+02 -0.28297793722E+02  0.40659139896E+02  0.00000000000E+00 0. -1.
         11    1    3    3    0    0 -0.17646896362E+02  0.12569697756E+02  0.58509687706E+01  0.22442016146E+02  0.51100000000E-03 0. -1.
        -11    1    3    3    0    0 -0.12138284790E+02  0.26763472913E+01  0.18412981187E+02  0.22215730213E+02  0.51100000000E-03 0.  1.
         12    1    3    3    0    0  0.37495518916E+01 -0.20344389146E+01  0.40338437640E+01  0.58711137442E+01  0.00000000000E+00 0. -1.
</event>
<event>
 7    1  0.4871930E-013  0.5052887E+02  0.7816164E-02  0.1300439E+00
        -11   -1    0    0    0    0  0.00000000000E+00  0.00000000000E+00  0.45593999997E+02  0.45594000000E+02  0.51100000000E-03 0.  1.
         11   -1    0    0    0    0 -0.00000000000E+00 -0.00000000000E+00 -0.45593999997E+02  0.45594000000E+02  0.51100000000E-03 0. -1.
    9900012    2    1    2    0    0  0.30737197493E+02 -0.17090609783E+02 -0.20403436332E+02  0.50528874744E+02  0.30000045272E+02 0.  0.
         12    1    1    2    0    0 -0.30737197493E+02  0.17090609783E+02  0.20403436332E+02  0.40659125256E+02  0.00000000000E+00 0. -1.
         11    1    3    3    0    0  0.31726828596E+01  0.54295679350E+01  0.24394534094E+00  0.62933007301E+01  0.51100000000E-03 0. -1.
        -11    1    3    3    0    0  0.41190032639E+01 -0.93048715608E+01  0.22283594799E+00  0.10178235543E+02  0.51100000000E-03 0.  1.
         12    1    3    3    0    0  0.23445511369E+02 -0.13215306157E+02 -0.20870217621E+02  0.34057338471E+02  0.00000000000E+00 0. -1.
</event>
<event>
 7    1  0.4871930E-013  0.5052886E+02  0.7816164E-02  0.1300439E+00
        -11   -1    0    0    0    0  0.00000000000E+00  0.00000000000E+00  0.45593999997E+02  0.45594000000E+02  0.51100000000E-03 0.  1.
         11   -1    0    0    0    0 -0.00000000000E+00 -0.00000000000E+00 -0.45593999997E+02  0.45594000000E+02  0.51100000000E-03 0. -1.
    9900012    2    1    2    0    0  0.36922497498E+02 -0.43065664635E+01  0.16472661065E+02  0.50528857132E+02  0.29999991738E+02 0.  0.
         12    1    1    2    0    0 -0.36922497498E+02  0.43065664635E+01 -0.16472661065E+02  0.40659142868E+02  0.00000000000E+00 0. -1.
         11    1    3    3    0    0  0.11542482189E+02  0.74970144923E+01  0.37318747324E+01  0.14260470212E+02  0.51100000000E-03 0. -1.
        -11    1    3    3    0    0  0.15496299592E+02 -0.47548883023E+01 -0.29025673703E+01  0.16467214743E+02  0.51100000000E-03 0.  1.
        -12    1    3    3    0    0  0.98837157180E+01 -0.70486926535E+01  0.15643353703E+02  0.19801172177E+02  0.00000000000E+00 0.  1.
</event>
<event>
 7    1  0.4871930E-013  0.5052885E+02  0.7816164E-02  0.1300439E+00
        -11   -1    0    0    0    0  0.00000000000E+00  0.00000000000E+00  0.45593999997E+02  0.45594000000E+02  0.51100000000E-03 0.  1.
         11   -1    0    0    0    0 -0.00000000000E+00 -0.00000000000E+00 -0.45593999997E+02  0.45594000000E+02  0.51100000000E-03 0. -1.
    9900012    2    1    2    0    0 -0.25875708573E+02 -0.61955595556E+01  0.30744578355E+02  0.50528851576E+02  0.29999974850E+02 0.  0.
         12    1    1    2    0    0  0.25875708573E+02  0.61955595556E+01 -0.30744578355E+02  0.40659148424E+02  0.00000000000E+00 0. -1.
         11    1    3    3    0    0  0.36564439218E+01 -0.56274226700E+00  0.15808926033E+01  0.40231185288E+01  0.51100000000E-03 0. -1.
        -11    1    3    3    0    0 -0.97657433061E+01 -0.11087287172E+02  0.17545771844E+02  0.22937998801E+02  0.51100000000E-03 0.  1.
         12    1    3    3    0    0 -0.19766409189E+02  0.54544698833E+01  0.11617913908E+02  0.23567734246E+02  0.00000000000E+00 0. -1.
</event>
<event>
 7    1  0.4871930E-013  0.5052885E+02  0.7816164E-02  0.1300439E+00
        -11   -1    0    0    0    0  0.00000000000E+00  0.00000000000E+00  0.45593999997E+02  0.45594000000E+02  0.51100000000E-03 0.  1.
         11   -1    0    0    0    0 -0.00000000000E+00 -0.00000000000E+00 -0.45593999997E+02  0.45594000000E+02  0.51100000000E-03 0. -1.
    9900012    2    1    2    0    0 -0.20493838125E+02  0.25348911584E+02  0.24302298027E+02  0.50528850858E+02  0.29999972667E+02 0.  0.
         12    1    1    2    0    0  0.20493838125E+02 -0.25348911584E+02 -0.24302298027E+02  0.40659149142E+02  0.00000000000E+00 0. -1.
         11    1    3    3    0    0  0.31082447271E+01  0.83811750518E+01  0.93380663439E+01  0.12926900782E+02  0.51100000000E-03 0. -1.
        -11    1    3    3    0    0 -0.40651737826E+01  0.12706194938E+02  0.13450669099E+01  0.13408289710E+02  0.51100000000E-03 0.  1.
         12    1    3    3    0    0 -0.19536909070E+02  0.42615415941E+01  0.13619164773E+02  0.24193660365E+02  0.00000000000E+00 0. -1.
</event>
<event>
 7    1  0.4871930E-013  0.5052885E+02  0.7816164E-02  0.1300439E+00
        -11   -1    0    0    0    0  0.00000000000E+00  0.00000000000E+00  0.45593999997E+02  0.45594000000E+02  0.51100000000E-03 0. -1.
         11   -1    0    0    0    0 -0.00000000000E+00 -0.00000000000E+00 -0.45593999997E+02  0.45594000000E+02  0.51100000000E-03 0.  1.
    9900012    2    1    2    0    0  0.36505065415E+02 -0.34519547671E+01 -0.17567881624E+02  0.50528852722E+02  0.29999978333E+02 0.  0.
         12    1    1    2    0    0 -0.36505065415E+02  0.34519547671E+01  0.17567881624E+02  0.40659147278E+02  0.00000000000E+00 0. -1.
         11    1    3    3    0    0  0.78483351691E+01 -0.66477751813E+00 -0.15168488188E+02  0.17091557221E+02  0.51100000000E-03 0.  1.
        -11    1    3    3    0    0 -0.22450401116E+01  0.12608772588E+00  0.35542018111E+00  0.22764944506E+01  0.51100000000E-03 0. -1.
        -12    1    3    3    0    0  0.30901770357E+02 -0.29132649748E+01 -0.27548136178E+01  0.31160801050E+02  0.00000000000E+00 0.  1.
</event>
<event>
 7    1  0.4871930E-013  0.5052886E+02  0.7816164E-02  0.1300439E+00
        -11   -1    0    0    0    0  0.00000000000E+00  0.00000000000E+00  0.45593999997E+02  0.45594000000E+02  0.51100000000E-03 0.  1.
         11   -1    0    0    0    0 -0.00000000000E+00 -0.00000000000E+00 -0.45593999997E+02  0.45594000000E+02  0.51100000000E-03 0. -1.
    9900012    2    1    2    0    0  0.13163443019E+02 -0.32560260496E+02  0.20487037321E+02  0.50528862111E+02  0.30000006873E+02 0.  0.
         12    1    1    2    0    0 -0.13163443019E+02  0.32560260496E+02 -0.20487037321E+02  0.40659137889E+02  0.00000000000E+00 0. -1.
         11    1    3    3    0    0  0.28199954291E+01 -0.10823731053E+01  0.15635138408E+01  0.34012470582E+01  0.51100000000E-03 0.  1.
        -11    1    3    3    0    0 -0.29143701184E+01 -0.29417864955E+02  0.14994563606E+02  0.33147266398E+02  0.51100000000E-03 0. -1.
         12    1    3    3    0    0  0.13257817708E+02 -0.20600224364E+01  0.39289598737E+01  0.13980348655E+02  0.00000000000E+00 0. -1.
</event>
<event>
 7    1  0.4871930E-013  0.5052886E+02  0.7816164E-02  0.1300439E+00
        -11   -1    0    0    0    0  0.00000000000E+00  0.00000000000E+00  0.45593999997E+02  0.45594000000E+02  0.51100000000E-03 0. -1.
         11   -1    0    0    0    0 -0.00000000000E+00 -0.00000000000E+00 -0.45593999997E+02  0.45594000000E+02  0.51100000000E-03 0.  1.
    9900012    2    1    2    0    0 -0.13380804194E+02 -0.25242688737E+02 -0.28929682796E+02  0.50528858319E+02  0.29999995347E+02 0.  0.
         12    1    1    2    0    0  0.13380804194E+02  0.25242688737E+02  0.28929682796E+02  0.40659141681E+02  0.00000000000E+00 0. -1.
         11    1    3    3    0    0 -0.27559425340E+00  0.46948681746E+01 -0.29221563641E+01  0.55368526662E+01  0.51100000000E-03 0. -1.
        -11    1    3    3    0    0  0.28900869898E+01 -0.12274641659E+02 -0.11672674587E+02  0.17183444444E+02  0.51100000000E-03 0.  1.
         12    1    3    3    0    0 -0.15995296931E+02 -0.17662915252E+02 -0.14334851845E+02  0.27808561209E+02  0.00000000000E+00 0. -1.
</event>
<event>
 7    1  0.4871930E-013  0.5052885E+02  0.7816164E-02  0.1300439E+00
        -11   -1    0    0    0    0  0.00000000000E+00  0.00000000000E+00  0.45593999997E+02  0.45594000000E+02  0.51100000000E-03 0.  1.
         11   -1    0    0    0    0 -0.00000000000E+00 -0.00000000000E+00 -0.45593999997E+02  0.45594000000E+02  0.51100000000E-03 0. -1.
    9900012    2    1    2    0    0 -0.13542778372E+02 -0.20310730817E+02  0.32515129307E+02  0.50528852614E+02  0.29999978004E+02 0.  0.
         12    1    1    2    0    0  0.13542778372E+02  0.20310730817E+02 -0.32515129307E+02  0.40659147386E+02  0.00000000000E+00 0. -1.
         11    1    3    3    0    0 -0.50564011941E+01 -0.20600561124E+02  0.17557271974E+02  0.27535579004E+02  0.51100000000E-03 0. -1.
        -11    1    3    3    0    0 -0.11894790214E+02 -0.26894074858E+01  0.13600433069E+02  0.18267203584E+02  0.51100000000E-03 0.  1.
        -12    1    3    3    0    0  0.34084130361E+01  0.29792377933E+01  0.13574242643E+01  0.47260700256E+01  0.00000000000E+00 0.  1.
</event>
<event>
 7    1  0.4871930E-013  0.5052885E+02  0.7816164E-02  0.1300439E+00
        -11   -1    0    0    0    0  0.00000000000E+00  0.00000000000E+00  0.45593999997E+02  0.45594000000E+02  0.51100000000E-03 0.  1.
         11   -1    0    0    0    0 -0.00000000000E+00 -0.00000000000E+00 -0.45593999997E+02  0.45594000000E+02  0.51100000000E-03 0. -1.
    9900012    2    1    2    0    0 -0.71832321986E+01  0.87439786221E+01  0.39052659221E+02  0.50528853683E+02  0.29999981256E+02 0.  0.
         12    1    1    2    0    0  0.71832321986E+01 -0.87439786221E+01 -0.39052659221E+02  0.40659146317E+02  0.00000000000E+00 0. -1.
         11    1    3    3    0    0  0.68500943758E+01  0.32371481124E+01  0.15191026049E+02  0.16975576383E+02  0.51100000000E-03 0. -1.
        -11    1    3    3    0    0 -0.49681075871E+01 -0.59603401326E+01  0.35609751271E+01  0.85374640034E+01  0.51100000000E-03 0.  1.
        -12    1    3    3    0    0 -0.90652189874E+01  0.11467170642E+02  0.20300658046E+02  0.25015813297E+02  0.00000000000E+00 0.  1.
</event>
<event>
 7    1  0.4871930E-013  0.5052886E+02  0.7816164E-02  0.1300439E+00
        -11   -1    0    0    0    0  0.00000000000E+00  0.00000000000E+00  0.45593999997E+02  0.45594000000E+02  0.51100000000E-03 0. -1.
         11   -1    0    0    0    0 -0.00000000000E+00 -0.00000000000E+00 -0.45593999997E+02  0.45594000000E+02  0.51100000000E-03 0.  1.
    9900012    2    1    2    0    0  0.33027694295E+02  0.12174994728E+02 -0.20349605637E+02  0.50528861585E+02  0.30000005275E+02 0.  0.
         12    1    1    2    0    0 -0.33027694295E+02 -0.12174994728E+02  0.20349605637E+02  0.40659138415E+02  0.00000000000E+00 0. -1.
         11    1    3    3    0    0  0.93873904301E+01  0.11086808531E+01  0.36598362339E+01  0.10136403398E+02  0.51100000000E-03 0. -1.
        -11    1    3    3    0    0  0.11272699712E+02 -0.47608385890E+01 -0.71798365750E+01  0.14187649431E+02  0.51100000000E-03 0.  1.
         12    1    3    3    0    0  0.12367604153E+02  0.15827152463E+02 -0.16829605296E+02  0.26204808757E+02  0.00000000000E+00 0. -1.
</event>
<event>
 7    1  0.4871930E-013  0.5052886E+02  0.7816164E-02  0.1300439E+00
        -11   -1    0    0    0    0  0.00000000000E+00  0.00000000000E+00  0.45593999997E+02  0.45594000000E+02  0.51100000000E-03 0.  1.
         11   -1    0    0    0    0 -0.00000000000E+00 -0.00000000000E+00 -0.45593999997E+02  0.45594000000E+02  0.51100000000E-03 0. -1.
    9900012    2    1    2    0    0 -0.31576235473E+01 -0.43496072581E+01  0.40302307885E+02  0.50528859692E+02  0.29999999519E+02 0.  0.
         12    1    1    2    0    0  0.31576235473E+01  0.43496072581E+01 -0.40302307885E+02  0.40659140308E+02  0.00000000000E+00 0. -1.
         11    1    3    3    0    0  0.44922673303E+01  0.82006732677E+01  0.61764947027E+01  0.11206274800E+02  0.51100000000E-03 0.  1.
        -11    1    3    3    0    0 -0.20505406990E+01 -0.43411712187E+01  0.12264030994E+01  0.49552547393E+01  0.51100000000E-03 0. -1.
        -12    1    3    3    0    0 -0.55993501787E+01 -0.82091093071E+01  0.32899410083E+02  0.34367330153E+02  0.00000000000E+00 0.  1.
</event>
<event>
 7    1  0.4871930E-013  0.5052885E+02  0.7816164E-02  0.1300439E+00
        -11   -1    0    0    0    0  0.00000000000E+00  0.00000000000E+00  0.45593999997E+02  0.45594000000E+02  0.51100000000E-03 0.  1.
         11   -1    0    0    0    0 -0.00000000000E+00 -0.00000000000E+00 -0.45593999997E+02  0.45594000000E+02  0.51100000000E-03 0. -1.
    9900012    2    1    2    0    0 -0.35599909059E+02  0.52025078497E+01  0.18940604944E+02  0.50528854306E+02  0.29999983148E+02 0.  0.
         12    1    1    2    0    0  0.35599909059E+02 -0.52025078497E+01 -0.18940604944E+02  0.40659145694E+02  0.00000000000E+00 0. -1.
         11    1    3    3    0    0  0.41537189492E+00  0.84641680338E+01 -0.94607185914E+00  0.85269998557E+01  0.51100000000E-03 0. -1.
        -11    1    3    3    0    0 -0.81014385497E+01  0.15387194941E+01  0.19408700567E+01  0.84715961362E+01  0.51100000000E-03 0.  1.
         12    1    3    3    0    0 -0.27913842404E+02 -0.48003796782E+01  0.17945806747E+02  0.33530258314E+02  0.00000000000E+00 0. -1.
</event>
<event>
 7    1  0.4871930E-013  0.5052886E+02  0.7816164E-02  0.1300439E+00
        -11   -1    0    0    0    0  0.00000000000E+00  0.00000000000E+00  0.45593999997E+02  0.45594000000E+02  0.51100000000E-03 0. -1.
         11   -1    0    0    0    0 -0.00000000000E+00 -0.00000000000E+00 -0.45593999997E+02  0.45594000000E+02  0.51100000000E-03 0.  1.
    9900012    2    1    2    0    0  0.14558275186E+02  0.15500052906E+02 -0.34655018822E+02  0.50528863929E+02  0.30000012400E+02 0.  0.
         12    1    1    2    0    0 -0.14558275186E+02 -0.15500052906E+02  0.34655018822E+02  0.40659136071E+02  0.00000000000E+00 0. -1.
         11    1    3    3    0    0  0.50912462682E+01  0.85796363451E+01 -0.18890755882E+02  0.21363323862E+02  0.51100000000E-03 0. -1.
        -11    1    3    3    0    0 -0.24066589375E+01 -0.35445111973E+01 -0.12216001564E+02  0.12945511243E+02  0.51100000000E-03 0.  1.
         12    1    3    3    0    0  0.11873687856E+02  0.10464927758E+02 -0.35482613754E+01  0.16220028824E+02  0.00000000000E+00 0. -1.
</event>
<event>
 7    1  0.4871930E-013  0.5052886E+02  0.7816164E-02  0.1300439E+00
        -11   -1    0    0    0    0  0.00000000000E+00  0.00000000000E+00  0.45593999997E+02  0.45594000000E+02  0.51100000000E-03 0.  1.
         11   -1    0    0    0    0 -0.00000000000E+00 -0.00000000000E+00 -0.45593999997E+02  0.45594000000E+02  0.51100000000E-03 0. -1.
    9900012    2    1    2    0    0 -0.26848075016E+02 -0.24040954919E+02  0.18824955166E+02  0.50528861021E+02  0.30000003561E+02 0.  0.
         12    1    1    2    0    0  0.26848075016E+02  0.24040954919E+02 -0.18824955166E+02  0.40659138979E+02  0.00000000000E+00 0. -1.
         11    1    3    3    0    0 -0.17306962732E+02 -0.62803842590E+01 -0.28204213730E+01  0.18626029164E+02  0.51100000000E-03 0. -1.
        -11    1    3    3    0    0  0.17549583070E+01  0.60669040915E+00  0.20554375003E+01  0.27699775253E+01  0.51100000000E-03 0.  1.
        -12    1    3    3    0    0 -0.11296070591E+02 -0.18367261069E+02  0.19589939039E+02  0.29132854332E+02  0.00000000000E+00 0.  1.
</event>
<event>
 7    1  0.4871930E-013  0.5052886E+02  0.7816164E-02  0.1300439E+00
        -11   -1    0    0    0    0  0.00000000000E+00  0.00000000000E+00  0.45593999997E+02  0.45594000000E+02  0.51100000000E-03 0.  1.
         11   -1    0    0    0    0 -0.00000000000E+00 -0.00000000000E+00 -0.45593999997E+02  0.45594000000E+02  0.51100000000E-03 0. -1.
    9900012    2    1    2    0    0 -0.15741319953E+02 -0.23615511828E+02  0.29115016014E+02  0.50528859450E+02  0.29999998785E+02 0.  0.
         12    1    1    2    0    0  0.15741319953E+02  0.23615511828E+02 -0.29115016014E+02  0.40659140550E+02  0.00000000000E+00 0. -1.
         11    1    3    3    0    0 -0.41285751886E+01 -0.14857707628E+02  0.23619924427E+02  0.28208109459E+02  0.51100000000E-03 0. -1.
        -11    1    3    3    0    0 -0.17185969713E+01 -0.11205417224E+02  0.17958304602E+01  0.11477802839E+02  0.51100000000E-03 0.  1.
         12    1    3    3    0    0 -0.98941477926E+01  0.24476130238E+01  0.36992611263E+01  0.10842947152E+02  0.00000000000E+00 0. -1.
</event>
<event>
 7    1  0.4871930E-013  0.5052887E+02  0.7816164E-02  0.1300439E+00
        -11   -1    0    0    0    0  0.00000000000E+00  0.00000000000E+00  0.45593999997E+02  0.45594000000E+02  0.51100000000E-03 0. -1.
         11   -1    0    0    0    0 -0.00000000000E+00 -0.00000000000E+00 -0.45593999997E+02  0.45594000000E+02  0.51100000000E-03 0.  1.
    9900012    2    1    2    0    0 -0.83195981002E+01  0.29244303562E+02 -0.26994815293E+02  0.50528867495E+02  0.30000023238E+02 0.  0.
         12    1    1    2    0    0  0.83195981002E+01 -0.29244303562E+02  0.26994815293E+02  0.40659132505E+02  0.00000000000E+00 0. -1.
         11    1    3    3    0    0  0.48299533950E+01  0.52378479984E+01 -0.15015308100E+02  0.16619957252E+02  0.51100000000E-03 0. -1.
        -11    1    3    3    0    0 -0.90953451205E+01  0.17524903173E+02 -0.15869044883E+02  0.25331287371E+02  0.51100000000E-03 0.  1.
         12    1    3    3    0    0 -0.40542063747E+01  0.64815523898E+01  0.38895376895E+01  0.85776228728E+01  0.00000000000E+00 0. -1.
</event>
<event>
 7    1  0.4871930E-013  0.5052886E+02  0.7816164E-02  0.1300439E+00
        -11   -1    0    0    0    0  0.00000000000E+00  0.00000000000E+00  0.45593999997E+02  0.45594000000E+02  0.51100000000E-03 0. -1.
         11   -1    0    0    0    0 -0.00000000000E+00 -0.00000000000E+00 -0.45593999997E+02  0.45594000000E+02  0.51100000000E-03 0.  1.
    9900012    2    1    2    0    0 -0.39542079027E+02  0.27055742246E+01 -0.90702618399E+01  0.50528858402E+02  0.29999995598E+02 0.  0.
         12    1    1    2    0    0  0.39542079027E+02 -0.27055742246E+01  0.90702618399E+01  0.40659141598E+02  0.00000000000E+00 0. -1.
         11    1    3    3    0    0 -0.15908885239E+02  0.91659878696E+01 -0.33951524721E+00  0.18363638910E+02  0.51100000000E-03 0. -1.
        -11    1    3    3    0    0 -0.85230289344E+00  0.45219426459E+00 -0.82988260449E+01  0.83547240445E+01  0.51100000000E-03 0.  1.
        -12    1    3    3    0    0 -0.22780890895E+02 -0.69126079096E+01 -0.43192054781E+00  0.23810495447E+02  0.00000000000E+00 0.  1.
</event>
<event>
 7    1  0.4871930E-013  0.5052884E+02  0.7816164E-02  0.1300439E+00
        -11   -1    0    0    0    0  0.00000000000E+00  0.00000000000E+00  0.45593999997E+02  0.45594000000E+02  0.51100000000E-03 0.  1.
         11   -1    0    0    0    0 -0.00000000000E+00 -0.00000000000E+00 -0.45593999997E+02  0.45594000000E+02  0.51100000000E-03 0. -1.
    9900012    2    1    2    0    0 -0.29407540490E+02 -0.27664465749E+02  0.48000891628E+01  0.50528844096E+02  0.29999952114E+02 0.  0.
         12    1    1    2    0    0  0.29407540490E+02  0.27664465749E+02 -0.48000891628E+01  0.40659155904E+02  0.00000000000E+00 0. -1.
         11    1    3    3    0    0  0.13704479654E+01 -0.28751044676E+00  0.53609943680E+00  0.14993974624E+01  0.51100000000E-03 0. -1.
        -11    1    3    3    0    0 -0.26000430445E+02 -0.12779156089E+02 -0.72128284063E+01  0.29855554049E+02  0.51100000000E-03 0.  1.
        -12    1    3    3    0    0 -0.47775580104E+01 -0.14597799213E+02  0.11476818132E+02  0.19173892585E+02  0.00000000000E+00 0.  1.
</event>
<event>
 7    1  0.4871930E-013  0.5052886E+02  0.7816164E-02  0.1300439E+00
        -11   -1    0    0    0    0  0.00000000000E+00  0.00000000000E+00  0.45593999997E+02  0.45594000000E+02  0.51100000000E-03 0.  1.
         11   -1    0    0    0    0 -0.00000000000E+00 -0.00000000000E+00 -0.45593999997E+02  0.45594000000E+02  0.51100000000E-03 0. -1.
    9900012    2    1    2    0    0 -0.36507097584E+02  0.13028893983E+02  0.12273759139E+02  0.50528863070E+02  0.30000009789E+02 0.  0.
         12    1    1    2    0    0  0.36507097584E+02 -0.13028893983E+02 -0.12273759139E+02  0.40659136930E+02  0.00000000000E+00 0. -1.
         11    1    3    3    0    0 -0.10396417521E+01  0.26366142171E+01 -0.33817348998E+01  0.44123373280E+01  0.51100000000E-03 0. -1.
        -11    1    3    3    0    0 -0.31021905602E+02  0.16985278437E+02  0.11839623902E+02  0.37296581682E+02  0.51100000000E-03 0.  1.
         12    1    3    3    0    0 -0.44455502304E+01 -0.65929986710E+01  0.38158701365E+01  0.88199440602E+01  0.00000000000E+00 0. -1.
</event>
<event>
 7    1  0.4871930E-013  0.5052887E+02  0.7816164E-02  0.1300439E+00
        -11   -1    0    0    0    0  0.00000000000E+00  0.00000000000E+00  0.45593999997E+02  0.45594000000E+02  0.51100000000E-03 0. -1.
         11   -1    0    0    0    0 -0.00000000000E+00 -0.00000000000E+00 -0.45593999997E+02  0.45594000000E+02  0.51100000000E-03 0.  1.
    9900012    2    1    2    0    0  0.31955286821E+02  0.17736644541E+02 -0.17816734678E+02  0.50528868800E+02  0.30000027204E+02 0.  0.
         12    1    1    2    0    0 -0.31955286821E+02 -0.17736644541E+02  0.17816734678E+02  0.40659131200E+02  0.00000000000E+00 0. -1.
         11    1    3    3    0    0 -0.15598628395E+01 -0.16936093691E+01  0.21272711078E+01  0.31347675194E+01  0.51100000000E-03 0. -1.
        -11    1    3    3    0    0  0.92042025373E+01  0.75231471379E+01  0.25967011529E+01  0.12167906325E+02  0.51100000000E-03 0.  1.
        -12    1    3    3    0    0  0.24310947123E+02  0.11907106772E+02 -0.22540706939E+02  0.35226194955E+02  0.00000000000E+00 0.  1.
</event>
<event>
 7    1  0.4871930E-013  0.5052887E+02  0.7816164E-02  0.1300439E+00
        -11   -1    0    0    0    0  0.00000000000E+00  0.00000000000E+00  0.45593999997E+02  0.45594000000E+02  0.51100000000E-03 0.  1.
         11   -1    0    0    0    0 -0.00000000000E+00 -0.00000000000E+00 -0.45593999997E+02  0.45594000000E+02  0.51100000000E-03 0. -1.
    9900012    2    1    2    0    0  0.10201178047E+02  0.30375363311E+02  0.25028747648E+02  0.50528868939E+02  0.30000027627E+02 0.  0.
         12    1    1    2    0    0 -0.10201178047E+02 -0.30375363311E+02 -0.25028747648E+02  0.40659131061E+02  0.00000000000E+00 0. -1.
         11    1    3    3    0    0 -0.55464657286E+01  0.35854471090E+01 -0.16624110487E+00  0.66065383838E+01  0.51100000000E-03 0. -1.
        -11    1    3    3    0    0  0.30081989693E+01  0.21675943285E+02  0.18468662405E+02  0.28635419844E+02  0.51100000000E-03 0.  1.
        -12    1    3    3    0    0  0.12739444806E+02  0.51139729168E+01  0.67263263480E+01  0.15286910712E+02  0.00000000000E+00 0.  1.
</event>
<event>
 7    1  0.4871930E-013  0.5052890E+02  0.7816164E-02  0.1300439E+00
        -11   -1    0    0    0    0  0.00000000000E+00  0.00000000000E+00  0.45593999997E+02  0.45594000000E+02  0.51100000000E-03 0. -1.
         11   -1    0    0    0    0 -0.00000000000E+00 -0.00000000000E+00 -0.45593999997E+02  0.45594000000E+02  0.51100000000E-03 0.  1.
    9900012    2    1    2    0    0 -0.23826690293E+02 -0.49722668586E+01 -0.32568817254E+02  0.50528899354E+02  0.30000120076E+02 0.  0.
         12    1    1    2    0    0  0.23826690293E+02  0.49722668586E+01  0.32568817254E+02  0.40659100646E+02  0.00000000000E+00 0. -1.
         11    1    3    3    0    0  0.93211381641E+00  0.10359698784E+01 -0.12772082490E+01  0.18903256143E+01  0.51100000000E-03 0. -1.
        -11    1    3    3    0    0 -0.11101349211E+02  0.10793724706E+02 -0.14818523545E+02  0.21432057476E+02  0.51100000000E-03 0.  1.
         12    1    3    3    0    0 -0.13657454898E+02 -0.16801961443E+02 -0.16473085460E+02  0.27206516264E+02  0.00000000000E+00 0. -1.
</event>
<event>
 7    1  0.4871930E-013  0.5052887E+02  0.7816164E-02  0.1300439E+00
        -11   -1    0    0    0    0  0.00000000000E+00  0.00000000000E+00  0.45593999997E+02  0.45594000000E+02  0.51100000000E-03 0. -1.
         11   -1    0    0    0    0 -0.00000000000E+00 -0.00000000000E+00 -0.45593999997E+02  0.45594000000E+02  0.51100000000E-03 0.  1.
    9900012    2    1    2    0    0 -0.21032044765E+01 -0.37050500817E+02 -0.16613311906E+02  0.50528865573E+02  0.30000017396E+02 0.  0.
         12    1    1    2    0    0  0.21032044765E+01  0.37050500817E+02  0.16613311906E+02  0.40659134427E+02  0.00000000000E+00 0. -1.
         11    1    3    3    0    0  0.22232054025E+01 -0.23799259845E+01  0.44663056130E+00  0.32872738056E+01  0.51100000000E-03 0. -1.
        -11    1    3    3    0    0 -0.14140320580E+02 -0.21749798279E+02 -0.36616945108E+01  0.26199435075E+02  0.51100000000E-03 0.  1.
        -12    1    3    3    0    0  0.98139107010E+01 -0.12920776553E+02 -0.13398247956E+02  0.21042156693E+02  0.00000000000E+00 0.  1.
</event>
<event>
 7    1  0.4871930E-013  0.5052886E+02  0.7816164E-02  0.1300439E+00
        -11   -1    0    0    0    0  0.00000000000E+00  0.00000000000E+00  0.45593999997E+02  0.45594000000E+02  0.51100000000E-03 0.  1.
         11   -1    0    0    0    0 -0.00000000000E+00 -0.00000000000E+00 -0.45593999997E+02  0.45594000000E+02  0.51100000000E-03 0. -1.
    9900012    2    1    2    0    0  0.36018198162E+02  0.18403063250E+02 -0.41451497276E+01  0.50528860780E+02  0.30000002827E+02 0.  0.
         12    1    1    2    0    0 -0.36018198162E+02 -0.18403063250E+02  0.41451497276E+01  0.40659139220E+02  0.00000000000E+00 0. -1.
         11    1    3    3    0    0  0.58540428216E+01 -0.33399872928E+01  0.36404727154E+01  0.76601810896E+01  0.51100000000E-03 0. -1.
        -11    1    3    3    0    0  0.22498993098E+00  0.62631618659E+01  0.36797454277E+01  0.72676229746E+01  0.51100000000E-03 0.  1.
        -12    1    3    3    0    0  0.29939165410E+02  0.15479888677E+02 -0.11465367871E+02  0.35601056716E+02  0.00000000000E+00 0.  1.
</event>
<event>
 7    1  0.4871930E-013  0.5052884E+02  0.7816164E-02  0.1300439E+00
        -11   -1    0    0    0    0  0.00000000000E+00  0.00000000000E+00  0.45593999997E+02  0.45594000000E+02  0.51100000000E-03 0.  1.
         11   -1    0    0    0    0 -0.00000000000E+00 -0.00000000000E+00 -0.45593999997E+02  0.45594000000E+02  0.51100000000E-03 0. -1.
    9900012    2    1    2    0    0  0.33276059563E+02 -0.65391935280E+01  0.22430123487E+02  0.50528835822E+02  0.29999926963E+02 0.  0.
         12    1    1    2    0    0 -0.33276059563E+02  0.65391935280E+01 -0.22430123487E+02  0.40659164178E+02  0.00000000000E+00 0. -1.
         11    1    3    3    0    0  0.12275990551E+02 -0.10962141362E+02  0.11803972482E+02  0.20253450418E+02  0.51100000000E-03 0. -1.
        -11    1    3    3    0    0  0.17502743907E+02 -0.10875079512E+01  0.14439647176E+02  0.22716340564E+02  0.51100000000E-03 0.  1.
        -12    1    3    3    0    0  0.34973251058E+01  0.55104557847E+01 -0.38134961697E+01  0.75590448396E+01  0.00000000000E+00 0.  1.
</event>
<event>
 7    1  0.4871930E-013  0.5052887E+02  0.7816164E-02  0.1300439E+00
        -11   -1    0    0    0    0  0.00000000000E+00  0.00000000000E+00  0.45593999997E+02  0.45594000000E+02  0.51100000000E-03 0.  1.
         11   -1    0    0    0    0 -0.00000000000E+00 -0.00000000000E+00 -0.45593999997E+02  0.45594000000E+02  0.51100000000E-03 0. -1.
    9900012    2    1    2    0    0  0.53993511277E+01 -0.36795576264E+02  0.16434647944E+02  0.50528867223E+02  0.30000022410E+02 0.  0.
         12    1    1    2    0    0 -0.53993511277E+01  0.36795576264E+02 -0.16434647944E+02  0.40659132777E+02  0.00000000000E+00 0. -1.
         11    1    3    3    0    0  0.51881596279E+01  0.14006458661E+01  0.20517625258E+01  0.57522638057E+01  0.51100000000E-03 0. -1.
        -11    1    3    3    0    0 -0.45210968334E+01 -0.55928092902E+01 -0.26804369634E+01  0.76749315898E+01  0.51100000000E-03 0.  1.
        -12    1    3    3    0    0  0.47322883331E+01 -0.32603412840E+02  0.17063322381E+02  0.37101671827E+02  0.00000000000E+00 0.  1.
</event>
<event>
 7    1  0.4871930E-013  0.5052885E+02  0.7816164E-02  0.1300439E+00
        -11   -1    0    0    0    0  0.00000000000E+00  0.00000000000E+00  0.45593999997E+02  0.45594000000E+02  0.51100000000E-03 0.  1.
         11   -1    0    0    0    0 -0.00000000000E+00 -0.00000000000E+00 -0.45593999997E+02  0.45594000000E+02  0.51100000000E-03 0. -1.
    9900012    2    1    2    0    0 -0.25497920832E+02  0.18839292886E+02  0.25457875622E+02  0.50528851529E+02  0.29999974707E+02 0.  0.
         12    1    1    2    0    0  0.25497920832E+02 -0.18839292886E+02 -0.25457875622E+02  0.40659148471E+02  0.00000000000E+00 0. -1.
         11    1    3    3    0    0  0.41113626135E+01  0.21996897237E+01 -0.69322940756E+00  0.47140751684E+01  0.51100000000E-03 0. -1.
        -11    1    3    3    0    0 -0.22036881794E+01  0.90793926798E-02  0.93810060312E+01  0.96363685300E+01  0.51100000000E-03 0.  1.
         12    1    3    3    0    0 -0.27405595266E+02  0.16630523770E+02  0.16770098998E+02  0.36178407831E+02  0.00000000000E+00 0. -1.
</event>
<event>
 7    1  0.4871930E-013  0.5052886E+02  0.7816164E-02  0.1300439E+00
        -11   -1    0    0    0    0  0.00000000000E+00  0.00000000000E+00  0.45593999997E+02  0.45594000000E+02  0.51100000000E-03 0.  1.
         11   -1    0    0    0    0 -0.00000000000E+00 -0.00000000000E+00 -0.45593999997E+02  0.45594000000E+02  0.51100000000E-03 0. -1.
    9900012    2    1    2    0    0  0.20499796530E+02 -0.66612710123E+01  0.34475372174E+02  0.50528862333E+02  0.30000007547E+02 0.  0.
         12    1    1    2    0    0 -0.20499796530E+02  0.66612710123E+01 -0.34475372174E+02  0.40659137667E+02  0.00000000000E+00 0. -1.
         11    1    3    3    0    0  0.12694066085E+02  0.45753748007E+01  0.20052874383E+01  0.13641647493E+02  0.51100000000E-03 0. -1.
        -11    1    3    3    0    0  0.10227737070E+02 -0.65649791068E+01  0.24288608937E+02  0.27159567018E+02  0.51100000000E-03 0.  1.
        -12    1    3    3    0    0 -0.24220066253E+01 -0.46716667061E+01  0.81814757989E+01  0.97276478223E+01  0.00000000000E+00 0.  1.
</event>
<event>
 7    1  0.4871930E-013  0.5052886E+02  0.7816164E-02  0.1300439E+00
        -11   -1    0    0    0    0  0.00000000000E+00  0.00000000000E+00  0.45593999997E+02  0.45594000000E+02  0.51100000000E-03 0.  1.
         11   -1    0    0    0    0 -0.00000000000E+00 -0.00000000000E+00 -0.45593999997E+02  0.45594000000E+02  0.51100000000E-03 0. -1.
    9900012    2    1    2    0    0  0.36168793510E+02 -0.35505418185E+01  0.18231226839E+02  0.50528860766E+02  0.30000002785E+02 0.  0.
         12    1    1    2    0    0 -0.36168793510E+02  0.35505418185E+01 -0.18231226839E+02  0.40659139234E+02  0.00000000000E+00 0. -1.
         11    1    3    3    0    0  0.13703692864E+01  0.11601910931E+01  0.14755551608E+01  0.23240522041E+01  0.51100000000E-03 0. -1.
        -11    1    3    3    0    0  0.25464485333E+02  0.81889161469E+00  0.24126831303E+02  0.35088667483E+02  0.51100000000E-03 0.  1.
         12    1    3    3    0    0  0.93339388905E+01 -0.55296245263E+01 -0.73711596242E+01  0.13116141080E+02  0.00000000000E+00 0. -1.
</event>
<event>
 7    1  0.4871930E-013  0.5052886E+02  0.7816164E-02  0.1300439E+00
        -11   -1    0    0    0    0  0.00000000000E+00  0.00000000000E+00  0.45593999997E+02  0.45594000000E+02  0.51100000000E-03 0.  1.
         11   -1    0    0    0    0 -0.00000000000E+00 -0.00000000000E+00 -0.45593999997E+02  0.45594000000E+02  0.51100000000E-03 0. -1.
    9900012    2    1    2    0    0  0.29836892223E+02  0.20823383637E+02  0.18146970583E+02  0.50528856072E+02  0.29999988518E+02 0.  0.
         12    1    1    2    0    0 -0.29836892223E+02 -0.20823383637E+02 -0.18146970583E+02  0.40659143928E+02  0.00000000000E+00 0. -1.
         11    1    3    3    0    0 -0.22610070667E+01 -0.27547093164E+00 -0.92280136503E+00  0.24575597267E+01  0.51100000000E-03 0. -1.
        -11    1    3    3    0    0  0.20271514917E+02  0.59115728457E+01  0.20114357282E+00  0.21116852738E+02  0.51100000000E-03 0.  1.
        -12    1    3    3    0    0  0.11826384372E+02  0.15187281723E+02  0.18868628375E+02  0.26954443608E+02  0.00000000000E+00 0.  1.
</event>
<event>
 7    1  0.4871930E-013  0.5052886E+02  0.7816164E-02  0.1300439E+00
        -11   -1    0    0    0    0  0.00000000000E+00  0.00000000000E+00  0.45593999997E+02  0.45594000000E+02  0.51100000000E-03 0.  1.
         11   -1    0    0    0    0 -0.00000000000E+00 -0.00000000000E+00 -0.45593999997E+02  0.45594000000E+02  0.51100000000E-03 0. -1.
    9900012    2    1    2    0    0 -0.16670919135E+02 -0.30033424990E+02  0.21754063824E+02  0.50528862597E+02  0.30000008351E+02 0.  0.
         12    1    1    2    0    0  0.16670919135E+02  0.30033424990E+02 -0.21754063824E+02  0.40659137403E+02  0.00000000000E+00 0. -1.
         11    1    3    3    0    0  0.18320465450E+01  0.14452363953E+01  0.57248873907E+01  0.61821872084E+01  0.51100000000E-03 0. -1.
        -11    1    3    3    0    0 -0.14023209640E+01 -0.15508218868E+02  0.13862680851E+02  0.20848148052E+02  0.51100000000E-03 0.  1.
         12    1    3    3    0    0 -0.17100644716E+02 -0.15970442517E+02  0.21664955824E+01  0.23498527337E+02  0.00000000000E+00 0. -1.
</event>
<event>
 7    1  0.5366616E-013  0.5052886E+02  0.7816164E-02  0.1300439E+00
        -11   -1    0    0    0    0  0.00000000000E+00  0.00000000000E+00  0.45593999997E+02  0.45594000000E+02  0.51100000000E-03 0. -1.
         11   -1    0    0    0    0 -0.00000000000E+00 -0.00000000000E+00 -0.45593999997E+02  0.45594000000E+02  0.51100000000E-03 0.  1.
    9900012    2    1    2    0    0 -0.31164450578E+02 -0.22088945704E+02  0.13929144945E+02  0.50528861039E+02  0.30000003614E+02 0.  0.
         12    1    1    2    0    0  0.31164450578E+02  0.22088945704E+02 -0.13929144945E+02  0.40659138961E+02  0.00000000000E+00 0. -1.
         11    1    3    3    0    0 -0.10715284845E+02 -0.19144920677E+02  0.24590291289E+01  0.22076959518E+02  0.51100000000E-03 0. -1.
        -11    1    3    3    0    0 -0.16629427075E+02 -0.86370435233E+01  0.10633086990E+02  0.21545275697E+02  0.51100000000E-03 0.  1.
         12    1    3    3    0    0 -0.38197386581E+01  0.56930184963E+01  0.83702882644E+00  0.69066258239E+01  0.00000000000E+00 0. -1.
</event>
<event>
 7    1  0.4871930E-013  0.5052886E+02  0.7816164E-02  0.1300439E+00
        -11   -1    0    0    0    0  0.00000000000E+00  0.00000000000E+00  0.45593999997E+02  0.45594000000E+02  0.51100000000E-03 0.  1.
         11   -1    0    0    0    0 -0.00000000000E+00 -0.00000000000E+00 -0.45593999997E+02  0.45594000000E+02  0.51100000000E-03 0. -1.
    9900012    2    1    2    0    0  0.12065200785E+02  0.27309889002E+02  0.27600119466E+02  0.50528859554E+02  0.29999999100E+02 0.  0.
         12    1    1    2    0    0 -0.12065200785E+02 -0.27309889002E+02 -0.27600119466E+02  0.40659140446E+02  0.00000000000E+00 0. -1.
         11    1    3    3    0    0  0.83117495607E+01  0.22696112528E+02  0.12622718125E+02  0.27267778013E+02  0.51100000000E-03 0. -1.
        -11    1    3    3    0    0  0.36496448095E+01  0.97708294099E+01  0.14792182447E+02  0.18099659566E+02  0.51100000000E-03 0.  1.
         12    1    3    3    0    0  0.10380641504E+00 -0.51570529362E+01  0.18521889303E+00  0.51614219743E+01  0.00000000000E+00 0. -1.
</event>
<event>
 7    1  0.6452374E-013  0.5052886E+02  0.7816164E-02  0.1300439E+00
        -11   -1    0    0    0    0  0.00000000000E+00  0.00000000000E+00  0.45593999997E+02  0.45594000000E+02  0.51100000000E-03 0. -1.
         11   -1    0    0    0    0 -0.00000000000E+00 -0.00000000000E+00 -0.45593999997E+02  0.45594000000E+02  0.51100000000E-03 0.  1.
    9900012    2    1    2    0    0  0.24371555529E+02 -0.26674736925E+02 -0.18645411118E+02  0.50528860011E+02  0.30000000490E+02 0.  0.
         12    1    1    2    0    0 -0.24371555529E+02  0.26674736925E+02  0.18645411118E+02  0.40659139989E+02  0.00000000000E+00 0. -1.
         11    1    3    3    0    0  0.22047199320E+01 -0.62088381555E+01  0.59303978457E+01  0.88645406023E+01  0.51100000000E-03 0. -1.
        -11    1    3    3    0    0  0.39735502890E+01 -0.14112424683E+01 -0.11507776554E+02  0.12256003781E+02  0.51100000000E-03 0.  1.
        -12    1    3    3    0    0  0.18193285307E+02 -0.19054656301E+02 -0.13068032410E+02  0.29408315628E+02  0.00000000000E+00 0.  1.
</event>
<event>
 7    1  0.4871930E-013  0.5052886E+02  0.7816164E-02  0.1300439E+00
        -11   -1    0    0    0    0  0.00000000000E+00  0.00000000000E+00  0.45593999997E+02  0.45594000000E+02  0.51100000000E-03 0.  1.
         11   -1    0    0    0    0 -0.00000000000E+00 -0.00000000000E+00 -0.45593999997E+02  0.45594000000E+02  0.51100000000E-03 0. -1.
    9900012    2    1    2    0    0  0.62922040494E+01 -0.31380442691E+02  0.25076716569E+02  0.50528859218E+02  0.29999998079E+02 0.  0.
         12    1    1    2    0    0 -0.62922040494E+01  0.31380442691E+02 -0.25076716569E+02  0.40659140782E+02  0.00000000000E+00 0. -1.
         11    1    3    3    0    0 -0.31192344247E+01 -0.27762264963E+02  0.25046733271E+02  0.37520818582E+02  0.51100000000E-03 0.  1.
        -11    1    3    3    0    0  0.14361704773E+01 -0.38551671601E+01 -0.22774438357E+01  0.47023026442E+01  0.51100000000E-03 0. -1.
        -12    1    3    3    0    0  0.79752679967E+01  0.23698943239E+00  0.23074271335E+01  0.83057379917E+01  0.00000000000E+00 0.  1.
</event>
<event>
 7    1  0.4871930E-013  0.5052885E+02  0.7816164E-02  0.1300439E+00
        -11   -1    0    0    0    0  0.00000000000E+00  0.00000000000E+00  0.45593999997E+02  0.45594000000E+02  0.51100000000E-03 0.  1.
         11   -1    0    0    0    0 -0.00000000000E+00 -0.00000000000E+00 -0.45593999997E+02  0.45594000000E+02  0.51100000000E-03 0. -1.
    9900012    2    1    2    0    0 -0.28581691854E+02  0.28424573222E+02  0.53194636218E+01  0.50528853854E+02  0.29999981775E+02 0.  0.
         12    1    1    2    0    0  0.28581691854E+02 -0.28424573222E+02 -0.53194636218E+01  0.40659146146E+02  0.00000000000E+00 0. -1.
         11    1    3    3    0    0 -0.27124771792E+01  0.71306977746E+01 -0.34863990358E+01  0.83880487420E+01  0.51100000000E-03 0. -1.
        -11    1    3    3    0    0 -0.27161459405E+02  0.24774195494E+02  0.10237802517E+02  0.38161737906E+02  0.51100000000E-03 0.  1.
         12    1    3    3    0    0  0.12922447301E+01 -0.34803200465E+01 -0.14319398592E+01  0.39790672059E+01  0.00000000000E+00 0. -1.
</event>
<event>
 7    1  0.4871930E-013  0.5052886E+02  0.7816164E-02  0.1300439E+00
        -11   -1    0    0    0    0  0.00000000000E+00  0.00000000000E+00  0.45593999997E+02  0.45594000000E+02  0.51100000000E-03 0. -1.
         11   -1    0    0    0    0 -0.00000000000E+00 -0.00000000000E+00 -0.45593999997E+02  0.45594000000E+02  0.51100000000E-03 0.  1.
    9900012    2    1    2    0    0  0.14586446843E+02  0.29770922913E+02 -0.23539181735E+02  0.50528863766E+02  0.30000011902E+02 0.  0.
         12    1    1    2    0    0 -0.14586446843E+02 -0.29770922913E+02  0.23539181735E+02  0.40659136234E+02  0.00000000000E+00 0. -1.
         11    1    3    3    0    0  0.22344210214E+01  0.20954012818E+02 -0.27480990357E+01  0.21251243236E+02  0.51100000000E-03 0. -1.
        -11    1    3    3    0    0  0.59488094185E+01  0.11652204759E+02 -0.16527646290E+02  0.21079025153E+02  0.51100000000E-03 0.  1.
        -12    1    3    3    0    0  0.64032164036E+01 -0.28352946645E+01 -0.42634364091E+01  0.81985953773E+01  0.00000000000E+00 0.  1.
</event>
<event>
 7    1  0.4871930E-013  0.5052880E+02  0.7816164E-02  0.1300439E+00
        -11   -1    0    0    0    0  0.00000000000E+00  0.00000000000E+00  0.45593999997E+02  0.45594000000E+02  0.51100000000E-03 0. -1.
         11   -1    0    0    0    0 -0.00000000000E+00 -0.00000000000E+00 -0.45593999997E+02  0.45594000000E+02  0.51100000000E-03 0.  1.
    9900012    2    1    2    0    0  0.92878208252E+00 -0.32249173503E+02 -0.24744666158E+02  0.50528802627E+02  0.29999826063E+02 0.  0.
         12    1    1    2    0    0 -0.92878208252E+00  0.32249173503E+02  0.24744666158E+02  0.40659197373E+02  0.00000000000E+00 0. -1.
         11    1    3    3    0    0  0.44540254483E+01 -0.98809720998E+01  0.24595243772E+01  0.11114009751E+02  0.51100000000E-03 0. -1.
        -11    1    3    3    0    0  0.11456049700E+01 -0.21397875042E+02 -0.14577319050E+02  0.25916784099E+02  0.51100000000E-03 0.  1.
        -12    1    3    3    0    0 -0.46708483358E+01 -0.97032636091E+00 -0.12626871485E+02  0.13498008777E+02  0.00000000000E+00 0.  1.
</event>
<event>
 7    1  0.4871930E-013  0.5052884E+02  0.7816164E-02  0.1300439E+00
        -11   -1    0    0    0    0  0.00000000000E+00  0.00000000000E+00  0.45593999997E+02  0.45594000000E+02  0.51100000000E-03 0.  1.
         11   -1    0    0    0    0 -0.00000000000E+00 -0.00000000000E+00 -0.45593999997E+02  0.45594000000E+02  0.51100000000E-03 0. -1.
    9900012    2    1    2    0    0  0.85201731796E+01  0.39677858444E+02  0.24983220101E+01  0.50528838491E+02  0.29999935078E+02 0.  0.
         12    1    1    2    0    0 -0.85201731796E+01 -0.39677858444E+02 -0.24983220101E+01  0.40659161509E+02  0.00000000000E+00 0. -1.
         11    1    3    3    0    0 -0.42405840594E+01  0.14879796985E+02  0.12827378982E+01  0.15525344707E+02  0.51100000000E-03 0. -1.
        -11    1    3    3    0    0  0.14025113380E+02  0.28073708593E+02  0.18451478222E+01  0.31436308471E+02  0.51100000000E-03 0.  1.
         12    1    3    3    0    0 -0.12643561410E+01 -0.32756471345E+01 -0.62956371033E+00  0.35671853142E+01  0.00000000000E+00 0. -1.
</event>
<event>
 7    1  0.4871930E-013  0.5052885E+02  0.7816164E-02  0.1300439E+00
        -11   -1    0    0    0    0  0.00000000000E+00  0.00000000000E+00  0.45593999997E+02  0.45594000000E+02  0.51100000000E-03 0.  1.
         11   -1    0    0    0    0 -0.00000000000E+00 -0.00000000000E+00 -0.45593999997E+02  0.45594000000E+02  0.51100000000E-03 0. -1.
    9900012    2    1    2    0    0 -0.22093172611E+02 -0.16022523449E+02  0.30138634132E+02  0.50528846037E+02  0.29999958013E+02 0.  0.
         12    1    1    2    0    0  0.22093172611E+02  0.16022523449E+02 -0.30138634132E+02  0.40659153963E+02  0.00000000000E+00 0. -1.
         11    1    3    3    0    0 -0.12722531424E+02 -0.33052035183E+01 -0.23662121089E+01  0.13356127289E+02  0.51100000000E-03 0. -1.
        -11    1    3    3    0    0 -0.46855577368E+01 -0.53185858771E+01  0.60933874973E+01  0.93472551313E+01  0.51100000000E-03 0.  1.
        -12    1    3    3    0    0 -0.46850834497E+01 -0.73987340534E+01  0.26411458744E+02  0.27825463617E+02  0.00000000000E+00 0.  1.
</event>
<event>
 7    1  0.4871930E-013  0.5052886E+02  0.7816164E-02  0.1300439E+00
        -11   -1    0    0    0    0  0.00000000000E+00  0.00000000000E+00  0.45593999997E+02  0.45594000000E+02  0.51100000000E-03 0.  1.
         11   -1    0    0    0    0 -0.00000000000E+00 -0.00000000000E+00 -0.45593999997E+02  0.45594000000E+02  0.51100000000E-03 0. -1.
    9900012    2    1    2    0    0  0.38311459118E+02  0.86618918156E+01  0.10505673734E+02  0.50528862649E+02  0.30000008507E+02 0.  0.
         12    1    1    2    0    0 -0.38311459118E+02 -0.86618918156E+01 -0.10505673734E+02  0.40659137351E+02  0.00000000000E+00 0. -1.
         11    1    3    3    0    0  0.95122811839E-01  0.67334122960E+01 -0.66567366761E+00  0.67669055845E+01  0.51100000000E-03 0. -1.
        -11    1    3    3    0    0  0.70210115507E+01 -0.48824869153E+01  0.79385916904E+01  0.11668526898E+02  0.51100000000E-03 0.  1.
         12    1    3    3    0    0  0.31195324755E+02  0.68109664349E+01  0.32327557115E+01  0.32093430166E+02  0.00000000000E+00 0. -1.
</event>
<event>
 7    1  0.4871930E-013  0.5052886E+02  0.7816164E-02  0.1300439E+00
        -11   -1    0    0    0    0  0.00000000000E+00  0.00000000000E+00  0.45593999997E+02  0.45594000000E+02  0.51100000000E-03 0.  1.
         11   -1    0    0    0    0 -0.00000000000E+00 -0.00000000000E+00 -0.45593999997E+02  0.45594000000E+02  0.51100000000E-03 0. -1.
    9900012    2    1    2    0    0 -0.21751022267E+02  0.18256537527E+02  0.29099102765E+02  0.50528856946E+02  0.29999991174E+02 0.  0.
         12    1    1    2    0    0  0.21751022267E+02 -0.18256537527E+02 -0.29099102765E+02  0.40659143054E+02  0.00000000000E+00 0. -1.
         11    1    3    3    0    0  0.49314902890E+01  0.76247006204E+01  0.47694181632E+01  0.10256851656E+02  0.51100000000E-03 0. -1.
        -11    1    3    3    0    0 -0.11452581536E+02  0.87852484802E+01  0.19354204366E+02  0.24143890358E+02  0.51100000000E-03 0.  1.
         12    1    3    3    0    0 -0.15229931020E+02  0.18465884263E+01  0.49754802359E+01  0.16128114932E+02  0.00000000000E+00 0. -1.
</event>
<event>
 7    1  0.4871930E-013  0.5052886E+02  0.7816164E-02  0.1300439E+00
        -11   -1    0    0    0    0  0.00000000000E+00  0.00000000000E+00  0.45593999997E+02  0.45594000000E+02  0.51100000000E-03 0. -1.
         11   -1    0    0    0    0 -0.00000000000E+00 -0.00000000000E+00 -0.45593999997E+02  0.45594000000E+02  0.51100000000E-03 0.  1.
    9900012    2    1    2    0    0 -0.34704066452E+02 -0.23242467352E+01 -0.21056859927E+02  0.50528859562E+02  0.29999999125E+02 0.  0.
         12    1    1    2    0    0  0.34704066452E+02  0.23242467352E+01  0.21056859927E+02  0.40659140438E+02  0.00000000000E+00 0. -1.
         11    1    3    3    0    0 -0.13065365373E+01 -0.53977691978E+01 -0.90123405621E+00  0.56262930177E+01  0.51100000000E-03 0. -1.
        -11    1    3    3    0    0 -0.24806250192E+02 -0.32051364923E+01 -0.36690037676E+01  0.25280121388E+02  0.51100000000E-03 0.  1.
        -12    1    3    3    0    0 -0.85912797228E+01  0.62786589548E+01 -0.16486622103E+02  0.19622445156E+02  0.00000000000E+00 0.  1.
</event>
<event>
 7    1  0.4871930E-013  0.5052887E+02  0.7816164E-02  0.1300439E+00
        -11   -1    0    0    0    0  0.00000000000E+00  0.00000000000E+00  0.45593999997E+02  0.45594000000E+02  0.51100000000E-03 0.  1.
         11   -1    0    0    0    0 -0.00000000000E+00 -0.00000000000E+00 -0.45593999997E+02  0.45594000000E+02  0.51100000000E-03 0. -1.
    9900012    2    1    2    0    0  0.25955964578E+02  0.10636162374E+02  0.29433401870E+02  0.50528865812E+02  0.30000018123E+02 0.  0.
         12    1    1    2    0    0 -0.25955964578E+02 -0.10636162374E+02 -0.29433401870E+02  0.40659134188E+02  0.00000000000E+00 0. -1.
         11    1    3    3    0    0  0.22405118754E+01  0.61262223677E+01  0.63996036059E+01  0.91381300350E+01  0.51100000000E-03 0. -1.
        -11    1    3    3    0    0 -0.33512089728E+01 -0.19787211435E+01 -0.16133488824E+01  0.42129364843E+01  0.51100000000E-03 0.  1.
        -12    1    3    3    0    0  0.27066661676E+02  0.64886611497E+01  0.24647147147E+02  0.37177799293E+02  0.00000000000E+00 0.  1.
</event>
<event>
 7    1  0.4871930E-013  0.5052886E+02  0.7816164E-02  0.1300439E+00
        -11   -1    0    0    0    0  0.00000000000E+00  0.00000000000E+00  0.45593999997E+02  0.45594000000E+02  0.51100000000E-03 0.  1.
         11   -1    0    0    0    0 -0.00000000000E+00 -0.00000000000E+00 -0.45593999997E+02  0.45594000000E+02  0.51100000000E-03 0. -1.
    9900012    2    1    2    0    0 -0.25471456803E+02 -0.25859101738E+02  0.18321494044E+02  0.50528863285E+02  0.30000010441E+02 0.  0.
         12    1    1    2    0    0  0.25471456803E+02  0.25859101738E+02 -0.18321494044E+02  0.40659136715E+02  0.00000000000E+00 0. -1.
         11    1    3    3    0    0 -0.17625582350E+02 -0.18167085157E+02  0.93627245152E+01  0.26988233489E+02  0.51100000000E-03 0.  1.
        -11    1    3    3    0    0 -0.11225998650E+02 -0.35489256377E+01 -0.14264797853E+01  0.11859711789E+02  0.51100000000E-03 0. -1.
         12    1    3    3    0    0  0.33801241971E+01 -0.41430909440E+01  0.10385249314E+02  0.11680918006E+02  0.00000000000E+00 0. -1.
</event>
<event>
 7    1  0.4871930E-013  0.5052886E+02  0.7816164E-02  0.1300439E+00
        -11   -1    0    0    0    0  0.00000000000E+00  0.00000000000E+00  0.45593999997E+02  0.45594000000E+02  0.51100000000E-03 0.  1.
         11   -1    0    0    0    0 -0.00000000000E+00 -0.00000000000E+00 -0.45593999997E+02  0.45594000000E+02  0.51100000000E-03 0. -1.
    9900012    2    1    2    0    0 -0.40370996562E+02  0.25122619127E+00  0.48255040860E+01  0.50528856285E+02  0.29999989163E+02 0.  0.
         12    1    1    2    0    0  0.40370996562E+02 -0.25122619127E+00 -0.48255040860E+01  0.40659143715E+02  0.00000000000E+00 0. -1.
         11    1    3    3    0    0  0.20147165712E+01 -0.22224406354E+01 -0.11889177965E+01  0.32267400001E+01  0.51100000000E-03 0. -1.
        -11    1    3    3    0    0 -0.15442301354E+02 -0.22568918278E+01 -0.68852094828E+01  0.17057676914E+02  0.51100000000E-03 0.  1.
        -12    1    3    3    0    0 -0.26943411779E+02  0.47305586544E+01  0.12899631365E+02  0.30244439371E+02  0.00000000000E+00 0.  1.
</event>
<event>
 7    1  0.4871930E-013  0.5052886E+02  0.7816164E-02  0.1300439E+00
        -11   -1    0    0    0    0  0.00000000000E+00  0.00000000000E+00  0.45593999997E+02  0.45594000000E+02  0.51100000000E-03 0.  1.
         11   -1    0    0    0    0 -0.00000000000E+00 -0.00000000000E+00 -0.45593999997E+02  0.45594000000E+02  0.51100000000E-03 0. -1.
    9900012    2    1    2    0    0 -0.16755784122E+02 -0.46788613280E+01  0.36749394842E+02  0.50528855074E+02  0.29999985483E+02 0.  0.
         12    1    1    2    0    0  0.16755784122E+02  0.46788613280E+01 -0.36749394842E+02  0.40659144926E+02  0.00000000000E+00 0. -1.
         11    1    3    3    0    0  0.26605973458E+01 -0.24335743806E+00 -0.34587878162E+01  0.43704936217E+01  0.51100000000E-03 0. -1.
        -11    1    3    3    0    0 -0.14827470168E+02 -0.72075537706E+01  0.24248034627E+02  0.29321832932E+02  0.51100000000E-03 0.  1.
        -12    1    3    3    0    0 -0.45889113000E+01  0.27720498806E+01  0.15960148030E+02  0.16836528520E+02  0.00000000000E+00 0.  1.
</event>
<event>
 7    1  0.4871930E-013  0.5052886E+02  0.7816164E-02  0.1300439E+00
        -11   -1    0    0    0    0  0.00000000000E+00  0.00000000000E+00  0.45593999997E+02  0.45594000000E+02  0.51100000000E-03 0. -1.
         11   -1    0    0    0    0 -0.00000000000E+00 -0.00000000000E+00 -0.45593999997E+02  0.45594000000E+02  0.51100000000E-03 0.  1.
    9900012    2    1    2    0    0 -0.36322588399E+01  0.31915138245E+02 -0.24927816409E+02  0.50528863457E+02  0.30000010964E+02 0.  0.
         12    1    1    2    0    0  0.36322588399E+01 -0.31915138245E+02  0.24927816409E+02  0.40659136543E+02  0.00000000000E+00 0. -1.
         11    1    3    3    0    0 -0.69225707568E+01  0.19590755533E+02 -0.20465267150E+02  0.29164136333E+02  0.51100000000E-03 0.  1.
        -11    1    3    3    0    0  0.50730043053E+01  0.87420557047E+01 -0.10206626505E+02  0.14364335540E+02  0.51100000000E-03 0. -1.
         12    1    3    3    0    0 -0.17826923885E+01  0.35823270070E+01  0.57440772454E+01  0.70003915846E+01  0.00000000000E+00 0. -1.
</event>
<event>
 7    1  0.4871930E-013  0.5052885E+02  0.7816164E-02  0.1300439E+00
        -11   -1    0    0    0    0  0.00000000000E+00  0.00000000000E+00  0.45593999997E+02  0.45594000000E+02  0.51100000000E-03 0.  1.
         11   -1    0    0    0    0 -0.00000000000E+00 -0.00000000000E+00 -0.45593999997E+02  0.45594000000E+02  0.51100000000E-03 0. -1.
    9900012    2    1    2    0    0  0.36886587117E+02 -0.35489748356E+01  0.16731734431E+02  0.50528850125E+02  0.29999970439E+02 0.  0.
         12    1    1    2    0    0 -0.36886587117E+02  0.35489748356E+01 -0.16731734431E+02  0.40659149875E+02  0.00000000000E+00 0. -1.
         11    1    3    3    0    0  0.18820392167E+02 -0.68516505489E+00 -0.39759698700E+01  0.19247985586E+02  0.51100000000E-03 0. -1.
        -11    1    3    3    0    0  0.15516295888E+02 -0.80280350465E+01  0.13643832969E+02  0.22166618216E+02  0.51100000000E-03 0.  1.
        -12    1    3    3    0    0  0.25498990615E+01  0.51642252658E+01  0.70638713321E+01  0.91142463219E+01  0.00000000000E+00 0.  1.
</event>
<event>
 7    1  0.4871930E-013  0.5052886E+02  0.7816164E-02  0.1300439E+00
        -11   -1    0    0    0    0  0.00000000000E+00  0.00000000000E+00  0.45593999997E+02  0.45594000000E+02  0.51100000000E-03 0. -1.
         11   -1    0    0    0    0 -0.00000000000E+00 -0.00000000000E+00 -0.45593999997E+02  0.45594000000E+02  0.51100000000E-03 0.  1.
    9900012    2    1    2    0    0 -0.22605965963E+02  0.33195197200E+02 -0.63415216791E+01  0.50528859435E+02  0.29999998738E+02 0.  0.
         12    1    1    2    0    0  0.22605965963E+02 -0.33195197200E+02  0.63415216791E+01  0.40659140565E+02  0.00000000000E+00 0. -1.
         11    1    3    3    0    0 -0.96653522592E+01 -0.74711311254E-01  0.19782006644E+01  0.98659968682E+01  0.51100000000E-03 0. -1.
        -11    1    3    3    0    0 -0.40764744849E+00  0.11513551979E+02  0.46248386817E+01  0.12414394416E+02  0.51100000000E-03 0.  1.
        -12    1    3    3    0    0 -0.12532966256E+02  0.21756356532E+02 -0.12944561025E+02  0.28248468151E+02  0.00000000000E+00 0.  1.
</event>
<event>
 7    1  0.4871930E-013  0.5052888E+02  0.7816164E-02  0.1300439E+00
        -11   -1    0    0    0    0  0.00000000000E+00  0.00000000000E+00  0.45593999997E+02  0.45594000000E+02  0.51100000000E-03 0.  1.
         11   -1    0    0    0    0 -0.00000000000E+00 -0.00000000000E+00 -0.45593999997E+02  0.45594000000E+02  0.51100000000E-03 0. -1.
    9900012    2    1    2    0    0 -0.10657404976E+01 -0.38193715586E+02  0.13902101784E+02  0.50528878673E+02  0.30000057215E+02 0.  0.
         12    1    1    2    0    0  0.10657404976E+01  0.38193715586E+02 -0.13902101784E+02  0.40659121327E+02  0.00000000000E+00 0. -1.
         11    1    3    3    0    0 -0.13979613981E+01 -0.12076574303E+02 -0.13981122183E+01  0.12237346976E+02  0.51100000000E-03 0. -1.
        -11    1    3    3    0    0  0.26276696641E+01 -0.27263463607E+02  0.52108923106E+01  0.27881077716E+02  0.51100000000E-03 0.  1.
         12    1    3    3    0    0 -0.22954487636E+01  0.11463223237E+01  0.10089321691E+02  0.10410453981E+02  0.00000000000E+00 0. -1.
</event>
<event>
 7    1  0.4871930E-013  0.5052887E+02  0.7816164E-02  0.1300439E+00
        -11   -1    0    0    0    0  0.00000000000E+00  0.00000000000E+00  0.45593999997E+02  0.45594000000E+02  0.51100000000E-03 0. -1.
         11   -1    0    0    0    0 -0.00000000000E+00 -0.00000000000E+00 -0.45593999997E+02  0.45594000000E+02  0.51100000000E-03 0.  1.
    9900012    2    1    2    0    0  0.84147094816E+01 -0.25839508004E+02 -0.30243636991E+02  0.50528867102E+02  0.30000022043E+02 0.  0.
         12    1    1    2    0    0 -0.84147094816E+01  0.25839508004E+02  0.30243636991E+02  0.40659132898E+02  0.00000000000E+00 0. -1.
         11    1    3    3    0    0  0.12991001545E+02 -0.17387991260E+02 -0.18442448321E+02  0.28482139342E+02  0.51100000000E-03 0. -1.
        -11    1    3    3    0    0 -0.58268242718E+00 -0.24648556004E+01 -0.14228319455E+02  0.14451993174E+02  0.51100000000E-03 0.  1.
         12    1    3    3    0    0 -0.39936096360E+01 -0.59866611439E+01  0.24271307844E+01  0.75947345853E+01  0.00000000000E+00 0. -1.
</event>
<event>
 7    1  0.4871930E-013  0.5052886E+02  0.7816164E-02  0.1300439E+00
        -11   -1    0    0    0    0  0.00000000000E+00  0.00000000000E+00  0.45593999997E+02  0.45594000000E+02  0.51100000000E-03 0.  1.
         11   -1    0    0    0    0 -0.00000000000E+00 -0.00000000000E+00 -0.45593999997E+02  0.45594000000E+02  0.51100000000E-03 0. -1.
    9900012    2    1    2    0    0 -0.17032379241E+02  0.10841916741E+02  0.35291875456E+02  0.50528861121E+02  0.30000003863E+02 0.  0.
         12    1    1    2    0    0  0.17032379241E+02 -0.10841916741E+02 -0.35291875456E+02  0.40659138879E+02  0.00000000000E+00 0. -1.
         11    1    3    3    0    0 -0.12943093563E+02  0.10332206941E+02  0.17410612656E+02  0.24029307202E+02  0.51100000000E-03 0. -1.
        -11    1    3    3    0    0 -0.97760960402E+01 -0.23617513153E+01  0.17416729680E+02  0.20111996323E+02  0.51100000000E-03 0.  1.
        -12    1    3    3    0    0  0.56868103625E+01  0.28714611149E+01  0.46453311868E+00  0.63875575967E+01  0.00000000000E+00 0.  1.
</event>
<event>
 7    1  0.4871930E-013  0.5052886E+02  0.7816164E-02  0.1300439E+00
        -11   -1    0    0    0    0  0.00000000000E+00  0.00000000000E+00  0.45593999997E+02  0.45594000000E+02  0.51100000000E-03 0. -1.
         11   -1    0    0    0    0 -0.00000000000E+00 -0.00000000000E+00 -0.45593999997E+02  0.45594000000E+02  0.51100000000E-03 0.  1.
    9900012    2    1    2    0    0 -0.10050544980E+02  0.79242458011E+01 -0.38592208020E+02  0.50528860243E+02  0.30000001196E+02 0.  0.
         12    1    1    2    0    0  0.10050544980E+02 -0.79242458011E+01  0.38592208020E+02  0.40659139757E+02  0.00000000000E+00 0. -1.
         11    1    3    3    0    0  0.19110202632E+01  0.14857237000E+01  0.58983658712E+00  0.24914415144E+01  0.51100000000E-03 0. -1.
        -11    1    3    3    0    0  0.49136259806E+01 -0.27328978312E+01 -0.20449723048E+02  0.21208574300E+02  0.51100000000E-03 0.  1.
        -12    1    3    3    0    0 -0.16875191224E+02  0.91714199323E+01 -0.18732321559E+02  0.26828844429E+02  0.00000000000E+00 0.  1.
</event>
<event>
 7    1  0.4871930E-013  0.5052886E+02  0.7816164E-02  0.1300439E+00
        -11   -1    0    0    0    0  0.00000000000E+00  0.00000000000E+00  0.45593999997E+02  0.45594000000E+02  0.51100000000E-03 0.  1.
         11   -1    0    0    0    0 -0.00000000000E+00 -0.00000000000E+00 -0.45593999997E+02  0.45594000000E+02  0.51100000000E-03 0. -1.
    9900012    2    1    2    0    0  0.34132223716E+02 -0.92070269670E+01  0.20084517015E+02  0.50528857546E+02  0.29999992997E+02 0.  0.
         12    1    1    2    0    0 -0.34132223716E+02  0.92070269670E+01 -0.20084517015E+02  0.40659142454E+02  0.00000000000E+00 0. -1.
         11    1    3    3    0    0  0.18282529898E+01  0.12433260220E+01 -0.42918150347E+01  0.48278406296E+01  0.51100000000E-03 0. -1.
        -11    1    3    3    0    0  0.48881375164E+01  0.47760390744E+01  0.72726711242E+01  0.99797887333E+01  0.51100000000E-03 0.  1.
        -12    1    3    3    0    0  0.27415833210E+02 -0.15226392063E+02  0.17103660925E+02  0.35721228183E+02  0.00000000000E+00 0.  1.
</event>
<event>
 7    1  0.4871930E-013  0.5052886E+02  0.7816164E-02  0.1300439E+00
        -11   -1    0    0    0    0  0.00000000000E+00  0.00000000000E+00  0.45593999997E+02  0.45594000000E+02  0.51100000000E-03 0.  1.
         11   -1    0    0    0    0 -0.00000000000E+00 -0.00000000000E+00 -0.45593999997E+02  0.45594000000E+02  0.51100000000E-03 0. -1.
    9900012    2    1    2    0    0  0.25472702998E+02  0.24832329146E+02  0.19689156223E+02  0.50528855375E+02  0.29999986398E+02 0.  0.
         12    1    1    2    0    0 -0.25472702998E+02 -0.24832329146E+02 -0.19689156223E+02  0.40659144625E+02  0.00000000000E+00 0. -1.
         11    1    3    3    0    0 -0.38476273414E+01 -0.19730564411E+01  0.88112918609E+00  0.44128875787E+01  0.51100000000E-03 0. -1.
        -11    1    3    3    0    0  0.61885036311E+01  0.35830380292E+01 -0.18313554260E+01  0.73817072326E+01  0.51100000000E-03 0.  1.
        -12    1    3    3    0    0  0.23131826709E+02  0.23222347558E+02  0.20639382463E+02  0.38734260564E+02  0.00000000000E+00 0.  1.
</event>
<event>
 7    1  0.4871930E-013  0.5052886E+02  0.7816164E-02  0.1300439E+00
        -11   -1    0    0    0    0  0.00000000000E+00  0.00000000000E+00  0.45593999997E+02  0.45594000000E+02  0.51100000000E-03 0. -1.
         11   -1    0    0    0    0 -0.00000000000E+00 -0.00000000000E+00 -0.45593999997E+02  0.45594000000E+02  0.51100000000E-03 0.  1.
    9900012    2    1    2    0    0  0.16946647570E+02 -0.33484365952E+02 -0.15645261808E+02  0.50528857804E+02  0.29999993780E+02 0.  0.
         12    1    1    2    0    0 -0.16946647570E+02  0.33484365952E+02  0.15645261808E+02  0.40659142196E+02  0.00000000000E+00 0. -1.
         11    1    3    3    0    0  0.11798127173E+02 -0.16634943223E+02 -0.29493829220E+01  0.20606212673E+02  0.51100000000E-03 0. -1.
        -11    1    3    3    0    0 -0.18021658618E+01 -0.16283309271E+02 -0.15360229079E+02  0.22457306166E+02  0.51100000000E-03 0.  1.
         12    1    3    3    0    0  0.69506862584E+01 -0.56611345847E+00  0.26643501934E+01  0.74653389651E+01  0.00000000000E+00 0. -1.
</event>
<event>
 7    1  0.4871930E-013  0.5052885E+02  0.7816164E-02  0.1300439E+00
        -11   -1    0    0    0    0  0.00000000000E+00  0.00000000000E+00  0.45593999997E+02  0.45594000000E+02  0.51100000000E-03 0.  1.
         11   -1    0    0    0    0 -0.00000000000E+00 -0.00000000000E+00 -0.45593999997E+02  0.45594000000E+02  0.51100000000E-03 0. -1.
    9900012    2    1    2    0    0  0.84286627978E+01  0.39613624784E+02 -0.35894937919E+01  0.50528854771E+02  0.29999984563E+02 0.  0.
         12    1    1    2    0    0 -0.84286627978E+01 -0.39613624784E+02  0.35894937919E+01  0.40659145229E+02  0.00000000000E+00 0. -1.
         11    1    3    3    0    0  0.62917899507E+01  0.15257890449E+02 -0.34621276768E+01  0.16863456646E+02  0.51100000000E-03 0. -1.
        -11    1    3    3    0    0  0.61496980965E+01  0.20563702867E+02  0.87765775905E+01  0.23188638958E+02  0.51100000000E-03 0.  1.
         12    1    3    3    0    0 -0.40128252494E+01  0.37920314679E+01 -0.89039437055E+01  0.10476759167E+02  0.00000000000E+00 0. -1.
</event>
<event>
 7    1  0.4871930E-013  0.5052885E+02  0.7816164E-02  0.1300439E+00
        -11   -1    0    0    0    0  0.00000000000E+00  0.00000000000E+00  0.45593999997E+02  0.45594000000E+02  0.51100000000E-03 0.  1.
         11   -1    0    0    0    0 -0.00000000000E+00 -0.00000000000E+00 -0.45593999997E+02  0.45594000000E+02  0.51100000000E-03 0. -1.
    9900012    2    1    2    0    0  0.16866806411E+01  0.33053611269E+01  0.40489454161E+02  0.50528853402E+02  0.29999980402E+02 0.  0.
         12    1    1    2    0    0 -0.16866806411E+01 -0.33053611269E+01 -0.40489454161E+02  0.40659146598E+02  0.00000000000E+00 0. -1.
         11    1    3    3    0    0 -0.37149085258E+01  0.49222843808E+01  0.69700446008E+01  0.93065004636E+01  0.51100000000E-03 0. -1.
        -11    1    3    3    0    0 -0.58002844580E+01 -0.32399499867E+01  0.27718474574E+02  0.28503585892E+02  0.51100000000E-03 0.  1.
        -12    1    3    3    0    0  0.11201873625E+02  0.16230267328E+01  0.58009349862E+01  0.12718767047E+02  0.00000000000E+00 0.  1.
</event>
<event>
 7    1  0.4871930E-013  0.5052888E+02  0.7816164E-02  0.1300439E+00
        -11   -1    0    0    0    0  0.00000000000E+00  0.00000000000E+00  0.45593999997E+02  0.45594000000E+02  0.51100000000E-03 0.  1.
         11   -1    0    0    0    0 -0.00000000000E+00 -0.00000000000E+00 -0.45593999997E+02  0.45594000000E+02  0.51100000000E-03 0. -1.
    9900012    2    1    2    0    0  0.38461251291E+02  0.43224081024E+01  0.12458442050E+02  0.50528882437E+02  0.30000068655E+02 0.  0.
         12    1    1    2    0    0 -0.38461251291E+02 -0.43224081024E+01 -0.12458442050E+02  0.40659117563E+02  0.00000000000E+00 0. -1.
         11    1    3    3    0    0  0.18327788494E+02 -0.29655795910E+01  0.26477293115E+01  0.18754011948E+02  0.51100000000E-03 0. -1.
        -11    1    3    3    0    0  0.23179801634E+02  0.47023702846E+01  0.12698141274E+02  0.26845079292E+02  0.51100000000E-03 0.  1.
        -12    1    3    3    0    0 -0.30463388374E+01  0.25856174089E+01 -0.28874285353E+01  0.49297911968E+01  0.00000000000E+00 0.  1.
</event>
<event>
 7    1  0.4871930E-013  0.5052886E+02  0.7816164E-02  0.1300439E+00
        -11   -1    0    0    0    0  0.00000000000E+00  0.00000000000E+00  0.45593999997E+02  0.45594000000E+02  0.51100000000E-03 0.  1.
         11   -1    0    0    0    0 -0.00000000000E+00 -0.00000000000E+00 -0.45593999997E+02  0.45594000000E+02  0.51100000000E-03 0. -1.
    9900012    2    1    2    0    0  0.45009145467E+01  0.31105624852E+02  0.25794336645E+02  0.50528856721E+02  0.29999990491E+02 0.  0.
         12    1    1    2    0    0 -0.45009145467E+01 -0.31105624852E+02 -0.25794336645E+02  0.40659143279E+02  0.00000000000E+00 0. -1.
         11    1    3    3    0    0  0.55435139770E+01  0.19885503802E+02  0.11624951598E+02  0.23691840548E+02  0.51100000000E-03 0. -1.
        -11    1    3    3    0    0  0.41731612595E+01  0.86488018121E+01 -0.18635148378E+01  0.97821130383E+01  0.51100000000E-03 0.  1.
        -12    1    3    3    0    0 -0.52157606898E+01  0.25713192378E+01  0.16032899886E+02  0.17054903135E+02  0.00000000000E+00 0.  1.
</event>
<event>
 7    1  0.4871930E-013  0.5052886E+02  0.7816164E-02  0.1300439E+00
        -11   -1    0    0    0    0  0.00000000000E+00  0.00000000000E+00  0.45593999997E+02  0.45594000000E+02  0.51100000000E-03 0.  1.
         11   -1    0    0    0    0 -0.00000000000E+00 -0.00000000000E+00 -0.45593999997E+02  0.45594000000E+02  0.51100000000E-03 0. -1.
    9900012    2    1    2    0    0 -0.13892010641E+02  0.10785481489E+02  0.36658573339E+02  0.50528861177E+02  0.30000004032E+02 0.  0.
         12    1    1    2    0    0  0.13892010641E+02 -0.10785481489E+02 -0.36658573339E+02  0.40659138823E+02  0.00000000000E+00 0. -1.
         11    1    3    3    0    0 -0.35114969913E+01 -0.34774393723E+01  0.20298028001E+01  0.53425925707E+01  0.51100000000E-03 0. -1.
        -11    1    3    3    0    0 -0.17319141312E+02  0.11822328844E+02  0.20871408384E+02  0.29586074483E+02  0.51100000000E-03 0.  1.
        -12    1    3    3    0    0  0.69386276620E+01  0.24405920174E+01  0.13757362155E+02  0.15600194123E+02  0.00000000000E+00 0.  1.
</event>
<event>
 7    1  0.4871930E-013  0.5052885E+02  0.7816164E-02  0.1300439E+00
        -11   -1    0    0    0    0  0.00000000000E+00  0.00000000000E+00  0.45593999997E+02  0.45594000000E+02  0.51100000000E-03 0.  1.
         11   -1    0    0    0    0 -0.00000000000E+00 -0.00000000000E+00 -0.45593999997E+02  0.45594000000E+02  0.51100000000E-03 0. -1.
    9900012    2    1    2    0    0  0.96189098918E+01 -0.19282873617E+02  0.34479175995E+02  0.50528853185E+02  0.29999979740E+02 0.  0.
         12    1    1    2    0    0 -0.96189098918E+01  0.19282873617E+02 -0.34479175995E+02  0.40659146815E+02  0.00000000000E+00 0. -1.
         11    1    3    3    0    0  0.14771659107E+02 -0.41621355159E+01  0.14808702574E+02  0.21326578653E+02  0.51100000000E-03 0. -1.
        -11    1    3    3    0    0  0.28319561741E+01 -0.11590769726E+02  0.70575518713E+01  0.13862718251E+02  0.51100000000E-03 0.  1.
         12    1    3    3    0    0 -0.79847053897E+01 -0.35299683751E+01  0.12612921550E+02  0.15339556281E+02  0.00000000000E+00 0. -1.
</event>
<event>
 7    1  0.4871930E-013  0.5052886E+02  0.7816164E-02  0.1300439E+00
        -11   -1    0    0    0    0  0.00000000000E+00  0.00000000000E+00  0.45593999997E+02  0.45594000000E+02  0.51100000000E-03 0.  1.
         11   -1    0    0    0    0 -0.00000000000E+00 -0.00000000000E+00 -0.45593999997E+02  0.45594000000E+02  0.51100000000E-03 0. -1.
    9900012    2    1    2    0    0  0.34121131124E+01  0.22587135620E+02  0.33635462063E+02  0.50528861794E+02  0.30000005910E+02 0.  0.
         12    1    1    2    0    0 -0.34121131124E+01 -0.22587135620E+02 -0.33635462063E+02  0.40659138206E+02  0.00000000000E+00 0. -1.
         11    1    3    3    0    0 -0.10210633009E+02  0.70941194715E+01  0.15797743633E+02  0.20103538537E+02  0.51100000000E-03 0. -1.
        -11    1    3    3    0    0 -0.98130139450E+00  0.70821381116E+01  0.23211522004E+01  0.75171391139E+01  0.51100000000E-03 0.  1.
        -12    1    3    3    0    0  0.14604047516E+02  0.84108780369E+01  0.15516566230E+02  0.22908184144E+02  0.00000000000E+00 0.  1.
</event>
<event>
 7    1  0.4871930E-013  0.5052883E+02  0.7816164E-02  0.1300439E+00
        -11   -1    0    0    0    0  0.00000000000E+00  0.00000000000E+00  0.45593999997E+02  0.45594000000E+02  0.51100000000E-03 0. -1.
         11   -1    0    0    0    0 -0.00000000000E+00 -0.00000000000E+00 -0.45593999997E+02  0.45594000000E+02  0.51100000000E-03 0.  1.
    9900012    2    1    2    0    0  0.17268601635E+02 -0.20261155935E+02 -0.30731887534E+02  0.50528831862E+02  0.29999914929E+02 0.  0.
         12    1    1    2    0    0 -0.17268601635E+02  0.20261155935E+02  0.30731887534E+02  0.40659168138E+02  0.00000000000E+00 0. -1.
         11    1    3    3    0    0 -0.43787859794E+01 -0.55901781975E+01 -0.32258345424E+01  0.77993504659E+01  0.51100000000E-03 0. -1.
        -11    1    3    3    0    0  0.79631697415E+01 -0.15913139928E+02 -0.97909431953E+01  0.20310161585E+02  0.51100000000E-03 0.  1.
         12    1    3    3    0    0  0.13684217873E+02  0.12421621910E+01 -0.17715109796E+02  0.22419319811E+02  0.00000000000E+00 0. -1.
</event>
<event>
 7    1  0.4871930E-013  0.5052884E+02  0.7816164E-02  0.1300439E+00
        -11   -1    0    0    0    0  0.00000000000E+00  0.00000000000E+00  0.45593999997E+02  0.45594000000E+02  0.51100000000E-03 0.  1.
         11   -1    0    0    0    0 -0.00000000000E+00 -0.00000000000E+00 -0.45593999997E+02  0.45594000000E+02  0.51100000000E-03 0. -1.
    9900012    2    1    2    0    0  0.14277844648E+02 -0.15585865685E+02  0.34733146301E+02  0.50528837331E+02  0.29999931552E+02 0.  0.
         12    1    1    2    0    0 -0.14277844648E+02  0.15585865685E+02 -0.34733146301E+02  0.40659162669E+02  0.00000000000E+00 0. -1.
         11    1    3    3    0    0  0.17210721129E+01  0.20194980051E+01 -0.27103179994E+00  0.26671932642E+01  0.51100000000E-03 0. -1.
        -11    1    3    3    0    0  0.94321001473E+01 -0.77236956720E+00  0.27656721149E+02  0.29231067256E+02  0.51100000000E-03 0.  1.
        -12    1    3    3    0    0  0.31246723879E+01 -0.16832994122E+02  0.73474569525E+01  0.18630576811E+02  0.00000000000E+00 0.  1.
</event>
<event>
 7    1  0.4871930E-013  0.5052886E+02  0.7816164E-02  0.1300439E+00
        -11   -1    0    0    0    0  0.00000000000E+00  0.00000000000E+00  0.45593999997E+02  0.45594000000E+02  0.51100000000E-03 0.  1.
         11   -1    0    0    0    0 -0.00000000000E+00 -0.00000000000E+00 -0.45593999997E+02  0.45594000000E+02  0.51100000000E-03 0. -1.
    9900012    2    1    2    0    0  0.37077169435E+02  0.15053871642E+00  0.16686105557E+02  0.50528864817E+02  0.30000015097E+02 0.  0.
         12    1    1    2    0    0 -0.37077169435E+02 -0.15053871642E+00 -0.16686105557E+02  0.40659135183E+02  0.00000000000E+00 0. -1.
         11    1    3    3    0    0 -0.24699400763E+01  0.91019816389E+00  0.93893950658E+01  0.97514001374E+01  0.51100000000E-03 0. -1.
        -11    1    3    3    0    0  0.11604738259E+02  0.26077580141E+01  0.99223608286E+00  0.11935446562E+02  0.51100000000E-03 0.  1.
        -12    1    3    3    0    0  0.27942371252E+02 -0.33674174616E+01  0.63044744081E+01  0.28842018118E+02  0.00000000000E+00 0.  1.
</event>
<event>
 7    1  0.4871930E-013  0.5052886E+02  0.7816164E-02  0.1300439E+00
        -11   -1    0    0    0    0  0.00000000000E+00  0.00000000000E+00  0.45593999997E+02  0.45594000000E+02  0.51100000000E-03 0. -1.
         11   -1    0    0    0    0 -0.00000000000E+00 -0.00000000000E+00 -0.45593999997E+02  0.45594000000E+02  0.51100000000E-03 0.  1.
    9900012    2    1    2    0    0  0.38118014706E+00  0.33223240840E+02  0.23435805039E+02  0.50528856034E+02  0.29999988400E+02 0.  0.
         12    1    1    2    0    0 -0.38118014706E+00 -0.33223240840E+02 -0.23435805039E+02  0.40659143966E+02  0.00000000000E+00 0. -1.
         11    1    3    3    0    0  0.69036454872E+01  0.28926505941E+02  0.82791488259E+01  0.30869845683E+02  0.51100000000E-03 0.  1.
        -11    1    3    3    0    0  0.74922469847E+00  0.35101860020E+01  0.10227410899E+02  0.10838942632E+02  0.51100000000E-03 0. -1.
        -12    1    3    3    0    0 -0.72716900386E+01  0.78654889711E+00  0.49292453141E+01  0.88200677181E+01  0.00000000000E+00 0.  1.
</event>
<event>
 7    1  0.4871930E-013  0.5052885E+02  0.7816164E-02  0.1300439E+00
        -11   -1    0    0    0    0  0.00000000000E+00  0.00000000000E+00  0.45593999997E+02  0.45594000000E+02  0.51100000000E-03 0.  1.
         11   -1    0    0    0    0 -0.00000000000E+00 -0.00000000000E+00 -0.45593999997E+02  0.45594000000E+02  0.51100000000E-03 0. -1.
    9900012    2    1    2    0    0  0.15042677676E+02 -0.63910327436E+00  0.37768720367E+02  0.50528845522E+02  0.29999956450E+02 0.  0.
         12    1    1    2    0    0 -0.15042677676E+02  0.63910327436E+00 -0.37768720367E+02  0.40659154478E+02  0.00000000000E+00 0. -1.
         11    1    3    3    0    0  0.48632787598E+01 -0.33229716534E+01 -0.26337939300E+01  0.64521695291E+01  0.51100000000E-03 0. -1.
        -11    1    3    3    0    0  0.86034451955E+01  0.31932047560E+01  0.97872096403E+01  0.13416605333E+02  0.51100000000E-03 0.  1.
        -12    1    3    3    0    0  0.15759537203E+01 -0.50933637690E+00  0.30615304657E+02  0.30660070661E+02  0.00000000000E+00 0.  1.
</event>
<event>
 7    1  0.4871930E-013  0.5052886E+02  0.7816164E-02  0.1300439E+00
        -11   -1    0    0    0    0  0.00000000000E+00  0.00000000000E+00  0.45593999997E+02  0.45594000000E+02  0.51100000000E-03 0. -1.
         11   -1    0    0    0    0 -0.00000000000E+00 -0.00000000000E+00 -0.45593999997E+02  0.45594000000E+02  0.51100000000E-03 0.  1.
    9900012    2    1    2    0    0 -0.24960506058E+02 -0.23933999012E+02 -0.21384636447E+02  0.50528857765E+02  0.29999993661E+02 0.  0.
         12    1    1    2    0    0  0.24960506058E+02  0.23933999012E+02  0.21384636447E+02  0.40659142235E+02  0.00000000000E+00 0. -1.
         11    1    3    3    0    0 -0.99793453849E+01 -0.20685524016E+02 -0.42830188629E+00  0.22970887682E+02  0.51100000000E-03 0. -1.
        -11    1    3    3    0    0 -0.11398460686E+02 -0.21001614762E+01 -0.80427258297E+01  0.14107481110E+02  0.51100000000E-03 0.  1.
        -12    1    3    3    0    0 -0.35826999865E+01 -0.11483135190E+01 -0.12913608731E+02  0.13450488972E+02  0.00000000000E+00 0.  1.
</event>
<event>
 7    1  0.4871930E-013  0.5052899E+02  0.7816164E-02  0.1300438E+00
        -11   -1    0    0    0    0  0.00000000000E+00  0.00000000000E+00  0.45593999997E+02  0.45594000000E+02  0.51100000000E-03 0.  1.
         11   -1    0    0    0    0 -0.00000000000E+00 -0.00000000000E+00 -0.45593999997E+02  0.45594000000E+02  0.51100000000E-03 0. -1.
    9900012    2    1    2    0    0 -0.19192344724E+02  0.15137844361E+02  0.32490839889E+02  0.50528989872E+02  0.30000395212E+02 0.  0.
         12    1    1    2    0    0  0.19192344724E+02 -0.15137844361E+02 -0.32490839889E+02  0.40659010128E+02  0.00000000000E+00 0. -1.
         11    1    3    3    0    0 -0.78026169259E+01  0.22101443600E+01 -0.81903055750E+00  0.81508515076E+01  0.51100000000E-03 0. -1.
        -11    1    3    3    0    0 -0.12055845874E+01 -0.52083375341E+01  0.57667920969E+01  0.78635936707E+01  0.51100000000E-03 0.  1.
        -12    1    3    3    0    0 -0.10184143210E+02  0.18136037535E+02  0.27543078350E+02  0.34514544693E+02  0.00000000000E+00 0.  1.
</event>
<event>
 7    1  0.4871930E-013  0.5052887E+02  0.7816164E-02  0.1300439E+00
        -11   -1    0    0    0    0  0.00000000000E+00  0.00000000000E+00  0.45593999997E+02  0.45594000000E+02  0.51100000000E-03 0.  1.
         11   -1    0    0    0    0 -0.00000000000E+00 -0.00000000000E+00 -0.45593999997E+02  0.45594000000E+02  0.51100000000E-03 0. -1.
    9900012    2    1    2    0    0 -0.97499910833E+01  0.39166463976E+02  0.49082423389E+01  0.50528867331E+02  0.30000022739E+02 0.  0.
         12    1    1    2    0    0  0.97499910833E+01 -0.39166463976E+02 -0.49082423389E+01  0.40659132669E+02  0.00000000000E+00 0. -1.
         11    1    3    3    0    0  0.26273280887E+00  0.17887880740E+02  0.24641485057E+01  0.18058719058E+02  0.51100000000E-03 0. -1.
        -11    1    3    3    0    0 -0.98029538977E+01  0.15099986212E+02 -0.84937741771E+01  0.19906071656E+02  0.51100000000E-03 0.  1.
        -12    1    3    3    0    0 -0.20976999440E+00  0.61785970249E+01  0.10937868010E+02  0.12564076618E+02  0.00000000000E+00 0.  1.
</event>
<event>
 7    1  0.4871930E-013  0.5052886E+02  0.7816164E-02  0.1300439E+00
        -11   -1    0    0    0    0  0.00000000000E+00  0.00000000000E+00  0.45593999997E+02  0.45594000000E+02  0.51100000000E-03 0. -1.
         11   -1    0    0    0    0 -0.00000000000E+00 -0.00000000000E+00 -0.45593999997E+02  0.45594000000E+02  0.51100000000E-03 0.  1.
    9900012    2    1    2    0    0 -0.25683102051E+02 -0.10942762902E+02 -0.29560108166E+02  0.50528858523E+02  0.29999995965E+02 0.  0.
         12    1    1    2    0    0  0.25683102051E+02  0.10942762902E+02  0.29560108166E+02  0.40659141477E+02  0.00000000000E+00 0. -1.
         11    1    3    3    0    0  0.80289247612E+00  0.47042825862E+00  0.87668064456E+00  0.12784788963E+01  0.51100000000E-03 0. -1.
        -11    1    3    3    0    0 -0.31444997950E+01  0.69822347306E+01 -0.15645953640E+01  0.78158454251E+01  0.51100000000E-03 0.  1.
        -12    1    3    3    0    0 -0.23341494732E+02 -0.18395425892E+02 -0.28872193446E+02  0.41434534201E+02  0.00000000000E+00 0.  1.
</event>
<event>
 7    1  0.4871930E-013  0.5052887E+02  0.7816164E-02  0.1300439E+00
        -11   -1    0    0    0    0  0.00000000000E+00  0.00000000000E+00  0.45593999997E+02  0.45594000000E+02  0.51100000000E-03 0. -1.
         11   -1    0    0    0    0 -0.00000000000E+00 -0.00000000000E+00 -0.45593999997E+02  0.45594000000E+02  0.51100000000E-03 0.  1.
    9900012    2    1    2    0    0 -0.21511411104E+02  0.31766935032E+02  0.13464256881E+02  0.50528865941E+02  0.30000018515E+02 0.  0.
         12    1    1    2    0    0  0.21511411104E+02 -0.31766935032E+02 -0.13464256881E+02  0.40659134059E+02  0.00000000000E+00 0. -1.
         11    1    3    3    0    0 -0.45033124057E+01  0.16581020391E+02  0.16645824719E+02  0.23922657475E+02  0.51100000000E-03 0. -1.
        -11    1    3    3    0    0 -0.99549682787E+01  0.58587242439E+01  0.47359833943E+01  0.12484213318E+02  0.51100000000E-03 0.  1.
        -12    1    3    3    0    0 -0.70531304201E+01  0.93271903974E+01 -0.79175512327E+01  0.14121995148E+02  0.00000000000E+00 0.  1.
</event>
<event>
 7    1  0.4871930E-013  0.5052887E+02  0.7816164E-02  0.1300439E+00
        -11   -1    0    0    0    0  0.00000000000E+00  0.00000000000E+00  0.45593999997E+02  0.45594000000E+02  0.51100000000E-03 0.  1.
         11   -1    0    0    0    0 -0.00000000000E+00 -0.00000000000E+00 -0.45593999997E+02  0.45594000000E+02  0.51100000000E-03 0. -1.
    9900012    2    1    2    0    0  0.16556581321E+01 -0.26622471459E+02  0.30686602002E+02  0.50528871469E+02  0.30000035317E+02 0.  0.
         12    1    1    2    0    0 -0.16556581321E+01  0.26622471459E+02 -0.30686602002E+02  0.40659128531E+02  0.00000000000E+00 0. -1.
         11    1    3    3    0    0  0.12676911721E+01 -0.10200321251E+01 -0.11026781218E+01  0.19655548187E+01  0.51100000000E-03 0. -1.
        -11    1    3    3    0    0 -0.41465267375E+01 -0.17339727212E+02  0.27583765838E+01  0.18040744592E+02  0.51100000000E-03 0.  1.
         12    1    3    3    0    0  0.45344936975E+01 -0.82627121220E+01  0.29030903540E+02  0.30522572059E+02  0.00000000000E+00 0. -1.
</event>
<event>
 7    1  0.4871930E-013  0.5052885E+02  0.7816164E-02  0.1300439E+00
        -11   -1    0    0    0    0  0.00000000000E+00  0.00000000000E+00  0.45593999997E+02  0.45594000000E+02  0.51100000000E-03 0.  1.
         11   -1    0    0    0    0 -0.00000000000E+00 -0.00000000000E+00 -0.45593999997E+02  0.45594000000E+02  0.51100000000E-03 0. -1.
    9900012    2    1    2    0    0 -0.12537073769E+02 -0.25351205443E+02  0.29211373462E+02  0.50528853727E+02  0.29999981388E+02 0.  0.
         12    1    1    2    0    0  0.12537073769E+02  0.25351205443E+02 -0.29211373462E+02  0.40659146273E+02  0.00000000000E+00 0. -1.
         11    1    3    3    0    0  0.56853033518E+01 -0.89602524420E+01  0.60867124300E+01  0.12233432327E+02  0.51100000000E-03 0. -1.
        -11    1    3    3    0    0 -0.67714520085E+01 -0.17743595505E+02  0.14644372632E+02  0.23982189095E+02  0.51100000000E-03 0.  1.
         12    1    3    3    0    0 -0.11450925113E+02  0.13526425035E+01  0.84802884004E+01  0.14313232306E+02  0.00000000000E+00 0. -1.
</event>
<event>
 7    1  0.4871930E-013  0.5052889E+02  0.7816164E-02  0.1300439E+00
        -11   -1    0    0    0    0  0.00000000000E+00  0.00000000000E+00  0.45593999997E+02  0.45594000000E+02  0.51100000000E-03 0. -1.
         11   -1    0    0    0    0 -0.00000000000E+00 -0.00000000000E+00 -0.45593999997E+02  0.45594000000E+02  0.51100000000E-03 0.  1.
    9900012    2    1    2    0    0  0.17993531531E+02 -0.20751400762E+02 -0.29979589330E+02  0.50528885561E+02  0.30000078152E+02 0.  0.
         12    1    1    2    0    0 -0.17993531531E+02  0.20751400762E+02  0.29979589330E+02  0.40659114439E+02  0.00000000000E+00 0. -1.
         11    1    3    3    0    0 -0.55611248170E+01 -0.95335549518E+00 -0.50728904691E+01  0.75874379011E+01  0.51100000000E-03 0. -1.
        -11    1    3    3    0    0  0.68661173712E+01 -0.11760386761E+02 -0.24594023193E+01  0.13838313646E+02  0.51100000000E-03 0.  1.
        -12    1    3    3    0    0  0.16688538976E+02 -0.80376585051E+01 -0.22447296542E+02  0.29103134014E+02  0.00000000000E+00 0.  1.
</event>
<event>
 7    1  0.4871930E-013  0.5052886E+02  0.7816164E-02  0.1300439E+00
        -11   -1    0    0    0    0  0.00000000000E+00  0.00000000000E+00  0.45593999997E+02  0.45594000000E+02  0.51100000000E-03 0.  1.
         11   -1    0    0    0    0 -0.00000000000E+00 -0.00000000000E+00 -0.45593999997E+02  0.45594000000E+02  0.51100000000E-03 0. -1.
    9900012    2    1    2    0    0 -0.24800387499E+02  0.30404454168E+02  0.10661882338E+02  0.50528858489E+02  0.29999995864E+02 0.  0.
         12    1    1    2    0    0  0.24800387499E+02 -0.30404454168E+02 -0.10661882338E+02  0.40659141511E+02  0.00000000000E+00 0. -1.
         11    1    3    3    0    0 -0.17864560120E+02  0.10038597053E+02  0.11520451236E+02  0.23508226986E+02  0.51100000000E-03 0. -1.
        -11    1    3    3    0    0 -0.11914743005E+02  0.13519795624E+02  0.18922386801E+01  0.18119783168E+02  0.51100000000E-03 0.  1.
         12    1    3    3    0    0  0.49789156258E+01  0.68460614919E+01 -0.27508075776E+01  0.89008483353E+01  0.00000000000E+00 0. -1.
</event>
<event>
 7    1  0.4871930E-013  0.5052886E+02  0.7816164E-02  0.1300439E+00
        -11   -1    0    0    0    0  0.00000000000E+00  0.00000000000E+00  0.45593999997E+02  0.45594000000E+02  0.51100000000E-03 0.  1.
         11   -1    0    0    0    0 -0.00000000000E+00 -0.00000000000E+00 -0.45593999997E+02  0.45594000000E+02  0.51100000000E-03 0. -1.
    9900012    2    1    2    0    0  0.26682956896E+02 -0.21915742762E+02  0.21468247768E+02  0.50528860415E+02  0.30000001718E+02 0.  0.
         12    1    1    2    0    0 -0.26682956896E+02  0.21915742762E+02 -0.21468247768E+02  0.40659139585E+02  0.00000000000E+00 0. -1.
         11    1    3    3    0    0  0.62597812671E+01 -0.84442686402E+01  0.13735147807E+02  0.17295803535E+02  0.51100000000E-03 0. -1.
        -11    1    3    3    0    0 -0.13011346622E+01 -0.10280401939E+02  0.23588917330E+01  0.10627510805E+02  0.51100000000E-03 0.  1.
         12    1    3    3    0    0  0.21724310291E+02 -0.31910721835E+01  0.53742082284E+01  0.22605546076E+02  0.00000000000E+00 0. -1.
</event>
<event>
 7    1  0.4871930E-013  0.5052883E+02  0.7816164E-02  0.1300439E+00
        -11   -1    0    0    0    0  0.00000000000E+00  0.00000000000E+00  0.45593999997E+02  0.45594000000E+02  0.51100000000E-03 0.  1.
         11   -1    0    0    0    0 -0.00000000000E+00 -0.00000000000E+00 -0.45593999997E+02  0.45594000000E+02  0.51100000000E-03 0. -1.
    9900012    2    1    2    0    0  0.21067981979E+02  0.61040134122E+01  0.34235208357E+02  0.50528827165E+02  0.29999900650E+02 0.  0.
         12    1    1    2    0    0 -0.21067981979E+02 -0.61040134122E+01 -0.34235208357E+02  0.40659172835E+02  0.00000000000E+00 0. -1.
         11    1    3    3    0    0 -0.46603190489E+01  0.34039100704E+01  0.54083416064E+01  0.79091931698E+01  0.51100000000E-03 0. -1.
        -11    1    3    3    0    0  0.55903889211E+01  0.53217532171E+01  0.18046528190E+02  0.19627803890E+02  0.51100000000E-03 0.  1.
         12    1    3    3    0    0  0.20137912107E+02 -0.26216498753E+01  0.10780338561E+02  0.22991830105E+02  0.00000000000E+00 0. -1.
</event>
<event>
 7    1  0.4871930E-013  0.5052886E+02  0.7816164E-02  0.1300439E+00
        -11   -1    0    0    0    0  0.00000000000E+00  0.00000000000E+00  0.45593999997E+02  0.45594000000E+02  0.51100000000E-03 0. -1.
         11   -1    0    0    0    0 -0.00000000000E+00 -0.00000000000E+00 -0.45593999997E+02  0.45594000000E+02  0.51100000000E-03 0.  1.
    9900012    2    1    2    0    0  0.11656469652E+02  0.35801843564E+02 -0.15346677858E+02  0.50528858241E+02  0.29999995110E+02 0.  0.
         12    1    1    2    0    0 -0.11656469652E+02 -0.35801843564E+02  0.15346677858E+02  0.40659141759E+02  0.00000000000E+00 0. -1.
         11    1    3    3    0    0 -0.68364600214E+00 -0.18581494686E+00  0.12404735422E+01  0.14285215857E+01  0.51100000000E-03 0. -1.
        -11    1    3    3    0    0 -0.25933551443E+01  0.18089072361E+02 -0.18126552634E+02  0.25739307304E+02  0.51100000000E-03 0.  1.
        -12    1    3    3    0    0  0.14933470798E+02  0.17898586149E+02  0.15394012346E+01  0.23361029352E+02  0.00000000000E+00 0.  1.
</event>
<event>
 7    1  0.4871930E-013  0.5052886E+02  0.7816164E-02  0.1300439E+00
        -11   -1    0    0    0    0  0.00000000000E+00  0.00000000000E+00  0.45593999997E+02  0.45594000000E+02  0.51100000000E-03 0. -1.
         11   -1    0    0    0    0 -0.00000000000E+00 -0.00000000000E+00 -0.45593999997E+02  0.45594000000E+02  0.51100000000E-03 0.  1.
    9900012    2    1    2    0    0 -0.10266762433E+02 -0.26578710927E+02 -0.29005712797E+02  0.50528860065E+02  0.30000000654E+02 0.  0.
         12    1    1    2    0    0  0.10266762433E+02  0.26578710927E+02  0.29005712797E+02  0.40659139935E+02  0.00000000000E+00 0. -1.
         11    1    3    3    0    0 -0.35504768058E+01 -0.15178416705E+02 -0.21341385902E+01  0.15733555447E+02  0.51100000000E-03 0. -1.
        -11    1    3    3    0    0 -0.10127930465E+02 -0.93299120402E+01 -0.89233913929E+01  0.16408813132E+02  0.51100000000E-03 0.  1.
         12    1    3    3    0    0  0.34116448379E+01 -0.20703821818E+01 -0.17948182813E+02  0.18386491486E+02  0.00000000000E+00 0. -1.
</event>
<event>
 7    1  0.4871930E-013  0.5052886E+02  0.7816164E-02  0.1300439E+00
        -11   -1    0    0    0    0  0.00000000000E+00  0.00000000000E+00  0.45593999997E+02  0.45594000000E+02  0.51100000000E-03 0. -1.
         11   -1    0    0    0    0 -0.00000000000E+00 -0.00000000000E+00 -0.45593999997E+02  0.45594000000E+02  0.51100000000E-03 0.  1.
    9900012    2    1    2    0    0  0.96156951326E+01  0.64517046826E+01 -0.38975375916E+02  0.50528855715E+02  0.29999987431E+02 0.  0.
         12    1    1    2    0    0 -0.96156951326E+01 -0.64517046826E+01  0.38975375916E+02  0.40659144285E+02  0.00000000000E+00 0. -1.
         11    1    3    3    0    0  0.67045054773E+01  0.64134767957E+01 -0.61091777570E+01  0.11108786227E+02  0.51100000000E-03 0. -1.
        -11    1    3    3    0    0  0.32046199940E+01 -0.52600321115E+01 -0.31570560909E-01  0.61594256292E+01  0.51100000000E-03 0.  1.
         12    1    3    3    0    0 -0.29343033874E+00  0.52982599985E+01 -0.32834627598E+02  0.33260643859E+02  0.00000000000E+00 0. -1.
</event>
<event>
 7    1  0.4871930E-013  0.5052885E+02  0.7816164E-02  0.1300439E+00
        -11   -1    0    0    0    0  0.00000000000E+00  0.00000000000E+00  0.45593999997E+02  0.45594000000E+02  0.51100000000E-03 0.  1.
         11   -1    0    0    0    0 -0.00000000000E+00 -0.00000000000E+00 -0.45593999997E+02  0.45594000000E+02  0.51100000000E-03 0. -1.
    9900012    2    1    2    0    0  0.19579655987E+02  0.29751322734E+02  0.19612803958E+02  0.50528853279E+02  0.29999980025E+02 0.  0.
         12    1    1    2    0    0 -0.19579655987E+02 -0.29751322734E+02 -0.19612803958E+02  0.40659146721E+02  0.00000000000E+00 0. -1.
         11    1    3    3    0    0  0.70603278435E+01  0.81149121916E+01  0.99281642166E+01  0.14637912218E+02  0.51100000000E-03 0. -1.
        -11    1    3    3    0    0  0.91925522449E+01  0.20313497618E+02  0.16805516776E+02  0.27920719844E+02  0.51100000000E-03 0.  1.
         12    1    3    3    0    0  0.33267758990E+01  0.13229129247E+01 -0.71208770348E+01  0.79702212161E+01  0.00000000000E+00 0. -1.
</event>
<event>
 7    1  0.4871930E-013  0.5052887E+02  0.7816164E-02  0.1300439E+00
        -11   -1    0    0    0    0  0.00000000000E+00  0.00000000000E+00  0.45593999997E+02  0.45594000000E+02  0.51100000000E-03 0.  1.
         11   -1    0    0    0    0 -0.00000000000E+00 -0.00000000000E+00 -0.45593999997E+02  0.45594000000E+02  0.51100000000E-03 0. -1.
    9900012    2    1    2    0    0  0.13171337514E+02 -0.22748909516E+02  0.31018835225E+02  0.50528866281E+02  0.30000019547E+02 0.  0.
         12    1    1    2    0    0 -0.13171337514E+02  0.22748909516E+02 -0.31018835225E+02  0.40659133719E+02  0.00000000000E+00 0. -1.
         11    1    3    3    0    0 -0.28024300119E+01 -0.28203196532E+01  0.13133424338E+01  0.41872049779E+01  0.51100000000E-03 0. -1.
        -11    1    3    3    0    0  0.93956951119E+01  0.42557516165E+01  0.65442162509E+01  0.12215452307E+02  0.51100000000E-03 0.  1.
        -12    1    3    3    0    0  0.65780724137E+01 -0.24184341479E+02  0.23161276540E+02  0.34126208996E+02  0.00000000000E+00 0.  1.
</event>
<event>
 7    1  0.4871930E-013  0.5052886E+02  0.7816164E-02  0.1300439E+00
        -11   -1    0    0    0    0  0.00000000000E+00  0.00000000000E+00  0.45593999997E+02  0.45594000000E+02  0.51100000000E-03 0.  1.
         11   -1    0    0    0    0 -0.00000000000E+00 -0.00000000000E+00 -0.45593999997E+02  0.45594000000E+02  0.51100000000E-03 0. -1.
    9900012    2    1    2    0    0 -0.45874814805E+01  0.27957624451E+02  0.29163197932E+02  0.50528857548E+02  0.29999993003E+02 0.  0.
         12    1    1    2    0    0  0.45874814805E+01 -0.27957624451E+02 -0.29163197932E+02  0.40659142452E+02  0.00000000000E+00 0. -1.
         11    1    3    3    0    0 -0.18478167880E+01  0.14581906155E+02  0.21634868475E+02  0.26155572029E+02  0.51100000000E-03 0.  1.
        -11    1    3    3    0    0 -0.83808943164E+01  0.37409394616E+01  0.93030691849E+01  0.13068324840E+02  0.51100000000E-03 0. -1.
         12    1    3    3    0    0  0.56412296239E+01  0.96347788343E+01 -0.17747397274E+01  0.11304960679E+02  0.00000000000E+00 0. -1.
</event>
<event>
 7    1  0.4871930E-013  0.5052887E+02  0.7816164E-02  0.1300439E+00
        -11   -1    0    0    0    0  0.00000000000E+00  0.00000000000E+00  0.45593999997E+02  0.45594000000E+02  0.51100000000E-03 0.  1.
         11   -1    0    0    0    0 -0.00000000000E+00 -0.00000000000E+00 -0.45593999997E+02  0.45594000000E+02  0.51100000000E-03 0. -1.
    9900012    2    1    2    0    0 -0.12836708888E+02 -0.19264944855E+02  0.33425230188E+02  0.50528865621E+02  0.30000017541E+02 0.  0.
         12    1    1    2    0    0  0.12836708888E+02  0.19264944855E+02 -0.33425230188E+02  0.40659134379E+02  0.00000000000E+00 0. -1.
         11    1    3    3    0    0 -0.52624995709E+01 -0.18657973168E+02  0.14308110697E+02  0.24094312533E+02  0.51100000000E-03 0. -1.
        -11    1    3    3    0    0 -0.58319376898E+01 -0.60191872780E+01  0.18978980344E+02  0.20747139752E+02  0.51100000000E-03 0.  1.
         12    1    3    3    0    0 -0.17422716270E+01  0.54122155911E+01  0.13813914717E+00  0.56874133357E+01  0.00000000000E+00 0. -1.
</event>
<event>
 7    1  0.4871930E-013  0.5052885E+02  0.7816164E-02  0.1300439E+00
        -11   -1    0    0    0    0  0.00000000000E+00  0.00000000000E+00  0.45593999997E+02  0.45594000000E+02  0.51100000000E-03 0.  1.
         11   -1    0    0    0    0 -0.00000000000E+00 -0.00000000000E+00 -0.45593999997E+02  0.45594000000E+02  0.51100000000E-03 0. -1.
    9900012    2    1    2    0    0  0.64157936099E+00 -0.30286253063E+02  0.27120058113E+02  0.50528852189E+02  0.29999976714E+02 0.  0.
         12    1    1    2    0    0 -0.64157936099E+00  0.30286253063E+02 -0.27120058113E+02  0.40659147811E+02  0.00000000000E+00 0. -1.
         11    1    3    3    0    0  0.58256693442E+01 -0.13948676262E+02  0.38994555914E+01  0.15611205813E+02  0.51100000000E-03 0. -1.
        -11    1    3    3    0    0 -0.27271388836E+01 -0.18262310312E+02  0.25185814765E+02  0.31229385681E+02  0.51100000000E-03 0.  1.
         12    1    3    3    0    0 -0.24569510996E+01  0.19247335104E+01 -0.19652122433E+01  0.36882606948E+01  0.00000000000E+00 0. -1.
</event>
<event>
 7    1  0.4871930E-013  0.5052886E+02  0.7816164E-02  0.1300439E+00
        -11   -1    0    0    0    0  0.00000000000E+00  0.00000000000E+00  0.45593999997E+02  0.45594000000E+02  0.51100000000E-03 0.  1.
         11   -1    0    0    0    0 -0.00000000000E+00 -0.00000000000E+00 -0.45593999997E+02  0.45594000000E+02  0.51100000000E-03 0. -1.
    9900012    2    1    2    0    0  0.17339274499E+02  0.65546683757E+01  0.36187727743E+02  0.50528858877E+02  0.29999997043E+02 0.  0.
         12    1    1    2    0    0 -0.17339274499E+02 -0.65546683757E+01 -0.36187727743E+02  0.40659141123E+02  0.00000000000E+00 0. -1.
         11    1    3    3    0    0  0.10726210234E+02 -0.30734661065E+01  0.19990405335E+02  0.22893538075E+02  0.51100000000E-03 0. -1.
        -11    1    3    3    0    0  0.12697952645E+02  0.83855911218E+01  0.14887282298E+02  0.21288196596E+02  0.51100000000E-03 0.  1.
         12    1    3    3    0    0 -0.60848883797E+01  0.12425433603E+01  0.13100401100E+01  0.63471242060E+01  0.00000000000E+00 0. -1.
</event>
<event>
 7    1  0.4871930E-013  0.5052886E+02  0.7816164E-02  0.1300439E+00
        -11   -1    0    0    0    0  0.00000000000E+00  0.00000000000E+00  0.45593999997E+02  0.45594000000E+02  0.51100000000E-03 0. -1.
         11   -1    0    0    0    0 -0.00000000000E+00 -0.00000000000E+00 -0.45593999997E+02  0.45594000000E+02  0.51100000000E-03 0.  1.
    9900012    2    1    2    0    0 -0.14074790417E+02 -0.24667564178E+02 -0.29096005644E+02  0.50528855983E+02  0.29999988246E+02 0.  0.
         12    1    1    2    0    0  0.14074790417E+02  0.24667564178E+02  0.29096005644E+02  0.40659144017E+02  0.00000000000E+00 0. -1.
         11    1    3    3    0    0  0.27788635713E+01 -0.31039909821E+00 -0.84431148969E+01  0.88940777920E+01  0.51100000000E-03 0. -1.
        -11    1    3    3    0    0 -0.23909893792E+01 -0.21039614910E+02 -0.10341027514E+02  0.23565209018E+02  0.51100000000E-03 0.  1.
         12    1    3    3    0    0 -0.14462664610E+02 -0.33175501695E+01 -0.10311863233E+02  0.18069569172E+02  0.00000000000E+00 0. -1.
</event>
<event>
 7    1  0.4871930E-013  0.5052886E+02  0.7816164E-02  0.1300439E+00
        -11   -1    0    0    0    0  0.00000000000E+00  0.00000000000E+00  0.45593999997E+02  0.45594000000E+02  0.51100000000E-03 0.  1.
         11   -1    0    0    0    0 -0.00000000000E+00 -0.00000000000E+00 -0.45593999997E+02  0.45594000000E+02  0.51100000000E-03 0. -1.
    9900012    2    1    2    0    0  0.23564539767E+02  0.23582433023E+01  0.33050219384E+02  0.50528857765E+02  0.29999993663E+02 0.  0.
         12    1    1    2    0    0 -0.23564539767E+02 -0.23582433023E+01 -0.33050219384E+02  0.40659142235E+02  0.00000000000E+00 0. -1.
         11    1    3    3    0    0 -0.66127650536E+00 -0.35548204002E+01  0.20283043170E+01  0.41458477248E+01  0.51100000000E-03 0. -1.
        -11    1    3    3    0    0  0.28646256073E+01  0.58577715853E+01 -0.22037521150E+01  0.68830292358E+01  0.51100000000E-03 0.  1.
        -12    1    3    3    0    0  0.21361190665E+02  0.55292117130E-01  0.33225667182E+02  0.39499980805E+02  0.00000000000E+00 0.  1.
</event>
<event>
 7    1  0.4871930E-013  0.5052886E+02  0.7816164E-02  0.1300439E+00
        -11   -1    0    0    0    0  0.00000000000E+00  0.00000000000E+00  0.45593999997E+02  0.45594000000E+02  0.51100000000E-03 0. -1.
         11   -1    0    0    0    0 -0.00000000000E+00 -0.00000000000E+00 -0.45593999997E+02  0.45594000000E+02  0.51100000000E-03 0.  1.
    9900012    2    1    2    0    0 -0.23117878477E+01  0.32632261389E+02 -0.24144494272E+02  0.50528862650E+02  0.30000008510E+02 0.  0.
         12    1    1    2    0    0  0.23117878477E+01 -0.32632261389E+02  0.24144494272E+02  0.40659137350E+02  0.00000000000E+00 0. -1.
         11    1    3    3    0    0  0.39481525686E+01  0.73595164898E+00 -0.17019818529E+01  0.43619119688E+01  0.51100000000E-03 0. -1.
        -11    1    3    3    0    0 -0.63399328194E+01  0.44573156081E+00  0.16296822978E+01  0.65611957319E+01  0.51100000000E-03 0.  1.
        -12    1    3    3    0    0  0.79992403120E-01  0.31450578180E+02 -0.24072194717E+02  0.39605754949E+02  0.00000000000E+00 0.  1.
</event>
<event>
 7    1  0.4871930E-013  0.5052885E+02  0.7816164E-02  0.1300439E+00
        -11   -1    0    0    0    0  0.00000000000E+00  0.00000000000E+00  0.45593999997E+02  0.45594000000E+02  0.51100000000E-03 0. -1.
         11   -1    0    0    0    0 -0.00000000000E+00 -0.00000000000E+00 -0.45593999997E+02  0.45594000000E+02  0.51100000000E-03 0.  1.
    9900012    2    1    2    0    0 -0.25219547875E+02  0.30519565650E+02 -0.92572629081E+01  0.50528850980E+02  0.29999973039E+02 0.  0.
         12    1    1    2    0    0  0.25219547875E+02 -0.30519565650E+02  0.92572629081E+01  0.40659149020E+02  0.00000000000E+00 0. -1.
         11    1    3    3    0    0 -0.80651884993E+01 -0.43421217599E+00 -0.32287367582E+01  0.86983071375E+01  0.51100000000E-03 0.  1.
        -11    1    3    3    0    0  0.44667544892E+01  0.11359408801E+02 -0.21724886240E+01  0.12397893815E+02  0.51100000000E-03 0. -1.
         12    1    3    3    0    0 -0.21621113865E+02  0.19594369025E+02 -0.38560375259E+01  0.29432650028E+02  0.00000000000E+00 0. -1.
</event>
