<event>
 7    1  0.8505816E-013  0.5930194E+02  0.7816164E-02  0.1266605E+00
        -11   -1    0    0    0    0  0.00000000000E+00  0.00000000000E+00  0.45593999997E+02  0.45594000000E+02  0.51100000000E-03 0.  1.
         11   -1    0    0    0    0 -0.00000000000E+00 -0.00000000000E+00 -0.45593999997E+02  0.45594000000E+02  0.51100000000E-03 0. -1.
    9900012    2    1    2    0    0 -0.79471843540E+01  0.30399161382E+02  0.54271623692E+01  0.59301939672E+02  0.49999992056E+02 0.  0.
        -12    1    1    2    0    0  0.79471843540E+01 -0.30399161382E+02 -0.54271623692E+01  0.31886060328E+02  0.00000000000E+00 0.  1.
         11    1    3    3    0    0  0.52661300986E+00  0.30527218071E+02  0.15038727267E+02  0.34034565996E+02  0.51100000000E-03 0. -1.
        -11    1    3    3    0    0 -0.48874030400E+01  0.91590124862E+01 -0.11103485293E+02  0.15200710645E+02  0.51100000000E-03 0.  1.
        -12    1    3    3    0    0 -0.35863943239E+01 -0.92870691759E+01  0.14919203951E+01  0.10066663031E+02  0.00000000000E+00 0.  1.
</event>
<event>
 7    1  0.7284210E-013  0.5930200E+02  0.7816164E-02  0.1266605E+00
        -11   -1    0    0    0    0  0.00000000000E+00  0.00000000000E+00  0.45593999997E+02  0.45594000000E+02  0.51100000000E-03 0.  1.
         11   -1    0    0    0    0 -0.00000000000E+00 -0.00000000000E+00 -0.45593999997E+02  0.45594000000E+02  0.51100000000E-03 0. -1.
    9900012    2    1    2    0    0 -0.18713492386E+02  0.20913535757E+02 -0.15137570208E+02  0.59302002964E+02  0.50000107486E+02 0.  0.
        -12    1    1    2    0    0  0.18713492386E+02 -0.20913535757E+02  0.15137570208E+02  0.31885997036E+02  0.00000000000E+00 0.  1.
         11    1    3    3    0    0  0.20793710289E+01 -0.83219717713E+01 -0.13533086642E+02  0.16022591312E+02  0.51100000000E-03 0. -1.
        -11    1    3    3    0    0  0.18084707454E+01  0.23708385750E-01 -0.58299917087E+01  0.61040914238E+01  0.51100000000E-03 0.  1.
        -12    1    3    3    0    0 -0.22601334161E+02  0.29211799143E+02  0.42255081422E+01  0.37175320228E+02  0.00000000000E+00 0.  1.
</event>
<event>
 7    1  0.7284210E-013  0.5930196E+02  0.7816164E-02  0.1266605E+00
        -11   -1    0    0    0    0  0.00000000000E+00  0.00000000000E+00  0.45593999997E+02  0.45594000000E+02  0.51100000000E-03 0.  1.
         11   -1    0    0    0    0 -0.00000000000E+00 -0.00000000000E+00 -0.45593999997E+02  0.45594000000E+02  0.51100000000E-03 0. -1.
    9900012    2    1    2    0    0 -0.18285951705E+02 -0.26023416949E+02  0.22639388491E+01  0.59301957935E+02  0.50000025364E+02 0.  0.
        -12    1    1    2    0    0  0.18285951705E+02  0.26023416949E+02 -0.22639388491E+01  0.31886042065E+02  0.00000000000E+00 0.  1.
         11    1    3    3    0    0  0.96538668012E+01 -0.79061138104E+01  0.39804290136E+01  0.13097617921E+02  0.51100000000E-03 0. -1.
        -11    1    3    3    0    0  0.25867061430E+01 -0.13079382227E+02  0.55194221756E+01  0.14430014190E+02  0.51100000000E-03 0.  1.
         12    1    3    3    0    0 -0.30526524649E+02 -0.50379209117E+01 -0.72359123400E+01  0.31774325825E+02  0.00000000000E+00 0. -1.
</event>
<event>
 7    1  0.7284210E-013  0.5930195E+02  0.7816164E-02  0.1266605E+00
        -11   -1    0    0    0    0  0.00000000000E+00  0.00000000000E+00  0.45593999997E+02  0.45594000000E+02  0.51100000000E-03 0. -1.
         11   -1    0    0    0    0 -0.00000000000E+00 -0.00000000000E+00 -0.45593999997E+02  0.45594000000E+02  0.51100000000E-03 0.  1.
    9900012    2    1    2    0    0  0.29485549230E+02  0.11601765639E+02  0.35667095562E+01  0.59301952952E+02  0.50000016275E+02 0.  0.
        -12    1    1    2    0    0 -0.29485549230E+02 -0.11601765639E+02 -0.35667095562E+01  0.31886047048E+02  0.00000000000E+00 0.  1.
         11    1    3    3    0    0 -0.33129883636E+01  0.34568156863E+01 -0.49305127185E+01  0.68728031046E+01  0.51100000000E-03 0.  1.
        -11    1    3    3    0    0  0.29851144912E+02  0.10230055015E+02  0.21989973680E+02  0.38461718901E+02  0.51100000000E-03 0. -1.
         12    1    3    3    0    0  0.29473926816E+01 -0.20851050629E+01 -0.13492751405E+02  0.13967430946E+02  0.00000000000E+00 0. -1.
</event>
<event>
 7    1  0.7284210E-013  0.5930199E+02  0.7816164E-02  0.1266605E+00
        -11   -1    0    0    0    0  0.00000000000E+00  0.00000000000E+00  0.45593999997E+02  0.45594000000E+02  0.51100000000E-03 0. -1.
         11   -1    0    0    0    0 -0.00000000000E+00 -0.00000000000E+00 -0.45593999997E+02  0.45594000000E+02  0.51100000000E-03 0.  1.
    9900012    2    1    2    0    0 -0.42681652760E+01 -0.19683282828E+02  0.24719810032E+02  0.59301986362E+02  0.50000077207E+02 0.  0.
        -12    1    1    2    0    0  0.42681652760E+01  0.19683282828E+02 -0.24719810032E+02  0.31886013638E+02  0.00000000000E+00 0.  1.
         11    1    3    3    0    0 -0.21119082943E+00  0.66839595772E+00 -0.43621432788E+00  0.82561366492E+00  0.51100000000E-03 0. -1.
        -11    1    3    3    0    0 -0.13231240919E+02 -0.19524156478E+01 -0.10710819900E+02  0.17134740333E+02  0.51100000000E-03 0.  1.
         12    1    3    3    0    0  0.91742664720E+01 -0.18399263138E+02  0.35866844260E+02  0.41341632364E+02  0.00000000000E+00 0. -1.
</event>
<event>
 7    1  0.7284210E-013  0.5930215E+02  0.7816164E-02  0.1266604E+00
        -11   -1    0    0    0    0  0.00000000000E+00  0.00000000000E+00  0.45593999997E+02  0.45594000000E+02  0.51100000000E-03 0. -1.
         11   -1    0    0    0    0 -0.00000000000E+00 -0.00000000000E+00 -0.45593999997E+02  0.45594000000E+02  0.51100000000E-03 0.  1.
    9900012    2    1    2    0    0  0.40781963322E+01  0.11567656404E+01  0.31602815279E+02  0.59302145367E+02  0.50000367194E+02 0.  0.
        -12    1    1    2    0    0 -0.40781963322E+01 -0.11567656404E+01 -0.31602815279E+02  0.31885854633E+02  0.00000000000E+00 0.  1.
         11    1    3    3    0    0  0.25070065186E+01 -0.12549952576E+02  0.14061137206E+01  0.12874919316E+02  0.51100000000E-03 0. -1.
        -11    1    3    3    0    0 -0.11395699842E+02 -0.38969711511E+01  0.17183051919E+02  0.20983460929E+02  0.51100000000E-03 0.  1.
        -12    1    3    3    0    0  0.12966889655E+02  0.17603689367E+02  0.13013649639E+02  0.25443765122E+02  0.00000000000E+00 0.  1.
</event>
<event>
 7    1  0.7284210E-013  0.5930192E+02  0.7816164E-02  0.1266605E+00
        -11   -1    0    0    0    0  0.00000000000E+00  0.00000000000E+00  0.45593999997E+02  0.45594000000E+02  0.51100000000E-03 0.  1.
         11   -1    0    0    0    0 -0.00000000000E+00 -0.00000000000E+00 -0.45593999997E+02  0.45594000000E+02  0.51100000000E-03 0. -1.
    9900012    2    1    2    0    0  0.14490925501E+02 -0.17908059732E+02 -0.22046243243E+02  0.59301915788E+02  0.49999948497E+02 0.  0.
        -12    1    1    2    0    0 -0.14490925501E+02  0.17908059732E+02  0.22046243243E+02  0.31886084212E+02  0.00000000000E+00 0.  1.
         11    1    3    3    0    0  0.25183152954E+02 -0.11058108378E+02 -0.14907177997E+02  0.31284131915E+02  0.51100000000E-03 0. -1.
        -11    1    3    3    0    0  0.48069313097E+01 -0.10158838907E+02 -0.26754735270E+01  0.11552781285E+02  0.51100000000E-03 0.  1.
         12    1    3    3    0    0 -0.15499158762E+02  0.33088875527E+01 -0.44635917196E+01  0.16465002588E+02  0.00000000000E+00 0. -1.
</event>
<event>
 7    1  0.7284210E-013  0.5930209E+02  0.7816164E-02  0.1266604E+00
        -11   -1    0    0    0    0  0.00000000000E+00  0.00000000000E+00  0.45593999997E+02  0.45594000000E+02  0.51100000000E-03 0.  1.
         11   -1    0    0    0    0 -0.00000000000E+00 -0.00000000000E+00 -0.45593999997E+02  0.45594000000E+02  0.51100000000E-03 0. -1.
    9900012    2    1    2    0    0 -0.15112808129E+02  0.14762620412E+02 -0.23882620596E+02  0.59302086221E+02  0.50000259326E+02 0.  0.
        -12    1    1    2    0    0  0.15112808129E+02 -0.14762620412E+02  0.23882620596E+02  0.31885913779E+02  0.00000000000E+00 0.  1.
         11    1    3    3    0    0 -0.97257335799E+01  0.65356645425E+01  0.35784873389E+01  0.12251953990E+02  0.51100000000E-03 0. -1.
        -11    1    3    3    0    0 -0.29624189423E+01  0.75536134204E+01  0.80619777340E+01  0.11438028105E+02  0.51100000000E-03 0.  1.
         12    1    3    3    0    0 -0.24246556072E+01  0.67334244903E+00 -0.35523085668E+02  0.35612104126E+02  0.00000000000E+00 0. -1.
</event>
<event>
 7    1  0.7284210E-013  0.5930195E+02  0.7816164E-02  0.1266605E+00
        -11   -1    0    0    0    0  0.00000000000E+00  0.00000000000E+00  0.45593999997E+02  0.45594000000E+02  0.51100000000E-03 0.  1.
         11   -1    0    0    0    0 -0.00000000000E+00 -0.00000000000E+00 -0.45593999997E+02  0.45594000000E+02  0.51100000000E-03 0. -1.
    9900012    2    1    2    0    0 -0.27024534012E+02 -0.14422022326E+02  0.88543855844E+01  0.59301948024E+02  0.50000007288E+02 0.  0.
        -12    1    1    2    0    0  0.27024534012E+02  0.14422022326E+02 -0.88543855844E+01  0.31886051976E+02  0.00000000000E+00 0.  1.
         11    1    3    3    0    0  0.53667455037E+01 -0.19380464609E+01 -0.11769161505E+02  0.13079416813E+02  0.51100000000E-03 0. -1.
        -11    1    3    3    0    0 -0.14849342858E+02 -0.16932918361E+02  0.70459945335E+01  0.23598151342E+02  0.51100000000E-03 0.  1.
        -12    1    3    3    0    0 -0.17541936658E+02  0.44489424963E+01  0.13577552556E+02  0.22624379869E+02  0.00000000000E+00 0.  1.
</event>
<event>
 7    1  0.7284210E-013  0.5930195E+02  0.7816164E-02  0.1266605E+00
        -11   -1    0    0    0    0  0.00000000000E+00  0.00000000000E+00  0.45593999997E+02  0.45594000000E+02  0.51100000000E-03 0. -1.
         11   -1    0    0    0    0 -0.00000000000E+00 -0.00000000000E+00 -0.45593999997E+02  0.45594000000E+02  0.51100000000E-03 0.  1.
    9900012    2    1    2    0    0 -0.32068560986E+00 -0.30770698036E+02  0.83535434816E+01  0.59301946849E+02  0.50000005144E+02 0.  0.
        -12    1    1    2    0    0  0.32068560986E+00  0.30770698036E+02 -0.83535434816E+01  0.31886053151E+02  0.00000000000E+00 0.  1.
         11    1    3    3    0    0  0.13285812325E+02 -0.11690501147E+02  0.42807950610E+01  0.18207301635E+02  0.51100000000E-03 0. -1.
        -11    1    3    3    0    0 -0.35569095476E+01 -0.81180797819E+01 -0.14687761617E+02  0.17154741807E+02  0.51100000000E-03 0.  1.
         12    1    3    3    0    0 -0.10049588388E+02 -0.10962117107E+02  0.18760510038E+02  0.23939903406E+02  0.00000000000E+00 0. -1.
</event>
<event>
 7    1  0.7284210E-013  0.5930192E+02  0.7816164E-02  0.1266605E+00
        -11   -1    0    0    0    0  0.00000000000E+00  0.00000000000E+00  0.45593999997E+02  0.45594000000E+02  0.51100000000E-03 0.  1.
         11   -1    0    0    0    0 -0.00000000000E+00 -0.00000000000E+00 -0.45593999997E+02  0.45594000000E+02  0.51100000000E-03 0. -1.
    9900012    2    1    2    0    0 -0.85822089223E+01  0.18228588392E+01 -0.30655258759E+02  0.59301921315E+02  0.49999958577E+02 0.  0.
        -12    1    1    2    0    0  0.85822089223E+01 -0.18228588392E+01  0.30655258759E+02  0.31886078685E+02  0.00000000000E+00 0.  1.
         11    1    3    3    0    0  0.99268178163E+00 -0.12834676581E+02 -0.23115228135E+02  0.26458044373E+02  0.51100000000E-03 0. -1.
        -11    1    3    3    0    0 -0.38150699437E+01 -0.24144205558E+01  0.79109704229E+01  0.91086573428E+01  0.51100000000E-03 0.  1.
        -12    1    3    3    0    0 -0.57598207602E+01  0.17071955976E+02 -0.15451001047E+02  0.23735219599E+02  0.00000000000E+00 0.  1.
</event>
<event>
 7    1  0.7284210E-013  0.5930195E+02  0.7816164E-02  0.1266605E+00
        -11   -1    0    0    0    0  0.00000000000E+00  0.00000000000E+00  0.45593999997E+02  0.45594000000E+02  0.51100000000E-03 0. -1.
         11   -1    0    0    0    0 -0.00000000000E+00 -0.00000000000E+00 -0.45593999997E+02  0.45594000000E+02  0.51100000000E-03 0.  1.
    9900012    2    1    2    0    0 -0.33791067232E+01 -0.12941775653E+02  0.28944989086E+02  0.59301947994E+02  0.50000007234E+02 0.  0.
        -12    1    1    2    0    0  0.33791067232E+01  0.12941775653E+02 -0.28944989086E+02  0.31886052006E+02  0.00000000000E+00 0.  1.
         11    1    3    3    0    0  0.85375086074E+01 -0.22552254510E+01 -0.11076651693E+01  0.88995515305E+01  0.51100000000E-03 0. -1.
        -11    1    3    3    0    0 -0.17273548671E+02 -0.37564044802E+00 -0.94002482351E+00  0.17303185728E+02  0.51100000000E-03 0.  1.
         12    1    3    3    0    0  0.53569333401E+01 -0.10310909754E+02  0.30992679079E+02  0.33099210735E+02  0.00000000000E+00 0. -1.
</event>
<event>
 7    1  0.7284210E-013  0.5930195E+02  0.7816164E-02  0.1266605E+00
        -11   -1    0    0    0    0  0.00000000000E+00  0.00000000000E+00  0.45593999997E+02  0.45594000000E+02  0.51100000000E-03 0.  1.
         11   -1    0    0    0    0 -0.00000000000E+00 -0.00000000000E+00 -0.45593999997E+02  0.45594000000E+02  0.51100000000E-03 0. -1.
    9900012    2    1    2    0    0  0.16085639935E+02  0.13152550904E+02 -0.24186413085E+02  0.59301953125E+02  0.50000016592E+02 0.  0.
        -12    1    1    2    0    0 -0.16085639935E+02 -0.13152550904E+02  0.24186413085E+02  0.31886046875E+02  0.00000000000E+00 0.  1.
         11    1    3    3    0    0  0.15466881257E+02 -0.49304470264E+01 -0.23775898733E+01  0.16406908837E+02  0.51100000000E-03 0. -1.
        -11    1    3    3    0    0  0.91134138925E+01  0.68790662985E+00  0.45355903016E+01  0.10202897037E+02  0.51100000000E-03 0.  1.
         12    1    3    3    0    0 -0.84946552147E+01  0.17395091300E+02 -0.26344413513E+02  0.32692147251E+02  0.00000000000E+00 0. -1.
</event>
<event>
 7    1  0.7284210E-013  0.5930195E+02  0.7816164E-02  0.1266605E+00
        -11   -1    0    0    0    0  0.00000000000E+00  0.00000000000E+00  0.45593999997E+02  0.45594000000E+02  0.51100000000E-03 0.  1.
         11   -1    0    0    0    0 -0.00000000000E+00 -0.00000000000E+00 -0.45593999997E+02  0.45594000000E+02  0.51100000000E-03 0. -1.
    9900012    2    1    2    0    0  0.26506652505E+02  0.17497337143E+02 -0.28214336286E+01  0.59301954120E+02  0.50000018407E+02 0.  0.
        -12    1    1    2    0    0 -0.26506652505E+02 -0.17497337143E+02  0.28214336286E+01  0.31886045880E+02  0.00000000000E+00 0.  1.
         11    1    3    3    0    0 -0.26687505024E+01  0.14776526144E+01  0.10025866084E+02  0.10479679264E+02  0.51100000000E-03 0. -1.
        -11    1    3    3    0    0  0.46161241611E+01 -0.96383245320E+01 -0.71317043506E+01  0.12847844538E+02  0.51100000000E-03 0.  1.
         12    1    3    3    0    0  0.24559278846E+02  0.25658009061E+02 -0.57155953619E+01  0.35974430319E+02  0.00000000000E+00 0. -1.
</event>
<event>
 7    1  0.7284210E-013  0.5930193E+02  0.7816164E-02  0.1266605E+00
        -11   -1    0    0    0    0  0.00000000000E+00  0.00000000000E+00  0.45593999997E+02  0.45594000000E+02  0.51100000000E-03 0.  1.
         11   -1    0    0    0    0 -0.00000000000E+00 -0.00000000000E+00 -0.45593999997E+02  0.45594000000E+02  0.51100000000E-03 0. -1.
    9900012    2    1    2    0    0  0.29566843480E+02 -0.11605701744E+02 -0.27983591546E+01  0.59301931564E+02  0.49999977270E+02 0.  0.
        -12    1    1    2    0    0 -0.29566843480E+02  0.11605701744E+02  0.27983591546E+01  0.31886068436E+02  0.00000000000E+00 0.  1.
         11    1    3    3    0    0  0.18473441895E+02 -0.16807973446E+02 -0.20682696320E+02  0.32427610984E+02  0.51100000000E-03 0. -1.
        -11    1    3    3    0    0  0.32860410167E+01 -0.30526999570E+01 -0.12185327980E+01  0.46477806566E+01  0.51100000000E-03 0.  1.
         12    1    3    3    0    0  0.78073605684E+01  0.82549716598E+01  0.19102869963E+02  0.22226539924E+02  0.00000000000E+00 0. -1.
</event>
<event>
 7    1  0.7284210E-013  0.5930195E+02  0.7816164E-02  0.1266605E+00
        -11   -1    0    0    0    0  0.00000000000E+00  0.00000000000E+00  0.45593999997E+02  0.45594000000E+02  0.51100000000E-03 0.  1.
         11   -1    0    0    0    0 -0.00000000000E+00 -0.00000000000E+00 -0.45593999997E+02  0.45594000000E+02  0.51100000000E-03 0. -1.
    9900012    2    1    2    0    0 -0.24535127483E+02 -0.11383173438E+01 -0.20333522594E+02  0.59301946810E+02  0.50000005073E+02 0.  0.
        -12    1    1    2    0    0  0.24535127483E+02  0.11383173438E+01  0.20333522594E+02  0.31886053190E+02  0.00000000000E+00 0.  1.
         11    1    3    3    0    0 -0.10184508304E+02 -0.68137881196E+01  0.21350711057E+01  0.12438265427E+02  0.51100000000E-03 0. -1.
        -11    1    3    3    0    0  0.56956635801E+01 -0.10497134822E+01  0.79390946796E+01  0.98270904445E+01  0.51100000000E-03 0.  1.
         12    1    3    3    0    0 -0.20046282759E+02  0.67251842580E+01 -0.30407688379E+02  0.37036590938E+02  0.00000000000E+00 0. -1.
</event>
<event>
 7    1  0.7284210E-013  0.5930193E+02  0.7816164E-02  0.1266605E+00
        -11   -1    0    0    0    0  0.00000000000E+00  0.00000000000E+00  0.45593999997E+02  0.45594000000E+02  0.51100000000E-03 0. -1.
         11   -1    0    0    0    0 -0.00000000000E+00 -0.00000000000E+00 -0.45593999997E+02  0.45594000000E+02  0.51100000000E-03 0.  1.
    9900012    2    1    2    0    0 -0.30582988716E+02  0.40416842955E+01 -0.80664253487E+01  0.59301927356E+02  0.49999969596E+02 0.  0.
        -12    1    1    2    0    0  0.30582988716E+02 -0.40416842955E+01  0.80664253487E+01  0.31886072644E+02  0.00000000000E+00 0.  1.
         11    1    3    3    0    0 -0.12699503911E+01  0.93921334713E+01 -0.90681051276E+01  0.13116991881E+02  0.51100000000E-03 0. -1.
        -11    1    3    3    0    0  0.48827802642E+01  0.80012263088E+01 -0.96088593442E+00  0.94225510130E+01  0.51100000000E-03 0.  1.
         12    1    3    3    0    0 -0.34195818589E+02 -0.13351675485E+02  0.19625657133E+01  0.36762384463E+02  0.00000000000E+00 0. -1.
</event>
<event>
 7    1  0.7711079E-013  0.5930195E+02  0.7816164E-02  0.1266605E+00
        -11   -1    0    0    0    0  0.00000000000E+00  0.00000000000E+00  0.45593999997E+02  0.45594000000E+02  0.51100000000E-03 0.  1.
         11   -1    0    0    0    0 -0.00000000000E+00 -0.00000000000E+00 -0.45593999997E+02  0.45594000000E+02  0.51100000000E-03 0. -1.
    9900012    2    1    2    0    0  0.95620595957E+01  0.26149137125E+02 -0.15540588718E+02  0.59301948915E+02  0.50000008913E+02 0.  0.
        -12    1    1    2    0    0 -0.95620595957E+01 -0.26149137125E+02  0.15540588718E+02  0.31886051085E+02  0.00000000000E+00 0.  1.
         11    1    3    3    0    0 -0.10957414062E+02  0.51295962092E+01  0.19368335984E+00  0.12100214614E+02  0.51100000000E-03 0. -1.
        -11    1    3    3    0    0  0.11548360015E+02  0.93962770486E+01  0.97456201177E+01  0.17794149408E+02  0.51100000000E-03 0.  1.
         12    1    3    3    0    0  0.89711136424E+01  0.11623263867E+02 -0.25479892196E+02  0.29407584893E+02  0.00000000000E+00 0. -1.
</event>
<event>
 7    1  0.7284210E-013  0.5930195E+02  0.7816164E-02  0.1266605E+00
        -11   -1    0    0    0    0  0.00000000000E+00  0.00000000000E+00  0.45593999997E+02  0.45594000000E+02  0.51100000000E-03 0. -1.
         11   -1    0    0    0    0 -0.00000000000E+00 -0.00000000000E+00 -0.45593999997E+02  0.45594000000E+02  0.51100000000E-03 0.  1.
    9900012    2    1    2    0    0 -0.23623623523E+02 -0.76209302006E+01  0.20014151609E+02  0.59301946150E+02  0.50000003871E+02 0.  0.
        -12    1    1    2    0    0  0.23623623523E+02  0.76209302006E+01 -0.20014151609E+02  0.31886053850E+02  0.00000000000E+00 0.  1.
         11    1    3    3    0    0 -0.12461300433E+00  0.46633267495E+01 -0.49643279053E+01  0.68122460750E+01  0.51100000000E-03 0. -1.
        -11    1    3    3    0    0  0.10449372953E+02 -0.28907160944E+01  0.73699568561E+01  0.13109610939E+02  0.51100000000E-03 0.  1.
         12    1    3    3    0    0 -0.33948383472E+02 -0.93935408556E+01  0.17608522658E+02  0.39380089136E+02  0.00000000000E+00 0. -1.
</event>
<event>
 7    1  0.7284210E-013  0.5930195E+02  0.7816164E-02  0.1266605E+00
        -11   -1    0    0    0    0  0.00000000000E+00  0.00000000000E+00  0.45593999997E+02  0.45594000000E+02  0.51100000000E-03 0. -1.
         11   -1    0    0    0    0 -0.00000000000E+00 -0.00000000000E+00 -0.45593999997E+02  0.45594000000E+02  0.51100000000E-03 0.  1.
    9900012    2    1    2    0    0 -0.23747247317E+02  0.14671245662E+02  0.15412419880E+02  0.59301954604E+02  0.50000019289E+02 0.  0.
        -12    1    1    2    0    0  0.23747247317E+02 -0.14671245662E+02 -0.15412419880E+02  0.31886045396E+02  0.00000000000E+00 0.  1.
         11    1    3    3    0    0  0.30047347753E+01  0.74010391473E+01  0.19218401605E+02  0.20812274553E+02  0.51100000000E-03 0. -1.
        -11    1    3    3    0    0 -0.11581112500E+01 -0.53502178080E+01  0.61806979990E+01  0.82563357657E+01  0.51100000000E-03 0.  1.
        -12    1    3    3    0    0 -0.25593870842E+02  0.12620424323E+02 -0.99866797240E+01  0.30233344286E+02  0.00000000000E+00 0.  1.
</event>
<event>
 7    1  0.7284210E-013  0.5930199E+02  0.7816164E-02  0.1266605E+00
        -11   -1    0    0    0    0  0.00000000000E+00  0.00000000000E+00  0.45593999997E+02  0.45594000000E+02  0.51100000000E-03 0. -1.
         11   -1    0    0    0    0 -0.00000000000E+00 -0.00000000000E+00 -0.45593999997E+02  0.45594000000E+02  0.51100000000E-03 0.  1.
    9900012    2    1    2    0    0 -0.10844963407E+01 -0.40335607132E+01  0.31611260821E+02  0.59301991234E+02  0.50000086092E+02 0.  0.
        -12    1    1    2    0    0  0.10844963407E+01  0.40335607132E+01 -0.31611260821E+02  0.31886008766E+02  0.00000000000E+00 0.  1.
         11    1    3    3    0    0 -0.87645988581E+01 -0.69175526919E+01  0.16709242561E+02  0.20096505059E+02  0.51100000000E-03 0. -1.
        -11    1    3    3    0    0 -0.13369560629E+02 -0.19683404378E+01  0.10610907608E+02  0.17181701779E+02  0.51100000000E-03 0.  1.
         12    1    3    3    0    0  0.21049663147E+02  0.48523324165E+01  0.42911106531E+01  0.22023784396E+02  0.00000000000E+00 0. -1.
</event>
<event>
 7    1  0.7284210E-013  0.5930167E+02  0.7816164E-02  0.1266606E+00
        -11   -1    0    0    0    0  0.00000000000E+00  0.00000000000E+00  0.45593999997E+02  0.45594000000E+02  0.51100000000E-03 0. -1.
         11   -1    0    0    0    0 -0.00000000000E+00 -0.00000000000E+00 -0.45593999997E+02  0.45594000000E+02  0.51100000000E-03 0.  1.
    9900012    2    1    2    0    0 -0.49031803530E+01  0.13719134742E+02  0.28363396742E+02  0.59301668910E+02  0.49999498249E+02 0.  0.
        -12    1    1    2    0    0  0.49031803530E+01 -0.13719134742E+02 -0.28363396742E+02  0.31886331090E+02  0.00000000000E+00 0.  1.
         11    1    3    3    0    0 -0.92526382505E+01  0.11412574069E+02  0.15305512893E+02  0.21215958301E+02  0.51100000000E-03 0. -1.
        -11    1    3    3    0    0 -0.51321277305E+01  0.16555242245E+02  0.14238215943E+01  0.17390861078E+02  0.51100000000E-03 0.  1.
        -12    1    3    3    0    0  0.94815856280E+01 -0.14248681572E+02  0.11634062255E+02  0.20694849531E+02  0.00000000000E+00 0.  1.
</event>
<event>
 7    1  0.7284210E-013  0.5930196E+02  0.7816164E-02  0.1266605E+00
        -11   -1    0    0    0    0  0.00000000000E+00  0.00000000000E+00  0.45593999997E+02  0.45594000000E+02  0.51100000000E-03 0.  1.
         11   -1    0    0    0    0 -0.00000000000E+00 -0.00000000000E+00 -0.45593999997E+02  0.45594000000E+02  0.51100000000E-03 0. -1.
    9900012    2    1    2    0    0 -0.30223815051E+02  0.32492217169E+01 -0.96272104311E+01  0.59301958874E+02  0.50000027076E+02 0.  0.
        -12    1    1    2    0    0  0.30223815051E+02 -0.32492217169E+01  0.96272104311E+01  0.31886041126E+02  0.00000000000E+00 0.  1.
         11    1    3    3    0    0 -0.28116336134E+01 -0.54459201713E+01  0.44623310889E+01  0.75812748991E+01  0.51100000000E-03 0. -1.
        -11    1    3    3    0    0  0.56455657855E+01 -0.69176653920E+01  0.52534232554E+01  0.10359776237E+02  0.51100000000E-03 0.  1.
         12    1    3    3    0    0 -0.33057747223E+02  0.15612807280E+02 -0.19342964775E+02  0.41360907738E+02  0.00000000000E+00 0. -1.
</event>
<event>
 7    1  0.7284210E-013  0.5930195E+02  0.7816164E-02  0.1266605E+00
        -11   -1    0    0    0    0  0.00000000000E+00  0.00000000000E+00  0.45593999997E+02  0.45594000000E+02  0.51100000000E-03 0.  1.
         11   -1    0    0    0    0 -0.00000000000E+00 -0.00000000000E+00 -0.45593999997E+02  0.45594000000E+02  0.51100000000E-03 0. -1.
    9900012    2    1    2    0    0  0.49685043194E+01 -0.30233242228E+02 -0.88309120530E+01  0.59301953232E+02  0.50000016786E+02 0.  0.
        -12    1    1    2    0    0 -0.49685043194E+01  0.30233242228E+02  0.88309120530E+01  0.31886046768E+02  0.00000000000E+00 0.  1.
         11    1    3    3    0    0 -0.16324895339E+02 -0.12342126248E+02 -0.56028328790E+01  0.21218435962E+02  0.51100000000E-03 0. -1.
        -11    1    3    3    0    0  0.31427783888E+01 -0.19157158312E+02 -0.42018269376E+01  0.19862757122E+02  0.51100000000E-03 0.  1.
        -12    1    3    3    0    0  0.18150621270E+02  0.12660423320E+01  0.97374776362E+00  0.18220760148E+02  0.00000000000E+00 0.  1.
</event>
<event>
 7    1  0.7284210E-013  0.5930193E+02  0.7816164E-02  0.1266605E+00
        -11   -1    0    0    0    0  0.00000000000E+00  0.00000000000E+00  0.45593999997E+02  0.45594000000E+02  0.51100000000E-03 0.  1.
         11   -1    0    0    0    0 -0.00000000000E+00 -0.00000000000E+00 -0.45593999997E+02  0.45594000000E+02  0.51100000000E-03 0. -1.
    9900012    2    1    2    0    0  0.95550846312E+01  0.91944502107E+01 -0.28998000239E+02  0.59301928199E+02  0.49999971133E+02 0.  0.
        -12    1    1    2    0    0 -0.95550846312E+01 -0.91944502107E+01  0.28998000239E+02  0.31886071801E+02  0.00000000000E+00 0.  1.
         11    1    3    3    0    0  0.23690309768E+02 -0.24474986780E+01 -0.24244888184E+02  0.33985815129E+02  0.51100000000E-03 0. -1.
        -11    1    3    3    0    0  0.32554553976E+01 -0.80479049041E+00 -0.15400588409E+01  0.36901841517E+01  0.51100000000E-03 0.  1.
        -12    1    3    3    0    0 -0.17390680535E+02  0.12446739379E+02 -0.32130532147E+01  0.21625928918E+02  0.00000000000E+00 0.  1.
</event>
<event>
 7    1  0.7284210E-013  0.5930192E+02  0.7816164E-02  0.1266605E+00
        -11   -1    0    0    0    0  0.00000000000E+00  0.00000000000E+00  0.45593999997E+02  0.45594000000E+02  0.51100000000E-03 0.  1.
         11   -1    0    0    0    0 -0.00000000000E+00 -0.00000000000E+00 -0.45593999997E+02  0.45594000000E+02  0.51100000000E-03 0. -1.
    9900012    2    1    2    0    0 -0.21753603094E+02  0.25590791715E+01 -0.23172262288E+02  0.59301923520E+02  0.49999962598E+02 0.  0.
        -12    1    1    2    0    0  0.21753603094E+02 -0.25590791715E+01  0.23172262288E+02  0.31886076480E+02  0.00000000000E+00 0.  1.
         11    1    3    3    0    0 -0.15533694965E+02 -0.45891619479E+01 -0.11321715304E+02  0.19762017213E+02  0.51100000000E-03 0. -1.
        -11    1    3    3    0    0 -0.14194437412E+02  0.16575029795E+02 -0.15380555849E+02  0.26697849438E+02  0.51100000000E-03 0.  1.
        -12    1    3    3    0    0  0.79745292828E+01 -0.94267886759E+01  0.35300088648E+01  0.12842056868E+02  0.00000000000E+00 0.  1.
</event>
<event>
 7    1  0.7284210E-013  0.5930191E+02  0.7816164E-02  0.1266605E+00
        -11   -1    0    0    0    0  0.00000000000E+00  0.00000000000E+00  0.45593999997E+02  0.45594000000E+02  0.51100000000E-03 0. -1.
         11   -1    0    0    0    0 -0.00000000000E+00 -0.00000000000E+00 -0.45593999997E+02  0.45594000000E+02  0.51100000000E-03 0.  1.
    9900012    2    1    2    0    0 -0.27621515749E+01  0.51082298348E-01  0.31766189393E+02  0.59301907746E+02  0.49999933830E+02 0.  0.
        -12    1    1    2    0    0  0.27621515749E+01 -0.51082298348E-01 -0.31766189393E+02  0.31886092254E+02  0.00000000000E+00 0.  1.
         11    1    3    3    0    0 -0.10028790761E+02 -0.10798092872E+02  0.27000203360E+02  0.30760143620E+02  0.51100000000E-03 0. -1.
        -11    1    3    3    0    0 -0.80290195519E+01 -0.13943330968E+01 -0.76126857771E+00  0.81846716402E+01  0.51100000000E-03 0.  1.
         12    1    3    3    0    0  0.15295658738E+02  0.12243508267E+02  0.55272546102E+01  0.20357092485E+02  0.00000000000E+00 0. -1.
</event>
<event>
 7    1  0.7284210E-013  0.5930193E+02  0.7816164E-02  0.1266605E+00
        -11   -1    0    0    0    0  0.00000000000E+00  0.00000000000E+00  0.45593999997E+02  0.45594000000E+02  0.51100000000E-03 0.  1.
         11   -1    0    0    0    0 -0.00000000000E+00 -0.00000000000E+00 -0.45593999997E+02  0.45594000000E+02  0.51100000000E-03 0. -1.
    9900012    2    1    2    0    0 -0.19119361997E+02 -0.22847730626E+00 -0.25517035992E+02  0.59301932026E+02  0.49999978112E+02 0.  0.
        -12    1    1    2    0    0  0.19119361997E+02  0.22847730626E+00  0.25517035992E+02  0.31886067974E+02  0.00000000000E+00 0.  1.
         11    1    3    3    0    0 -0.36106631964E+01  0.65517721766E+01 -0.33261759817E+01  0.81869441365E+01  0.51100000000E-03 0. -1.
        -11    1    3    3    0    0 -0.30353303157E+02 -0.40133470075E+01 -0.11936193727E+02  0.32861872857E+02  0.51100000000E-03 0.  1.
         12    1    3    3    0    0  0.14844604356E+02 -0.27669024754E+01 -0.10254666283E+02  0.18253115033E+02  0.00000000000E+00 0. -1.
</event>
<event>
 7    1  0.7284210E-013  0.5930195E+02  0.7816164E-02  0.1266605E+00
        -11   -1    0    0    0    0  0.00000000000E+00  0.00000000000E+00  0.45593999997E+02  0.45594000000E+02  0.51100000000E-03 0. -1.
         11   -1    0    0    0    0 -0.00000000000E+00 -0.00000000000E+00 -0.45593999997E+02  0.45594000000E+02  0.51100000000E-03 0.  1.
    9900012    2    1    2    0    0  0.12927718517E+02  0.28425915799E+02  0.64468489017E+01  0.59301945747E+02  0.50000003136E+02 0.  0.
        -12    1    1    2    0    0 -0.12927718517E+02 -0.28425915799E+02 -0.64468489017E+01  0.31886054253E+02  0.00000000000E+00 0.  1.
         11    1    3    3    0    0 -0.32649740228E+01  0.50329150060E+01 -0.43698360846E+01  0.74219779368E+01  0.51100000000E-03 0. -1.
        -11    1    3    3    0    0 -0.12349766599E+02  0.24699565973E+01 -0.44227559460E+01  0.13348340386E+02  0.51100000000E-03 0.  1.
         12    1    3    3    0    0  0.28542459138E+02  0.20923044195E+02  0.15239440932E+02  0.38531627425E+02  0.00000000000E+00 0. -1.
</event>
<event>
 7    1  0.7284210E-013  0.5930192E+02  0.7816164E-02  0.1266605E+00
        -11   -1    0    0    0    0  0.00000000000E+00  0.00000000000E+00  0.45593999997E+02  0.45594000000E+02  0.51100000000E-03 0.  1.
         11   -1    0    0    0    0 -0.00000000000E+00 -0.00000000000E+00 -0.45593999997E+02  0.45594000000E+02  0.51100000000E-03 0. -1.
    9900012    2    1    2    0    0  0.80018040255E+01 -0.26453369054E+02 -0.15903221508E+02  0.59301920650E+02  0.49999957365E+02 0.  0.
        -12    1    1    2    0    0 -0.80018040255E+01  0.26453369054E+02  0.15903221508E+02  0.31886079350E+02  0.00000000000E+00 0.  1.
         11    1    3    3    0    0 -0.48418279200E+01 -0.14931604751E+02 -0.48698621003E+00  0.15704562200E+02  0.51100000000E-03 0. -1.
        -11    1    3    3    0    0  0.52494296711E+01 -0.32268784896E+01  0.12261119809E+02  0.13722401972E+02  0.51100000000E-03 0.  1.
         12    1    3    3    0    0  0.75942022744E+01 -0.82948858127E+01 -0.27677355107E+02  0.29874956478E+02  0.00000000000E+00 0. -1.
</event>
<event>
 7    1  0.7284210E-013  0.5930195E+02  0.7816164E-02  0.1266605E+00
        -11   -1    0    0    0    0  0.00000000000E+00  0.00000000000E+00  0.45593999997E+02  0.45594000000E+02  0.51100000000E-03 0. -1.
         11   -1    0    0    0    0 -0.00000000000E+00 -0.00000000000E+00 -0.45593999997E+02  0.45594000000E+02  0.51100000000E-03 0.  1.
    9900012    2    1    2    0    0 -0.27454494831E+02 -0.11560124748E+02 -0.11372516351E+02  0.59301954482E+02  0.50000019067E+02 0.  0.
        -12    1    1    2    0    0  0.27454494831E+02  0.11560124748E+02  0.11372516351E+02  0.31886045518E+02  0.00000000000E+00 0.  1.
         11    1    3    3    0    0 -0.69021007720E+01 -0.10800052718E+02 -0.15100480560E+02  0.19806681882E+02  0.51100000000E-03 0. -1.
        -11    1    3    3    0    0 -0.26295185578E+02 -0.52128201754E+01 -0.58844495145E+01  0.27445163966E+02  0.51100000000E-03 0.  1.
        -12    1    3    3    0    0  0.57427915196E+01  0.44527481453E+01  0.96124137242E+01  0.12050108634E+02  0.00000000000E+00 0.  1.
</event>
<event>
 7    1  0.7284210E-013  0.5930195E+02  0.7816164E-02  0.1266605E+00
        -11   -1    0    0    0    0  0.00000000000E+00  0.00000000000E+00  0.45593999997E+02  0.45594000000E+02  0.51100000000E-03 0.  1.
         11   -1    0    0    0    0 -0.00000000000E+00 -0.00000000000E+00 -0.45593999997E+02  0.45594000000E+02  0.51100000000E-03 0. -1.
    9900012    2    1    2    0    0  0.22336664871E+02 -0.22216028918E+02 -0.49235997302E+01  0.59301947050E+02  0.50000005512E+02 0.  0.
        -12    1    1    2    0    0 -0.22336664871E+02  0.22216028918E+02  0.49235997302E+01  0.31886052950E+02  0.00000000000E+00 0.  1.
         11    1    3    3    0    0  0.30715044856E+02 -0.15303395327E+02  0.33285187966E+00  0.34317906109E+02  0.51100000000E-03 0. -1.
        -11    1    3    3    0    0 -0.53116794773E+01  0.15838226706E+01  0.75168763062E+01  0.93394787213E+01  0.51100000000E-03 0.  1.
        -12    1    3    3    0    0 -0.30667005080E+01 -0.84964562610E+01 -0.12773327916E+02  0.15644562220E+02  0.00000000000E+00 0.  1.
</event>
<event>
 7    1  0.7284210E-013  0.5930194E+02  0.7816164E-02  0.1266605E+00
        -11   -1    0    0    0    0  0.00000000000E+00  0.00000000000E+00  0.45593999997E+02  0.45594000000E+02  0.51100000000E-03 0. -1.
         11   -1    0    0    0    0 -0.00000000000E+00 -0.00000000000E+00 -0.45593999997E+02  0.45594000000E+02  0.51100000000E-03 0.  1.
    9900012    2    1    2    0    0 -0.10091044026E+02  0.30140759226E+02 -0.25350654551E+01  0.59301935754E+02  0.49999984910E+02 0.  0.
        -12    1    1    2    0    0  0.10091044026E+02 -0.30140759226E+02  0.25350654551E+01  0.31886064246E+02  0.00000000000E+00 0.  1.
         11    1    3    3    0    0  0.45845462854E+01 -0.22301036528E+01 -0.12685840500E+02  0.13671941209E+02  0.51100000000E-03 0. -1.
        -11    1    3    3    0    0 -0.55260163943E+01 -0.33135080567E+01 -0.21489679520E+01  0.67922202814E+01  0.51100000000E-03 0.  1.
         12    1    3    3    0    0 -0.91495739176E+01  0.35684370936E+02  0.12299742997E+02  0.38837774264E+02  0.00000000000E+00 0. -1.
</event>
<event>
 7    1  0.7284210E-013  0.5930194E+02  0.7816164E-02  0.1266605E+00
        -11   -1    0    0    0    0  0.00000000000E+00  0.00000000000E+00  0.45593999997E+02  0.45594000000E+02  0.51100000000E-03 0. -1.
         11   -1    0    0    0    0 -0.00000000000E+00 -0.00000000000E+00 -0.45593999997E+02  0.45594000000E+02  0.51100000000E-03 0.  1.
    9900012    2    1    2    0    0 -0.76449172618E+01 -0.29268061135E+02  0.10082490602E+02  0.59301940675E+02  0.49999993885E+02 0.  0.
        -12    1    1    2    0    0  0.76449172618E+01  0.29268061135E+02 -0.10082490602E+02  0.31886059325E+02  0.00000000000E+00 0.  1.
         11    1    3    3    0    0 -0.12898620030E+02  0.73732535730E+00  0.88410097760E+01  0.15655079095E+02  0.51100000000E-03 0. -1.
        -11    1    3    3    0    0 -0.11388585040E+02 -0.19769482818E+02  0.58902710799E+01  0.23563268317E+02  0.51100000000E-03 0.  1.
        -12    1    3    3    0    0  0.16642287808E+02 -0.10235903674E+02 -0.46487902536E+01  0.20083593263E+02  0.00000000000E+00 0.  1.
</event>
<event>
 7    1  0.7284210E-013  0.5930200E+02  0.7816164E-02  0.1266605E+00
        -11   -1    0    0    0    0  0.00000000000E+00  0.00000000000E+00  0.45593999997E+02  0.45594000000E+02  0.51100000000E-03 0. -1.
         11   -1    0    0    0    0 -0.00000000000E+00 -0.00000000000E+00 -0.45593999997E+02  0.45594000000E+02  0.51100000000E-03 0.  1.
    9900012    2    1    2    0    0 -0.31460737570E+02 -0.35382057684E+01 -0.37973736389E+01  0.59302000642E+02  0.50000103252E+02 0.  0.
        -12    1    1    2    0    0  0.31460737570E+02  0.35382057684E+01  0.37973736389E+01  0.31885999358E+02  0.00000000000E+00 0.  1.
         11    1    3    3    0    0 -0.51513436712E+01 -0.90580655756E+00 -0.16043849120E+02  0.16874890281E+02  0.51100000000E-03 0. -1.
        -11    1    3    3    0    0  0.56163207875E+01 -0.59571685672E+01  0.47485169736E+01  0.94646357688E+01  0.51100000000E-03 0.  1.
         12    1    3    3    0    0 -0.31925714686E+02  0.33247693563E+01  0.74979585079E+01  0.32962474593E+02  0.00000000000E+00 0. -1.
</event>
<event>
 7    1  0.7284210E-013  0.5930195E+02  0.7816164E-02  0.1266605E+00
        -11   -1    0    0    0    0  0.00000000000E+00  0.00000000000E+00  0.45593999997E+02  0.45594000000E+02  0.51100000000E-03 0. -1.
         11   -1    0    0    0    0 -0.00000000000E+00 -0.00000000000E+00 -0.45593999997E+02  0.45594000000E+02  0.51100000000E-03 0.  1.
    9900012    2    1    2    0    0 -0.18026210396E+02 -0.19972916882E+02  0.17113112686E+02  0.59301948256E+02  0.50000007711E+02 0.  0.
        -12    1    1    2    0    0  0.18026210396E+02  0.19972916882E+02 -0.17113112686E+02  0.31886051744E+02  0.00000000000E+00 0.  1.
         11    1    3    3    0    0 -0.24083802122E+02 -0.40228443228E+01 -0.53116620301E+01  0.24988528465E+02  0.51100000000E-03 0. -1.
        -11    1    3    3    0    0 -0.63916759903E+01 -0.18315095539E+01  0.30992242016E+01  0.73357440062E+01  0.51100000000E-03 0.  1.
        -12    1    3    3    0    0  0.12449267716E+02 -0.14118563006E+02  0.19325550515E+02  0.26977675784E+02  0.00000000000E+00 0.  1.
</event>
<event>
 7    1  0.7284210E-013  0.5930194E+02  0.7816164E-02  0.1266605E+00
        -11   -1    0    0    0    0  0.00000000000E+00  0.00000000000E+00  0.45593999997E+02  0.45594000000E+02  0.51100000000E-03 0.  1.
         11   -1    0    0    0    0 -0.00000000000E+00 -0.00000000000E+00 -0.45593999997E+02  0.45594000000E+02  0.51100000000E-03 0. -1.
    9900012    2    1    2    0    0  0.13964804209E+02 -0.28338722617E+02  0.43152759865E+01  0.59301944067E+02  0.50000000071E+02 0.  0.
        -12    1    1    2    0    0 -0.13964804209E+02  0.28338722617E+02 -0.43152759865E+01  0.31886055933E+02  0.00000000000E+00 0.  1.
         11    1    3    3    0    0  0.91474814133E+01 -0.17902484986E+02 -0.15194114291E+02  0.25199930441E+02  0.51100000000E-03 0. -1.
        -11    1    3    3    0    0  0.78323991406E+01  0.22365180036E+01 -0.25052913185E+01  0.85220287449E+01  0.51100000000E-03 0.  1.
        -12    1    3    3    0    0 -0.30150763445E+01 -0.12672755634E+02  0.22014681596E+02  0.25579984880E+02  0.00000000000E+00 0.  1.
</event>
<event>
 7    1  0.7284210E-013  0.5930194E+02  0.7816164E-02  0.1266605E+00
        -11   -1    0    0    0    0  0.00000000000E+00  0.00000000000E+00  0.45593999997E+02  0.45594000000E+02  0.51100000000E-03 0. -1.
         11   -1    0    0    0    0 -0.00000000000E+00 -0.00000000000E+00 -0.45593999997E+02  0.45594000000E+02  0.51100000000E-03 0.  1.
    9900012    2    1    2    0    0 -0.27801622276E+02 -0.25687572489E+01  0.15401032330E+02  0.59301944869E+02  0.50000001535E+02 0.  0.
        -12    1    1    2    0    0  0.27801622276E+02  0.25687572489E+01 -0.15401032330E+02  0.31886055131E+02  0.00000000000E+00 0.  1.
         11    1    3    3    0    0 -0.16792966918E+02 -0.14674039345E+02  0.32155592656E+01  0.22531555434E+02  0.51100000000E-03 0. -1.
        -11    1    3    3    0    0 -0.66441880893E+01 -0.95512662043E+01  0.84146877842E+01  0.14358930748E+02  0.51100000000E-03 0.  1.
        -12    1    3    3    0    0 -0.43644672681E+01  0.21656548301E+02  0.37707852800E+01  0.22411458687E+02  0.00000000000E+00 0.  1.
</event>
<event>
 7    1  0.7284210E-013  0.5930195E+02  0.7816164E-02  0.1266605E+00
        -11   -1    0    0    0    0  0.00000000000E+00  0.00000000000E+00  0.45593999997E+02  0.45594000000E+02  0.51100000000E-03 0.  1.
         11   -1    0    0    0    0 -0.00000000000E+00 -0.00000000000E+00 -0.45593999997E+02  0.45594000000E+02  0.51100000000E-03 0. -1.
    9900012    2    1    2    0    0 -0.16456399710E+02 -0.26461174238E+02  0.67611692615E+01  0.59301949081E+02  0.50000009216E+02 0.  0.
        -12    1    1    2    0    0  0.16456399710E+02  0.26461174238E+02 -0.67611692615E+01  0.31886050919E+02  0.00000000000E+00 0.  1.
         11    1    3    3    0    0  0.21428414521E+01 -0.30357340136E+02  0.17045796899E+02  0.34881500281E+02  0.51100000000E-03 0. -1.
        -11    1    3    3    0    0 -0.34266433037E+01  0.34774618031E+01  0.16056419056E+01  0.51393298311E+01  0.51100000000E-03 0.  1.
        -12    1    3    3    0    0 -0.15172597858E+02  0.41870409543E+00 -0.11890269543E+02  0.19281118969E+02  0.00000000000E+00 0.  1.
</event>
<event>
 7    1  0.7284210E-013  0.5930204E+02  0.7816164E-02  0.1266604E+00
        -11   -1    0    0    0    0  0.00000000000E+00  0.00000000000E+00  0.45593999997E+02  0.45594000000E+02  0.51100000000E-03 0.  1.
         11   -1    0    0    0    0 -0.00000000000E+00 -0.00000000000E+00 -0.45593999997E+02  0.45594000000E+02  0.51100000000E-03 0. -1.
    9900012    2    1    2    0    0  0.13869503668E+02  0.24813159720E+02 -0.14445008645E+02  0.59302042244E+02  0.50000179122E+02 0.  0.
        -12    1    1    2    0    0 -0.13869503668E+02 -0.24813159720E+02  0.14445008645E+02  0.31885957756E+02  0.00000000000E+00 0.  1.
         11    1    3    3    0    0 -0.35055358776E+01 -0.36709014510E+00 -0.17866535769E+01  0.39516665129E+01  0.51100000000E-03 0. -1.
        -11    1    3    3    0    0 -0.22951359864E+01 -0.97339798423E+01  0.54337344647E+01  0.11381717061E+02  0.51100000000E-03 0.  1.
         12    1    3    3    0    0  0.19670175532E+02  0.34914229708E+02 -0.18092089532E+02  0.43968658670E+02  0.00000000000E+00 0. -1.
</event>
<event>
 7    1  0.7284210E-013  0.5930193E+02  0.7816164E-02  0.1266605E+00
        -11   -1    0    0    0    0  0.00000000000E+00  0.00000000000E+00  0.45593999997E+02  0.45594000000E+02  0.51100000000E-03 0.  1.
         11   -1    0    0    0    0 -0.00000000000E+00 -0.00000000000E+00 -0.45593999997E+02  0.45594000000E+02  0.51100000000E-03 0. -1.
    9900012    2    1    2    0    0 -0.34924781961E+00  0.30660780490E+02 -0.87473292825E+01  0.59301934017E+02  0.49999981742E+02 0.  0.
        -12    1    1    2    0    0  0.34924781961E+00 -0.30660780490E+02  0.87473292825E+01  0.31886065983E+02  0.00000000000E+00 0.  1.
         11    1    3    3    0    0  0.74254511695E+01 -0.23549088127E+01 -0.31243091002E+00  0.77961871400E+01  0.51100000000E-03 0. -1.
        -11    1    3    3    0    0  0.82739912026E+01 -0.35459323280E+01  0.37609417375E+01  0.97558828154E+01  0.51100000000E-03 0.  1.
        -12    1    3    3    0    0 -0.16048690192E+02  0.36561621631E+02 -0.12195840110E+02  0.41749864061E+02  0.00000000000E+00 0.  1.
</event>
<event>
 7    1  0.7284210E-013  0.5930193E+02  0.7816164E-02  0.1266605E+00
        -11   -1    0    0    0    0  0.00000000000E+00  0.00000000000E+00  0.45593999997E+02  0.45594000000E+02  0.51100000000E-03 0.  1.
         11   -1    0    0    0    0 -0.00000000000E+00 -0.00000000000E+00 -0.45593999997E+02  0.45594000000E+02  0.51100000000E-03 0. -1.
    9900012    2    1    2    0    0 -0.14669941655E+01 -0.29547625862E+00 -0.31850935390E+02  0.59301929948E+02  0.49999974322E+02 0.  0.
        -12    1    1    2    0    0  0.14669941655E+01  0.29547625862E+00  0.31850935390E+02  0.31886070052E+02  0.00000000000E+00 0.  1.
         11    1    3    3    0    0  0.10594181357E+02  0.77442009724E+01  0.28513117722E+01  0.13429047115E+02  0.51100000000E-03 0. -1.
        -11    1    3    3    0    0  0.69167598914E+01 -0.24775708199E+00 -0.18891913828E+01  0.71743986026E+01  0.51100000000E-03 0.  1.
        -12    1    3    3    0    0 -0.18977935414E+02 -0.77919201491E+01 -0.32813055780E+02  0.38698484231E+02  0.00000000000E+00 0.  1.
</event>
<event>
 7    1  0.7284210E-013  0.5930193E+02  0.7816164E-02  0.1266605E+00
        -11   -1    0    0    0    0  0.00000000000E+00  0.00000000000E+00  0.45593999997E+02  0.45594000000E+02  0.51100000000E-03 0.  1.
         11   -1    0    0    0    0 -0.00000000000E+00 -0.00000000000E+00 -0.45593999997E+02  0.45594000000E+02  0.51100000000E-03 0. -1.
    9900012    2    1    2    0    0  0.17814341331E+02 -0.15461060619E+02  0.21455213728E+02  0.59301931747E+02  0.49999977603E+02 0.  0.
        -12    1    1    2    0    0 -0.17814341331E+02  0.15461060619E+02 -0.21455213728E+02  0.31886068253E+02  0.00000000000E+00 0.  1.
         11    1    3    3    0    0 -0.95482883054E+00 -0.14470187561E+01 -0.78741218770E+01  0.80627139954E+01  0.51100000000E-03 0. -1.
        -11    1    3    3    0    0  0.34317189531E+01 -0.17060072870E+02  0.30962064619E+02  0.35517210293E+02  0.51100000000E-03 0.  1.
         12    1    3    3    0    0  0.15337451209E+02  0.30460310078E+01 -0.16327290134E+01  0.15722007458E+02  0.00000000000E+00 0. -1.
</event>
<event>
 7    1  0.7284210E-013  0.5930196E+02  0.7816164E-02  0.1266605E+00
        -11   -1    0    0    0    0  0.00000000000E+00  0.00000000000E+00  0.45593999997E+02  0.45594000000E+02  0.51100000000E-03 0.  1.
         11   -1    0    0    0    0 -0.00000000000E+00 -0.00000000000E+00 -0.45593999997E+02  0.45594000000E+02  0.51100000000E-03 0. -1.
    9900012    2    1    2    0    0  0.28186603239E+02  0.39195342784E+01 -0.14383053710E+02  0.59301959400E+02  0.50000028035E+02 0.  0.
        -12    1    1    2    0    0 -0.28186603239E+02 -0.39195342784E+01  0.14383053710E+02  0.31886040600E+02  0.00000000000E+00 0.  1.
         11    1    3    3    0    0  0.84011099672E+01  0.71660694749E+01 -0.21647487993E+01  0.11252436982E+02  0.51100000000E-03 0. -1.
        -11    1    3    3    0    0  0.80983650815E+01  0.19115534650E+02 -0.21065592920E+01  0.20866834313E+02  0.51100000000E-03 0.  1.
         12    1    3    3    0    0  0.11687128191E+02 -0.22362069846E+02 -0.10111745619E+02  0.27182688105E+02  0.00000000000E+00 0. -1.
</event>
<event>
 7    1  0.7284210E-013  0.5930197E+02  0.7816164E-02  0.1266605E+00
        -11   -1    0    0    0    0  0.00000000000E+00  0.00000000000E+00  0.45593999997E+02  0.45594000000E+02  0.51100000000E-03 0.  1.
         11   -1    0    0    0    0 -0.00000000000E+00 -0.00000000000E+00 -0.45593999997E+02  0.45594000000E+02  0.51100000000E-03 0. -1.
    9900012    2    1    2    0    0  0.80363762370E+01  0.88617807391E+01 -0.29556800629E+02  0.59301969135E+02  0.50000045790E+02 0.  0.
        -12    1    1    2    0    0 -0.80363762370E+01 -0.88617807391E+01  0.29556800629E+02  0.31886030865E+02  0.00000000000E+00 0.  1.
         11    1    3    3    0    0  0.17444512182E+01  0.82974113438E+01  0.14267767494E+01  0.85980135621E+01  0.51100000000E-03 0. -1.
        -11    1    3    3    0    0  0.13941088465E+02  0.14476399882E+02 -0.57722801232E+01  0.20910268272E+02  0.51100000000E-03 0.  1.
         12    1    3    3    0    0 -0.76491634460E+01 -0.13912030487E+02 -0.25211297255E+02  0.29793687301E+02  0.00000000000E+00 0. -1.
</event>
<event>
 7    1  0.7284210E-013  0.5930192E+02  0.7816164E-02  0.1266605E+00
        -11   -1    0    0    0    0  0.00000000000E+00  0.00000000000E+00  0.45593999997E+02  0.45594000000E+02  0.51100000000E-03 0. -1.
         11   -1    0    0    0    0 -0.00000000000E+00 -0.00000000000E+00 -0.45593999997E+02  0.45594000000E+02  0.51100000000E-03 0.  1.
    9900012    2    1    2    0    0  0.23158896714E+02 -0.18306673076E+02  0.12052111159E+02  0.59301919032E+02  0.49999954414E+02 0.  0.
        -12    1    1    2    0    0 -0.23158896714E+02  0.18306673076E+02 -0.12052111159E+02  0.31886080968E+02  0.00000000000E+00 0.  1.
         11    1    3    3    0    0  0.13467477870E+02 -0.22748904005E+01  0.20662916119E+02  0.24769016721E+02  0.51100000000E-03 0. -1.
        -11    1    3    3    0    0  0.15378331580E+02 -0.14963751148E+02  0.28974569111E+01  0.21651840278E+02  0.51100000000E-03 0.  1.
        -12    1    3    3    0    0 -0.56869127367E+01 -0.10680315273E+01 -0.11508261871E+02  0.12881062033E+02  0.00000000000E+00 0.  1.
</event>
<event>
 7    1  0.7284210E-013  0.5930196E+02  0.7816164E-02  0.1266605E+00
        -11   -1    0    0    0    0  0.00000000000E+00  0.00000000000E+00  0.45593999997E+02  0.45594000000E+02  0.51100000000E-03 0.  1.
         11   -1    0    0    0    0 -0.00000000000E+00 -0.00000000000E+00 -0.45593999997E+02  0.45594000000E+02  0.51100000000E-03 0. -1.
    9900012    2    1    2    0    0 -0.28215813490E+02  0.14503426660E+02 -0.31997062567E+01  0.59301958604E+02  0.50000026584E+02 0.  0.
        -12    1    1    2    0    0  0.28215813490E+02 -0.14503426660E+02  0.31997062567E+01  0.31886041396E+02  0.00000000000E+00 0.  1.
         11    1    3    3    0    0  0.19022015661E+00  0.19095650869E+01 -0.58798720948E+01  0.61851045781E+01  0.51100000000E-03 0. -1.
        -11    1    3    3    0    0 -0.65574519480E+01  0.79087739267E+01  0.21547608661E+02  0.23871495981E+02  0.51100000000E-03 0.  1.
         12    1    3    3    0    0 -0.21848581699E+02  0.46850876463E+01 -0.18867442823E+02  0.29245358045E+02  0.00000000000E+00 0. -1.
</event>
<event>
 7    1  0.7284210E-013  0.5930194E+02  0.7816164E-02  0.1266605E+00
        -11   -1    0    0    0    0  0.00000000000E+00  0.00000000000E+00  0.45593999997E+02  0.45594000000E+02  0.51100000000E-03 0. -1.
         11   -1    0    0    0    0 -0.00000000000E+00 -0.00000000000E+00 -0.45593999997E+02  0.45594000000E+02  0.51100000000E-03 0.  1.
    9900012    2    1    2    0    0  0.21750760893E+02 -0.87418812450E+01  0.21614917430E+02  0.59301941249E+02  0.49999994933E+02 0.  0.
        -12    1    1    2    0    0 -0.21750760893E+02  0.87418812450E+01 -0.21614917430E+02  0.31886058751E+02  0.00000000000E+00 0.  1.
         11    1    3    3    0    0 -0.60119726778E+01  0.53534591194E+01 -0.58298888106E+01  0.99393633512E+01  0.51100000000E-03 0. -1.
        -11    1    3    3    0    0  0.34101280207E+01  0.23381237867E+01 -0.43986678742E+01  0.60368928505E+01  0.51100000000E-03 0.  1.
         12    1    3    3    0    0  0.24352605550E+02 -0.16433464151E+02  0.31843474115E+02  0.43325685047E+02  0.00000000000E+00 0. -1.
</event>
<event>
 7    1  0.7284210E-013  0.5930195E+02  0.7816164E-02  0.1266605E+00
        -11   -1    0    0    0    0  0.00000000000E+00  0.00000000000E+00  0.45593999997E+02  0.45594000000E+02  0.51100000000E-03 0. -1.
         11   -1    0    0    0    0 -0.00000000000E+00 -0.00000000000E+00 -0.45593999997E+02  0.45594000000E+02  0.51100000000E-03 0.  1.
    9900012    2    1    2    0    0  0.21864647347E+02 -0.23208956854E+02  0.44060250019E-01  0.59301946259E+02  0.50000004070E+02 0.  0.
        -12    1    1    2    0    0 -0.21864647347E+02  0.23208956854E+02 -0.44060250019E-01  0.31886053741E+02  0.00000000000E+00 0.  1.
         11    1    3    3    0    0  0.23704698697E+01 -0.62863661176E+01 -0.75806302420E+01  0.10129337663E+02  0.51100000000E-03 0. -1.
        -11    1    3    3    0    0 -0.11940754607E+02 -0.15245829325E+01  0.74729423509E+01  0.14168657006E+02  0.51100000000E-03 0.  1.
         12    1    3    3    0    0  0.31434932084E+02 -0.15398007804E+02  0.15174814113E+00  0.35003951591E+02  0.00000000000E+00 0. -1.
</event>
<event>
 7    1  0.7284210E-013  0.5930178E+02  0.7816164E-02  0.1266605E+00
        -11   -1    0    0    0    0  0.00000000000E+00  0.00000000000E+00  0.45593999997E+02  0.45594000000E+02  0.51100000000E-03 0.  1.
         11   -1    0    0    0    0 -0.00000000000E+00 -0.00000000000E+00 -0.45593999997E+02  0.45594000000E+02  0.51100000000E-03 0. -1.
    9900012    2    1    2    0    0  0.20228128270E+02  0.58485352830E+01 -0.23944697364E+02  0.59301779307E+02  0.49999699588E+02 0.  0.
        -12    1    1    2    0    0 -0.20228128270E+02 -0.58485352830E+01  0.23944697364E+02  0.31886220693E+02  0.00000000000E+00 0.  1.
         11    1    3    3    0    0  0.54707074337E+01  0.22663653972E+00 -0.37684947084E+01  0.66469208341E+01  0.51100000000E-03 0. -1.
        -11    1    3    3    0    0 -0.67526091521E+01  0.78728907361E+01  0.10736100659E+02  0.14927960227E+02  0.51100000000E-03 0.  1.
         12    1    3    3    0    0  0.21510029988E+02 -0.22509919928E+01 -0.30912303315E+02  0.37726898246E+02  0.00000000000E+00 0. -1.
</event>
<event>
 7    1  0.7284210E-013  0.5930194E+02  0.7816164E-02  0.1266605E+00
        -11   -1    0    0    0    0  0.00000000000E+00  0.00000000000E+00  0.45593999997E+02  0.45594000000E+02  0.51100000000E-03 0. -1.
         11   -1    0    0    0    0 -0.00000000000E+00 -0.00000000000E+00 -0.45593999997E+02  0.45594000000E+02  0.51100000000E-03 0.  1.
    9900012    2    1    2    0    0 -0.21428532798E+02  0.23551634954E+02 -0.16909566917E+01  0.59301939387E+02  0.49999991537E+02 0.  0.
        -12    1    1    2    0    0  0.21428532798E+02 -0.23551634954E+02  0.16909566917E+01  0.31886060613E+02  0.00000000000E+00 0.  1.
         11    1    3    3    0    0  0.77307418830E+01 -0.98730475806E+01  0.47888823188E+01  0.13422921914E+02  0.51100000000E-03 0. -1.
        -11    1    3    3    0    0 -0.10908427580E+02  0.18647053268E+02 -0.33939952260E+00  0.21606054248E+02  0.51100000000E-03 0.  1.
        -12    1    3    3    0    0 -0.18250847101E+02  0.14777629266E+02 -0.61404394879E+01  0.24272963225E+02  0.00000000000E+00 0.  1.
</event>
<event>
 7    1  0.7284210E-013  0.5930194E+02  0.7816164E-02  0.1266605E+00
        -11   -1    0    0    0    0  0.00000000000E+00  0.00000000000E+00  0.45593999997E+02  0.45594000000E+02  0.51100000000E-03 0. -1.
         11   -1    0    0    0    0 -0.00000000000E+00 -0.00000000000E+00 -0.45593999997E+02  0.45594000000E+02  0.51100000000E-03 0.  1.
    9900012    2    1    2    0    0  0.11011994977E+02 -0.10185084465E+02  0.28137538780E+02  0.59301936155E+02  0.49999985641E+02 0.  0.
        -12    1    1    2    0    0 -0.11011994977E+02  0.10185084465E+02 -0.28137538780E+02  0.31886063845E+02  0.00000000000E+00 0.  1.
         11    1    3    3    0    0  0.26441793009E+02 -0.10813108537E+02  0.13338759417E+02  0.31527991322E+02  0.51100000000E-03 0. -1.
        -11    1    3    3    0    0 -0.47447055356E+01 -0.28174080391E+01 -0.33338772798E+01  0.64470734955E+01  0.51100000000E-03 0.  1.
         12    1    3    3    0    0 -0.10685092497E+02  0.34454321102E+01  0.18132656643E+02  0.21326871337E+02  0.00000000000E+00 0. -1.
</event>
<event>
 7    1  0.7284210E-013  0.5930195E+02  0.7816164E-02  0.1266605E+00
        -11   -1    0    0    0    0  0.00000000000E+00  0.00000000000E+00  0.45593999997E+02  0.45594000000E+02  0.51100000000E-03 0. -1.
         11   -1    0    0    0    0 -0.00000000000E+00 -0.00000000000E+00 -0.45593999997E+02  0.45594000000E+02  0.51100000000E-03 0.  1.
    9900012    2    1    2    0    0 -0.88250855625E+01  0.30080719173E+02  0.58299475012E+01  0.59301951499E+02  0.50000013626E+02 0.  0.
        -12    1    1    2    0    0  0.88250855625E+01 -0.30080719173E+02 -0.58299475012E+01  0.31886048501E+02  0.00000000000E+00 0.  1.
         11    1    3    3    0    0 -0.20565401912E+02  0.54951296697E+01 -0.73732624408E+01  0.22527698622E+02  0.51100000000E-03 0. -1.
        -11    1    3    3    0    0  0.61915493656E+01  0.13920947916E+01 -0.38805835574E+01  0.74385576870E+01  0.51100000000E-03 0.  1.
         12    1    3    3    0    0  0.55487669841E+01  0.23193494712E+02  0.17083793499E+02  0.29335695190E+02  0.00000000000E+00 0. -1.
</event>
<event>
 7    1  0.7284210E-013  0.5930194E+02  0.7816164E-02  0.1266605E+00
        -11   -1    0    0    0    0  0.00000000000E+00  0.00000000000E+00  0.45593999997E+02  0.45594000000E+02  0.51100000000E-03 0.  1.
         11   -1    0    0    0    0 -0.00000000000E+00 -0.00000000000E+00 -0.45593999997E+02  0.45594000000E+02  0.51100000000E-03 0. -1.
    9900012    2    1    2    0    0  0.27850058728E+02  0.15489101951E+02  0.10874161780E+01  0.59301944672E+02  0.50000001176E+02 0.  0.
        -12    1    1    2    0    0 -0.27850058728E+02 -0.15489101951E+02 -0.10874161780E+01  0.31886055328E+02  0.00000000000E+00 0.  1.
         11    1    3    3    0    0  0.30450509004E+01  0.11450012479E+01  0.11366963800E+02  0.11823334096E+02  0.51100000000E-03 0. -1.
        -11    1    3    3    0    0  0.11967124966E+02  0.48852405932E+00  0.12883142601E+02  0.17590511626E+02  0.51100000000E-03 0.  1.
         12    1    3    3    0    0  0.12837882862E+02  0.13855576643E+02 -0.23162690223E+02  0.29888098951E+02  0.00000000000E+00 0. -1.
</event>
<event>
 7    1  0.7284210E-013  0.5930192E+02  0.7816164E-02  0.1266605E+00
        -11   -1    0    0    0    0  0.00000000000E+00  0.00000000000E+00  0.45593999997E+02  0.45594000000E+02  0.51100000000E-03 0. -1.
         11   -1    0    0    0    0 -0.00000000000E+00 -0.00000000000E+00 -0.45593999997E+02  0.45594000000E+02  0.51100000000E-03 0.  1.
    9900012    2    1    2    0    0 -0.22244744308E+01  0.31703407562E+02 -0.25822033493E+01  0.59301919782E+02  0.49999955782E+02 0.  0.
        -12    1    1    2    0    0  0.22244744308E+01 -0.31703407562E+02  0.25822033493E+01  0.31886080218E+02  0.00000000000E+00 0.  1.
         11    1    3    3    0    0 -0.45976792229E+00  0.28283215264E+01 -0.10380329750E+02  0.10768566997E+02  0.51100000000E-03 0.  1.
        -11    1    3    3    0    0 -0.13171026722E+02  0.30911271707E+02 -0.15645042771E+01  0.33636740885E+02  0.51100000000E-03 0. -1.
         12    1    3    3    0    0  0.11406320213E+02 -0.20361856717E+01  0.93626306773E+01  0.14896611900E+02  0.00000000000E+00 0. -1.
</event>
<event>
 7    1  0.7284210E-013  0.5930198E+02  0.7816164E-02  0.1266605E+00
        -11   -1    0    0    0    0  0.00000000000E+00  0.00000000000E+00  0.45593999997E+02  0.45594000000E+02  0.51100000000E-03 0.  1.
         11   -1    0    0    0    0 -0.00000000000E+00 -0.00000000000E+00 -0.45593999997E+02  0.45594000000E+02  0.51100000000E-03 0. -1.
    9900012    2    1    2    0    0  0.76601487831E+01 -0.25518474549E+02 -0.17517077681E+02  0.59301977464E+02  0.50000060980E+02 0.  0.
        -12    1    1    2    0    0 -0.76601487831E+01  0.25518474549E+02  0.17517077681E+02  0.31886022536E+02  0.00000000000E+00 0.  1.
         11    1    3    3    0    0  0.45592250443E+01 -0.83224578666E+01 -0.19621106685E+02  0.21795358812E+02  0.51100000000E-03 0. -1.
        -11    1    3    3    0    0 -0.45856411731E+01 -0.46765187585E+01 -0.14153070294E+02  0.15595106016E+02  0.51100000000E-03 0.  1.
        -12    1    3    3    0    0  0.76865649119E+01 -0.12519497924E+02  0.16257099298E+02  0.21911512636E+02  0.00000000000E+00 0.  1.
</event>
<event>
 7    1  0.7284210E-013  0.5930194E+02  0.7816164E-02  0.1266605E+00
        -11   -1    0    0    0    0  0.00000000000E+00  0.00000000000E+00  0.45593999997E+02  0.45594000000E+02  0.51100000000E-03 0. -1.
         11   -1    0    0    0    0 -0.00000000000E+00 -0.00000000000E+00 -0.45593999997E+02  0.45594000000E+02  0.51100000000E-03 0.  1.
    9900012    2    1    2    0    0 -0.10012258397E+02 -0.10659535426E+02  0.28334609007E+02  0.59301935939E+02  0.49999985249E+02 0.  0.
        -12    1    1    2    0    0  0.10012258397E+02  0.10659535426E+02 -0.28334609007E+02  0.31886064061E+02  0.00000000000E+00 0.  1.
         11    1    3    3    0    0 -0.96698864511E+01 -0.37052427868E+01  0.23169286934E+02  0.25378167495E+02  0.51100000000E-03 0. -1.
        -11    1    3    3    0    0 -0.62758961292E-01 -0.42708907447E+00  0.18799852150E+02  0.18804807494E+02  0.51100000000E-03 0.  1.
        -12    1    3    3    0    0 -0.27961298468E+00 -0.65272035650E+01 -0.13634530077E+02  0.15118960951E+02  0.00000000000E+00 0.  1.
</event>
<event>
 7    1  0.7284210E-013  0.5930193E+02  0.7816164E-02  0.1266605E+00
        -11   -1    0    0    0    0  0.00000000000E+00  0.00000000000E+00  0.45593999997E+02  0.45594000000E+02  0.51100000000E-03 0.  1.
         11   -1    0    0    0    0 -0.00000000000E+00 -0.00000000000E+00 -0.45593999997E+02  0.45594000000E+02  0.51100000000E-03 0. -1.
    9900012    2    1    2    0    0 -0.25146851980E+02  0.10439490954E+02 -0.16594396971E+02  0.59301934913E+02  0.49999983377E+02 0.  0.
        -12    1    1    2    0    0  0.25146851980E+02 -0.10439490954E+02  0.16594396971E+02  0.31886065087E+02  0.00000000000E+00 0.  1.
         11    1    3    3    0    0  0.45591326543E+00 -0.12703887654E+02 -0.30248454931E+01  0.13066993111E+02  0.51100000000E-03 0. -1.
        -11    1    3    3    0    0  0.42122411758E+01 -0.16501435682E+01 -0.45635489783E+01  0.64258796329E+01  0.51100000000E-03 0.  1.
         12    1    3    3    0    0 -0.29815006422E+02  0.24793522176E+02 -0.90060024993E+01  0.39809062170E+02  0.00000000000E+00 0. -1.
</event>
<event>
 7    1  0.7284210E-013  0.5930196E+02  0.7816164E-02  0.1266605E+00
        -11   -1    0    0    0    0  0.00000000000E+00  0.00000000000E+00  0.45593999997E+02  0.45594000000E+02  0.51100000000E-03 0.  1.
         11   -1    0    0    0    0 -0.00000000000E+00 -0.00000000000E+00 -0.45593999997E+02  0.45594000000E+02  0.51100000000E-03 0. -1.
    9900012    2    1    2    0    0 -0.86195904461E+00  0.13970191454E+02 -0.28649790505E+02  0.59301957306E+02  0.50000024217E+02 0.  0.
        -12    1    1    2    0    0  0.86195904461E+00 -0.13970191454E+02  0.28649790505E+02  0.31886042694E+02  0.00000000000E+00 0.  1.
         11    1    3    3    0    0 -0.16727138689E+02 -0.75016564218E+01 -0.44945709916E+00  0.18337776030E+02  0.51100000000E-03 0. -1.
        -11    1    3    3    0    0 -0.13344862855E+01  0.26736857677E+01 -0.40910884256E-01  0.29884984845E+01  0.51100000000E-03 0.  1.
         12    1    3    3    0    0  0.17199665930E+02  0.18798162109E+02 -0.28159422522E+02  0.37975682792E+02  0.00000000000E+00 0. -1.
</event>
<event>
 7    1  0.7284210E-013  0.5930186E+02  0.7816164E-02  0.1266605E+00
        -11   -1    0    0    0    0  0.00000000000E+00  0.00000000000E+00  0.45593999997E+02  0.45594000000E+02  0.51100000000E-03 0.  1.
         11   -1    0    0    0    0 -0.00000000000E+00 -0.00000000000E+00 -0.45593999997E+02  0.45594000000E+02  0.51100000000E-03 0. -1.
    9900012    2    1    2    0    0  0.15580629536E+02  0.11670082071E+02 -0.25254284215E+02  0.59301863460E+02  0.49999853063E+02 0.  0.
        -12    1    1    2    0    0 -0.15580629536E+02 -0.11670082071E+02  0.25254284215E+02  0.31886136540E+02  0.00000000000E+00 0.  1.
         11    1    3    3    0    0 -0.84010406394E+00 -0.62972261539E+01  0.52368118445E+01  0.82331665006E+01  0.51100000000E-03 0. -1.
        -11    1    3    3    0    0 -0.80411821378E+00  0.70050707112E+01  0.59971394719E+01  0.92565276361E+01  0.51100000000E-03 0.  1.
         12    1    3    3    0    0  0.17224851814E+02  0.10962237513E+02 -0.36488235531E+02  0.41812169323E+02  0.00000000000E+00 0. -1.
</event>
<event>
 7    1  0.7284210E-013  0.5930194E+02  0.7816164E-02  0.1266605E+00
        -11   -1    0    0    0    0  0.00000000000E+00  0.00000000000E+00  0.45593999997E+02  0.45594000000E+02  0.51100000000E-03 0. -1.
         11   -1    0    0    0    0 -0.00000000000E+00 -0.00000000000E+00 -0.45593999997E+02  0.45594000000E+02  0.51100000000E-03 0.  1.
    9900012    2    1    2    0    0  0.16019687874E+02 -0.17531562061E+02  0.21277560176E+02  0.59301942938E+02  0.49999998012E+02 0.  0.
        -12    1    1    2    0    0 -0.16019687874E+02  0.17531562061E+02 -0.21277560176E+02  0.31886057062E+02  0.00000000000E+00 0.  1.
         11    1    3    3    0    0  0.60025801062E+01 -0.38604727978E+01  0.64784625396E+01  0.96387081755E+01  0.51100000000E-03 0. -1.
        -11    1    3    3    0    0  0.26083447450E+02 -0.11802746229E+01  0.13180547542E+02  0.29248352310E+02  0.51100000000E-03 0.  1.
        -12    1    3    3    0    0 -0.16066339681E+02 -0.12490814641E+02  0.16185500944E+01  0.20414882453E+02  0.00000000000E+00 0.  1.
</event>
<event>
 7    1  0.7284210E-013  0.5930193E+02  0.7816164E-02  0.1266605E+00
        -11   -1    0    0    0    0  0.00000000000E+00  0.00000000000E+00  0.45593999997E+02  0.45594000000E+02  0.51100000000E-03 0.  1.
         11   -1    0    0    0    0 -0.00000000000E+00 -0.00000000000E+00 -0.45593999997E+02  0.45594000000E+02  0.51100000000E-03 0. -1.
    9900012    2    1    2    0    0  0.23984057442E+02  0.19093462653E+02 -0.87707392644E+01  0.59301934161E+02  0.49999982005E+02 0.  0.
        -12    1    1    2    0    0 -0.23984057442E+02 -0.19093462653E+02  0.87707392644E+01  0.31886065839E+02  0.00000000000E+00 0.  1.
         11    1    3    3    0    0 -0.28562317506E+01  0.10063536919E+02 -0.69412754645E+01  0.12554447039E+02  0.51100000000E-03 0. -1.
        -11    1    3    3    0    0 -0.81181065152E+01  0.45826239460E+01 -0.62612665118E+01  0.11229761984E+02  0.51100000000E-03 0.  1.
        -12    1    3    3    0    0  0.34958395708E+02  0.44473017882E+01  0.44318027119E+01  0.35517725138E+02  0.00000000000E+00 0.  1.
</event>
<event>
 7    1  0.7284210E-013  0.5930200E+02  0.7816164E-02  0.1266605E+00
        -11   -1    0    0    0    0  0.00000000000E+00  0.00000000000E+00  0.45593999997E+02  0.45594000000E+02  0.51100000000E-03 0.  1.
         11   -1    0    0    0    0 -0.00000000000E+00 -0.00000000000E+00 -0.45593999997E+02  0.45594000000E+02  0.51100000000E-03 0. -1.
    9900012    2    1    2    0    0 -0.26668291923E+02  0.12651952473E+02  0.12060154582E+02  0.59301999561E+02  0.50000101279E+02 0.  0.
        -12    1    1    2    0    0  0.26668291923E+02 -0.12651952473E+02 -0.12060154582E+02  0.31886000439E+02  0.00000000000E+00 0.  1.
         11    1    3    3    0    0 -0.26487474687E+02  0.67705722607E+01  0.12770245791E+02  0.30174594311E+02  0.51100000000E-03 0. -1.
        -11    1    3    3    0    0 -0.24349629927E+01 -0.62665510158E+01 -0.11104633098E+02  0.12981201135E+02  0.51100000000E-03 0.  1.
         12    1    3    3    0    0  0.22541457568E+01  0.12147931228E+02  0.10394541889E+02  0.16146204114E+02  0.00000000000E+00 0. -1.
</event>
<event>
 7    1  0.7284210E-013  0.5930199E+02  0.7816164E-02  0.1266605E+00
        -11   -1    0    0    0    0  0.00000000000E+00  0.00000000000E+00  0.45593999997E+02  0.45594000000E+02  0.51100000000E-03 0.  1.
         11   -1    0    0    0    0 -0.00000000000E+00 -0.00000000000E+00 -0.45593999997E+02  0.45594000000E+02  0.51100000000E-03 0. -1.
    9900012    2    1    2    0    0  0.22563560203E+02  0.29113112915E+01 -0.22341162412E+02  0.59301991777E+02  0.50000087083E+02 0.  0.
        -12    1    1    2    0    0 -0.22563560203E+02 -0.29113112915E+01  0.22341162412E+02  0.31886008223E+02  0.00000000000E+00 0.  1.
         11    1    3    3    0    0  0.15942439376E+02 -0.18166225012E+02 -0.11118642252E+02  0.26604460345E+02  0.51100000000E-03 0. -1.
        -11    1    3    3    0    0  0.12709158912E+02  0.54800026708E+01 -0.65642098475E+01  0.15318028617E+02  0.51100000000E-03 0.  1.
        -12    1    3    3    0    0 -0.60880380849E+01  0.15597533633E+02 -0.46583103122E+01  0.17379502815E+02  0.00000000000E+00 0.  1.
</event>
<event>
 7    1  0.7284210E-013  0.5930193E+02  0.7816164E-02  0.1266605E+00
        -11   -1    0    0    0    0  0.00000000000E+00  0.00000000000E+00  0.45593999997E+02  0.45594000000E+02  0.51100000000E-03 0.  1.
         11   -1    0    0    0    0 -0.00000000000E+00 -0.00000000000E+00 -0.45593999997E+02  0.45594000000E+02  0.51100000000E-03 0. -1.
    9900012    2    1    2    0    0 -0.18758759678E+02 -0.22575213962E+02 -0.12457520446E+02  0.59301934615E+02  0.49999982833E+02 0.  0.
        -12    1    1    2    0    0  0.18758759678E+02  0.22575213962E+02  0.12457520446E+02  0.31886065385E+02  0.00000000000E+00 0.  1.
         11    1    3    3    0    0 -0.58470629870E+01 -0.16374771506E+02  0.86326019010E+01  0.19412447123E+02  0.51100000000E-03 0. -1.
        -11    1    3    3    0    0 -0.76344816077E+01  0.11687117722E+02 -0.38233539115E+01  0.14473840729E+02  0.51100000000E-03 0.  1.
         12    1    3    3    0    0 -0.52772150833E+01 -0.17887560178E+02 -0.17266768436E+02  0.25415646763E+02  0.00000000000E+00 0. -1.
</event>
<event>
 7    1  0.7284210E-013  0.5930193E+02  0.7816164E-02  0.1266605E+00
        -11   -1    0    0    0    0  0.00000000000E+00  0.00000000000E+00  0.45593999997E+02  0.45594000000E+02  0.51100000000E-03 0. -1.
         11   -1    0    0    0    0 -0.00000000000E+00 -0.00000000000E+00 -0.45593999997E+02  0.45594000000E+02  0.51100000000E-03 0.  1.
    9900012    2    1    2    0    0  0.15603766175E+02 -0.21891172077E+02  0.17147024251E+02  0.59301931343E+02  0.49999976865E+02 0.  0.
        -12    1    1    2    0    0 -0.15603766175E+02  0.21891172077E+02 -0.17147024251E+02  0.31886068657E+02  0.00000000000E+00 0.  1.
         11    1    3    3    0    0 -0.73460854107E+01 -0.81203913635E+01  0.42343265911E+01  0.11740325749E+02  0.51100000000E-03 0. -1.
        -11    1    3    3    0    0 -0.58420904984E+01 -0.28382316348E+01 -0.80225049813E+01  0.10322120259E+02  0.51100000000E-03 0.  1.
        -12    1    3    3    0    0  0.28791942084E+02 -0.10932549079E+02  0.20935202642E+02  0.37239485334E+02  0.00000000000E+00 0.  1.
</event>
<event>
 7    1  0.7284210E-013  0.5930195E+02  0.7816164E-02  0.1266605E+00
        -11   -1    0    0    0    0  0.00000000000E+00  0.00000000000E+00  0.45593999997E+02  0.45594000000E+02  0.51100000000E-03 0.  1.
         11   -1    0    0    0    0 -0.00000000000E+00 -0.00000000000E+00 -0.45593999997E+02  0.45594000000E+02  0.51100000000E-03 0. -1.
    9900012    2    1    2    0    0 -0.64419139878E+01 -0.21958094910E+02 -0.22205049512E+02  0.59301946438E+02  0.50000004396E+02 0.  0.
        -12    1    1    2    0    0  0.64419139878E+01  0.21958094910E+02  0.22205049512E+02  0.31886053562E+02  0.00000000000E+00 0.  1.
         11    1    3    3    0    0 -0.21926286186E+01 -0.55056279226E+01 -0.38889231334E+01  0.70882496062E+01  0.51100000000E-03 0. -1.
        -11    1    3    3    0    0 -0.16723294444E+02 -0.20149602227E+02 -0.26166485163E+02  0.37018373722E+02  0.51100000000E-03 0.  1.
        -12    1    3    3    0    0  0.12474009075E+02  0.36971352399E+01  0.78503587839E+01  0.15195323110E+02  0.00000000000E+00 0.  1.
</event>
<event>
 7    1  0.7284210E-013  0.5930199E+02  0.7816164E-02  0.1266605E+00
        -11   -1    0    0    0    0  0.00000000000E+00  0.00000000000E+00  0.45593999997E+02  0.45594000000E+02  0.51100000000E-03 0.  1.
         11   -1    0    0    0    0 -0.00000000000E+00 -0.00000000000E+00 -0.45593999997E+02  0.45594000000E+02  0.51100000000E-03 0. -1.
    9900012    2    1    2    0    0  0.18558094953E+01 -0.25299863406E+02 -0.19318141695E+02  0.59301988713E+02  0.50000081494E+02 0.  0.
        -12    1    1    2    0    0 -0.18558094953E+01  0.25299863406E+02  0.19318141695E+02  0.31886011287E+02  0.00000000000E+00 0.  1.
         11    1    3    3    0    0  0.14623833779E+02 -0.37915928749E+01 -0.13382802174E+02  0.20182469750E+02  0.51100000000E-03 0. -1.
        -11    1    3    3    0    0  0.68365513115E+01 -0.16546317063E+02  0.46196773765E+00  0.17909004903E+02  0.51100000000E-03 0.  1.
         12    1    3    3    0    0 -0.19604575595E+02 -0.49619534690E+01 -0.63973072583E+01  0.21210514059E+02  0.00000000000E+00 0. -1.
</event>
<event>
 7    1  0.7284210E-013  0.5930194E+02  0.7816164E-02  0.1266605E+00
        -11   -1    0    0    0    0  0.00000000000E+00  0.00000000000E+00  0.45593999997E+02  0.45594000000E+02  0.51100000000E-03 0.  1.
         11   -1    0    0    0    0 -0.00000000000E+00 -0.00000000000E+00 -0.45593999997E+02  0.45594000000E+02  0.51100000000E-03 0. -1.
    9900012    2    1    2    0    0  0.19994243559E+02 -0.48906630656E+01 -0.24352252838E+02  0.59301943815E+02  0.49999999612E+02 0.  0.
        -12    1    1    2    0    0 -0.19994243559E+02  0.48906630656E+01  0.24352252838E+02  0.31886056185E+02  0.00000000000E+00 0.  1.
         11    1    3    3    0    0 -0.44259776567E+01 -0.16401154326E+01 -0.25021050778E+01  0.53422642139E+01  0.51100000000E-03 0. -1.
        -11    1    3    3    0    0  0.22142442730E+02 -0.17968620741E+02 -0.12547512930E+01  0.28543536965E+02  0.51100000000E-03 0.  1.
         12    1    3    3    0    0  0.22777784854E+01  0.14718073108E+02 -0.20595396468E+02  0.25416142636E+02  0.00000000000E+00 0. -1.
</event>
<event>
 7    1  0.7284210E-013  0.5930195E+02  0.7816164E-02  0.1266605E+00
        -11   -1    0    0    0    0  0.00000000000E+00  0.00000000000E+00  0.45593999997E+02  0.45594000000E+02  0.51100000000E-03 0.  1.
         11   -1    0    0    0    0 -0.00000000000E+00 -0.00000000000E+00 -0.45593999997E+02  0.45594000000E+02  0.51100000000E-03 0. -1.
    9900012    2    1    2    0    0  0.69316411837E+01  0.19868685153E+02 -0.23956375353E+02  0.59301949456E+02  0.50000009901E+02 0.  0.
        -12    1    1    2    0    0 -0.69316411837E+01 -0.19868685153E+02  0.23956375353E+02  0.31886050544E+02  0.00000000000E+00 0.  1.
         11    1    3    3    0    0 -0.25918949498E+00  0.13133766398E+02 -0.12283289480E+02  0.17984498873E+02  0.51100000000E-03 0. -1.
        -11    1    3    3    0    0 -0.68915572053E+00  0.12903232200E+02 -0.22890044110E+02  0.26285403867E+02  0.51100000000E-03 0.  1.
        -12    1    3    3    0    0  0.78799863992E+01 -0.61683134458E+01  0.11216958237E+02  0.15032046717E+02  0.00000000000E+00 0.  1.
</event>
<event>
 7    1  0.7284210E-013  0.5930195E+02  0.7816164E-02  0.1266605E+00
        -11   -1    0    0    0    0  0.00000000000E+00  0.00000000000E+00  0.45593999997E+02  0.45594000000E+02  0.51100000000E-03 0. -1.
         11   -1    0    0    0    0 -0.00000000000E+00 -0.00000000000E+00 -0.45593999997E+02  0.45594000000E+02  0.51100000000E-03 0.  1.
    9900012    2    1    2    0    0 -0.19292176228E+02  0.13297689313E+02  0.21626453182E+02  0.59301951610E+02  0.50000013829E+02 0.  0.
        -12    1    1    2    0    0  0.19292176228E+02 -0.13297689313E+02 -0.21626453182E+02  0.31886048390E+02  0.00000000000E+00 0.  1.
         11    1    3    3    0    0  0.54629349918E+01  0.21907751241E+01 -0.21030755591E+01  0.62502865085E+01  0.51100000000E-03 0. -1.
        -11    1    3    3    0    0 -0.26016453356E+02 -0.59143451949E+00 -0.59593455941E+00  0.26029997661E+02  0.51100000000E-03 0.  1.
         12    1    3    3    0    0  0.12613421353E+01  0.11698348708E+02  0.24325463300E+02  0.27021667440E+02  0.00000000000E+00 0. -1.
</event>
<event>
 7    1  0.7284210E-013  0.5930194E+02  0.7816164E-02  0.1266605E+00
        -11   -1    0    0    0    0  0.00000000000E+00  0.00000000000E+00  0.45593999997E+02  0.45594000000E+02  0.51100000000E-03 0.  1.
         11   -1    0    0    0    0 -0.00000000000E+00 -0.00000000000E+00 -0.45593999997E+02  0.45594000000E+02  0.51100000000E-03 0. -1.
    9900012    2    1    2    0    0  0.14928349284E+02 -0.13649040948E+01  0.28142530514E+02  0.59301943498E+02  0.49999999033E+02 0.  0.
        -12    1    1    2    0    0 -0.14928349284E+02  0.13649040948E+01 -0.28142530514E+02  0.31886056502E+02  0.00000000000E+00 0.  1.
         11    1    3    3    0    0 -0.68808246689E+01 -0.66315262846E+01  0.21103275440E+02  0.23166163332E+02  0.51100000000E-03 0.  1.
        -11    1    3    3    0    0  0.10984704325E+02 -0.10364933551E+02  0.80138270977E+01  0.17097280533E+02  0.51100000000E-03 0. -1.
         12    1    3    3    0    0  0.10824469628E+02  0.15631555741E+02 -0.97457202341E+00  0.19038499632E+02  0.00000000000E+00 0. -1.
</event>
<event>
 7    1  0.7284210E-013  0.5930196E+02  0.7816164E-02  0.1266605E+00
        -11   -1    0    0    0    0  0.00000000000E+00  0.00000000000E+00  0.45593999997E+02  0.45594000000E+02  0.51100000000E-03 0. -1.
         11   -1    0    0    0    0 -0.00000000000E+00 -0.00000000000E+00 -0.45593999997E+02  0.45594000000E+02  0.51100000000E-03 0.  1.
    9900012    2    1    2    0    0  0.20735121933E+02 -0.20939442373E+02  0.12178423821E+02  0.59301960183E+02  0.50000029463E+02 0.  0.
        -12    1    1    2    0    0 -0.20735121933E+02  0.20939442373E+02 -0.12178423821E+02  0.31886039817E+02  0.00000000000E+00 0.  1.
         11    1    3    3    0    0  0.66612817807E+01 -0.31345684925E+02 -0.14678310554E+01  0.32079263811E+02  0.51100000000E-03 0. -1.
        -11    1    3    3    0    0 -0.11319768259E+01 -0.12144891353E+01 -0.19310163292E+01  0.25466016019E+01  0.51100000000E-03 0.  1.
        -12    1    3    3    0    0  0.15205816978E+02  0.11620731687E+02  0.15577271205E+02  0.24676094770E+02  0.00000000000E+00 0.  1.
</event>
<event>
 7    1  0.7284210E-013  0.5930195E+02  0.7816164E-02  0.1266605E+00
        -11   -1    0    0    0    0  0.00000000000E+00  0.00000000000E+00  0.45593999997E+02  0.45594000000E+02  0.51100000000E-03 0. -1.
         11   -1    0    0    0    0 -0.00000000000E+00 -0.00000000000E+00 -0.45593999997E+02  0.45594000000E+02  0.51100000000E-03 0.  1.
    9900012    2    1    2    0    0 -0.24580936465E+02 -0.14918789904E+02  0.13781408965E+02  0.59301953479E+02  0.50000017236E+02 0.  0.
        -12    1    1    2    0    0  0.24580936465E+02  0.14918789904E+02 -0.13781408965E+02  0.31886046521E+02  0.00000000000E+00 0.  1.
         11    1    3    3    0    0 -0.19835234658E+01 -0.92142369113E+01 -0.19750674573E+01  0.96300269428E+01  0.51100000000E-03 0. -1.
        -11    1    3    3    0    0  0.63546586718E+01  0.99256129848E+01 -0.24952299309E+01  0.12046810890E+02  0.51100000000E-03 0.  1.
         12    1    3    3    0    0 -0.28952071671E+02 -0.15630165978E+02  0.18251706353E+02  0.37625115645E+02  0.00000000000E+00 0. -1.
</event>
<event>
 7    1  0.7284210E-013  0.5930194E+02  0.7816164E-02  0.1266605E+00
        -11   -1    0    0    0    0  0.00000000000E+00  0.00000000000E+00  0.45593999997E+02  0.45594000000E+02  0.51100000000E-03 0.  1.
         11   -1    0    0    0    0 -0.00000000000E+00 -0.00000000000E+00 -0.45593999997E+02  0.45594000000E+02  0.51100000000E-03 0. -1.
    9900012    2    1    2    0    0 -0.19479555965E+02 -0.12690608680E+02 -0.21822375835E+02  0.59301941348E+02  0.49999995113E+02 0.  0.
        -12    1    1    2    0    0  0.19479555965E+02  0.12690608680E+02  0.21822375835E+02  0.31886058652E+02  0.00000000000E+00 0.  1.
         11    1    3    3    0    0 -0.41779464745E+01  0.39030149176E+01 -0.27196762196E+02  0.27791233085E+02  0.51100000000E-03 0. -1.
        -11    1    3    3    0    0 -0.22805461001E+00 -0.35137927387E+01 -0.71352787065E+01  0.79568178813E+01  0.51100000000E-03 0.  1.
        -12    1    3    3    0    0 -0.15073554880E+02 -0.13079830858E+02  0.12509665067E+02  0.23553890382E+02  0.00000000000E+00 0.  1.
</event>
<event>
 7    1  0.7284210E-013  0.5930187E+02  0.7816164E-02  0.1266605E+00
        -11   -1    0    0    0    0  0.00000000000E+00  0.00000000000E+00  0.45593999997E+02  0.45594000000E+02  0.51100000000E-03 0. -1.
         11   -1    0    0    0    0 -0.00000000000E+00 -0.00000000000E+00 -0.45593999997E+02  0.45594000000E+02  0.51100000000E-03 0.  1.
    9900012    2    1    2    0    0 -0.10420676654E+02 -0.32312744017E+01  0.29961532845E+02  0.59301873133E+02  0.49999870704E+02 0.  0.
        -12    1    1    2    0    0  0.10420676654E+02  0.32312744017E+01 -0.29961532845E+02  0.31886126867E+02  0.00000000000E+00 0.  1.
         11    1    3    3    0    0  0.38050815450E+01  0.27076000082E+01  0.99130079640E+01  0.10957986609E+02  0.51100000000E-03 0. -1.
        -11    1    3    3    0    0  0.41608839962E+01  0.12764159219E+01  0.27042501233E+02  0.27390492264E+02  0.51100000000E-03 0.  1.
        -12    1    3    3    0    0 -0.18386642196E+02 -0.72152903318E+01 -0.69939763524E+01  0.20953394260E+02  0.00000000000E+00 0.  1.
</event>
<event>
 7    1  0.7284210E-013  0.5930198E+02  0.7816164E-02  0.1266605E+00
        -11   -1    0    0    0    0  0.00000000000E+00  0.00000000000E+00  0.45593999997E+02  0.45594000000E+02  0.51100000000E-03 0. -1.
         11   -1    0    0    0    0 -0.00000000000E+00 -0.00000000000E+00 -0.45593999997E+02  0.45594000000E+02  0.51100000000E-03 0.  1.
    9900012    2    1    2    0    0 -0.50433875195E+01 -0.24704304986E+02  0.19518703163E+02  0.59301980874E+02  0.50000067199E+02 0.  0.
        -12    1    1    2    0    0  0.50433875195E+01  0.24704304986E+02 -0.19518703163E+02  0.31886019126E+02  0.00000000000E+00 0.  1.
         11    1    3    3    0    0  0.77019201802E+00 -0.12125465901E+01 -0.11844061140E+01  0.18617956605E+01  0.51100000000E-03 0. -1.
        -11    1    3    3    0    0  0.20795199354E+02 -0.76763071860E+01  0.49696383049E+01  0.22717026948E+02  0.51100000000E-03 0.  1.
         12    1    3    3    0    0 -0.26608778892E+02 -0.15815451210E+02  0.15733470972E+02  0.34723158266E+02  0.00000000000E+00 0. -1.
</event>
<event>
 7    1  0.7284210E-013  0.5930194E+02  0.7816164E-02  0.1266605E+00
        -11   -1    0    0    0    0  0.00000000000E+00  0.00000000000E+00  0.45593999997E+02  0.45594000000E+02  0.51100000000E-03 0.  1.
         11   -1    0    0    0    0 -0.00000000000E+00 -0.00000000000E+00 -0.45593999997E+02  0.45594000000E+02  0.51100000000E-03 0. -1.
    9900012    2    1    2    0    0 -0.23826229205E+01  0.22593832197E+02 -0.22373255764E+02  0.59301941623E+02  0.49999995615E+02 0.  0.
        -12    1    1    2    0    0  0.23826229205E+01 -0.22593832197E+02  0.22373255764E+02  0.31886058377E+02  0.00000000000E+00 0.  1.
         11    1    3    3    0    0  0.37411140772E+01  0.28933572552E+02 -0.10114270185E+02  0.30877921186E+02  0.51100000000E-03 0. -1.
        -11    1    3    3    0    0 -0.81362514275E+01  0.38907547592E+01  0.33772366462E+01  0.96302797215E+01  0.51100000000E-03 0.  1.
        -12    1    3    3    0    0  0.20125144299E+01 -0.10230495114E+02 -0.15636222225E+02  0.18793740715E+02  0.00000000000E+00 0.  1.
</event>
<event>
 7    1  0.7284210E-013  0.5930195E+02  0.7816164E-02  0.1266605E+00
        -11   -1    0    0    0    0  0.00000000000E+00  0.00000000000E+00  0.45593999997E+02  0.45594000000E+02  0.51100000000E-03 0.  1.
         11   -1    0    0    0    0 -0.00000000000E+00 -0.00000000000E+00 -0.45593999997E+02  0.45594000000E+02  0.51100000000E-03 0. -1.
    9900012    2    1    2    0    0 -0.21862199780E+02 -0.20780213647E+02  0.10341526946E+02  0.59301949163E+02  0.50000009365E+02 0.  0.
        -12    1    1    2    0    0  0.21862199780E+02  0.20780213647E+02 -0.10341526946E+02  0.31886050837E+02  0.00000000000E+00 0.  1.
         11    1    3    3    0    0 -0.25523981594E+02  0.17858440030E+01  0.52544200412E+01  0.26120333180E+02  0.51100000000E-03 0. -1.
        -11    1    3    3    0    0 -0.23674482652E+01 -0.10254452468E+01 -0.72086454618E+01  0.76564299055E+01  0.51100000000E-03 0.  1.
        -12    1    3    3    0    0  0.60292300791E+01 -0.21540612403E+02  0.12295752367E+02  0.25525186078E+02  0.00000000000E+00 0.  1.
</event>
<event>
 7    1  0.7284210E-013  0.5930193E+02  0.7816164E-02  0.1266605E+00
        -11   -1    0    0    0    0  0.00000000000E+00  0.00000000000E+00  0.45593999997E+02  0.45594000000E+02  0.51100000000E-03 0.  1.
         11   -1    0    0    0    0 -0.00000000000E+00 -0.00000000000E+00 -0.45593999997E+02  0.45594000000E+02  0.51100000000E-03 0. -1.
    9900012    2    1    2    0    0  0.25220416746E+02 -0.17255484599E+02 -0.91049425814E+01  0.59301934877E+02  0.49999983312E+02 0.  0.
        -12    1    1    2    0    0 -0.25220416746E+02  0.17255484599E+02  0.91049425814E+01  0.31886065123E+02  0.00000000000E+00 0.  1.
         11    1    3    3    0    0  0.18668474036E+02 -0.17274586043E+01  0.36272595042E+01  0.19095890862E+02  0.51100000000E-03 0. -1.
        -11    1    3    3    0    0  0.60986995707E+00 -0.18683847153E+02  0.65308845138E+01  0.19801781198E+02  0.51100000000E-03 0.  1.
        -12    1    3    3    0    0  0.59420727532E+01  0.31558211582E+01 -0.19263086599E+02  0.20404262817E+02  0.00000000000E+00 0.  1.
</event>
<event>
 7    1  0.7284210E-013  0.5930193E+02  0.7816164E-02  0.1266605E+00
        -11   -1    0    0    0    0  0.00000000000E+00  0.00000000000E+00  0.45593999997E+02  0.45594000000E+02  0.51100000000E-03 0.  1.
         11   -1    0    0    0    0 -0.00000000000E+00 -0.00000000000E+00 -0.45593999997E+02  0.45594000000E+02  0.51100000000E-03 0. -1.
    9900012    2    1    2    0    0 -0.25826161821E+02  0.17647988717E+02  0.61870449181E+01  0.59301926787E+02  0.49999968556E+02 0.  0.
        -12    1    1    2    0    0  0.25826161821E+02 -0.17647988717E+02 -0.61870449181E+01  0.31886073213E+02  0.00000000000E+00 0.  1.
         11    1    3    3    0    0 -0.20053332667E+02  0.39573774758E-01  0.94562808070E+01  0.22171129066E+02  0.51100000000E-03 0. -1.
        -11    1    3    3    0    0  0.86198601346E+01  0.78183611943E+01  0.99199435980E+01  0.15291633064E+02  0.51100000000E-03 0.  1.
         12    1    3    3    0    0 -0.14392689289E+02  0.97900537483E+01 -0.13189179487E+02  0.21839164656E+02  0.00000000000E+00 0. -1.
</event>
<event>
 7    1  0.7284210E-013  0.5930193E+02  0.7816164E-02  0.1266605E+00
        -11   -1    0    0    0    0  0.00000000000E+00  0.00000000000E+00  0.45593999997E+02  0.45594000000E+02  0.51100000000E-03 0.  1.
         11   -1    0    0    0    0 -0.00000000000E+00 -0.00000000000E+00 -0.45593999997E+02  0.45594000000E+02  0.51100000000E-03 0. -1.
    9900012    2    1    2    0    0  0.12094517628E+02 -0.27380623713E+02 -0.10988426265E+02  0.59301930576E+02  0.49999975467E+02 0.  0.
        -12    1    1    2    0    0 -0.12094517628E+02  0.27380623713E+02  0.10988426265E+02  0.31886069424E+02  0.00000000000E+00 0.  1.
         11    1    3    3    0    0  0.52574802974E+01 -0.24719109563E+02 -0.66381440245E+01  0.26129302191E+02  0.51100000000E-03 0. -1.
        -11    1    3    3    0    0 -0.55147848138E+01 -0.67617997890E+01  0.10351173135E+02  0.13538152513E+02  0.51100000000E-03 0.  1.
        -12    1    3    3    0    0  0.12351822144E+02  0.41002856389E+01 -0.14701455375E+02  0.19634475871E+02  0.00000000000E+00 0.  1.
</event>
<event>
 7    1  0.7284210E-013  0.5930199E+02  0.7816164E-02  0.1266605E+00
        -11   -1    0    0    0    0  0.00000000000E+00  0.00000000000E+00  0.45593999997E+02  0.45594000000E+02  0.51100000000E-03 0. -1.
         11   -1    0    0    0    0 -0.00000000000E+00 -0.00000000000E+00 -0.45593999997E+02  0.45594000000E+02  0.51100000000E-03 0.  1.
    9900012    2    1    2    0    0  0.24567763085E+02 -0.10137777067E+02  0.17617263831E+02  0.59301992226E+02  0.50000087902E+02 0.  0.
        -12    1    1    2    0    0 -0.24567763085E+02  0.10137777067E+02 -0.17617263831E+02  0.31886007774E+02  0.00000000000E+00 0.  1.
         11    1    3    3    0    0 -0.24635587913E+01 -0.70002117631E+01 -0.85185672686E+01  0.11297702210E+02  0.51100000000E-03 0. -1.
        -11    1    3    3    0    0  0.44000501040E+01 -0.62590917503E+01 -0.51810018518E+01  0.92401001567E+01  0.51100000000E-03 0.  1.
         12    1    3    3    0    0  0.22631271772E+02  0.31215264461E+01  0.31316832952E+02  0.38764189860E+02  0.00000000000E+00 0. -1.
</event>
<event>
 7    1  0.7284210E-013  0.5930194E+02  0.7816164E-02  0.1266605E+00
        -11   -1    0    0    0    0  0.00000000000E+00  0.00000000000E+00  0.45593999997E+02  0.45594000000E+02  0.51100000000E-03 0. -1.
         11   -1    0    0    0    0 -0.00000000000E+00 -0.00000000000E+00 -0.45593999997E+02  0.45594000000E+02  0.51100000000E-03 0.  1.
    9900012    2    1    2    0    0 -0.51153820352E+01  0.31414610746E+02 -0.19172655641E+01  0.59301940210E+02  0.49999993038E+02 0.  0.
        -12    1    1    2    0    0  0.51153820352E+01 -0.31414610746E+02  0.19172655641E+01  0.31886059790E+02  0.00000000000E+00 0.  1.
         11    1    3    3    0    0  0.55445716915E+01  0.42501637934E+01  0.29922188677E+01  0.75999698372E+01  0.51100000000E-03 0. -1.
        -11    1    3    3    0    0  0.80200024610E+01  0.16108323499E+02  0.14090264498E+02  0.22854629275E+02  0.51100000000E-03 0.  1.
         12    1    3    3    0    0 -0.18679956188E+02  0.11056123453E+02 -0.18999748930E+02  0.28847341098E+02  0.00000000000E+00 0. -1.
</event>
<event>
 7    1  0.7284210E-013  0.5930176E+02  0.7816164E-02  0.1266605E+00
        -11   -1    0    0    0    0  0.00000000000E+00  0.00000000000E+00  0.45593999997E+02  0.45594000000E+02  0.51100000000E-03 0. -1.
         11   -1    0    0    0    0 -0.00000000000E+00 -0.00000000000E+00 -0.45593999997E+02  0.45594000000E+02  0.51100000000E-03 0.  1.
    9900012    2    1    2    0    0 -0.59776138381E+01  0.15397963927E+02  0.27274590390E+02  0.59301757806E+02  0.49999660375E+02 0.  0.
        -12    1    1    2    0    0  0.59776138381E+01 -0.15397963927E+02 -0.27274590390E+02  0.31886242194E+02  0.00000000000E+00 0.  1.
         11    1    3    3    0    0  0.24573489271E+01  0.16421989089E+02  0.15202667299E+02  0.22513138001E+02  0.51100000000E-03 0. -1.
        -11    1    3    3    0    0 -0.26958956230E+01  0.77343018758E+01 -0.96603254449E+01  0.12665274047E+02  0.51100000000E-03 0.  1.
        -12    1    3    3    0    0 -0.57390671422E+01 -0.87583270374E+01  0.21732248536E+02  0.24123345759E+02  0.00000000000E+00 0.  1.
</event>
<event>
 7    1  0.7284210E-013  0.5930196E+02  0.7816164E-02  0.1266605E+00
        -11   -1    0    0    0    0  0.00000000000E+00  0.00000000000E+00  0.45593999997E+02  0.45594000000E+02  0.51100000000E-03 0.  1.
         11   -1    0    0    0    0 -0.00000000000E+00 -0.00000000000E+00 -0.45593999997E+02  0.45594000000E+02  0.51100000000E-03 0. -1.
    9900012    2    1    2    0    0  0.23739305052E+02 -0.64212831874E+00 -0.21277981302E+02  0.59301961968E+02  0.50000032718E+02 0.  0.
        -12    1    1    2    0    0 -0.23739305052E+02  0.64212831874E+00  0.21277981302E+02  0.31886038032E+02  0.00000000000E+00 0.  1.
         11    1    3    3    0    0  0.27743878271E+01 -0.48907636010E+01 -0.20313134432E+02  0.21077007073E+02  0.51100000000E-03 0. -1.
        -11    1    3    3    0    0  0.49689643667E+01  0.16650350450E+02 -0.38009252750E+01  0.17786843739E+02  0.51100000000E-03 0.  1.
         12    1    3    3    0    0  0.15995952858E+02 -0.12401715167E+02  0.28360784056E+01  0.20438111156E+02  0.00000000000E+00 0. -1.
</event>
<event>
 7    1  0.7284210E-013  0.5930193E+02  0.7816164E-02  0.1266605E+00
        -11   -1    0    0    0    0  0.00000000000E+00  0.00000000000E+00  0.45593999997E+02  0.45594000000E+02  0.51100000000E-03 0. -1.
         11   -1    0    0    0    0 -0.00000000000E+00 -0.00000000000E+00 -0.45593999997E+02  0.45594000000E+02  0.51100000000E-03 0.  1.
    9900012    2    1    2    0    0  0.19034680660E+02 -0.25399994949E+02  0.30401678842E+01  0.59301930440E+02  0.49999975219E+02 0.  0.
        -12    1    1    2    0    0 -0.19034680660E+02  0.25399994949E+02 -0.30401678842E+01  0.31886069560E+02  0.00000000000E+00 0.  1.
         11    1    3    3    0    0 -0.78540570549E+01 -0.70897224441E+01  0.12794959885E+01  0.10657743044E+02  0.51100000000E-03 0. -1.
        -11    1    3    3    0    0  0.96548053593E+00 -0.65007879125E+01 -0.14445627184E+02  0.15870366761E+02  0.51100000000E-03 0.  1.
         12    1    3    3    0    0  0.25923257179E+02 -0.11809484592E+02  0.16206299080E+02  0.32773820634E+02  0.00000000000E+00 0. -1.
</event>
<event>
 7    1  0.7284210E-013  0.5930199E+02  0.7816164E-02  0.1266605E+00
        -11   -1    0    0    0    0  0.00000000000E+00  0.00000000000E+00  0.45593999997E+02  0.45594000000E+02  0.51100000000E-03 0. -1.
         11   -1    0    0    0    0 -0.00000000000E+00 -0.00000000000E+00 -0.45593999997E+02  0.45594000000E+02  0.51100000000E-03 0.  1.
    9900012    2    1    2    0    0 -0.14960124275E+02  0.35684995441E+00  0.28156434467E+02  0.59301992691E+02  0.50000088750E+02 0.  0.
        -12    1    1    2    0    0  0.14960124275E+02 -0.35684995441E+00 -0.28156434467E+02  0.31886007309E+02  0.00000000000E+00 0.  1.
         11    1    3    3    0    0  0.47112246217E+01 -0.79436450812E+00  0.33012648069E+02  0.33356582336E+02  0.51100000000E-03 0. -1.
        -11    1    3    3    0    0 -0.48263165801E+01  0.56172223362E+01  0.36568359147E+01  0.82594774455E+01  0.51100000000E-03 0.  1.
        -12    1    3    3    0    0 -0.14845032316E+02 -0.44660078736E+01 -0.85130495159E+01  0.17685932909E+02  0.00000000000E+00 0.  1.
</event>
<event>
 7    1  0.7284210E-013  0.5930208E+02  0.7816164E-02  0.1266604E+00
        -11   -1    0    0    0    0  0.00000000000E+00  0.00000000000E+00  0.45593999997E+02  0.45594000000E+02  0.51100000000E-03 0. -1.
         11   -1    0    0    0    0 -0.00000000000E+00 -0.00000000000E+00 -0.45593999997E+02  0.45594000000E+02  0.51100000000E-03 0.  1.
    9900012    2    1    2    0    0  0.91551096695E+01 -0.25418263874E+02 -0.16935398696E+02  0.59302079903E+02  0.50000247803E+02 0.  0.
        -12    1    1    2    0    0 -0.91551096695E+01  0.25418263874E+02  0.16935398696E+02  0.31885920097E+02  0.00000000000E+00 0.  1.
         11    1    3    3    0    0  0.63096839169E+01 -0.10466747237E+02 -0.11206654927E+01  0.12272766610E+02  0.51100000000E-03 0. -1.
        -11    1    3    3    0    0  0.19042505662E+02 -0.19709026738E+02 -0.94921033143E+01  0.29002806458E+02  0.51100000000E-03 0.  1.
        -12    1    3    3    0    0 -0.16197079909E+02  0.47575101010E+01 -0.63226298890E+01  0.18026506835E+02  0.00000000000E+00 0.  1.
</event>
<event>
 7    1  0.7284210E-013  0.5930194E+02  0.7816164E-02  0.1266605E+00
        -11   -1    0    0    0    0  0.00000000000E+00  0.00000000000E+00  0.45593999997E+02  0.45594000000E+02  0.51100000000E-03 0.  1.
         11   -1    0    0    0    0 -0.00000000000E+00 -0.00000000000E+00 -0.45593999997E+02  0.45594000000E+02  0.51100000000E-03 0. -1.
    9900012    2    1    2    0    0 -0.21249988677E+02  0.15294405438E+02 -0.18199997020E+02  0.59301941165E+02  0.49999994780E+02 0.  0.
        -12    1    1    2    0    0  0.21249988677E+02 -0.15294405438E+02  0.18199997020E+02  0.31886058835E+02  0.00000000000E+00 0.  1.
         11    1    3    3    0    0 -0.86517372564E+01  0.13931550408E+02 -0.12594969690E+02  0.20677860530E+02  0.51100000000E-03 0. -1.
        -11    1    3    3    0    0 -0.22420217650E+02  0.74262399067E+01  0.35604333027E+01  0.23884971932E+02  0.51100000000E-03 0.  1.
         12    1    3    3    0    0  0.98219662292E+01 -0.60633848768E+01 -0.91654606324E+01  0.14739108704E+02  0.00000000000E+00 0. -1.
</event>
<event>
 7    1  0.7284210E-013  0.5930194E+02  0.7816164E-02  0.1266605E+00
        -11   -1    0    0    0    0  0.00000000000E+00  0.00000000000E+00  0.45593999997E+02  0.45594000000E+02  0.51100000000E-03 0. -1.
         11   -1    0    0    0    0 -0.00000000000E+00 -0.00000000000E+00 -0.45593999997E+02  0.45594000000E+02  0.51100000000E-03 0.  1.
    9900012    2    1    2    0    0 -0.48055060087E+01 -0.19988710560E+02  0.24373741817E+02  0.59301941478E+02  0.49999995351E+02 0.  0.
        -12    1    1    2    0    0  0.48055060087E+01  0.19988710560E+02 -0.24373741817E+02  0.31886058522E+02  0.00000000000E+00 0.  1.
         11    1    3    3    0    0  0.18609446148E+02 -0.14462742716E+02  0.19434282446E+02  0.30547892681E+02  0.51100000000E-03 0. -1.
        -11    1    3    3    0    0 -0.13719626603E+02 -0.78045953427E+01  0.88011668286E+01  0.18072088988E+02  0.51100000000E-03 0.  1.
        -12    1    3    3    0    0 -0.96953255538E+01  0.22786274988E+01 -0.38617074573E+01  0.10681959809E+02  0.00000000000E+00 0.  1.
</event>
<event>
 7    1  0.7284210E-013  0.5930195E+02  0.7816164E-02  0.1266605E+00
        -11   -1    0    0    0    0  0.00000000000E+00  0.00000000000E+00  0.45593999997E+02  0.45594000000E+02  0.51100000000E-03 0. -1.
         11   -1    0    0    0    0 -0.00000000000E+00 -0.00000000000E+00 -0.45593999997E+02  0.45594000000E+02  0.51100000000E-03 0.  1.
    9900012    2    1    2    0    0 -0.31001761395E+02  0.67128657258E+01 -0.32478218105E+01  0.59301950976E+02  0.50000012673E+02 0.  0.
        -12    1    1    2    0    0  0.31001761395E+02 -0.67128657258E+01  0.32478218105E+01  0.31886049024E+02  0.00000000000E+00 0.  1.
         11    1    3    3    0    0 -0.10673810375E+02 -0.94319668497E+01  0.12862248002E+02  0.19191916280E+02  0.51100000000E-03 0. -1.
        -11    1    3    3    0    0  0.53827589986E+01  0.35498340095E+01  0.13338908235E+01  0.65844271522E+01  0.51100000000E-03 0.  1.
         12    1    3    3    0    0 -0.25710710018E+02  0.12594998566E+02 -0.17443960636E+02  0.33525607544E+02  0.00000000000E+00 0. -1.
</event>
<event>
 7    1  0.7284210E-013  0.5930194E+02  0.7816164E-02  0.1266605E+00
        -11   -1    0    0    0    0  0.00000000000E+00  0.00000000000E+00  0.45593999997E+02  0.45594000000E+02  0.51100000000E-03 0. -1.
         11   -1    0    0    0    0 -0.00000000000E+00 -0.00000000000E+00 -0.45593999997E+02  0.45594000000E+02  0.51100000000E-03 0.  1.
    9900012    2    1    2    0    0 -0.92836589112E+00 -0.29478153080E+02  0.12120136020E+02  0.59301936126E+02  0.49999985590E+02 0.  0.
        -12    1    1    2    0    0  0.92836589112E+00  0.29478153080E+02 -0.12120136020E+02  0.31886063874E+02  0.00000000000E+00 0.  1.
         11    1    3    3    0    0  0.39101211742E+00 -0.12750966445E+02 -0.23112148664E+01  0.12964634595E+02  0.51100000000E-03 0. -1.
        -11    1    3    3    0    0 -0.52964458180E+01 -0.57258877600E+01 -0.13759034487E+02  0.15816104426E+02  0.51100000000E-03 0.  1.
         12    1    3    3    0    0  0.39770678095E+01 -0.11001298874E+02  0.28190385373E+02  0.30521197105E+02  0.00000000000E+00 0. -1.
</event>
<event>
 7    1  0.7284210E-013  0.5930193E+02  0.7816164E-02  0.1266605E+00
        -11   -1    0    0    0    0  0.00000000000E+00  0.00000000000E+00  0.45593999997E+02  0.45594000000E+02  0.51100000000E-03 0.  1.
         11   -1    0    0    0    0 -0.00000000000E+00 -0.00000000000E+00 -0.45593999997E+02  0.45594000000E+02  0.51100000000E-03 0. -1.
    9900012    2    1    2    0    0 -0.17900845995E+02  0.26369722160E+02 -0.95861239703E+00  0.59301929814E+02  0.49999974078E+02 0.  0.
        -12    1    1    2    0    0  0.17900845995E+02 -0.26369722160E+02  0.95861239703E+00  0.31886070186E+02  0.00000000000E+00 0.  1.
         11    1    3    3    0    0 -0.27859842218E+01  0.26152391772E+01  0.11935750401E+02  0.12532490652E+02  0.51100000000E-03 0.  1.
        -11    1    3    3    0    0 -0.15062251875E+02  0.12340209027E+02 -0.23958137642E+02  0.30873039207E+02  0.51100000000E-03 0. -1.
         12    1    3    3    0    0 -0.52609898330E-01  0.11414273956E+02  0.11063774843E+02  0.15896399955E+02  0.00000000000E+00 0. -1.
</event>
<event>
 7    1  0.7284210E-013  0.5930196E+02  0.7816164E-02  0.1266605E+00
        -11   -1    0    0    0    0  0.00000000000E+00  0.00000000000E+00  0.45593999997E+02  0.45594000000E+02  0.51100000000E-03 0. -1.
         11   -1    0    0    0    0 -0.00000000000E+00 -0.00000000000E+00 -0.45593999997E+02  0.45594000000E+02  0.51100000000E-03 0.  1.
    9900012    2    1    2    0    0 -0.30609049740E+02  0.62753615848E+01  0.63580935676E+01  0.59301961632E+02  0.50000032106E+02 0.  0.
        -12    1    1    2    0    0  0.30609049740E+02 -0.62753615848E+01 -0.63580935676E+01  0.31886038368E+02  0.00000000000E+00 0.  1.
         11    1    3    3    0    0 -0.12641810353E+02 -0.12914824808E+02  0.84287213335E+01  0.19941198871E+02  0.51100000000E-03 0. -1.
        -11    1    3    3    0    0 -0.82033156750E+01 -0.27046485602E+01  0.94159457180E+01  0.12777697207E+02  0.51100000000E-03 0.  1.
        -12    1    3    3    0    0 -0.97639237115E+01  0.21894834953E+02 -0.11486573484E+02  0.26583065554E+02  0.00000000000E+00 0.  1.
</event>
<event>
 7    1  0.7284210E-013  0.5930194E+02  0.7816164E-02  0.1266605E+00
        -11   -1    0    0    0    0  0.00000000000E+00  0.00000000000E+00  0.45593999997E+02  0.45594000000E+02  0.51100000000E-03 0.  1.
         11   -1    0    0    0    0 -0.00000000000E+00 -0.00000000000E+00 -0.45593999997E+02  0.45594000000E+02  0.51100000000E-03 0. -1.
    9900012    2    1    2    0    0 -0.14620956670E+02 -0.48137331072E+01 -0.27924471612E+02  0.59301944817E+02  0.50000001439E+02 0.  0.
        -12    1    1    2    0    0  0.14620956670E+02  0.48137331072E+01  0.27924471612E+02  0.31886055183E+02  0.00000000000E+00 0.  1.
         11    1    3    3    0    0  0.79642174403E+01 -0.52672929848E+01 -0.16348108113E+02  0.18932347291E+02  0.51100000000E-03 0. -1.
        -11    1    3    3    0    0 -0.56503856371E+01  0.10232280721E+02 -0.16484215991E+02  0.20207815411E+02  0.51100000000E-03 0.  1.
        -12    1    3    3    0    0 -0.16934788473E+02 -0.97787208436E+01  0.49078524916E+01  0.20161782114E+02  0.00000000000E+00 0.  1.
</event>
<event>
 7    1  0.7284210E-013  0.5930191E+02  0.7816164E-02  0.1266605E+00
        -11   -1    0    0    0    0  0.00000000000E+00  0.00000000000E+00  0.45593999997E+02  0.45594000000E+02  0.51100000000E-03 0.  1.
         11   -1    0    0    0    0 -0.00000000000E+00 -0.00000000000E+00 -0.45593999997E+02  0.45594000000E+02  0.51100000000E-03 0. -1.
    9900012    2    1    2    0    0 -0.64733257739E+00 -0.21849610143E+02  0.23214176292E+02  0.59301913947E+02  0.49999945140E+02 0.  0.
        -12    1    1    2    0    0  0.64733257739E+00  0.21849610143E+02 -0.23214176292E+02  0.31886086053E+02  0.00000000000E+00 0.  1.
         11    1    3    3    0    0 -0.11716140505E+02 -0.22602053612E+01  0.15744581125E+02  0.19755209735E+02  0.51100000000E-03 0.  1.
        -11    1    3    3    0    0 -0.25387244899E+01 -0.23646639761E+02  0.86298694590E+01  0.25299868402E+02  0.51100000000E-03 0. -1.
         12    1    3    3    0    0  0.13607532417E+02  0.40572349787E+01 -0.11602742924E+01  0.14246835810E+02  0.00000000000E+00 0. -1.
</event>
<event>
 7    1  0.7284210E-013  0.5930194E+02  0.7816164E-02  0.1266605E+00
        -11   -1    0    0    0    0  0.00000000000E+00  0.00000000000E+00  0.45593999997E+02  0.45594000000E+02  0.51100000000E-03 0.  1.
         11   -1    0    0    0    0 -0.00000000000E+00 -0.00000000000E+00 -0.45593999997E+02  0.45594000000E+02  0.51100000000E-03 0. -1.
    9900012    2    1    2    0    0 -0.13928962900E+02  0.28188078949E+02 -0.53044180917E+01  0.59301942646E+02  0.49999997480E+02 0.  0.
        -12    1    1    2    0    0  0.13928962900E+02 -0.28188078949E+02  0.53044180917E+01  0.31886057354E+02  0.00000000000E+00 0.  1.
         11    1    3    3    0    0  0.83273351577E+01 -0.18205823155E+01 -0.39289168265E+01  0.93859159642E+01  0.51100000000E-03 0. -1.
        -11    1    3    3    0    0  0.22564640014E+00 -0.46282779646E+01 -0.68407232804E+01  0.82624069420E+01  0.51100000000E-03 0.  1.
         12    1    3    3    0    0 -0.22481944457E+02  0.34636939229E+02  0.54652220152E+01  0.41653619740E+02  0.00000000000E+00 0. -1.
</event>
<event>
 7    1  0.7284210E-013  0.5930196E+02  0.7816164E-02  0.1266605E+00
        -11   -1    0    0    0    0  0.00000000000E+00  0.00000000000E+00  0.45593999997E+02  0.45594000000E+02  0.51100000000E-03 0. -1.
         11   -1    0    0    0    0 -0.00000000000E+00 -0.00000000000E+00 -0.45593999997E+02  0.45594000000E+02  0.51100000000E-03 0.  1.
    9900012    2    1    2    0    0 -0.17133987343E+02 -0.26581561695E+02  0.40702302823E+01  0.59301957302E+02  0.50000024208E+02 0.  0.
        -12    1    1    2    0    0  0.17133987343E+02  0.26581561695E+02 -0.40702302823E+01  0.31886042698E+02  0.00000000000E+00 0.  1.
         11    1    3    3    0    0  0.27566463183E+01  0.83772816601E+01  0.61258640445E+01  0.10737977346E+02  0.51100000000E-03 0. -1.
        -11    1    3    3    0    0 -0.88468713146E+00  0.45499316819E+01  0.40240348705E+00  0.46525776144E+01  0.51100000000E-03 0.  1.
         12    1    3    3    0    0 -0.19005946530E+02 -0.39508775037E+02 -0.24580372492E+01  0.43911402341E+02  0.00000000000E+00 0. -1.
</event>
<event>
 7    1  0.7284210E-013  0.5930199E+02  0.7816164E-02  0.1266605E+00
        -11   -1    0    0    0    0  0.00000000000E+00  0.00000000000E+00  0.45593999997E+02  0.45594000000E+02  0.51100000000E-03 0.  1.
         11   -1    0    0    0    0 -0.00000000000E+00 -0.00000000000E+00 -0.45593999997E+02  0.45594000000E+02  0.51100000000E-03 0. -1.
    9900012    2    1    2    0    0 -0.12245468123E+00 -0.10073175827E+02 -0.30252834642E+02  0.59301986291E+02  0.50000077078E+02 0.  0.
        -12    1    1    2    0    0  0.12245468123E+00  0.10073175827E+02  0.30252834642E+02  0.31886013709E+02  0.00000000000E+00 0.  1.
         11    1    3    3    0    0 -0.65708861189E+00 -0.45423611364E+01 -0.19833697971E+02  0.20357808959E+02  0.51100000000E-03 0. -1.
        -11    1    3    3    0    0  0.38978022806E+01 -0.21003755361E+02 -0.85110253610E+01  0.22995394209E+02  0.51100000000E-03 0.  1.
         12    1    3    3    0    0 -0.33631683499E+01  0.15472940670E+02 -0.19081113099E+01  0.15948783123E+02  0.00000000000E+00 0. -1.
</event>
<event>
 7    1  0.7284210E-013  0.5930196E+02  0.7816164E-02  0.1266605E+00
        -11   -1    0    0    0    0  0.00000000000E+00  0.00000000000E+00  0.45593999997E+02  0.45594000000E+02  0.51100000000E-03 0.  1.
         11   -1    0    0    0    0 -0.00000000000E+00 -0.00000000000E+00 -0.45593999997E+02  0.45594000000E+02  0.51100000000E-03 0. -1.
    9900012    2    1    2    0    0  0.10553298372E+01  0.12814328984E+02 -0.29178737924E+02  0.59301960810E+02  0.50000030606E+02 0.  0.
        -12    1    1    2    0    0 -0.10553298372E+01 -0.12814328984E+02  0.29178737924E+02  0.31886039190E+02  0.00000000000E+00 0.  1.
         11    1    3    3    0    0 -0.14400985847E+02  0.77151582384E+01 -0.20098349200E+02  0.25900882241E+02  0.51100000000E-03 0. -1.
        -11    1    3    3    0    0 -0.49675115710E+01 -0.67685116788E+01 -0.36981980885E+01  0.91741806673E+01  0.51100000000E-03 0.  1.
        -12    1    3    3    0    0  0.20423827255E+02  0.11867682425E+02 -0.53821906360E+01  0.24226897902E+02  0.00000000000E+00 0.  1.
</event>
<event>
 7    1  0.7284210E-013  0.5930195E+02  0.7816164E-02  0.1266605E+00
        -11   -1    0    0    0    0  0.00000000000E+00  0.00000000000E+00  0.45593999997E+02  0.45594000000E+02  0.51100000000E-03 0.  1.
         11   -1    0    0    0    0 -0.00000000000E+00 -0.00000000000E+00 -0.45593999997E+02  0.45594000000E+02  0.51100000000E-03 0. -1.
    9900012    2    1    2    0    0  0.25631914177E+02 -0.71082019714E+01 -0.17584044485E+02  0.59301950071E+02  0.50000011022E+02 0.  0.
        -12    1    1    2    0    0 -0.25631914177E+02  0.71082019714E+01  0.17584044485E+02  0.31886049929E+02  0.00000000000E+00 0.  1.
         11    1    3    3    0    0 -0.60746459988E+01  0.10331674619E+02  0.24699873201E+00  0.11987736779E+02  0.51100000000E-03 0.  1.
        -11    1    3    3    0    0 -0.29467157431E+01 -0.67325609745E+01 -0.13355708872E+01  0.74695555960E+01  0.51100000000E-03 0. -1.
         12    1    3    3    0    0  0.34653275919E+02 -0.10707315616E+02 -0.16495472329E+02  0.39844657697E+02  0.00000000000E+00 0. -1.
</event>
<event>
 7    1  0.7284210E-013  0.5930202E+02  0.7816164E-02  0.1266604E+00
        -11   -1    0    0    0    0  0.00000000000E+00  0.00000000000E+00  0.45593999997E+02  0.45594000000E+02  0.51100000000E-03 0. -1.
         11   -1    0    0    0    0 -0.00000000000E+00 -0.00000000000E+00 -0.45593999997E+02  0.45594000000E+02  0.51100000000E-03 0.  1.
    9900012    2    1    2    0    0 -0.12839544822E+02  0.63593019739E+01  0.28485450814E+02  0.59302022818E+02  0.50000143694E+02 0.  0.
        -12    1    1    2    0    0  0.12839544822E+02 -0.63593019739E+01 -0.28485450814E+02  0.31885977182E+02  0.00000000000E+00 0.  1.
         11    1    3    3    0    0 -0.40525953611E+01  0.30979468544E+01 -0.18820331859E+01  0.54371732589E+01  0.51100000000E-03 0. -1.
        -11    1    3    3    0    0  0.57539033693E+01 -0.92265115246E+01 -0.62444543621E+01  0.12539104013E+02  0.51100000000E-03 0.  1.
         12    1    3    3    0    0 -0.14540852830E+02  0.12487866644E+02  0.36611938361E+02  0.41325745546E+02  0.00000000000E+00 0. -1.
</event>
<event>
 7    1  0.7284210E-013  0.5930195E+02  0.7816164E-02  0.1266605E+00
        -11   -1    0    0    0    0  0.00000000000E+00  0.00000000000E+00  0.45593999997E+02  0.45594000000E+02  0.51100000000E-03 0. -1.
         11   -1    0    0    0    0 -0.00000000000E+00 -0.00000000000E+00 -0.45593999997E+02  0.45594000000E+02  0.51100000000E-03 0.  1.
    9900012    2    1    2    0    0  0.88800390913E+01  0.20982359348E+02  0.22307070667E+02  0.59301954466E+02  0.50000019037E+02 0.  0.
        -12    1    1    2    0    0 -0.88800390913E+01 -0.20982359348E+02 -0.22307070667E+02  0.31886045534E+02  0.00000000000E+00 0.  1.
         11    1    3    3    0    0  0.13268850626E+01  0.50341700134E+01  0.10007292191E+00  0.52070631400E+01  0.51100000000E-03 0. -1.
        -11    1    3    3    0    0  0.16591142691E+02  0.21442637431E+02 -0.24922767001E+01  0.27226166811E+02  0.51100000000E-03 0.  1.
        -12    1    3    3    0    0 -0.90379886625E+01 -0.54944480970E+01  0.24699274445E+02  0.26868724515E+02  0.00000000000E+00 0.  1.
</event>
<event>
 7    1  0.7284210E-013  0.5930193E+02  0.7816164E-02  0.1266605E+00
        -11   -1    0    0    0    0  0.00000000000E+00  0.00000000000E+00  0.45593999997E+02  0.45594000000E+02  0.51100000000E-03 0.  1.
         11   -1    0    0    0    0 -0.00000000000E+00 -0.00000000000E+00 -0.45593999997E+02  0.45594000000E+02  0.51100000000E-03 0. -1.
    9900012    2    1    2    0    0  0.24203043796E+02 -0.16954270185E+02  0.11978601465E+02  0.59301929381E+02  0.49999973288E+02 0.  0.
        -12    1    1    2    0    0 -0.24203043796E+02  0.16954270185E+02 -0.11978601465E+02  0.31886070619E+02  0.00000000000E+00 0.  1.
         11    1    3    3    0    0  0.57764801043E+01  0.81778597565E+01  0.94087115525E+01  0.13739321888E+02  0.51100000000E-03 0. -1.
        -11    1    3    3    0    0 -0.70034722787E+01  0.26738150685E+01  0.24326905108E+01  0.78813637374E+01  0.51100000000E-03 0.  1.
         12    1    3    3    0    0  0.25430035970E+02 -0.27805945010E+02  0.13719940206E+00  0.37681243756E+02  0.00000000000E+00 0. -1.
</event>
<event>
 7    1  0.7284210E-013  0.5930192E+02  0.7816164E-02  0.1266605E+00
        -11   -1    0    0    0    0  0.00000000000E+00  0.00000000000E+00  0.45593999997E+02  0.45594000000E+02  0.51100000000E-03 0. -1.
         11   -1    0    0    0    0 -0.00000000000E+00 -0.00000000000E+00 -0.45593999997E+02  0.45594000000E+02  0.51100000000E-03 0.  1.
    9900012    2    1    2    0    0 -0.24232909114E+02 -0.20713777193E+02 -0.65393524657E+00  0.59301920263E+02  0.49999956658E+02 0.  0.
        -12    1    1    2    0    0  0.24232909114E+02  0.20713777193E+02  0.65393524657E+00  0.31886079737E+02  0.00000000000E+00 0.  1.
         11    1    3    3    0    0 -0.17273789002E+01  0.53157727496E+01 -0.43480102665E+01  0.70814173249E+01  0.51100000000E-03 0.  1.
        -11    1    3    3    0    0  0.27001459159E+01  0.83520117942E+01  0.38603008560E+01  0.95889943131E+01  0.51100000000E-03 0. -1.
         12    1    3    3    0    0 -0.25205676130E+02 -0.34381561736E+02 -0.16622583603E+00  0.42631508625E+02  0.00000000000E+00 0. -1.
</event>
<event>
 7    1  0.7284210E-013  0.5930195E+02  0.7816164E-02  0.1266605E+00
        -11   -1    0    0    0    0  0.00000000000E+00  0.00000000000E+00  0.45593999997E+02  0.45594000000E+02  0.51100000000E-03 0.  1.
         11   -1    0    0    0    0 -0.00000000000E+00 -0.00000000000E+00 -0.45593999997E+02  0.45594000000E+02  0.51100000000E-03 0. -1.
    9900012    2    1    2    0    0 -0.30864081574E+02  0.79396305443E+01  0.10446212207E+01  0.59301945085E+02  0.50000001928E+02 0.  0.
        -12    1    1    2    0    0  0.30864081574E+02 -0.79396305443E+01 -0.10446212207E+01  0.31886054915E+02  0.00000000000E+00 0.  1.
         11    1    3    3    0    0 -0.11056444370E+02 -0.80442496125E+01 -0.42663997447E+01  0.14323305519E+02  0.51100000000E-03 0. -1.
        -11    1    3    3    0    0  0.97678792201E+01 -0.19079071553E+01  0.27090240720E+01  0.10314571530E+02  0.51100000000E-03 0.  1.
        -12    1    3    3    0    0 -0.29575516423E+02  0.17891787312E+02  0.26019968934E+01  0.34664068035E+02  0.00000000000E+00 0.  1.
</event>
<event>
 7    1  0.7284210E-013  0.5930194E+02  0.7816164E-02  0.1266605E+00
        -11   -1    0    0    0    0  0.00000000000E+00  0.00000000000E+00  0.45593999997E+02  0.45594000000E+02  0.51100000000E-03 0. -1.
         11   -1    0    0    0    0 -0.00000000000E+00 -0.00000000000E+00 -0.45593999997E+02  0.45594000000E+02  0.51100000000E-03 0.  1.
    9900012    2    1    2    0    0  0.19255342572E+02 -0.21266047444E+02 -0.13917892979E+02  0.59301941347E+02  0.49999995111E+02 0.  0.
        -12    1    1    2    0    0 -0.19255342572E+02  0.21266047444E+02  0.13917892979E+02  0.31886058653E+02  0.00000000000E+00 0.  1.
         11    1    3    3    0    0 -0.32354163159E+01  0.38202813194E+01 -0.12096276836E+02  0.13091309394E+02  0.51100000000E-03 0. -1.
        -11    1    3    3    0    0  0.18892754379E+02 -0.87492351370E+01 -0.14370725517E+02  0.25298281279E+02  0.51100000000E-03 0.  1.
         12    1    3    3    0    0  0.35980045084E+01 -0.16337093626E+02  0.12549109375E+02  0.20912350674E+02  0.00000000000E+00 0. -1.
</event>
<event>
 7    1  0.7284210E-013  0.5930197E+02  0.7816164E-02  0.1266605E+00
        -11   -1    0    0    0    0  0.00000000000E+00  0.00000000000E+00  0.45593999997E+02  0.45594000000E+02  0.51100000000E-03 0. -1.
         11   -1    0    0    0    0 -0.00000000000E+00 -0.00000000000E+00 -0.45593999997E+02  0.45594000000E+02  0.51100000000E-03 0.  1.
    9900012    2    1    2    0    0 -0.53951900047E+01 -0.22065292279E+02  0.22377073255E+02  0.59301974754E+02  0.50000056038E+02 0.  0.
        -12    1    1    2    0    0  0.53951900047E+01  0.22065292279E+02 -0.22377073255E+02  0.31886025246E+02  0.00000000000E+00 0.  1.
         11    1    3    3    0    0 -0.16995746709E+02 -0.16802583973E+02  0.11795616134E+02  0.26651806592E+02  0.51100000000E-03 0. -1.
        -11    1    3    3    0    0 -0.78297533191E+01  0.29816903361E+01  0.76409341494E+01  0.11339285217E+02  0.51100000000E-03 0.  1.
         12    1    3    3    0    0  0.19430310023E+02 -0.82443986418E+01  0.29405229712E+01  0.21310882945E+02  0.00000000000E+00 0. -1.
</event>
<event>
 7    1  0.7284210E-013  0.5930193E+02  0.7816164E-02  0.1266605E+00
        -11   -1    0    0    0    0  0.00000000000E+00  0.00000000000E+00  0.45593999997E+02  0.45594000000E+02  0.51100000000E-03 0.  1.
         11   -1    0    0    0    0 -0.00000000000E+00 -0.00000000000E+00 -0.45593999997E+02  0.45594000000E+02  0.51100000000E-03 0. -1.
    9900012    2    1    2    0    0  0.11145665475E+02  0.22526887899E+01 -0.29789607225E+02  0.59301934638E+02  0.49999982875E+02 0.  0.
        -12    1    1    2    0    0 -0.11145665475E+02 -0.22526887899E+01  0.29789607225E+02  0.31886065362E+02  0.00000000000E+00 0.  1.
         11    1    3    3    0    0  0.16998188353E+02  0.53127076025E+01 -0.16768944022E+01  0.17887851868E+02  0.51100000000E-03 0. -1.
        -11    1    3    3    0    0 -0.13290734810E+01  0.22214063326E+01 -0.32880844586E+02  0.32982586668E+02  0.51100000000E-03 0.  1.
         12    1    3    3    0    0 -0.45234493967E+01 -0.52814251451E+01  0.47681317627E+01  0.84314961018E+01  0.00000000000E+00 0. -1.
</event>
<event>
 7    1  0.7284210E-013  0.5930204E+02  0.7816164E-02  0.1266604E+00
        -11   -1    0    0    0    0  0.00000000000E+00  0.00000000000E+00  0.45593999997E+02  0.45594000000E+02  0.51100000000E-03 0.  1.
         11   -1    0    0    0    0 -0.00000000000E+00 -0.00000000000E+00 -0.45593999997E+02  0.45594000000E+02  0.51100000000E-03 0. -1.
    9900012    2    1    2    0    0  0.17748866856E+02  0.26347650366E+02  0.27374552493E+01  0.59302037324E+02  0.50000170150E+02 0.  0.
        -12    1    1    2    0    0 -0.17748866856E+02 -0.26347650366E+02 -0.27374552493E+01  0.31885962676E+02  0.00000000000E+00 0.  1.
         11    1    3    3    0    0 -0.78437686816E+01  0.24566720257E+02  0.28092749758E+01  0.25941096305E+02  0.51100000000E-03 0. -1.
        -11    1    3    3    0    0 -0.30523715227E+01 -0.13632861819E+01  0.28542548604E+01  0.43957129337E+01  0.51100000000E-03 0.  1.
        -12    1    3    3    0    0  0.28645007061E+02  0.31442162910E+01 -0.29260745869E+01  0.28965228086E+02  0.00000000000E+00 0.  1.
</event>
<event>
 7    1  0.7284210E-013  0.5930195E+02  0.7816164E-02  0.1266605E+00
        -11   -1    0    0    0    0  0.00000000000E+00  0.00000000000E+00  0.45593999997E+02  0.45594000000E+02  0.51100000000E-03 0.  1.
         11   -1    0    0    0    0 -0.00000000000E+00 -0.00000000000E+00 -0.45593999997E+02  0.45594000000E+02  0.51100000000E-03 0. -1.
    9900012    2    1    2    0    0  0.10080675537E+02  0.10074659709E+02 -0.28523695054E+02  0.59301953411E+02  0.50000017113E+02 0.  0.
        -12    1    1    2    0    0 -0.10080675537E+02 -0.10074659709E+02  0.28523695054E+02  0.31886046589E+02  0.00000000000E+00 0.  1.
         11    1    3    3    0    0 -0.10737031135E+02 -0.30448531628E+01 -0.14570526257E+02  0.18353615557E+02  0.51100000000E-03 0. -1.
        -11    1    3    3    0    0 -0.75435989488E+01  0.10193167258E+01 -0.19344312919E+01  0.78541018820E+01  0.51100000000E-03 0.  1.
        -12    1    3    3    0    0  0.28361305621E+02  0.12100196146E+02 -0.12018737506E+02  0.33094235972E+02  0.00000000000E+00 0.  1.
</event>
<event>
 7    1  0.7284210E-013  0.5930195E+02  0.7816164E-02  0.1266605E+00
        -11   -1    0    0    0    0  0.00000000000E+00  0.00000000000E+00  0.45593999997E+02  0.45594000000E+02  0.51100000000E-03 0.  1.
         11   -1    0    0    0    0 -0.00000000000E+00 -0.00000000000E+00 -0.45593999997E+02  0.45594000000E+02  0.51100000000E-03 0. -1.
    9900012    2    1    2    0    0 -0.15337694140E+02  0.94677962427E+01 -0.26302782422E+02  0.59301946773E+02  0.50000005007E+02 0.  0.
        -12    1    1    2    0    0  0.15337694140E+02 -0.94677962427E+01  0.26302782422E+02  0.31886053227E+02  0.00000000000E+00 0.  1.
         11    1    3    3    0    0 -0.21503061363E+02  0.10328184848E+02 -0.33640572237E+02  0.41240043051E+02  0.51100000000E-03 0. -1.
        -11    1    3    3    0    0 -0.11712278536E+01 -0.66159408028E+01  0.10136678858E+01  0.67948488014E+01  0.51100000000E-03 0.  1.
        -12    1    3    3    0    0  0.73365950760E+01  0.57555521977E+01  0.63241219285E+01  0.11267054920E+02  0.00000000000E+00 0.  1.
</event>
<event>
 7    1  0.7284210E-013  0.5930194E+02  0.7816164E-02  0.1266605E+00
        -11   -1    0    0    0    0  0.00000000000E+00  0.00000000000E+00  0.45593999997E+02  0.45594000000E+02  0.51100000000E-03 0. -1.
         11   -1    0    0    0    0 -0.00000000000E+00 -0.00000000000E+00 -0.45593999997E+02  0.45594000000E+02  0.51100000000E-03 0.  1.
    9900012    2    1    2    0    0  0.10603602242E+02 -0.28068392000E+02  0.10791199970E+02  0.59301937108E+02  0.49999987380E+02 0.  0.
        -12    1    1    2    0    0 -0.10603602242E+02  0.28068392000E+02 -0.10791199970E+02  0.31886062892E+02  0.00000000000E+00 0.  1.
         11    1    3    3    0    0  0.21937952083E+02 -0.66959868958E+01  0.10639674415E+02  0.25284632764E+02  0.51100000000E-03 0. -1.
        -11    1    3    3    0    0 -0.65207315187E+01 -0.34333095357E+01  0.10444225490E+02  0.12782386329E+02  0.51100000000E-03 0.  1.
        -12    1    3    3    0    0 -0.48136183222E+01 -0.17939095568E+02 -0.10292699935E+02  0.21234918015E+02  0.00000000000E+00 0.  1.
</event>
<event>
 7    1  0.7284210E-013  0.5930195E+02  0.7816164E-02  0.1266605E+00
        -11   -1    0    0    0    0  0.00000000000E+00  0.00000000000E+00  0.45593999997E+02  0.45594000000E+02  0.51100000000E-03 0.  1.
         11   -1    0    0    0    0 -0.00000000000E+00 -0.00000000000E+00 -0.45593999997E+02  0.45594000000E+02  0.51100000000E-03 0. -1.
    9900012    2    1    2    0    0  0.22509411389E+02  0.12218178912E+02 -0.18993761152E+02  0.59301945687E+02  0.50000003025E+02 0.  0.
        -12    1    1    2    0    0 -0.22509411389E+02 -0.12218178912E+02  0.18993761152E+02  0.31886054313E+02  0.00000000000E+00 0.  1.
         11    1    3    3    0    0  0.21456918764E+01 -0.48814626583E+01 -0.11038102286E+02  0.12258563279E+02  0.51100000000E-03 0. -1.
        -11    1    3    3    0    0  0.12426924739E+02 -0.41642456233E+01 -0.17964909745E+02  0.22237521950E+02  0.51100000000E-03 0.  1.
        -12    1    3    3    0    0  0.79367947736E+01  0.21263887193E+02  0.10009250880E+02  0.24805860457E+02  0.00000000000E+00 0.  1.
</event>
<event>
 7    1  0.7284210E-013  0.5930201E+02  0.7816164E-02  0.1266605E+00
        -11   -1    0    0    0    0  0.00000000000E+00  0.00000000000E+00  0.45593999997E+02  0.45594000000E+02  0.51100000000E-03 0. -1.
         11   -1    0    0    0    0 -0.00000000000E+00 -0.00000000000E+00 -0.45593999997E+02  0.45594000000E+02  0.51100000000E-03 0.  1.
    9900012    2    1    2    0    0  0.83688019794E+01  0.30173450583E+02  0.60201449329E+01  0.59302013867E+02  0.50000127370E+02 0.  0.
        -12    1    1    2    0    0 -0.83688019794E+01 -0.30173450583E+02 -0.60201449329E+01  0.31885986133E+02  0.00000000000E+00 0.  1.
         11    1    3    3    0    0  0.86283427498E+01  0.61114348274E+01  0.18926118247E+02  0.21679388515E+02  0.51100000000E-03 0. -1.
        -11    1    3    3    0    0  0.64197979637E+01  0.15530755183E+00 -0.10987338114E+02  0.12726331971E+02  0.51100000000E-03 0.  1.
        -12    1    3    3    0    0 -0.66793387341E+01  0.23906708204E+02 -0.19186351994E+01  0.24896293381E+02  0.00000000000E+00 0.  1.
</event>
<event>
 7    1  0.7284210E-013  0.5930195E+02  0.7816164E-02  0.1266605E+00
        -11   -1    0    0    0    0  0.00000000000E+00  0.00000000000E+00  0.45593999997E+02  0.45594000000E+02  0.51100000000E-03 0. -1.
         11   -1    0    0    0    0 -0.00000000000E+00 -0.00000000000E+00 -0.45593999997E+02  0.45594000000E+02  0.51100000000E-03 0.  1.
    9900012    2    1    2    0    0  0.16503119964E+02 -0.13043619180E+02  0.23963119131E+02  0.59301952137E+02  0.50000014789E+02 0.  0.
        -12    1    1    2    0    0 -0.16503119964E+02  0.13043619180E+02 -0.23963119131E+02  0.31886047863E+02  0.00000000000E+00 0.  1.
         11    1    3    3    0    0  0.58802868208E+01 -0.96621681640E+01  0.10616671123E+02  0.15512864749E+02  0.51100000000E-03 0. -1.
        -11    1    3    3    0    0 -0.29121527347E+01  0.16295040969E+02  0.10815093935E+02  0.19773094113E+02  0.51100000000E-03 0.  1.
         12    1    3    3    0    0  0.13534985878E+02 -0.19676491985E+02  0.25313540726E+01  0.24015993275E+02  0.00000000000E+00 0. -1.
</event>
<event>
 7    1  0.7284210E-013  0.5930191E+02  0.7816164E-02  0.1266605E+00
        -11   -1    0    0    0    0  0.00000000000E+00  0.00000000000E+00  0.45593999997E+02  0.45594000000E+02  0.51100000000E-03 0.  1.
         11   -1    0    0    0    0 -0.00000000000E+00 -0.00000000000E+00 -0.45593999997E+02  0.45594000000E+02  0.51100000000E-03 0. -1.
    9900012    2    1    2    0    0 -0.58363352329E+01 -0.11967261568E+02 -0.28973168569E+02  0.59301911257E+02  0.49999940234E+02 0.  0.
        -12    1    1    2    0    0  0.58363352329E+01  0.11967261568E+02  0.28973168569E+02  0.31886088743E+02  0.00000000000E+00 0.  1.
         11    1    3    3    0    0 -0.14098222806E+02  0.98285808504E+00 -0.20389725577E+02  0.24808603460E+02  0.51100000000E-03 0. -1.
        -11    1    3    3    0    0  0.14399113804E+01 -0.20512131939E+02 -0.11930375458E+02  0.23772983832E+02  0.51100000000E-03 0.  1.
        -12    1    3    3    0    0  0.68219761923E+01  0.75620122855E+01  0.33469324654E+01  0.10720323964E+02  0.00000000000E+00 0.  1.
</event>
<event>
 7    1  0.7284210E-013  0.5930196E+02  0.7816164E-02  0.1266605E+00
        -11   -1    0    0    0    0  0.00000000000E+00  0.00000000000E+00  0.45593999997E+02  0.45594000000E+02  0.51100000000E-03 0. -1.
         11   -1    0    0    0    0 -0.00000000000E+00 -0.00000000000E+00 -0.45593999997E+02  0.45594000000E+02  0.51100000000E-03 0.  1.
    9900012    2    1    2    0    0 -0.72044583505E+01 -0.60626386988E+00  0.31055562007E+02  0.59301957481E+02  0.50000024535E+02 0.  0.
        -12    1    1    2    0    0  0.72044583505E+01  0.60626386988E+00 -0.31055562007E+02  0.31886042519E+02  0.00000000000E+00 0.  1.
         11    1    3    3    0    0  0.55191964519E+01 -0.26011807234E+01  0.45004986250E+01  0.75816989366E+01  0.51100000000E-03 0. -1.
        -11    1    3    3    0    0  0.15052886894E+02 -0.47539170024E+01  0.10030048089E+02  0.18702700224E+02  0.51100000000E-03 0.  1.
         12    1    3    3    0    0 -0.27776541697E+02  0.67488338560E+01  0.16525015292E+02  0.33017558320E+02  0.00000000000E+00 0. -1.
</event>
<event>
 7    1  0.7284210E-013  0.5930180E+02  0.7816164E-02  0.1266605E+00
        -11   -1    0    0    0    0  0.00000000000E+00  0.00000000000E+00  0.45593999997E+02  0.45594000000E+02  0.51100000000E-03 0.  1.
         11   -1    0    0    0    0 -0.00000000000E+00 -0.00000000000E+00 -0.45593999997E+02  0.45594000000E+02  0.51100000000E-03 0. -1.
    9900012    2    1    2    0    0 -0.69276464314E+01 -0.23090177128E+02 -0.20870580469E+02  0.59301800886E+02  0.49999738942E+02 0.  0.
        -12    1    1    2    0    0  0.69276464314E+01  0.23090177128E+02  0.20870580469E+02  0.31886199114E+02  0.00000000000E+00 0.  1.
         11    1    3    3    0    0 -0.11028567024E+02 -0.43429860163E+01  0.24094873181E+01  0.12095306839E+02  0.51100000000E-03 0.  1.
        -11    1    3    3    0    0 -0.60665656442E+01  0.33609710692E+01 -0.21744791087E+02  0.22824006767E+02  0.51100000000E-03 0. -1.
        -12    1    3    3    0    0  0.10167486237E+02 -0.22108162181E+02 -0.15352767002E+01  0.24382487279E+02  0.00000000000E+00 0.  1.
</event>
<event>
 7    1  0.7284210E-013  0.5930198E+02  0.7816164E-02  0.1266605E+00
        -11   -1    0    0    0    0  0.00000000000E+00  0.00000000000E+00  0.45593999997E+02  0.45594000000E+02  0.51100000000E-03 0.  1.
         11   -1    0    0    0    0 -0.00000000000E+00 -0.00000000000E+00 -0.45593999997E+02  0.45594000000E+02  0.51100000000E-03 0. -1.
    9900012    2    1    2    0    0  0.11581978026E+01  0.26979808076E+02 -0.16954840114E+02  0.59301983171E+02  0.50000071387E+02 0.  0.
        -12    1    1    2    0    0 -0.11581978026E+01 -0.26979808076E+02  0.16954840114E+02  0.31886016829E+02  0.00000000000E+00 0.  1.
         11    1    3    3    0    0 -0.74458681637E+00 -0.37543044855E+01 -0.11532499079E+02  0.12151038925E+02  0.51100000000E-03 0. -1.
        -11    1    3    3    0    0  0.43536489242E+01 -0.63351624211E+01 -0.63781248294E+01  0.99884442461E+01  0.51100000000E-03 0.  1.
        -12    1    3    3    0    0 -0.24508643053E+01  0.37069274982E+02  0.95578379417E+00  0.37162499999E+02  0.00000000000E+00 0.  1.
</event>
<event>
 7    1  0.7284210E-013  0.5930194E+02  0.7816164E-02  0.1266605E+00
        -11   -1    0    0    0    0  0.00000000000E+00  0.00000000000E+00  0.45593999997E+02  0.45594000000E+02  0.51100000000E-03 0.  1.
         11   -1    0    0    0    0 -0.00000000000E+00 -0.00000000000E+00 -0.45593999997E+02  0.45594000000E+02  0.51100000000E-03 0. -1.
    9900012    2    1    2    0    0  0.74550663307E+01 -0.29643253622E+02 -0.90785626090E+01  0.59301940376E+02  0.49999993340E+02 0.  0.
        -12    1    1    2    0    0 -0.74550663307E+01  0.29643253622E+02  0.90785626090E+01  0.31886059624E+02  0.00000000000E+00 0.  1.
         11    1    3    3    0    0 -0.82015810846E+01 -0.65779536306E+01  0.80951405957E+00  0.10544701017E+02  0.51100000000E-03 0. -1.
        -11    1    3    3    0    0  0.50146370552E+00  0.80900212043E+01  0.65389460022E+01  0.10414303818E+02  0.51100000000E-03 0.  1.
         12    1    3    3    0    0  0.15155183710E+02 -0.31155321196E+02 -0.16427022671E+02  0.38342935541E+02  0.00000000000E+00 0. -1.
</event>
<event>
 7    1  0.7284210E-013  0.5930195E+02  0.7816164E-02  0.1266605E+00
        -11   -1    0    0    0    0  0.00000000000E+00  0.00000000000E+00  0.45593999997E+02  0.45594000000E+02  0.51100000000E-03 0.  1.
         11   -1    0    0    0    0 -0.00000000000E+00 -0.00000000000E+00 -0.45593999997E+02  0.45594000000E+02  0.51100000000E-03 0. -1.
    9900012    2    1    2    0    0  0.37720626000E+01 -0.31487717643E+02 -0.33189358520E+01  0.59301950483E+02  0.50000011772E+02 0.  0.
        -12    1    1    2    0    0 -0.37720626000E+01  0.31487717643E+02  0.33189358520E+01  0.31886049517E+02  0.00000000000E+00 0.  1.
         11    1    3    3    0    0 -0.57534781558E+01 -0.39605780348E+00 -0.11918913410E+02  0.13240840978E+02  0.51100000000E-03 0. -1.
        -11    1    3    3    0    0 -0.10502745129E+02 -0.11910732379E+02  0.91434923513E+01  0.18324209496E+02  0.51100000000E-03 0.  1.
         12    1    3    3    0    0  0.20028285884E+02 -0.19180927461E+02 -0.54351479368E+00  0.27736900008E+02  0.00000000000E+00 0. -1.
</event>
<event>
 7    1  0.7284210E-013  0.5930194E+02  0.7816164E-02  0.1266605E+00
        -11   -1    0    0    0    0  0.00000000000E+00  0.00000000000E+00  0.45593999997E+02  0.45594000000E+02  0.51100000000E-03 0. -1.
         11   -1    0    0    0    0 -0.00000000000E+00 -0.00000000000E+00 -0.45593999997E+02  0.45594000000E+02  0.51100000000E-03 0.  1.
    9900012    2    1    2    0    0  0.21850536271E+02  0.12202516049E+02  0.19757879242E+02  0.59301935248E+02  0.49999983987E+02 0.  0.
        -12    1    1    2    0    0 -0.21850536271E+02 -0.12202516049E+02 -0.19757879242E+02  0.31886064752E+02  0.00000000000E+00 0.  1.
         11    1    3    3    0    0  0.10494628433E+02  0.12139082621E+02  0.20026785170E+02  0.25662553991E+02  0.51100000000E-03 0. -1.
        -11    1    3    3    0    0  0.21706981554E+02 -0.39598547341E+01 -0.28199380407E+01  0.22244674610E+02  0.51100000000E-03 0.  1.
         12    1    3    3    0    0 -0.10351073717E+02  0.40232881621E+01  0.25510321129E+01  0.11394706647E+02  0.00000000000E+00 0. -1.
</event>
<event>
 7    1  0.7284210E-013  0.5930196E+02  0.7816164E-02  0.1266605E+00
        -11   -1    0    0    0    0  0.00000000000E+00  0.00000000000E+00  0.45593999997E+02  0.45594000000E+02  0.51100000000E-03 0. -1.
         11   -1    0    0    0    0 -0.00000000000E+00 -0.00000000000E+00 -0.45593999997E+02  0.45594000000E+02  0.51100000000E-03 0.  1.
    9900012    2    1    2    0    0 -0.87351827430E+01 -0.30308548853E+02  0.46699343079E+01  0.59301955441E+02  0.50000020816E+02 0.  0.
        -12    1    1    2    0    0  0.87351827430E+01  0.30308548853E+02 -0.46699343079E+01  0.31886044559E+02  0.00000000000E+00 0.  1.
         11    1    3    3    0    0  0.35504195691E+01 -0.12184796570E+01 -0.10897543705E+02  0.11525911280E+02  0.51100000000E-03 0. -1.
        -11    1    3    3    0    0 -0.12612211818E+02  0.29302588421E+01  0.24835088323E+01  0.13184161718E+02  0.51100000000E-03 0.  1.
         12    1    3    3    0    0  0.32660950577E+00 -0.32020328038E+02  0.13083969180E+02  0.34591882443E+02  0.00000000000E+00 0. -1.
</event>
<event>
 7    1  0.7284210E-013  0.5930193E+02  0.7816164E-02  0.1266605E+00
        -11   -1    0    0    0    0  0.00000000000E+00  0.00000000000E+00  0.45593999997E+02  0.45594000000E+02  0.51100000000E-03 0. -1.
         11   -1    0    0    0    0 -0.00000000000E+00 -0.00000000000E+00 -0.45593999997E+02  0.45594000000E+02  0.51100000000E-03 0.  1.
    9900012    2    1    2    0    0 -0.11089806729E+02 -0.21132311681E+02  0.21146224502E+02  0.59301933749E+02  0.49999981254E+02 0.  0.
        -12    1    1    2    0    0  0.11089806729E+02  0.21132311681E+02 -0.21146224502E+02  0.31886066251E+02  0.00000000000E+00 0.  1.
         11    1    3    3    0    0  0.10901297816E+02 -0.10555895107E+02  0.14797425005E+02  0.21195023062E+02  0.51100000000E-03 0. -1.
        -11    1    3    3    0    0  0.59612383485E+01  0.97364060853E+00  0.49848563036E+01  0.78315471850E+01  0.51100000000E-03 0.  1.
        -12    1    3    3    0    0 -0.27952342893E+02 -0.11550057183E+02  0.13639431936E+01  0.30275363502E+02  0.00000000000E+00 0.  1.
</event>
<event>
 7    1  0.7284210E-013  0.5930194E+02  0.7816164E-02  0.1266605E+00
        -11   -1    0    0    0    0  0.00000000000E+00  0.00000000000E+00  0.45593999997E+02  0.45594000000E+02  0.51100000000E-03 0. -1.
         11   -1    0    0    0    0 -0.00000000000E+00 -0.00000000000E+00 -0.45593999997E+02  0.45594000000E+02  0.51100000000E-03 0.  1.
    9900012    2    1    2    0    0  0.15647848776E+02  0.17187079310E+02  0.21828186718E+02  0.59301943456E+02  0.49999998958E+02 0.  0.
        -12    1    1    2    0    0 -0.15647848776E+02 -0.17187079310E+02 -0.21828186718E+02  0.31886056544E+02  0.00000000000E+00 0.  1.
         11    1    3    3    0    0  0.11637892063E+02 -0.72012745984E+01 -0.32615600757E+01  0.14068996478E+02  0.51100000000E-03 0. -1.
        -11    1    3    3    0    0 -0.11701131913E+02  0.15119264993E+02  0.10097287521E+02  0.21620912966E+02  0.51100000000E-03 0.  1.
        -12    1    3    3    0    0  0.15711088626E+02  0.92690889156E+01  0.14992459273E+02  0.23612034012E+02  0.00000000000E+00 0.  1.
</event>
<event>
 7    1  0.7284210E-013  0.5930204E+02  0.7816164E-02  0.1266604E+00
        -11   -1    0    0    0    0  0.00000000000E+00  0.00000000000E+00  0.45593999997E+02  0.45594000000E+02  0.51100000000E-03 0.  1.
         11   -1    0    0    0    0 -0.00000000000E+00 -0.00000000000E+00 -0.45593999997E+02  0.45594000000E+02  0.51100000000E-03 0. -1.
    9900012    2    1    2    0    0  0.33803460148E+01 -0.25340762338E+02 -0.19056064433E+02  0.59302038093E+02  0.50000171552E+02 0.  0.
        -12    1    1    2    0    0 -0.33803460148E+01  0.25340762338E+02  0.19056064433E+02  0.31885961907E+02  0.00000000000E+00 0.  1.
         11    1    3    3    0    0  0.71484088816E+01  0.93613013228E+01 -0.92372852689E+01  0.14968672332E+02  0.51100000000E-03 0. -1.
        -11    1    3    3    0    0  0.17665940935E+01 -0.24552262876E+02 -0.17720093669E+02  0.30330449831E+02  0.51100000000E-03 0.  1.
        -12    1    3    3    0    0 -0.55346569603E+01 -0.10149800785E+02  0.79013145048E+01  0.14002915930E+02  0.00000000000E+00 0.  1.
</event>
<event>
 7    1  0.7284210E-013  0.5930192E+02  0.7816164E-02  0.1266605E+00
        -11   -1    0    0    0    0  0.00000000000E+00  0.00000000000E+00  0.45593999997E+02  0.45594000000E+02  0.51100000000E-03 0.  1.
         11   -1    0    0    0    0 -0.00000000000E+00 -0.00000000000E+00 -0.45593999997E+02  0.45594000000E+02  0.51100000000E-03 0. -1.
    9900012    2    1    2    0    0 -0.43254429629E+01  0.22020708550E+02 -0.22651737370E+02  0.59301917334E+02  0.49999951318E+02 0.  0.
        -12    1    1    2    0    0  0.43254429629E+01 -0.22020708550E+02  0.22651737370E+02  0.31886082666E+02  0.00000000000E+00 0.  1.
         11    1    3    3    0    0 -0.79213232079E+01  0.13606124320E+02  0.53744568371E+01  0.16636068253E+02  0.51100000000E-03 0. -1.
        -11    1    3    3    0    0  0.13486132843E+02  0.13861711555E+02 -0.11038838561E+02  0.22268335890E+02  0.51100000000E-03 0.  1.
         12    1    3    3    0    0 -0.98902525976E+01 -0.54471273242E+01 -0.16987355646E+02  0.20397513191E+02  0.00000000000E+00 0. -1.
</event>
<event>
 7    1  0.7284210E-013  0.5930196E+02  0.7816164E-02  0.1266605E+00
        -11   -1    0    0    0    0  0.00000000000E+00  0.00000000000E+00  0.45593999997E+02  0.45594000000E+02  0.51100000000E-03 0.  1.
         11   -1    0    0    0    0 -0.00000000000E+00 -0.00000000000E+00 -0.45593999997E+02  0.45594000000E+02  0.51100000000E-03 0. -1.
    9900012    2    1    2    0    0 -0.36355306319E+01 -0.17911091160E+02 -0.26128437889E+02  0.59301960170E+02  0.50000029440E+02 0.  0.
        -12    1    1    2    0    0  0.36355306319E+01  0.17911091160E+02  0.26128437889E+02  0.31886039830E+02  0.00000000000E+00 0.  1.
         11    1    3    3    0    0 -0.87754440308E+01 -0.12802010745E+02 -0.25173211658E+02  0.29573475996E+02  0.51100000000E-03 0. -1.
        -11    1    3    3    0    0  0.58670252244E+01  0.11720205931E+01 -0.14003956820E+02  0.15228474124E+02  0.51100000000E-03 0.  1.
        -12    1    3    3    0    0 -0.72711182551E+00 -0.62811010084E+01  0.13048730589E+02  0.14500010051E+02  0.00000000000E+00 0.  1.
</event>
<event>
 7    1  0.7284210E-013  0.5930195E+02  0.7816164E-02  0.1266605E+00
        -11   -1    0    0    0    0  0.00000000000E+00  0.00000000000E+00  0.45593999997E+02  0.45594000000E+02  0.51100000000E-03 0.  1.
         11   -1    0    0    0    0 -0.00000000000E+00 -0.00000000000E+00 -0.45593999997E+02  0.45594000000E+02  0.51100000000E-03 0. -1.
    9900012    2    1    2    0    0  0.24727165469E+02  0.90059967654E+00 -0.20111593954E+02  0.59301952843E+02  0.50000016077E+02 0.  0.
        -12    1    1    2    0    0 -0.24727165469E+02 -0.90059967654E+00  0.20111593954E+02  0.31886047157E+02  0.00000000000E+00 0.  1.
         11    1    3    3    0    0  0.52334538088E+01  0.11459528546E+02 -0.12889183307E+02  0.18023342638E+02  0.51100000000E-03 0. -1.
        -11    1    3    3    0    0  0.10193683392E+02  0.12230981813E+02 -0.42924844769E+01  0.16490406922E+02  0.51100000000E-03 0.  1.
        -12    1    3    3    0    0  0.93000282683E+01 -0.22789910682E+02 -0.29299261701E+01  0.24788203284E+02  0.00000000000E+00 0.  1.
</event>
<event>
 7    1  0.7284210E-013  0.5930198E+02  0.7816164E-02  0.1266605E+00
        -11   -1    0    0    0    0  0.00000000000E+00  0.00000000000E+00  0.45593999997E+02  0.45594000000E+02  0.51100000000E-03 0.  1.
         11   -1    0    0    0    0 -0.00000000000E+00 -0.00000000000E+00 -0.45593999997E+02  0.45594000000E+02  0.51100000000E-03 0. -1.
    9900012    2    1    2    0    0  0.72202759504E+01  0.29054900016E+02 -0.10972642728E+02  0.59301976601E+02  0.50000059406E+02 0.  0.
        -12    1    1    2    0    0 -0.72202759504E+01 -0.29054900016E+02  0.10972642728E+02  0.31886023399E+02  0.00000000000E+00 0.  1.
         11    1    3    3    0    0  0.71394193965E+01 -0.27356948514E+01 -0.17322917920E+02  0.18935121366E+02  0.51100000000E-03 0. -1.
        -11    1    3    3    0    0 -0.58753477933E+01  0.41667142746E+01  0.95124053288E+01  0.11931767469E+02  0.51100000000E-03 0.  1.
         12    1    3    3    0    0  0.59562043472E+01  0.27623880593E+02 -0.31621301371E+01  0.28435087766E+02  0.00000000000E+00 0. -1.
</event>
<event>
 7    1  0.7284210E-013  0.5930197E+02  0.7816164E-02  0.1266605E+00
        -11   -1    0    0    0    0  0.00000000000E+00  0.00000000000E+00  0.45593999997E+02  0.45594000000E+02  0.51100000000E-03 0. -1.
         11   -1    0    0    0    0 -0.00000000000E+00 -0.00000000000E+00 -0.45593999997E+02  0.45594000000E+02  0.51100000000E-03 0.  1.
    9900012    2    1    2    0    0 -0.11804585460E+02  0.16321625739E+01  0.29575444256E+02  0.59301967078E+02  0.50000042039E+02 0.  0.
        -12    1    1    2    0    0  0.11804585460E+02 -0.16321625739E+01 -0.29575444256E+02  0.31886032922E+02  0.00000000000E+00 0.  1.
         11    1    3    3    0    0  0.11304349641E+02 -0.26816450200E+01  0.37258443756E+01  0.12200879370E+02  0.51100000000E-03 0. -1.
        -11    1    3    3    0    0 -0.11523652262E+02 -0.74339513152E+01 -0.28409550114E+01  0.14004614213E+02  0.51100000000E-03 0.  1.
        -12    1    3    3    0    0 -0.11585282839E+02  0.11747758909E+02  0.28690554892E+02  0.33096473495E+02  0.00000000000E+00 0.  1.
</event>
<event>
 7    1  0.7284210E-013  0.5930200E+02  0.7816164E-02  0.1266605E+00
        -11   -1    0    0    0    0  0.00000000000E+00  0.00000000000E+00  0.45593999997E+02  0.45594000000E+02  0.51100000000E-03 0. -1.
         11   -1    0    0    0    0 -0.00000000000E+00 -0.00000000000E+00 -0.45593999997E+02  0.45594000000E+02  0.51100000000E-03 0.  1.
    9900012    2    1    2    0    0 -0.30882453100E+02  0.76462422847E+01  0.21273930209E+01  0.59302004146E+02  0.50000109641E+02 0.  0.
        -12    1    1    2    0    0  0.30882453100E+02 -0.76462422847E+01 -0.21273930209E+01  0.31885995854E+02  0.00000000000E+00 0.  1.
         11    1    3    3    0    0 -0.30060314841E+01  0.43755378271E+01 -0.25466506748E+01  0.58878677363E+01  0.51100000000E-03 0. -1.
        -11    1    3    3    0    0 -0.19686872718E+02 -0.10923554646E+02 -0.15566219853E+02  0.27371594844E+02  0.51100000000E-03 0.  1.
         12    1    3    3    0    0 -0.81895488978E+01  0.14194259104E+02  0.20240263549E+02  0.26042541565E+02  0.00000000000E+00 0. -1.
</event>
<event>
 7    1  0.7284210E-013  0.5930204E+02  0.7816164E-02  0.1266604E+00
        -11   -1    0    0    0    0  0.00000000000E+00  0.00000000000E+00  0.45593999997E+02  0.45594000000E+02  0.51100000000E-03 0. -1.
         11   -1    0    0    0    0 -0.00000000000E+00 -0.00000000000E+00 -0.45593999997E+02  0.45594000000E+02  0.51100000000E-03 0.  1.
    9900012    2    1    2    0    0 -0.15091299458E+02  0.27493906367E+02 -0.57490996000E+01  0.59302041446E+02  0.50000177668E+02 0.  0.
        -12    1    1    2    0    0  0.15091299458E+02 -0.27493906367E+02  0.57490996000E+01  0.31885958554E+02  0.00000000000E+00 0.  1.
         11    1    3    3    0    0  0.15728312045E+00  0.22445451798E+01  0.45846725275E+01  0.51070484127E+01  0.51100000000E-03 0. -1.
        -11    1    3    3    0    0 -0.14025568894E+01  0.32125628772E+02 -0.18093725711E+02  0.36897237026E+02  0.51100000000E-03 0.  1.
         12    1    3    3    0    0 -0.13846025689E+02 -0.68762675841E+01  0.77599535831E+01  0.17297756007E+02  0.00000000000E+00 0. -1.
</event>
<event>
 7    1  0.7284210E-013  0.5930195E+02  0.7816164E-02  0.1266605E+00
        -11   -1    0    0    0    0  0.00000000000E+00  0.00000000000E+00  0.45593999997E+02  0.45594000000E+02  0.51100000000E-03 0.  1.
         11   -1    0    0    0    0 -0.00000000000E+00 -0.00000000000E+00 -0.45593999997E+02  0.45594000000E+02  0.51100000000E-03 0. -1.
    9900012    2    1    2    0    0 -0.23311336703E+02 -0.82797441897E+01 -0.20118347723E+02  0.59301945088E+02  0.50000001934E+02 0.  0.
        -12    1    1    2    0    0  0.23311336703E+02  0.82797441897E+01  0.20118347723E+02  0.31886054912E+02  0.00000000000E+00 0.  1.
         11    1    3    3    0    0 -0.14572186849E+02 -0.16686241635E+02 -0.99430194258E+01  0.24282564219E+02  0.51100000000E-03 0. -1.
        -11    1    3    3    0    0 -0.60881650251E+01 -0.11622691654E+02 -0.58088494866E+01  0.14349057366E+02  0.51100000000E-03 0.  1.
        -12    1    3    3    0    0 -0.26509848287E+01  0.20029189100E+02 -0.43664788106E+01  0.20670323504E+02  0.00000000000E+00 0.  1.
</event>
<event>
 7    1  0.7284210E-013  0.5930194E+02  0.7816164E-02  0.1266605E+00
        -11   -1    0    0    0    0  0.00000000000E+00  0.00000000000E+00  0.45593999997E+02  0.45594000000E+02  0.51100000000E-03 0.  1.
         11   -1    0    0    0    0 -0.00000000000E+00 -0.00000000000E+00 -0.45593999997E+02  0.45594000000E+02  0.51100000000E-03 0. -1.
    9900012    2    1    2    0    0  0.23146367648E+02 -0.15852609437E+02  0.15154588121E+02  0.59301935609E+02  0.49999984646E+02 0.  0.
        -12    1    1    2    0    0 -0.23146367648E+02  0.15852609437E+02 -0.15154588121E+02  0.31886064391E+02  0.00000000000E+00 0.  1.
         11    1    3    3    0    0  0.23449550764E+02 -0.16997472573E+02  0.17770301575E+02  0.33979098329E+02  0.51100000000E-03 0. -1.
        -11    1    3    3    0    0  0.10093114008E+02 -0.36476178536E+01  0.47224256791E+01  0.11725074453E+02  0.51100000000E-03 0.  1.
        -12    1    3    3    0    0 -0.10396297125E+02  0.47924809898E+01 -0.73381391332E+01  0.13597762826E+02  0.00000000000E+00 0.  1.
</event>
<event>
 7    1  0.7284210E-013  0.5930192E+02  0.7816164E-02  0.1266605E+00
        -11   -1    0    0    0    0  0.00000000000E+00  0.00000000000E+00  0.45593999997E+02  0.45594000000E+02  0.51100000000E-03 0.  1.
         11   -1    0    0    0    0 -0.00000000000E+00 -0.00000000000E+00 -0.45593999997E+02  0.45594000000E+02  0.51100000000E-03 0. -1.
    9900012    2    1    2    0    0 -0.17570438462E+02  0.15556981750E+02 -0.21586623491E+02  0.59301916788E+02  0.49999950321E+02 0.  0.
        -12    1    1    2    0    0  0.17570438462E+02 -0.15556981750E+02  0.21586623491E+02  0.31886083212E+02  0.00000000000E+00 0.  1.
         11    1    3    3    0    0 -0.81049365176E+01  0.45266339888E+00 -0.15364812511E+01  0.82616992806E+01  0.51100000000E-03 0.  1.
        -11    1    3    3    0    0  0.83092290222E+01 -0.10175723442E+02  0.17046883836E+01  0.13247437384E+02  0.51100000000E-03 0. -1.
         12    1    3    3    0    0 -0.17774730966E+02  0.25280041793E+02 -0.21754830623E+02  0.37792780123E+02  0.00000000000E+00 0. -1.
</event>
<event>
 7    1  0.7284210E-013  0.5930196E+02  0.7816164E-02  0.1266605E+00
        -11   -1    0    0    0    0  0.00000000000E+00  0.00000000000E+00  0.45593999997E+02  0.45594000000E+02  0.51100000000E-03 0.  1.
         11   -1    0    0    0    0 -0.00000000000E+00 -0.00000000000E+00 -0.45593999997E+02  0.45594000000E+02  0.51100000000E-03 0. -1.
    9900012    2    1    2    0    0 -0.14744246267E+02  0.16326904027E+02 -0.23081571993E+02  0.59301959814E+02  0.50000028791E+02 0.  0.
        -12    1    1    2    0    0  0.14744246267E+02 -0.16326904027E+02  0.23081571993E+02  0.31886040186E+02  0.00000000000E+00 0.  1.
         11    1    3    3    0    0 -0.53832448889E+01 -0.40956358670E+01 -0.41162350544E+00  0.67766505635E+01  0.51100000000E-03 0. -1.
        -11    1    3    3    0    0  0.92529130785E+01 -0.74905393234E+01 -0.12960712699E+02  0.17598427593E+02  0.51100000000E-03 0.  1.
         12    1    3    3    0    0 -0.18613914456E+02  0.27913079217E+02 -0.97092357879E+01  0.34926881658E+02  0.00000000000E+00 0. -1.
</event>
<event>
 7    1  0.7284210E-013  0.5930195E+02  0.7816164E-02  0.1266605E+00
        -11   -1    0    0    0    0  0.00000000000E+00  0.00000000000E+00  0.45593999997E+02  0.45594000000E+02  0.51100000000E-03 0.  1.
         11   -1    0    0    0    0 -0.00000000000E+00 -0.00000000000E+00 -0.45593999997E+02  0.45594000000E+02  0.51100000000E-03 0. -1.
    9900012    2    1    2    0    0  0.51082780836E+01 -0.30437764544E+02  0.80105220120E+01  0.59301945394E+02  0.50000002492E+02 0.  0.
        -12    1    1    2    0    0 -0.51082780836E+01  0.30437764544E+02 -0.80105220120E+01  0.31886054606E+02  0.00000000000E+00 0.  1.
         11    1    3    3    0    0  0.19654675891E+02 -0.13173764570E+02  0.19056328025E+01  0.23737855715E+02  0.51100000000E-03 0. -1.
        -11    1    3    3    0    0 -0.27420844298E+00 -0.56954673884E+01  0.14339153159E+02  0.15431294586E+02  0.51100000000E-03 0.  1.
         12    1    3    3    0    0 -0.14272189364E+02 -0.11568532586E+02 -0.82342639492E+01  0.20132795092E+02  0.00000000000E+00 0. -1.
</event>
<event>
 7    1  0.7284210E-013  0.5930198E+02  0.7816164E-02  0.1266605E+00
        -11   -1    0    0    0    0  0.00000000000E+00  0.00000000000E+00  0.45593999997E+02  0.45594000000E+02  0.51100000000E-03 0. -1.
         11   -1    0    0    0    0 -0.00000000000E+00 -0.00000000000E+00 -0.45593999997E+02  0.45594000000E+02  0.51100000000E-03 0.  1.
    9900012    2    1    2    0    0  0.56068798558E+01  0.29355113344E+02  0.11115690221E+02  0.59301978764E+02  0.50000063351E+02 0.  0.
        -12    1    1    2    0    0 -0.56068798558E+01 -0.29355113344E+02 -0.11115690221E+02  0.31886021236E+02  0.00000000000E+00 0.  1.
         11    1    3    3    0    0  0.14652411519E+02  0.12876090958E+02  0.13254738368E+02  0.23583362168E+02  0.51100000000E-03 0. -1.
        -11    1    3    3    0    0  0.73770476042E+01 -0.55762335472E+00  0.71584064285E+01  0.10294394495E+02  0.51100000000E-03 0.  1.
        -12    1    3    3    0    0 -0.16422579267E+02  0.17036645741E+02 -0.92974545753E+01  0.25424222102E+02  0.00000000000E+00 0.  1.
</event>
<event>
 7    1  0.7284210E-013  0.5930195E+02  0.7816164E-02  0.1266605E+00
        -11   -1    0    0    0    0  0.00000000000E+00  0.00000000000E+00  0.45593999997E+02  0.45594000000E+02  0.51100000000E-03 0.  1.
         11   -1    0    0    0    0 -0.00000000000E+00 -0.00000000000E+00 -0.45593999997E+02  0.45594000000E+02  0.51100000000E-03 0. -1.
    9900012    2    1    2    0    0 -0.80555096401E+01 -0.26885259100E+02 -0.15133138101E+02  0.59301948798E+02  0.50000008700E+02 0.  0.
        -12    1    1    2    0    0  0.80555096401E+01  0.26885259100E+02  0.15133138101E+02  0.31886051202E+02  0.00000000000E+00 0.  1.
         11    1    3    3    0    0  0.53382123316E+01  0.93117308779E+01 -0.22712522586E+00  0.10735754700E+02  0.51100000000E-03 0. -1.
        -11    1    3    3    0    0 -0.43270204222E+01 -0.15526966093E+02  0.65741082734E+01  0.17407719024E+02  0.51100000000E-03 0.  1.
        -12    1    3    3    0    0 -0.90667015496E+01 -0.20670023885E+02 -0.21480121148E+02  0.31158475074E+02  0.00000000000E+00 0.  1.
</event>
<event>
 7    1  0.7284210E-013  0.5930188E+02  0.7816164E-02  0.1266605E+00
        -11   -1    0    0    0    0  0.00000000000E+00  0.00000000000E+00  0.45593999997E+02  0.45594000000E+02  0.51100000000E-03 0.  1.
         11   -1    0    0    0    0 -0.00000000000E+00 -0.00000000000E+00 -0.45593999997E+02  0.45594000000E+02  0.51100000000E-03 0. -1.
    9900012    2    1    2    0    0  0.23446110137E+02  0.69777542286E+01 -0.20452769575E+02  0.59301875777E+02  0.49999875527E+02 0.  0.
        -12    1    1    2    0    0 -0.23446110137E+02 -0.69777542286E+01  0.20452769575E+02  0.31886124223E+02  0.00000000000E+00 0.  1.
         11    1    3    3    0    0  0.12463417509E+02  0.49494489092E+01 -0.33641026471E+02  0.36215362524E+02  0.51100000000E-03 0. -1.
        -11    1    3    3    0    0 -0.32131315787E+01 -0.17449541421E+01  0.52714777681E+00  0.36941798196E+01  0.51100000000E-03 0.  1.
        -12    1    3    3    0    0  0.14195824207E+02  0.37732594615E+01  0.12661109118E+02  0.19392333433E+02  0.00000000000E+00 0.  1.
</event>
<event>
 7    1  0.7284210E-013  0.5930207E+02  0.7816164E-02  0.1266604E+00
        -11   -1    0    0    0    0  0.00000000000E+00  0.00000000000E+00  0.45593999997E+02  0.45594000000E+02  0.51100000000E-03 0. -1.
         11   -1    0    0    0    0 -0.00000000000E+00 -0.00000000000E+00 -0.45593999997E+02  0.45594000000E+02  0.51100000000E-03 0.  1.
    9900012    2    1    2    0    0  0.24768060811E+02  0.14497622666E+02  0.13895118841E+02  0.59302074783E+02  0.50000238466E+02 0.  0.
        -12    1    1    2    0    0 -0.24768060811E+02 -0.14497622666E+02 -0.13895118841E+02  0.31885925217E+02  0.00000000000E+00 0.  1.
         11    1    3    3    0    0 -0.79727350247E+01  0.90310124097E+00  0.57747721109E+01  0.98857518085E+01  0.51100000000E-03 0. -1.
        -11    1    3    3    0    0 -0.67274868648E+01  0.82552258685E+00  0.36375926933E+01  0.76923759607E+01  0.51100000000E-03 0.  1.
         12    1    3    3    0    0  0.39468282701E+02  0.12768998838E+02  0.44827540370E+01  0.41723947014E+02  0.00000000000E+00 0. -1.
</event>
<event>
 7    1  0.7284210E-013  0.5930194E+02  0.7816164E-02  0.1266605E+00
        -11   -1    0    0    0    0  0.00000000000E+00  0.00000000000E+00  0.45593999997E+02  0.45594000000E+02  0.51100000000E-03 0. -1.
         11   -1    0    0    0    0 -0.00000000000E+00 -0.00000000000E+00 -0.45593999997E+02  0.45594000000E+02  0.51100000000E-03 0.  1.
    9900012    2    1    2    0    0 -0.19287275971E+02 -0.13012721867E+02  0.21803462121E+02  0.59301938700E+02  0.49999990283E+02 0.  0.
        -12    1    1    2    0    0  0.19287275971E+02  0.13012721867E+02 -0.21803462121E+02  0.31886061300E+02  0.00000000000E+00 0.  1.
         11    1    3    3    0    0 -0.15046734522E+02 -0.43658289553E+01  0.28995962866E+02  0.32958011848E+02  0.51100000000E-03 0. -1.
        -11    1    3    3    0    0  0.61345527585E+00 -0.80196591350E+01  0.74142298983E+01  0.10939015736E+02  0.51100000000E-03 0.  1.
        -12    1    3    3    0    0 -0.48539967251E+01 -0.62723377631E+00 -0.14606730643E+02  0.15404911116E+02  0.00000000000E+00 0.  1.
</event>
<event>
 7    1  0.7284210E-013  0.5930193E+02  0.7816164E-02  0.1266605E+00
        -11   -1    0    0    0    0  0.00000000000E+00  0.00000000000E+00  0.45593999997E+02  0.45594000000E+02  0.51100000000E-03 0.  1.
         11   -1    0    0    0    0 -0.00000000000E+00 -0.00000000000E+00 -0.45593999997E+02  0.45594000000E+02  0.51100000000E-03 0. -1.
    9900012    2    1    2    0    0 -0.23939882858E+02  0.18777074072E+02 -0.95406886964E+01  0.59301933408E+02  0.49999980632E+02 0.  0.
        -12    1    1    2    0    0  0.23939882858E+02 -0.18777074072E+02  0.95406886964E+01  0.31886066592E+02  0.00000000000E+00 0.  1.
         11    1    3    3    0    0 -0.21191964919E+02  0.84556552389E+01  0.66782578590E+01  0.23773864030E+02  0.51100000000E-03 0. -1.
        -11    1    3    3    0    0  0.28210274714E+01  0.18246063071E+02 -0.23500436820E+01  0.18611816654E+02  0.51100000000E-03 0.  1.
         12    1    3    3    0    0 -0.55689454102E+01 -0.79246442387E+01 -0.13868902873E+02  0.16916252723E+02  0.00000000000E+00 0. -1.
</event>
<event>
 7    1  0.7284210E-013  0.5930191E+02  0.7816164E-02  0.1266605E+00
        -11   -1    0    0    0    0  0.00000000000E+00  0.00000000000E+00  0.45593999997E+02  0.45594000000E+02  0.51100000000E-03 0. -1.
         11   -1    0    0    0    0 -0.00000000000E+00 -0.00000000000E+00 -0.45593999997E+02  0.45594000000E+02  0.51100000000E-03 0.  1.
    9900012    2    1    2    0    0 -0.19096463358E+02 -0.10695280059E+02  0.23187473727E+02  0.59301907951E+02  0.49999934205E+02 0.  0.
        -12    1    1    2    0    0  0.19096463358E+02  0.10695280059E+02 -0.23187473727E+02  0.31886092049E+02  0.00000000000E+00 0.  1.
         11    1    3    3    0    0 -0.15095410659E+02 -0.42483242915E+01  0.16157046191E+02  0.22515990410E+02  0.51100000000E-03 0. -1.
        -11    1    3    3    0    0 -0.11898929232E+02 -0.51525580125E+01  0.18626989639E+02  0.22695773047E+02  0.51100000000E-03 0.  1.
        -12    1    3    3    0    0  0.78978765331E+01 -0.12943977547E+01 -0.11596562102E+02  0.14090144494E+02  0.00000000000E+00 0.  1.
</event>
<event>
 7    1  0.7284210E-013  0.5930192E+02  0.7816164E-02  0.1266605E+00
        -11   -1    0    0    0    0  0.00000000000E+00  0.00000000000E+00  0.45593999997E+02  0.45594000000E+02  0.51100000000E-03 0.  1.
         11   -1    0    0    0    0 -0.00000000000E+00 -0.00000000000E+00 -0.45593999997E+02  0.45594000000E+02  0.51100000000E-03 0. -1.
    9900012    2    1    2    0    0 -0.14814120489E+01 -0.21833376285E+02  0.23191184629E+02  0.59301922377E+02  0.49999960515E+02 0.  0.
        -12    1    1    2    0    0  0.14814120489E+01  0.21833376285E+02 -0.23191184629E+02  0.31886077623E+02  0.00000000000E+00 0.  1.
         11    1    3    3    0    0 -0.11454208003E+01 -0.62213423895E+01 -0.87605943840E+01  0.10805790307E+02  0.51100000000E-03 0. -1.
        -11    1    3    3    0    0  0.72920608005E+01 -0.16465794968E+02  0.26457084125E+01  0.18201547404E+02  0.51100000000E-03 0.  1.
        -12    1    3    3    0    0 -0.76280520490E+01  0.85376107258E+00  0.29306070601E+02  0.30294584666E+02  0.00000000000E+00 0.  1.
</event>
<event>
 7    1  0.7284210E-013  0.5930198E+02  0.7816164E-02  0.1266605E+00
        -11   -1    0    0    0    0  0.00000000000E+00  0.00000000000E+00  0.45593999997E+02  0.45594000000E+02  0.51100000000E-03 0.  1.
         11   -1    0    0    0    0 -0.00000000000E+00 -0.00000000000E+00 -0.45593999997E+02  0.45594000000E+02  0.51100000000E-03 0. -1.
    9900012    2    1    2    0    0  0.31562033640E+01  0.31627115566E+02  0.25460279173E+01  0.59301979288E+02  0.50000064306E+02 0.  0.
        -12    1    1    2    0    0 -0.31562033640E+01 -0.31627115566E+02 -0.25460279173E+01  0.31886020712E+02  0.00000000000E+00 0.  1.
         11    1    3    3    0    0 -0.16270455691E+02  0.78403723234E+01 -0.96284777953E+00  0.18086631601E+02  0.51100000000E-03 0. -1.
        -11    1    3    3    0    0  0.44825517451E+01 -0.22236718190E+00  0.11067227599E+02  0.11942623008E+02  0.51100000000E-03 0.  1.
         12    1    3    3    0    0  0.14944107310E+02  0.24009110424E+02 -0.75583519023E+01  0.29272724679E+02  0.00000000000E+00 0. -1.
</event>
<event>
 7    1  0.7284210E-013  0.5930194E+02  0.7816164E-02  0.1266605E+00
        -11   -1    0    0    0    0  0.00000000000E+00  0.00000000000E+00  0.45593999997E+02  0.45594000000E+02  0.51100000000E-03 0. -1.
         11   -1    0    0    0    0 -0.00000000000E+00 -0.00000000000E+00 -0.45593999997E+02  0.45594000000E+02  0.51100000000E-03 0.  1.
    9900012    2    1    2    0    0 -0.23360939126E+02 -0.73916737367E+01  0.20404664661E+02  0.59301942586E+02  0.49999997370E+02 0.  0.
        -12    1    1    2    0    0  0.23360939126E+02  0.73916737367E+01 -0.20404664661E+02  0.31886057414E+02  0.00000000000E+00 0.  1.
         11    1    3    3    0    0 -0.22744273033E+02 -0.77043237193E+01  0.51315616262E-03  0.24013716087E+02  0.51100000000E-03 0. -1.
        -11    1    3    3    0    0 -0.96175480884E+01 -0.97064291792E+01  0.43656890151E+01  0.14344728630E+02  0.51100000000E-03 0.  1.
         12    1    3    3    0    0  0.90008819948E+01  0.10019079162E+02  0.16038462490E+02  0.20943497869E+02  0.00000000000E+00 0. -1.
</event>
<event>
 7    1  0.7284210E-013  0.5930194E+02  0.7816164E-02  0.1266605E+00
        -11   -1    0    0    0    0  0.00000000000E+00  0.00000000000E+00  0.45593999997E+02  0.45594000000E+02  0.51100000000E-03 0.  1.
         11   -1    0    0    0    0 -0.00000000000E+00 -0.00000000000E+00 -0.45593999997E+02  0.45594000000E+02  0.51100000000E-03 0. -1.
    9900012    2    1    2    0    0  0.16561124178E+02  0.99666169629E+01 -0.25359736163E+02  0.59301944961E+02  0.50000001701E+02 0.  0.
        -12    1    1    2    0    0 -0.16561124178E+02 -0.99666169629E+01  0.25359736163E+02  0.31886055039E+02  0.00000000000E+00 0.  1.
         11    1    3    3    0    0  0.14444145390E+02 -0.94229063093E+01 -0.30564652914E+02  0.35094479728E+02  0.51100000000E-03 0. -1.
        -11    1    3    3    0    0 -0.50114668397E+01  0.11855043451E+02  0.67290041221E+00  0.12888353282E+02  0.51100000000E-03 0.  1.
        -12    1    3    3    0    0  0.71284456274E+01  0.75344798216E+01  0.45320163390E+01  0.11319111950E+02  0.00000000000E+00 0.  1.
</event>
<event>
 7    1  0.7284210E-013  0.5930194E+02  0.7816164E-02  0.1266605E+00
        -11   -1    0    0    0    0  0.00000000000E+00  0.00000000000E+00  0.45593999997E+02  0.45594000000E+02  0.51100000000E-03 0. -1.
         11   -1    0    0    0    0 -0.00000000000E+00 -0.00000000000E+00 -0.45593999997E+02  0.45594000000E+02  0.51100000000E-03 0.  1.
    9900012    2    1    2    0    0  0.16403373205E+02  0.25632694249E+02 -0.95191883024E+01  0.59301943284E+02  0.49999998644E+02 0.  0.
        -12    1    1    2    0    0 -0.16403373205E+02 -0.25632694249E+02  0.95191883024E+01  0.31886056716E+02  0.00000000000E+00 0.  1.
         11    1    3    3    0    0 -0.77741787118E+01  0.45685925196E+01 -0.75886304306E+01  0.11785465809E+02  0.51100000000E-03 0. -1.
        -11    1    3    3    0    0 -0.49407055648E+00  0.22294698474E+02  0.24303050251E+01  0.22432210514E+02  0.51100000000E-03 0.  1.
        -12    1    3    3    0    0  0.24671622473E+02 -0.12305967444E+01 -0.43608628970E+01  0.25084266962E+02  0.00000000000E+00 0.  1.
</event>
<event>
 7    1  0.7284210E-013  0.5930200E+02  0.7816164E-02  0.1266605E+00
        -11   -1    0    0    0    0  0.00000000000E+00  0.00000000000E+00  0.45593999997E+02  0.45594000000E+02  0.51100000000E-03 0. -1.
         11   -1    0    0    0    0 -0.00000000000E+00 -0.00000000000E+00 -0.45593999997E+02  0.45594000000E+02  0.51100000000E-03 0.  1.
    9900012    2    1    2    0    0  0.10601288744E+02 -0.29784522312E+02  0.41486979916E+01  0.59302003271E+02  0.50000108045E+02 0.  0.
        -12    1    1    2    0    0 -0.10601288744E+02  0.29784522312E+02 -0.41486979916E+01  0.31885996729E+02  0.00000000000E+00 0.  1.
         11    1    3    3    0    0 -0.18868751633E+01  0.47938626403E+01  0.11568282756E+02  0.12663592819E+02  0.51100000000E-03 0. -1.
        -11    1    3    3    0    0 -0.16176221968E+01 -0.36941175267E+01  0.82962885003E+01  0.92245113158E+01  0.51100000000E-03 0.  1.
        -12    1    3    3    0    0  0.14105786104E+02 -0.30884267426E+02 -0.15715873265E+02  0.37413899136E+02  0.00000000000E+00 0.  1.
</event>
<event>
 7    1  0.7284210E-013  0.5930188E+02  0.7816164E-02  0.1266605E+00
        -11   -1    0    0    0    0  0.00000000000E+00  0.00000000000E+00  0.45593999997E+02  0.45594000000E+02  0.51100000000E-03 0.  1.
         11   -1    0    0    0    0 -0.00000000000E+00 -0.00000000000E+00 -0.45593999997E+02  0.45594000000E+02  0.51100000000E-03 0. -1.
    9900012    2    1    2    0    0 -0.20556153392E+02 -0.69025935404E+01  0.23377834788E+02  0.59301883911E+02  0.49999890362E+02 0.  0.
        -12    1    1    2    0    0  0.20556153392E+02  0.69025935404E+01 -0.23377834788E+02  0.31886116089E+02  0.00000000000E+00 0.  1.
         11    1    3    3    0    0 -0.57220790430E+01  0.55647943561E+00 -0.91579679503E+01  0.10812966067E+02  0.51100000000E-03 0. -1.
        -11    1    3    3    0    0  0.93346924421E+00 -0.16107034256E+02  0.23110754013E+02  0.28185366215E+02  0.51100000000E-03 0.  1.
         12    1    3    3    0    0 -0.15767543593E+02  0.86479612804E+01  0.94250487255E+01  0.20303551629E+02  0.00000000000E+00 0. -1.
</event>
<event>
 7    1  0.7284210E-013  0.5930196E+02  0.7816164E-02  0.1266605E+00
        -11   -1    0    0    0    0  0.00000000000E+00  0.00000000000E+00  0.45593999997E+02  0.45594000000E+02  0.51100000000E-03 0. -1.
         11   -1    0    0    0    0 -0.00000000000E+00 -0.00000000000E+00 -0.45593999997E+02  0.45594000000E+02  0.51100000000E-03 0.  1.
    9900012    2    1    2    0    0  0.31338066921E+02  0.46764485475E+01  0.35743430762E+01  0.59301960143E+02  0.50000029390E+02 0.  0.
        -12    1    1    2    0    0 -0.31338066921E+02 -0.46764485475E+01 -0.35743430762E+01  0.31886039857E+02  0.00000000000E+00 0.  1.
         11    1    3    3    0    0  0.13417509693E+02  0.67770161992E+00  0.92326373121E+01  0.16301240378E+02  0.51100000000E-03 0. -1.
        -11    1    3    3    0    0  0.11279462112E+02  0.19667390326E+02 -0.10951315063E+02  0.25178637963E+02  0.51100000000E-03 0.  1.
         12    1    3    3    0    0  0.66410951159E+01 -0.15668643399E+02  0.52930208271E+01  0.17822081802E+02  0.00000000000E+00 0. -1.
</event>
<event>
 7    1  0.7284210E-013  0.5930196E+02  0.7816164E-02  0.1266605E+00
        -11   -1    0    0    0    0  0.00000000000E+00  0.00000000000E+00  0.45593999997E+02  0.45594000000E+02  0.51100000000E-03 0. -1.
         11   -1    0    0    0    0 -0.00000000000E+00 -0.00000000000E+00 -0.45593999997E+02  0.45594000000E+02  0.51100000000E-03 0.  1.
    9900012    2    1    2    0    0  0.15499222881E+02  0.27865234904E+02  0.15021968061E+00  0.59301956154E+02  0.50000022116E+02 0.  0.
        -12    1    1    2    0    0 -0.15499222881E+02 -0.27865234904E+02 -0.15021968061E+00  0.31886043846E+02  0.00000000000E+00 0.  1.
         11    1    3    3    0    0  0.82128659565E+01  0.24205911799E+01  0.10593685782E+02  0.13621182312E+02  0.51100000000E-03 0. -1.
        -11    1    3    3    0    0  0.54702464694E+01 -0.86738624972E+01 -0.15093846923E+01  0.10365217290E+02  0.51100000000E-03 0.  1.
         12    1    3    3    0    0  0.18161104551E+01  0.34118506221E+02 -0.89340814091E+01  0.35315556552E+02  0.00000000000E+00 0. -1.
</event>
<event>
 7    1  0.7284210E-013  0.5930193E+02  0.7816164E-02  0.1266605E+00
        -11   -1    0    0    0    0  0.00000000000E+00  0.00000000000E+00  0.45593999997E+02  0.45594000000E+02  0.51100000000E-03 0. -1.
         11   -1    0    0    0    0 -0.00000000000E+00 -0.00000000000E+00 -0.45593999997E+02  0.45594000000E+02  0.51100000000E-03 0.  1.
    9900012    2    1    2    0    0  0.11959153853E+02  0.57392911417E+01  0.28995870191E+02  0.59301932324E+02  0.49999978656E+02 0.  0.
        -12    1    1    2    0    0 -0.11959153853E+02 -0.57392911417E+01 -0.28995870191E+02  0.31886067676E+02  0.00000000000E+00 0.  1.
         11    1    3    3    0    0 -0.67530698377E+01  0.11058314206E+02  0.46111373032E+01  0.13753285164E+02  0.51100000000E-03 0. -1.
        -11    1    3    3    0    0 -0.55230033736E+01  0.65413833286E+01  0.14450580937E+02  0.16796206470E+02  0.51100000000E-03 0.  1.
        -12    1    3    3    0    0  0.24235227064E+02 -0.11860406393E+02  0.99341519509E+01  0.28752440690E+02  0.00000000000E+00 0.  1.
</event>
<event>
 7    1  0.7284210E-013  0.5930196E+02  0.7816164E-02  0.1266605E+00
        -11   -1    0    0    0    0  0.00000000000E+00  0.00000000000E+00  0.45593999997E+02  0.45594000000E+02  0.51100000000E-03 0.  1.
         11   -1    0    0    0    0 -0.00000000000E+00 -0.00000000000E+00 -0.45593999997E+02  0.45594000000E+02  0.51100000000E-03 0. -1.
    9900012    2    1    2    0    0 -0.81708232874E+01  0.15883822519E+02 -0.26413285679E+02  0.59301955539E+02  0.50000020994E+02 0.  0.
        -12    1    1    2    0    0  0.81708232874E+01 -0.15883822519E+02  0.26413285679E+02  0.31886044461E+02  0.00000000000E+00 0.  1.
         11    1    3    3    0    0 -0.23664897250E+01 -0.96768314830E+01 -0.20128107730E+02  0.22458451910E+02  0.51100000000E-03 0. -1.
        -11    1    3    3    0    0 -0.11946464831E+02  0.53305378400E+01 -0.84770069678E+01  0.15588210385E+02  0.51100000000E-03 0.  1.
         12    1    3    3    0    0  0.61421312684E+01  0.20230116161E+02  0.21918290186E+01  0.21255293244E+02  0.00000000000E+00 0. -1.
</event>
<event>
 7    1  0.7284210E-013  0.5930195E+02  0.7816164E-02  0.1266605E+00
        -11   -1    0    0    0    0  0.00000000000E+00  0.00000000000E+00  0.45593999997E+02  0.45594000000E+02  0.51100000000E-03 0.  1.
         11   -1    0    0    0    0 -0.00000000000E+00 -0.00000000000E+00 -0.45593999997E+02  0.45594000000E+02  0.51100000000E-03 0. -1.
    9900012    2    1    2    0    0  0.18862268292E+02 -0.13879551503E+02 -0.21640076469E+02  0.59301952509E+02  0.50000015467E+02 0.  0.
        -12    1    1    2    0    0 -0.18862268292E+02  0.13879551503E+02  0.21640076469E+02  0.31886047491E+02  0.00000000000E+00 0.  1.
         11    1    3    3    0    0  0.38898674022E+00  0.89964372580E+00 -0.87918121772E+01  0.88462778126E+01  0.51100000000E-03 0. -1.
        -11    1    3    3    0    0  0.10900936756E+02  0.14088024615E+02  0.36691480457E+00  0.17816775423E+02  0.51100000000E-03 0.  1.
        -12    1    3    3    0    0  0.75723447955E+01 -0.28867219844E+02 -0.13215179096E+02  0.32638899273E+02  0.00000000000E+00 0.  1.
</event>
<event>
 7    1  0.7284210E-013  0.5930194E+02  0.7816164E-02  0.1266605E+00
        -11   -1    0    0    0    0  0.00000000000E+00  0.00000000000E+00  0.45593999997E+02  0.45594000000E+02  0.51100000000E-03 0.  1.
         11   -1    0    0    0    0 -0.00000000000E+00 -0.00000000000E+00 -0.45593999997E+02  0.45594000000E+02  0.51100000000E-03 0. -1.
    9900012    2    1    2    0    0  0.74542214734E+01  0.31002234448E+02  0.12928078968E+00  0.59301942357E+02  0.49999996952E+02 0.  0.
        -12    1    1    2    0    0 -0.74542214734E+01 -0.31002234448E+02 -0.12928078968E+00  0.31886057643E+02  0.00000000000E+00 0.  1.
         11    1    3    3    0    0 -0.46532417675E+01  0.20675471144E+02  0.17998068657E+01  0.21268922657E+02  0.51100000000E-03 0. -1.
        -11    1    3    3    0    0 -0.12252475247E+01 -0.57270817573E+01 -0.13021062406E+02  0.14277561536E+02  0.51100000000E-03 0.  1.
        -12    1    3    3    0    0  0.13332710766E+02  0.16053845061E+02  0.11350536330E+02  0.23755458164E+02  0.00000000000E+00 0.  1.
</event>
<event>
 7    1  0.7284210E-013  0.5930197E+02  0.7816164E-02  0.1266605E+00
        -11   -1    0    0    0    0  0.00000000000E+00  0.00000000000E+00  0.45593999997E+02  0.45594000000E+02  0.51100000000E-03 0. -1.
         11   -1    0    0    0    0 -0.00000000000E+00 -0.00000000000E+00 -0.45593999997E+02  0.45594000000E+02  0.51100000000E-03 0.  1.
    9900012    2    1    2    0    0  0.28143039999E+02 -0.10334730529E+02  0.10857329083E+02  0.59301969355E+02  0.50000046190E+02 0.  0.
        -12    1    1    2    0    0 -0.28143039999E+02  0.10334730529E+02 -0.10857329083E+02  0.31886030645E+02  0.00000000000E+00 0.  1.
         11    1    3    3    0    0  0.89752928091E+01  0.60247785424E+01 -0.18941245124E+01  0.10974586344E+02  0.51100000000E-03 0. -1.
        -11    1    3    3    0    0 -0.31883491354E+01  0.63052012330E+01  0.14827129731E+02  0.16424521579E+02  0.51100000000E-03 0.  1.
        -12    1    3    3    0    0  0.22356096325E+02 -0.22664710305E+02 -0.20756761352E+01  0.31902861431E+02  0.00000000000E+00 0.  1.
</event>
<event>
 7    1  0.7284210E-013  0.5930192E+02  0.7816164E-02  0.1266605E+00
        -11   -1    0    0    0    0  0.00000000000E+00  0.00000000000E+00  0.45593999997E+02  0.45594000000E+02  0.51100000000E-03 0. -1.
         11   -1    0    0    0    0 -0.00000000000E+00 -0.00000000000E+00 -0.45593999997E+02  0.45594000000E+02  0.51100000000E-03 0.  1.
    9900012    2    1    2    0    0 -0.45650988690E+01 -0.24886951986E+02 -0.19404156318E+02  0.59301924838E+02  0.49999965002E+02 0.  0.
        -12    1    1    2    0    0  0.45650988690E+01  0.24886951986E+02  0.19404156318E+02  0.31886075162E+02  0.00000000000E+00 0.  1.
         11    1    3    3    0    0  0.12859257399E+02 -0.91031587364E+01 -0.25981153492E+02  0.30385001841E+02  0.51100000000E-03 0. -1.
        -11    1    3    3    0    0 -0.93855373123E+01  0.17153773122E+00 -0.11388769085E+01  0.94559387005E+01  0.51100000000E-03 0.  1.
         12    1    3    3    0    0 -0.80388189557E+01 -0.15955330981E+02  0.77158740827E+01  0.19460984296E+02  0.00000000000E+00 0. -1.
</event>
<event>
 7    1  0.7284210E-013  0.5930193E+02  0.7816164E-02  0.1266605E+00
        -11   -1    0    0    0    0  0.00000000000E+00  0.00000000000E+00  0.45593999997E+02  0.45594000000E+02  0.51100000000E-03 0. -1.
         11   -1    0    0    0    0 -0.00000000000E+00 -0.00000000000E+00 -0.45593999997E+02  0.45594000000E+02  0.51100000000E-03 0.  1.
    9900012    2    1    2    0    0  0.26054661582E+02  0.14910812259E+02  0.10749129948E+02  0.59301929264E+02  0.49999973074E+02 0.  0.
        -12    1    1    2    0    0 -0.26054661582E+02 -0.14910812259E+02 -0.10749129948E+02  0.31886070736E+02  0.00000000000E+00 0.  1.
         11    1    3    3    0    0 -0.78925355600E+01 -0.72901775750E+00 -0.19366666530E+01  0.81593052671E+01  0.51100000000E-03 0. -1.
        -11    1    3    3    0    0 -0.32205343312E+01 -0.51563380132E+01  0.49848895666E+01  0.78618564816E+01  0.51100000000E-03 0.  1.
         12    1    3    3    0    0  0.37167731473E+02  0.20796168029E+02  0.77009070341E+01  0.43280767515E+02  0.00000000000E+00 0. -1.
</event>
<event>
 7    1  0.7284210E-013  0.5930193E+02  0.7816164E-02  0.1266605E+00
        -11   -1    0    0    0    0  0.00000000000E+00  0.00000000000E+00  0.45593999997E+02  0.45594000000E+02  0.51100000000E-03 0. -1.
         11   -1    0    0    0    0 -0.00000000000E+00 -0.00000000000E+00 -0.45593999997E+02  0.45594000000E+02  0.51100000000E-03 0.  1.
    9900012    2    1    2    0    0 -0.14215451380E+02  0.27493917319E+02  0.76633483864E+01  0.59301930064E+02  0.49999974533E+02 0.  0.
        -12    1    1    2    0    0  0.14215451380E+02 -0.27493917319E+02 -0.76633483864E+01  0.31886069936E+02  0.00000000000E+00 0.  1.
         11    1    3    3    0    0 -0.55342723680E+01  0.62000397053E+01  0.10047726645E+02  0.13039381656E+02  0.51100000000E-03 0. -1.
        -11    1    3    3    0    0  0.14157227609E+02  0.16798304473E+02 -0.58384987230E+01  0.22730996334E+02  0.51100000000E-03 0.  1.
         12    1    3    3    0    0 -0.22838406620E+02  0.44955731414E+01  0.34541204647E+01  0.23531552074E+02  0.00000000000E+00 0. -1.
</event>
<event>
 7    1  0.7284210E-013  0.5930200E+02  0.7816164E-02  0.1266605E+00
        -11   -1    0    0    0    0  0.00000000000E+00  0.00000000000E+00  0.45593999997E+02  0.45594000000E+02  0.51100000000E-03 0. -1.
         11   -1    0    0    0    0 -0.00000000000E+00 -0.00000000000E+00 -0.45593999997E+02  0.45594000000E+02  0.51100000000E-03 0.  1.
    9900012    2    1    2    0    0 -0.24474519311E+02  0.10569199927E+01  0.20410735765E+02  0.59301995078E+02  0.50000093104E+02 0.  0.
        -12    1    1    2    0    0  0.24474519311E+02 -0.10569199927E+01 -0.20410735765E+02  0.31886004922E+02  0.00000000000E+00 0.  1.
         11    1    3    3    0    0 -0.20649956129E+01  0.85056691565E+01  0.96236998697E+00  0.88054966319E+01  0.51100000000E-03 0. -1.
        -11    1    3    3    0    0 -0.85196636966E+01 -0.16762516639E+02 -0.62681055039E+01  0.19820589810E+02  0.51100000000E-03 0.  1.
         12    1    3    3    0    0 -0.13889860002E+02  0.93137674747E+01  0.25716471282E+02  0.30675908636E+02  0.00000000000E+00 0. -1.
</event>
<event>
 7    1  0.7284210E-013  0.5930192E+02  0.7816164E-02  0.1266605E+00
        -11   -1    0    0    0    0  0.00000000000E+00  0.00000000000E+00  0.45593999997E+02  0.45594000000E+02  0.51100000000E-03 0. -1.
         11   -1    0    0    0    0 -0.00000000000E+00 -0.00000000000E+00 -0.45593999997E+02  0.45594000000E+02  0.51100000000E-03 0.  1.
    9900012    2    1    2    0    0 -0.19850398712E+02 -0.23361198739E+02  0.87714273665E+01  0.59301923515E+02  0.49999962589E+02 0.  0.
        -12    1    1    2    0    0  0.19850398712E+02  0.23361198739E+02 -0.87714273665E+01  0.31886076485E+02  0.00000000000E+00 0.  1.
         11    1    3    3    0    0 -0.45049995606E+00  0.56343243513E+01  0.19384090961E+02  0.20191373003E+02  0.51100000000E-03 0. -1.
        -11    1    3    3    0    0 -0.47679293892E+01 -0.18864829401E+02 -0.27391595665E+01  0.19649883826E+02  0.51100000000E-03 0.  1.
        -12    1    3    3    0    0 -0.14631969367E+02 -0.10130693690E+02 -0.78735040277E+01  0.19460666686E+02  0.00000000000E+00 0.  1.
</event>
<event>
 7    1  0.7284210E-013  0.5930202E+02  0.7816164E-02  0.1266604E+00
        -11   -1    0    0    0    0  0.00000000000E+00  0.00000000000E+00  0.45593999997E+02  0.45594000000E+02  0.51100000000E-03 0.  1.
         11   -1    0    0    0    0 -0.00000000000E+00 -0.00000000000E+00 -0.45593999997E+02  0.45594000000E+02  0.51100000000E-03 0. -1.
    9900012    2    1    2    0    0 -0.19245000069E+02 -0.82290777474E+01 -0.24054685346E+02  0.59302021337E+02  0.50000140993E+02 0.  0.
        -12    1    1    2    0    0  0.19245000069E+02  0.82290777474E+01  0.24054685346E+02  0.31885978663E+02  0.00000000000E+00 0.  1.
         11    1    3    3    0    0  0.44787477108E+01  0.25512768802E+01 -0.11353005113E+02  0.12468316652E+02  0.51100000000E-03 0. -1.
        -11    1    3    3    0    0 -0.87064753789E+00 -0.26791863893E+01  0.11937376025E+02  0.12265276738E+02  0.51100000000E-03 0.  1.
         12    1    3    3    0    0 -0.22853100242E+02 -0.81011682383E+01 -0.24639056258E+02  0.34568427947E+02  0.00000000000E+00 0. -1.
</event>
<event>
 7    1  0.7284210E-013  0.5930194E+02  0.7816164E-02  0.1266605E+00
        -11   -1    0    0    0    0  0.00000000000E+00  0.00000000000E+00  0.45593999997E+02  0.45594000000E+02  0.51100000000E-03 0. -1.
         11   -1    0    0    0    0 -0.00000000000E+00 -0.00000000000E+00 -0.45593999997E+02  0.45594000000E+02  0.51100000000E-03 0.  1.
    9900012    2    1    2    0    0 -0.47851117932E+01 -0.31171674201E+02  0.47063904715E+01  0.59301942253E+02  0.49999996763E+02 0.  0.
        -12    1    1    2    0    0  0.47851117932E+01  0.31171674201E+02 -0.47063904715E+01  0.31886057747E+02  0.00000000000E+00 0.  1.
         11    1    3    3    0    0 -0.13112808851E+02 -0.27045904495E+02  0.25588507701E+01  0.30165782328E+02  0.51100000000E-03 0. -1.
        -11    1    3    3    0    0 -0.10076431966E+02 -0.15011853135E+01 -0.11614476072E+01  0.10253633469E+02  0.51100000000E-03 0.  1.
         12    1    3    3    0    0  0.18404129024E+02 -0.26245843930E+01  0.33089873085E+01  0.18882526456E+02  0.00000000000E+00 0. -1.
</event>
<event>
 7    1  0.7284210E-013  0.5930190E+02  0.7816164E-02  0.1266605E+00
        -11   -1    0    0    0    0  0.00000000000E+00  0.00000000000E+00  0.45593999997E+02  0.45594000000E+02  0.51100000000E-03 0. -1.
         11   -1    0    0    0    0 -0.00000000000E+00 -0.00000000000E+00 -0.45593999997E+02  0.45594000000E+02  0.51100000000E-03 0.  1.
    9900012    2    1    2    0    0 -0.19926318047E+02  0.15777063642E+02  0.19254852343E+02  0.59301902295E+02  0.49999923890E+02 0.  0.
        -12    1    1    2    0    0  0.19926318047E+02 -0.15777063642E+02 -0.19254852343E+02  0.31886097705E+02  0.00000000000E+00 0.  1.
         11    1    3    3    0    0  0.74315239015E+00 -0.11587414042E+02  0.52393875530E+01  0.12738587906E+02  0.51100000000E-03 0.  1.
        -11    1    3    3    0    0 -0.27603977427E+02  0.24448483411E+02  0.11327839324E+02  0.38574964095E+02  0.51100000000E-03 0. -1.
         12    1    3    3    0    0  0.69345069893E+01  0.29159942728E+01  0.26876254651E+01  0.79883502943E+01  0.00000000000E+00 0. -1.
</event>
<event>
 7    1  0.7284210E-013  0.5930201E+02  0.7816164E-02  0.1266605E+00
        -11   -1    0    0    0    0  0.00000000000E+00  0.00000000000E+00  0.45593999997E+02  0.45594000000E+02  0.51100000000E-03 0.  1.
         11   -1    0    0    0    0 -0.00000000000E+00 -0.00000000000E+00 -0.45593999997E+02  0.45594000000E+02  0.51100000000E-03 0. -1.
    9900012    2    1    2    0    0  0.28344402191E+02  0.10216882707E+02 -0.10436775626E+02  0.59302013841E+02  0.50000127323E+02 0.  0.
        -12    1    1    2    0    0 -0.28344402191E+02 -0.10216882707E+02  0.10436775626E+02  0.31885986159E+02  0.00000000000E+00 0.  1.
         11    1    3    3    0    0  0.22215607100E+02 -0.69722384611E+00 -0.68568729896E+01  0.23260181155E+02  0.51100000000E-03 0. -1.
        -11    1    3    3    0    0  0.15886236246E+02  0.17345333391E+02  0.87010895546E+00  0.23536996035E+02  0.51100000000E-03 0.  1.
         12    1    3    3    0    0 -0.97574411542E+01 -0.64312268376E+01 -0.44500115923E+01  0.12504836652E+02  0.00000000000E+00 0. -1.
</event>
<event>
 7    1  0.7284210E-013  0.5930195E+02  0.7816164E-02  0.1266605E+00
        -11   -1    0    0    0    0  0.00000000000E+00  0.00000000000E+00  0.45593999997E+02  0.45594000000E+02  0.51100000000E-03 0.  1.
         11   -1    0    0    0    0 -0.00000000000E+00 -0.00000000000E+00 -0.45593999997E+02  0.45594000000E+02  0.51100000000E-03 0. -1.
    9900012    2    1    2    0    0 -0.18550111420E+02 -0.89800241012E+01 -0.24330487610E+02  0.59301951423E+02  0.50000013487E+02 0.  0.
        -12    1    1    2    0    0  0.18550111420E+02  0.89800241012E+01  0.24330487610E+02  0.31886048577E+02  0.00000000000E+00 0.  1.
         11    1    3    3    0    0 -0.22663491337E+02 -0.15551438047E+02 -0.25975340716E+02  0.37817977080E+02  0.51100000000E-03 0. -1.
        -11    1    3    3    0    0 -0.56921037598E+01 -0.14302135517E+01 -0.45186053799E+01  0.74069798742E+01  0.51100000000E-03 0.  1.
        -12    1    3    3    0    0  0.98054836770E+01  0.80016274979E+01  0.61634584859E+01  0.14076994468E+02  0.00000000000E+00 0.  1.
</event>
<event>
 7    1  0.7284210E-013  0.5930194E+02  0.7816164E-02  0.1266605E+00
        -11   -1    0    0    0    0  0.00000000000E+00  0.00000000000E+00  0.45593999997E+02  0.45594000000E+02  0.51100000000E-03 0.  1.
         11   -1    0    0    0    0 -0.00000000000E+00 -0.00000000000E+00 -0.45593999997E+02  0.45594000000E+02  0.51100000000E-03 0. -1.
    9900012    2    1    2    0    0 -0.25972218844E+02  0.13387896316E+02 -0.12764356414E+02  0.59301941697E+02  0.49999995749E+02 0.  0.
        -12    1    1    2    0    0  0.25972218844E+02 -0.13387896316E+02  0.12764356414E+02  0.31886058303E+02  0.00000000000E+00 0.  1.
         11    1    3    3    0    0 -0.15503845144E+02 -0.18018002219E+01  0.49917378587E+01  0.16386980973E+02  0.51100000000E-03 0. -1.
        -11    1    3    3    0    0 -0.49448149038E+01  0.12578961621E+02  0.84939335683E+01  0.15963344813E+02  0.51100000000E-03 0.  1.
         12    1    3    3    0    0 -0.55235587959E+01  0.26107349168E+01 -0.26250027841E+02  0.26951615911E+02  0.00000000000E+00 0. -1.
</event>
<event>
 7    1  0.7284210E-013  0.5930199E+02  0.7816164E-02  0.1266605E+00
        -11   -1    0    0    0    0  0.00000000000E+00  0.00000000000E+00  0.45593999997E+02  0.45594000000E+02  0.51100000000E-03 0.  1.
         11   -1    0    0    0    0 -0.00000000000E+00 -0.00000000000E+00 -0.45593999997E+02  0.45594000000E+02  0.51100000000E-03 0. -1.
    9900012    2    1    2    0    0 -0.16502845315E+02  0.26559157960E+02 -0.62437691843E+01  0.59301993215E+02  0.50000089706E+02 0.  0.
        -12    1    1    2    0    0  0.16502845315E+02 -0.26559157960E+02  0.62437691843E+01  0.31886006785E+02  0.00000000000E+00 0.  1.
         11    1    3    3    0    0 -0.10624810137E+02  0.54211178488E+01 -0.18306718467E+02  0.21849737995E+02  0.51100000000E-03 0. -1.
        -11    1    3    3    0    0  0.65394332797E+01 -0.12879738813E+01 -0.34340111789E+01  0.74976994723E+01  0.51100000000E-03 0.  1.
        -12    1    3    3    0    0 -0.12417468458E+02  0.22426013993E+02  0.15496960461E+02  0.29954555748E+02  0.00000000000E+00 0.  1.
</event>
<event>
 7    1  0.7284210E-013  0.5930193E+02  0.7816164E-02  0.1266605E+00
        -11   -1    0    0    0    0  0.00000000000E+00  0.00000000000E+00  0.45593999997E+02  0.45594000000E+02  0.51100000000E-03 0.  1.
         11   -1    0    0    0    0 -0.00000000000E+00 -0.00000000000E+00 -0.45593999997E+02  0.45594000000E+02  0.51100000000E-03 0. -1.
    9900012    2    1    2    0    0 -0.14832223327E+02 -0.26125859937E+02 -0.10684862123E+02  0.59301926475E+02  0.49999967987E+02 0.  0.
        -12    1    1    2    0    0  0.14832223327E+02  0.26125859937E+02  0.10684862123E+02  0.31886073525E+02  0.00000000000E+00 0.  1.
         11    1    3    3    0    0 -0.12843633574E+01 -0.18308626443E+01  0.46435633953E+01  0.51540594218E+01  0.51100000000E-03 0.  1.
        -11    1    3    3    0    0 -0.35847798175E+01 -0.25036656637E+02 -0.28182783316E+02  0.37867586371E+02  0.51100000000E-03 0. -1.
         12    1    3    3    0    0 -0.99630801520E+01  0.74165934396E+00  0.12854357797E+02  0.16280280682E+02  0.00000000000E+00 0. -1.
</event>
<event>
 7    1  0.7284210E-013  0.5930171E+02  0.7816164E-02  0.1266606E+00
        -11   -1    0    0    0    0  0.00000000000E+00  0.00000000000E+00  0.45593999997E+02  0.45594000000E+02  0.51100000000E-03 0.  1.
         11   -1    0    0    0    0 -0.00000000000E+00 -0.00000000000E+00 -0.45593999997E+02  0.45594000000E+02  0.51100000000E-03 0. -1.
    9900012    2    1    2    0    0  0.12529968597E+02  0.14912793292E+01 -0.29283299782E+02  0.59301707127E+02  0.49999567948E+02 0.  0.
        -12    1    1    2    0    0 -0.12529968597E+02 -0.14912793292E+01  0.29283299782E+02  0.31886292873E+02  0.00000000000E+00 0.  1.
         11    1    3    3    0    0 -0.63853318331E+01 -0.86894705474E+01 -0.34389186887E+01  0.11318371041E+02  0.51100000000E-03 0. -1.
        -11    1    3    3    0    0 -0.87542128625E+01 -0.35492095137E+01 -0.47019200238E+01  0.10551833167E+02  0.51100000000E-03 0.  1.
         12    1    3    3    0    0  0.27669513293E+02  0.13729959390E+02 -0.21142461069E+02  0.37431502919E+02  0.00000000000E+00 0. -1.
</event>
<event>
 7    1  0.7284210E-013  0.5930195E+02  0.7816164E-02  0.1266605E+00
        -11   -1    0    0    0    0  0.00000000000E+00  0.00000000000E+00  0.45593999997E+02  0.45594000000E+02  0.51100000000E-03 0. -1.
         11   -1    0    0    0    0 -0.00000000000E+00 -0.00000000000E+00 -0.45593999997E+02  0.45594000000E+02  0.51100000000E-03 0.  1.
    9900012    2    1    2    0    0  0.56723382129E+01 -0.17347599991E+02  0.26145852012E+02  0.59301949387E+02  0.50000009774E+02 0.  0.
        -12    1    1    2    0    0 -0.56723382129E+01  0.17347599991E+02 -0.26145852012E+02  0.31886050613E+02  0.00000000000E+00 0.  1.
         11    1    3    3    0    0 -0.13456712645E+02 -0.17121951207E+02  0.53853879887E+01  0.22433161445E+02  0.51100000000E-03 0. -1.
        -11    1    3    3    0    0  0.84265251110E+01 -0.11751738534E+02  0.74662744476E+01  0.16274364455E+02  0.51100000000E-03 0.  1.
         12    1    3    3    0    0  0.10702525747E+02  0.11526089750E+02  0.13294189576E+02  0.20594423488E+02  0.00000000000E+00 0. -1.
</event>
<event>
 7    1  0.7284210E-013  0.5930195E+02  0.7816164E-02  0.1266605E+00
        -11   -1    0    0    0    0  0.00000000000E+00  0.00000000000E+00  0.45593999997E+02  0.45594000000E+02  0.51100000000E-03 0. -1.
         11   -1    0    0    0    0 -0.00000000000E+00 -0.00000000000E+00 -0.45593999997E+02  0.45594000000E+02  0.51100000000E-03 0.  1.
    9900012    2    1    2    0    0  0.34913277984E+01  0.23198054487E+02  0.21595854909E+02  0.59301952094E+02  0.50000014711E+02 0.  0.
        -12    1    1    2    0    0 -0.34913277984E+01 -0.23198054487E+02 -0.21595854909E+02  0.31886047906E+02  0.00000000000E+00 0.  1.
         11    1    3    3    0    0 -0.14402111692E+02 -0.35069399335E+01 -0.13107577671E+01  0.14880777368E+02  0.51100000000E-03 0. -1.
        -11    1    3    3    0    0 -0.24143292232E+01 -0.18174880597E+01  0.22610108188E+01  0.37741778746E+01  0.51100000000E-03 0.  1.
        -12    1    3    3    0    0  0.20307768714E+02  0.28522482480E+02  0.20645601858E+02  0.40646996851E+02  0.00000000000E+00 0.  1.
</event>
<event>
 7    1  0.7284210E-013  0.5930211E+02  0.7816164E-02  0.1266604E+00
        -11   -1    0    0    0    0  0.00000000000E+00  0.00000000000E+00  0.45593999997E+02  0.45594000000E+02  0.51100000000E-03 0.  1.
         11   -1    0    0    0    0 -0.00000000000E+00 -0.00000000000E+00 -0.45593999997E+02  0.45594000000E+02  0.51100000000E-03 0. -1.
    9900012    2    1    2    0    0  0.31867929072E+02 -0.64349696736E+00  0.85502844741E+00  0.59302108679E+02  0.50000300284E+02 0.  0.
        -12    1    1    2    0    0 -0.31867929072E+02  0.64349696736E+00 -0.85502844741E+00  0.31885891321E+02  0.00000000000E+00 0.  1.
         11    1    3    3    0    0  0.15038437757E+02 -0.55994974910E+01  0.90448873579E+01  0.18420612636E+02  0.51100000000E-03 0. -1.
        -11    1    3    3    0    0  0.21450514940E+02  0.29573507493E+01  0.86408835501E+01  0.23313845317E+02  0.51100000000E-03 0.  1.
         12    1    3    3    0    0 -0.46210236254E+01  0.19986497743E+01 -0.16830742461E+02  0.17567650726E+02  0.00000000000E+00 0. -1.
</event>
<event>
 7    1  0.7284210E-013  0.5930195E+02  0.7816164E-02  0.1266605E+00
        -11   -1    0    0    0    0  0.00000000000E+00  0.00000000000E+00  0.45593999997E+02  0.45594000000E+02  0.51100000000E-03 0. -1.
         11   -1    0    0    0    0 -0.00000000000E+00 -0.00000000000E+00 -0.45593999997E+02  0.45594000000E+02  0.51100000000E-03 0.  1.
    9900012    2    1    2    0    0 -0.24317006159E+02  0.20233819267E+02 -0.39994938923E+01  0.59301950039E+02  0.50000010964E+02 0.  0.
        -12    1    1    2    0    0  0.24317006159E+02 -0.20233819267E+02  0.39994938923E+01  0.31886049961E+02  0.00000000000E+00 0.  1.
         11    1    3    3    0    0 -0.10228089038E+02  0.90716729181E+01  0.21821699059E+01  0.13844526740E+02  0.51100000000E-03 0. -1.
        -11    1    3    3    0    0 -0.15602579255E+02  0.13285477736E+02  0.14185929932E+02  0.24923583337E+02  0.51100000000E-03 0.  1.
        -12    1    3    3    0    0  0.15136621332E+01 -0.21233313864E+01 -0.20367593730E+02  0.20533839962E+02  0.00000000000E+00 0.  1.
</event>
<event>
 7    1  0.7284210E-013  0.5930194E+02  0.7816164E-02  0.1266605E+00
        -11   -1    0    0    0    0  0.00000000000E+00  0.00000000000E+00  0.45593999997E+02  0.45594000000E+02  0.51100000000E-03 0.  1.
         11   -1    0    0    0    0 -0.00000000000E+00 -0.00000000000E+00 -0.45593999997E+02  0.45594000000E+02  0.51100000000E-03 0. -1.
    9900012    2    1    2    0    0  0.77966300947E+01 -0.29957968614E+02 -0.76454884155E+01  0.59301940077E+02  0.49999992794E+02 0.  0.
        -12    1    1    2    0    0 -0.77966300947E+01  0.29957968614E+02  0.76454884155E+01  0.31886059923E+02  0.00000000000E+00 0.  1.
         11    1    3    3    0    0  0.16576610822E+02  0.20257732035E+01 -0.19931031085E+01  0.16818449503E+02  0.51100000000E-03 0. -1.
        -11    1    3    3    0    0  0.32005063490E+01 -0.20170851808E+02  0.68287888359E+01  0.21534596834E+02  0.51100000000E-03 0.  1.
         12    1    3    3    0    0 -0.11980487076E+02 -0.11812890009E+02 -0.12481174143E+02  0.20948893740E+02  0.00000000000E+00 0. -1.
</event>
<event>
 7    1  0.7284210E-013  0.5930193E+02  0.7816164E-02  0.1266605E+00
        -11   -1    0    0    0    0  0.00000000000E+00  0.00000000000E+00  0.45593999997E+02  0.45594000000E+02  0.51100000000E-03 0.  1.
         11   -1    0    0    0    0 -0.00000000000E+00 -0.00000000000E+00 -0.45593999997E+02  0.45594000000E+02  0.51100000000E-03 0. -1.
    9900012    2    1    2    0    0  0.18048068068E+02 -0.26284198834E+02  0.35978250829E+00  0.59301932309E+02  0.49999978628E+02 0.  0.
        -12    1    1    2    0    0 -0.18048068068E+02  0.26284198834E+02 -0.35978250829E+00  0.31886067691E+02  0.00000000000E+00 0.  1.
         11    1    3    3    0    0  0.87272321598E+01 -0.14908437948E+02 -0.23858877345E+02  0.29456274911E+02  0.51100000000E-03 0. -1.
        -11    1    3    3    0    0 -0.69392671887E+00  0.22105794253E+00 -0.41284537350E+00  0.83716334646E+00  0.51100000000E-03 0.  1.
        -12    1    3    3    0    0  0.10014762627E+02 -0.11596818829E+02  0.24631505227E+02  0.29008494052E+02  0.00000000000E+00 0.  1.
</event>
<event>
 7    1  0.7284210E-013  0.5930195E+02  0.7816164E-02  0.1266605E+00
        -11   -1    0    0    0    0  0.00000000000E+00  0.00000000000E+00  0.45593999997E+02  0.45594000000E+02  0.51100000000E-03 0.  1.
         11   -1    0    0    0    0 -0.00000000000E+00 -0.00000000000E+00 -0.45593999997E+02  0.45594000000E+02  0.51100000000E-03 0. -1.
    9900012    2    1    2    0    0  0.15341042633E+02 -0.44062532718E+01 -0.27603583432E+02  0.59301945443E+02  0.50000002581E+02 0.  0.
        -12    1    1    2    0    0 -0.15341042633E+02  0.44062532718E+01  0.27603583432E+02  0.31886054557E+02  0.00000000000E+00 0.  1.
         11    1    3    3    0    0 -0.29301487784E+01  0.27722288465E+01 -0.17690236650E+02  0.18144296559E+02  0.51100000000E-03 0.  1.
        -11    1    3    3    0    0 -0.26933509517E+01 -0.56389089224E+01 -0.17676785588E+02  0.18748871491E+02  0.51100000000E-03 0. -1.
        -12    1    3    3    0    0  0.20964542363E+02 -0.15395731958E+01  0.77634388067E+01  0.22408777393E+02  0.00000000000E+00 0.  1.
</event>
<event>
 7    1  0.7284210E-013  0.5930194E+02  0.7816164E-02  0.1266605E+00
        -11   -1    0    0    0    0  0.00000000000E+00  0.00000000000E+00  0.45593999997E+02  0.45594000000E+02  0.51100000000E-03 0.  1.
         11   -1    0    0    0    0 -0.00000000000E+00 -0.00000000000E+00 -0.45593999997E+02  0.45594000000E+02  0.51100000000E-03 0. -1.
    9900012    2    1    2    0    0 -0.26198792149E+02  0.89396078670E+01 -0.15824906727E+02  0.59301937656E+02  0.49999988379E+02 0.  0.
        -12    1    1    2    0    0  0.26198792149E+02 -0.89396078670E+01  0.15824906727E+02  0.31886062344E+02  0.00000000000E+00 0.  1.
         11    1    3    3    0    0 -0.12932535070E+02 -0.17303556666E+02  0.71508055700E+00  0.21614228580E+02  0.51100000000E-03 0. -1.
        -11    1    3    3    0    0  0.14817115377E+01  0.56175680301E+01  0.21427783483E+01  0.61922563710E+01  0.51100000000E-03 0.  1.
         12    1    3    3    0    0 -0.14747968617E+02  0.20625596503E+02 -0.18682765632E+02  0.31495452705E+02  0.00000000000E+00 0. -1.
</event>
<event>
 7    1  0.7284210E-013  0.5930162E+02  0.7816164E-02  0.1266606E+00
        -11   -1    0    0    0    0  0.00000000000E+00  0.00000000000E+00  0.45593999997E+02  0.45594000000E+02  0.51100000000E-03 0. -1.
         11   -1    0    0    0    0 -0.00000000000E+00 -0.00000000000E+00 -0.45593999997E+02  0.45594000000E+02  0.51100000000E-03 0.  1.
    9900012    2    1    2    0    0  0.26271818578E+02  0.15159091863E+01  0.18006521048E+02  0.59301619956E+02  0.49999408967E+02 0.  0.
        -12    1    1    2    0    0 -0.26271818578E+02 -0.15159091863E+01 -0.18006521048E+02  0.31886380044E+02  0.00000000000E+00 0.  1.
         11    1    3    3    0    0  0.28187472054E+02 -0.43029437766E+01  0.11537393561E+02  0.30759719706E+02  0.51100000000E-03 0. -1.
        -11    1    3    3    0    0  0.79072343064E+01 -0.69156017817E+01 -0.14686308942E+01  0.10606921294E+02  0.51100000000E-03 0.  1.
        -12    1    3    3    0    0 -0.98228877820E+01  0.12734454745E+02  0.79377583818E+01  0.17934978956E+02  0.00000000000E+00 0.  1.
</event>
<event>
 7    1  0.7284210E-013  0.5930194E+02  0.7816164E-02  0.1266605E+00
        -11   -1    0    0    0    0  0.00000000000E+00  0.00000000000E+00  0.45593999997E+02  0.45594000000E+02  0.51100000000E-03 0. -1.
         11   -1    0    0    0    0 -0.00000000000E+00 -0.00000000000E+00 -0.45593999997E+02  0.45594000000E+02  0.51100000000E-03 0.  1.
    9900012    2    1    2    0    0  0.34271731925E+01  0.27328357829E+02 -0.16066623099E+02  0.59301936657E+02  0.49999986558E+02 0.  0.
        -12    1    1    2    0    0 -0.34271731925E+01 -0.27328357829E+02  0.16066623099E+02  0.31886063343E+02  0.00000000000E+00 0.  1.
         11    1    3    3    0    0  0.90297827724E+00 -0.77547880088E+01 -0.60107993999E+01  0.98530105307E+01  0.51100000000E-03 0. -1.
        -11    1    3    3    0    0 -0.94201768823E+01  0.10008194118E+02  0.83942369288E+01  0.16104871805E+02  0.51100000000E-03 0.  1.
        -12    1    3    3    0    0  0.11944371798E+02  0.25074951720E+02 -0.18450060628E+02  0.33344054321E+02  0.00000000000E+00 0.  1.
</event>
<event>
 7    1  0.7284210E-013  0.5930198E+02  0.7816164E-02  0.1266605E+00
        -11   -1    0    0    0    0  0.00000000000E+00  0.00000000000E+00  0.45593999997E+02  0.45594000000E+02  0.51100000000E-03 0.  1.
         11   -1    0    0    0    0 -0.00000000000E+00 -0.00000000000E+00 -0.45593999997E+02  0.45594000000E+02  0.51100000000E-03 0. -1.
    9900012    2    1    2    0    0 -0.70711101447E+01  0.11273220004E+02 -0.28976408326E+02  0.59301979122E+02  0.50000064003E+02 0.  0.
        -12    1    1    2    0    0  0.70711101447E+01 -0.11273220004E+02  0.28976408326E+02  0.31886020878E+02  0.00000000000E+00 0.  1.
         11    1    3    3    0    0  0.45940819118E+01  0.16656025966E+02 -0.28265300884E+00  0.17280297526E+02  0.51100000000E-03 0. -1.
        -11    1    3    3    0    0 -0.59300703593E+01  0.26010441091E+01  0.41815018615E+01  0.77081854546E+01  0.51100000000E-03 0.  1.
         12    1    3    3    0    0 -0.57351216972E+01 -0.79838500711E+01 -0.32875257179E+02  0.34313496141E+02  0.00000000000E+00 0. -1.
</event>
<event>
 7    1  0.7284210E-013  0.5930186E+02  0.7816164E-02  0.1266605E+00
        -11   -1    0    0    0    0  0.00000000000E+00  0.00000000000E+00  0.45593999997E+02  0.45594000000E+02  0.51100000000E-03 0.  1.
         11   -1    0    0    0    0 -0.00000000000E+00 -0.00000000000E+00 -0.45593999997E+02  0.45594000000E+02  0.51100000000E-03 0. -1.
    9900012    2    1    2    0    0 -0.12829978602E+02 -0.98988066911E+01 -0.27461451543E+02  0.59301858094E+02  0.49999843277E+02 0.  0.
        -12    1    1    2    0    0  0.12829978602E+02  0.98988066911E+01  0.27461451543E+02  0.31886141906E+02  0.00000000000E+00 0.  1.
         11    1    3    3    0    0 -0.10047681097E+02  0.59237187706E+00  0.52173042929E+01  0.11336977737E+02  0.51100000000E-03 0.  1.
        -11    1    3    3    0    0 -0.10211023085E+01 -0.18670225992E+02 -0.54447837114E+01  0.19474744118E+02  0.51100000000E-03 0. -1.
         12    1    3    3    0    0 -0.17611951966E+01  0.81790474239E+01 -0.27233972124E+02  0.28490136239E+02  0.00000000000E+00 0. -1.
</event>
<event>
 7    1  0.7284210E-013  0.5930203E+02  0.7816164E-02  0.1266604E+00
        -11   -1    0    0    0    0  0.00000000000E+00  0.00000000000E+00  0.45593999997E+02  0.45594000000E+02  0.51100000000E-03 0. -1.
         11   -1    0    0    0    0 -0.00000000000E+00 -0.00000000000E+00 -0.45593999997E+02  0.45594000000E+02  0.51100000000E-03 0.  1.
    9900012    2    1    2    0    0 -0.83307231630E+01  0.29740233433E+02  0.79267029146E+01  0.59302030481E+02  0.50000157671E+02 0.  0.
        -12    1    1    2    0    0  0.83307231630E+01 -0.29740233433E+02 -0.79267029146E+01  0.31885969519E+02  0.00000000000E+00 0.  1.
         11    1    3    3    0    0 -0.17195610025E+02  0.80266587662E+01  0.18519594741E+02  0.26515875333E+02  0.51100000000E-03 0. -1.
        -11    1    3    3    0    0 -0.38284531905E+01 -0.13625861037E+01  0.71188685521E+00  0.41255881856E+01  0.51100000000E-03 0.  1.
        -12    1    3    3    0    0  0.12693340052E+02  0.23076160770E+02 -0.11304778681E+02  0.28660566962E+02  0.00000000000E+00 0.  1.
</event>
<event>
 7    1  0.7284210E-013  0.5930193E+02  0.7816164E-02  0.1266605E+00
        -11   -1    0    0    0    0  0.00000000000E+00  0.00000000000E+00  0.45593999997E+02  0.45594000000E+02  0.51100000000E-03 0.  1.
         11   -1    0    0    0    0 -0.00000000000E+00 -0.00000000000E+00 -0.45593999997E+02  0.45594000000E+02  0.51100000000E-03 0. -1.
    9900012    2    1    2    0    0  0.24111831998E+02  0.20570013886E+02  0.34950629908E+01  0.59301931273E+02  0.49999976738E+02 0.  0.
        -12    1    1    2    0    0 -0.24111831998E+02 -0.20570013886E+02 -0.34950629908E+01  0.31886068727E+02  0.00000000000E+00 0.  1.
         11    1    3    3    0    0 -0.42513903591E+01  0.14556954659E+02 -0.10357202680E+02  0.18364392082E+02  0.51100000000E-03 0. -1.
        -11    1    3    3    0    0 -0.45825358924E+01  0.63098290063E+00 -0.39349355065E+00  0.46424790858E+01  0.51100000000E-03 0.  1.
         12    1    3    3    0    0  0.32945758250E+02  0.53820763266E+01  0.14245759222E+02  0.36295060105E+02  0.00000000000E+00 0. -1.
</event>
<event>
 7    1  0.7284210E-013  0.5930194E+02  0.7816164E-02  0.1266605E+00
        -11   -1    0    0    0    0  0.00000000000E+00  0.00000000000E+00  0.45593999997E+02  0.45594000000E+02  0.51100000000E-03 0. -1.
         11   -1    0    0    0    0 -0.00000000000E+00 -0.00000000000E+00 -0.45593999997E+02  0.45594000000E+02  0.51100000000E-03 0.  1.
    9900012    2    1    2    0    0  0.23387064241E+02  0.16231241291E+02  0.14363596446E+02  0.59301939244E+02  0.49999991276E+02 0.  0.
        -12    1    1    2    0    0 -0.23387064241E+02 -0.16231241291E+02 -0.14363596446E+02  0.31886060756E+02  0.00000000000E+00 0.  1.
         11    1    3    3    0    0 -0.36312575970E+01 -0.34911572913E+01 -0.29831201497E+01  0.58543331863E+01  0.51100000000E-03 0.  1.
        -11    1    3    3    0    0  0.28487544516E+02  0.20377762967E+02  0.26646673040E+02  0.44009528519E+02  0.51100000000E-03 0. -1.
         12    1    3    3    0    0 -0.14692226782E+01 -0.65536438458E+00 -0.92999564444E+01  0.94380775385E+01  0.00000000000E+00 0. -1.
</event>
<event>
 7    1  0.7284210E-013  0.5930196E+02  0.7816164E-02  0.1266605E+00
        -11   -1    0    0    0    0  0.00000000000E+00  0.00000000000E+00  0.45593999997E+02  0.45594000000E+02  0.51100000000E-03 0.  1.
         11   -1    0    0    0    0 -0.00000000000E+00 -0.00000000000E+00 -0.45593999997E+02  0.45594000000E+02  0.51100000000E-03 0. -1.
    9900012    2    1    2    0    0  0.31116350283E+02  0.21243514567E+01 -0.66317151343E+01  0.59301956507E+02  0.50000022758E+02 0.  0.
        -12    1    1    2    0    0 -0.31116350283E+02 -0.21243514567E+01  0.66317151343E+01  0.31886043493E+02  0.00000000000E+00 0.  1.
         11    1    3    3    0    0  0.14633633947E+02 -0.20474905629E+02  0.88003099541E+01  0.26661028835E+02  0.51100000000E-03 0. -1.
        -11    1    3    3    0    0  0.72023741544E+01  0.57920725849E+01 -0.73558730519E+01  0.11812331138E+02  0.51100000000E-03 0.  1.
        -12    1    3    3    0    0  0.92803421816E+01  0.16807184501E+02 -0.80761520365E+01  0.20828596534E+02  0.00000000000E+00 0.  1.
</event>
<event>
 7    1  0.7284210E-013  0.5930196E+02  0.7816164E-02  0.1266605E+00
        -11   -1    0    0    0    0  0.00000000000E+00  0.00000000000E+00  0.45593999997E+02  0.45594000000E+02  0.51100000000E-03 0.  1.
         11   -1    0    0    0    0 -0.00000000000E+00 -0.00000000000E+00 -0.45593999997E+02  0.45594000000E+02  0.51100000000E-03 0. -1.
    9900012    2    1    2    0    0  0.83470959716E+01  0.30308339017E+02  0.53338628058E+01  0.59301960460E+02  0.50000029968E+02 0.  0.
        -12    1    1    2    0    0 -0.83470959716E+01 -0.30308339017E+02 -0.53338628058E+01  0.31886039540E+02  0.00000000000E+00 0.  1.
         11    1    3    3    0    0 -0.14918765436E+01  0.15448885235E+02  0.19502775823E+01  0.15642804529E+02  0.51100000000E-03 0. -1.
        -11    1    3    3    0    0  0.11116280334E+02  0.13695039392E+02  0.20163886650E+02  0.26790074981E+02  0.51100000000E-03 0.  1.
        -12    1    3    3    0    0 -0.12773078184E+01  0.11644143895E+01 -0.16780301426E+02  0.16869080950E+02  0.00000000000E+00 0.  1.
</event>
<event>
 7    1  0.7284210E-013  0.5930194E+02  0.7816164E-02  0.1266605E+00
        -11   -1    0    0    0    0  0.00000000000E+00  0.00000000000E+00  0.45593999997E+02  0.45594000000E+02  0.51100000000E-03 0.  1.
         11   -1    0    0    0    0 -0.00000000000E+00 -0.00000000000E+00 -0.45593999997E+02  0.45594000000E+02  0.51100000000E-03 0. -1.
    9900012    2    1    2    0    0  0.16357447365E+02  0.14474209154E+02 -0.23230407183E+02  0.59301942972E+02  0.49999998074E+02 0.  0.
        -12    1    1    2    0    0 -0.16357447365E+02 -0.14474209154E+02  0.23230407183E+02  0.31886057028E+02  0.00000000000E+00 0.  1.
         11    1    3    3    0    0  0.26073223719E+02  0.65582791414E+01 -0.14141352926E+02  0.30377654341E+02  0.51100000000E-03 0. -1.
        -11    1    3    3    0    0  0.69819474930E+00 -0.81223754981E+01 -0.42736746817E+01  0.92046051076E+01  0.51100000000E-03 0.  1.
        -12    1    3    3    0    0 -0.10413971103E+02  0.16038305511E+02 -0.48153795747E+01  0.19719683523E+02  0.00000000000E+00 0.  1.
</event>
<event>
 7    1  0.7284210E-013  0.5930197E+02  0.7816164E-02  0.1266605E+00
        -11   -1    0    0    0    0  0.00000000000E+00  0.00000000000E+00  0.45593999997E+02  0.45594000000E+02  0.51100000000E-03 0.  1.
         11   -1    0    0    0    0 -0.00000000000E+00 -0.00000000000E+00 -0.45593999997E+02  0.45594000000E+02  0.51100000000E-03 0. -1.
    9900012    2    1    2    0    0  0.16746284179E+02  0.68130582554E+00 -0.27125941047E+02  0.59301970314E+02  0.50000047941E+02 0.  0.
        -12    1    1    2    0    0 -0.16746284179E+02 -0.68130582554E+00  0.27125941047E+02  0.31886029686E+02  0.00000000000E+00 0.  1.
         11    1    3    3    0    0 -0.50568243666E+01  0.89209138515E+01 -0.27662319840E+01  0.10621027082E+02  0.51100000000E-03 0. -1.
        -11    1    3    3    0    0  0.11747547631E+02  0.12790633128E+02 -0.42126672447E+01  0.17870415124E+02  0.51100000000E-03 0.  1.
         12    1    3    3    0    0  0.10055560914E+02 -0.21030241153E+02 -0.20147041818E+02  0.30810528108E+02  0.00000000000E+00 0. -1.
</event>
<event>
 7    1  0.7284210E-013  0.5930190E+02  0.7816164E-02  0.1266605E+00
        -11   -1    0    0    0    0  0.00000000000E+00  0.00000000000E+00  0.45593999997E+02  0.45594000000E+02  0.51100000000E-03 0.  1.
         11   -1    0    0    0    0 -0.00000000000E+00 -0.00000000000E+00 -0.45593999997E+02  0.45594000000E+02  0.51100000000E-03 0. -1.
    9900012    2    1    2    0    0  0.20817996572E+02  0.13325320324E+02 -0.20143740621E+02  0.59301899122E+02  0.49999918103E+02 0.  0.
        -12    1    1    2    0    0 -0.20817996572E+02 -0.13325320324E+02  0.20143740621E+02  0.31886100878E+02  0.00000000000E+00 0.  1.
         11    1    3    3    0    0  0.10206996745E+02  0.70326519267E+01  0.12476375685E+02  0.17586953294E+02  0.51100000000E-03 0. -1.
        -11    1    3    3    0    0 -0.30149533094E+01  0.42099377894E+01  0.10933930123E+01  0.52923556371E+01  0.51100000000E-03 0.  1.
         12    1    3    3    0    0  0.13625953136E+02  0.20827306078E+01 -0.33713509318E+02  0.36422590191E+02  0.00000000000E+00 0. -1.
</event>
<event>
 7    1  0.7284210E-013  0.5930195E+02  0.7816164E-02  0.1266605E+00
        -11   -1    0    0    0    0  0.00000000000E+00  0.00000000000E+00  0.45593999997E+02  0.45594000000E+02  0.51100000000E-03 0.  1.
         11   -1    0    0    0    0 -0.00000000000E+00 -0.00000000000E+00 -0.45593999997E+02  0.45594000000E+02  0.51100000000E-03 0. -1.
    9900012    2    1    2    0    0  0.24006865422E+02  0.17385517504E+02 -0.11753050372E+02  0.59301952906E+02  0.50000016191E+02 0.  0.
        -12    1    1    2    0    0 -0.24006865422E+02 -0.17385517504E+02  0.11753050372E+02  0.31886047094E+02  0.00000000000E+00 0.  1.
         11    1    3    3    0    0  0.26552096466E+02  0.17920255751E+02 -0.23533110777E+02  0.39748669110E+02  0.51100000000E-03 0. -1.
        -11    1    3    3    0    0 -0.20837901034E+00 -0.20291407422E+01 -0.34850956539E+01  0.40381587316E+01  0.51100000000E-03 0.  1.
         12    1    3    3    0    0 -0.23368520342E+01  0.14944024953E+01  0.15265156059E+02  0.15515125064E+02  0.00000000000E+00 0. -1.
</event>
<event>
 7    1  0.7284210E-013  0.5930192E+02  0.7816164E-02  0.1266605E+00
        -11   -1    0    0    0    0  0.00000000000E+00  0.00000000000E+00  0.45593999997E+02  0.45594000000E+02  0.51100000000E-03 0. -1.
         11   -1    0    0    0    0 -0.00000000000E+00 -0.00000000000E+00 -0.45593999997E+02  0.45594000000E+02  0.51100000000E-03 0.  1.
    9900012    2    1    2    0    0 -0.19439015529E+02 -0.24478424902E+02 -0.62971022298E+01  0.59301919857E+02  0.49999955918E+02 0.  0.
        -12    1    1    2    0    0  0.19439015529E+02  0.24478424902E+02  0.62971022298E+01  0.31886080143E+02  0.00000000000E+00 0.  1.
         11    1    3    3    0    0  0.83529116552E+01 -0.84908402946E+01  0.38650205744E+01  0.12522135853E+02  0.51100000000E-03 0. -1.
        -11    1    3    3    0    0  0.36059022096E+01  0.48179883626E+01 -0.66223480644E+01  0.89482421042E+01  0.51100000000E-03 0.  1.
        -12    1    3    3    0    0 -0.31397829393E+02 -0.20805572970E+02 -0.35397747397E+01  0.37831541899E+02  0.00000000000E+00 0.  1.
</event>
<event>
 7    1  0.7284210E-013  0.5930195E+02  0.7816164E-02  0.1266605E+00
        -11   -1    0    0    0    0  0.00000000000E+00  0.00000000000E+00  0.45593999997E+02  0.45594000000E+02  0.51100000000E-03 0. -1.
         11   -1    0    0    0    0 -0.00000000000E+00 -0.00000000000E+00 -0.45593999997E+02  0.45594000000E+02  0.51100000000E-03 0.  1.
    9900012    2    1    2    0    0  0.30919524700E+02  0.63460963365E+01  0.45199909518E+01  0.59301948745E+02  0.50000008604E+02 0.  0.
        -12    1    1    2    0    0 -0.30919524700E+02 -0.63460963365E+01 -0.45199909518E+01  0.31886051255E+02  0.00000000000E+00 0.  1.
         11    1    3    3    0    0 -0.57163773778E+01 -0.11193041129E+02 -0.77733871672E+01  0.14777912179E+02  0.51100000000E-03 0. -1.
        -11    1    3    3    0    0  0.10817397510E+02 -0.12039690095E+01  0.28455544240E+01  0.11250013800E+02  0.51100000000E-03 0.  1.
        -12    1    3    3    0    0  0.25818504568E+02  0.18743106475E+02  0.94478236950E+01  0.33274022766E+02  0.00000000000E+00 0.  1.
</event>
<event>
 7    1  0.7284210E-013  0.5930196E+02  0.7816164E-02  0.1266605E+00
        -11   -1    0    0    0    0  0.00000000000E+00  0.00000000000E+00  0.45593999997E+02  0.45594000000E+02  0.51100000000E-03 0. -1.
         11   -1    0    0    0    0 -0.00000000000E+00 -0.00000000000E+00 -0.45593999997E+02  0.45594000000E+02  0.51100000000E-03 0.  1.
    9900012    2    1    2    0    0  0.11842830672E+02 -0.12068914771E+02  0.27033464814E+02  0.59301959764E+02  0.50000028699E+02 0.  0.
        -12    1    1    2    0    0 -0.11842830672E+02  0.12068914771E+02 -0.27033464814E+02  0.31886040236E+02  0.00000000000E+00 0.  1.
         11    1    3    3    0    0  0.74010270356E+01 -0.21262078388E+01 -0.50790816604E+00  0.77171194057E+01  0.51100000000E-03 0. -1.
        -11    1    3    3    0    0 -0.56848871026E+01  0.15102323712E+02  0.67333103458E+01  0.17485296433E+02  0.51100000000E-03 0.  1.
         12    1    3    3    0    0  0.10126690739E+02 -0.25045030644E+02  0.20808062635E+02  0.34099543925E+02  0.00000000000E+00 0. -1.
</event>
<event>
 7    1  0.7284210E-013  0.5930211E+02  0.7816164E-02  0.1266604E+00
        -11   -1    0    0    0    0  0.00000000000E+00  0.00000000000E+00  0.45593999997E+02  0.45594000000E+02  0.51100000000E-03 0.  1.
         11   -1    0    0    0    0 -0.00000000000E+00 -0.00000000000E+00 -0.45593999997E+02  0.45594000000E+02  0.51100000000E-03 0. -1.
    9900012    2    1    2    0    0  0.29102529168E+02  0.50994797110E+01  0.11989499091E+02  0.59302109927E+02  0.50000302560E+02 0.  0.
        -12    1    1    2    0    0 -0.29102529168E+02 -0.50994797110E+01 -0.11989499091E+02  0.31885890073E+02  0.00000000000E+00 0.  1.
         11    1    3    3    0    0  0.25670959587E+02  0.12376657262E+02  0.15285011797E+01  0.28539728927E+02  0.51100000000E-03 0. -1.
        -11    1    3    3    0    0  0.12173998685E+02  0.50834068320E+01  0.17852297763E+01  0.13312937866E+02  0.51100000000E-03 0.  1.
         12    1    3    3    0    0 -0.87424291049E+01 -0.12360584383E+02  0.86757681349E+01  0.17449443134E+02  0.00000000000E+00 0. -1.
</event>
<event>
 7    1  0.7284210E-013  0.5930191E+02  0.7816164E-02  0.1266605E+00
        -11   -1    0    0    0    0  0.00000000000E+00  0.00000000000E+00  0.45593999997E+02  0.45594000000E+02  0.51100000000E-03 0. -1.
         11   -1    0    0    0    0 -0.00000000000E+00 -0.00000000000E+00 -0.45593999997E+02  0.45594000000E+02  0.51100000000E-03 0.  1.
    9900012    2    1    2    0    0 -0.18576413946E+02  0.71804211449E+01  0.24901430959E+02  0.59301907942E+02  0.49999934189E+02 0.  0.
        -12    1    1    2    0    0  0.18576413946E+02 -0.71804211449E+01 -0.24901430959E+02  0.31886092058E+02  0.00000000000E+00 0.  1.
         11    1    3    3    0    0 -0.39035732809E+01 -0.60594192699E+01 -0.86953500325E+01  0.11294403866E+02  0.51100000000E-03 0.  1.
        -11    1    3    3    0    0 -0.26855436678E+01  0.20075044651E+02  0.22719755470E+02  0.30436932359E+02  0.51100000000E-03 0. -1.
         12    1    3    3    0    0 -0.11987296998E+02 -0.68352042366E+01  0.10877025521E+02  0.17570571717E+02  0.00000000000E+00 0. -1.
</event>
<event>
 7    1  0.7284210E-013  0.5930190E+02  0.7816164E-02  0.1266605E+00
        -11   -1    0    0    0    0  0.00000000000E+00  0.00000000000E+00  0.45593999997E+02  0.45594000000E+02  0.51100000000E-03 0.  1.
         11   -1    0    0    0    0 -0.00000000000E+00 -0.00000000000E+00 -0.45593999997E+02  0.45594000000E+02  0.51100000000E-03 0. -1.
    9900012    2    1    2    0    0  0.22041564207E+02  0.13546290675E+02 -0.18638430855E+02  0.59301895683E+02  0.49999911832E+02 0.  0.
        -12    1    1    2    0    0 -0.22041564207E+02 -0.13546290675E+02  0.18638430855E+02  0.31886104317E+02  0.00000000000E+00 0.  1.
         11    1    3    3    0    0 -0.84323972528E+01  0.61752850068E+01  0.21190451599E+01  0.10664418455E+02  0.51100000000E-03 0. -1.
        -11    1    3    3    0    0  0.47271483508E+01 -0.78888234498E+01  0.37723032963E+01  0.99403088168E+01  0.51100000000E-03 0.  1.
        -12    1    3    3    0    0  0.25746813109E+02  0.15259829118E+02 -0.24529779311E+02  0.38697168411E+02  0.00000000000E+00 0.  1.
</event>
<event>
 7    1  0.7284210E-013  0.5930195E+02  0.7816164E-02  0.1266605E+00
        -11   -1    0    0    0    0  0.00000000000E+00  0.00000000000E+00  0.45593999997E+02  0.45594000000E+02  0.51100000000E-03 0.  1.
         11   -1    0    0    0    0 -0.00000000000E+00 -0.00000000000E+00 -0.45593999997E+02  0.45594000000E+02  0.51100000000E-03 0. -1.
    9900012    2    1    2    0    0  0.33146495471E+01 -0.11124248693E+02 -0.29698221890E+02  0.59301949852E+02  0.50000010621E+02 0.  0.
        -12    1    1    2    0    0 -0.33146495471E+01  0.11124248693E+02  0.29698221890E+02  0.31886050148E+02  0.00000000000E+00 0.  1.
         11    1    3    3    0    0  0.57197104516E+01 -0.59461777204E+01 -0.26016039270E+02  0.27292973760E+02  0.51100000000E-03 0. -1.
        -11    1    3    3    0    0  0.11428693600E+02 -0.10964945681E+02 -0.57961168846E+01  0.16865350349E+02  0.51100000000E-03 0.  1.
        -12    1    3    3    0    0 -0.13833754504E+02  0.57868747082E+01  0.21139342638E+01  0.15143625743E+02  0.00000000000E+00 0.  1.
</event>
<event>
 7    1  0.7284210E-013  0.5930194E+02  0.7816164E-02  0.1266605E+00
        -11   -1    0    0    0    0  0.00000000000E+00  0.00000000000E+00  0.45593999997E+02  0.45594000000E+02  0.51100000000E-03 0.  1.
         11   -1    0    0    0    0 -0.00000000000E+00 -0.00000000000E+00 -0.45593999997E+02  0.45594000000E+02  0.51100000000E-03 0. -1.
    9900012    2    1    2    0    0 -0.12129908960E+02 -0.99511261078E-01 -0.29488579525E+02  0.59301938527E+02  0.49999989968E+02 0.  0.
        -12    1    1    2    0    0  0.12129908960E+02  0.99511261078E-01  0.29488579525E+02  0.31886061473E+02  0.00000000000E+00 0.  1.
         11    1    3    3    0    0 -0.46642125601E+01  0.24801810035E+00  0.11169507771E+01  0.48024963387E+01  0.51100000000E-03 0. -1.
        -11    1    3    3    0    0  0.88101980964E+01 -0.45747718624E+01  0.77666686622E+01  0.12604335384E+02  0.51100000000E-03 0.  1.
         12    1    3    3    0    0 -0.16275894497E+02  0.42272425010E+01 -0.38372198964E+02  0.41895106805E+02  0.00000000000E+00 0. -1.
</event>
<event>
 7    1  0.7284210E-013  0.5930191E+02  0.7816164E-02  0.1266605E+00
        -11   -1    0    0    0    0  0.00000000000E+00  0.00000000000E+00  0.45593999997E+02  0.45594000000E+02  0.51100000000E-03 0. -1.
         11   -1    0    0    0    0 -0.00000000000E+00 -0.00000000000E+00 -0.45593999997E+02  0.45594000000E+02  0.51100000000E-03 0.  1.
    9900012    2    1    2    0    0 -0.18077379834E+02 -0.26261566255E+02  0.51099301660E+00  0.59301911534E+02  0.49999940739E+02 0.  0.
        -12    1    1    2    0    0  0.18077379834E+02  0.26261566255E+02 -0.51099301660E+00  0.31886088466E+02  0.00000000000E+00 0.  1.
         11    1    3    3    0    0  0.16463683200E+01 -0.75060672988E+01  0.62605482603E+01  0.99119140291E+01  0.51100000000E-03 0. -1.
        -11    1    3    3    0    0  0.41324873304E+01 -0.11097783157E+02  0.13379306949E+02  0.17867403203E+02  0.51100000000E-03 0.  1.
        -12    1    3    3    0    0 -0.23856235484E+02 -0.76577157996E+01 -0.19128862192E+02  0.31522594302E+02  0.00000000000E+00 0.  1.
</event>
<event>
 7    1  0.7284210E-013  0.5930194E+02  0.7816164E-02  0.1266605E+00
        -11   -1    0    0    0    0  0.00000000000E+00  0.00000000000E+00  0.45593999997E+02  0.45594000000E+02  0.51100000000E-03 0.  1.
         11   -1    0    0    0    0 -0.00000000000E+00 -0.00000000000E+00 -0.45593999997E+02  0.45594000000E+02  0.51100000000E-03 0. -1.
    9900012    2    1    2    0    0 -0.26048689159E+02  0.87984089612E+01 -0.16148510720E+02  0.59301943398E+02  0.49999998852E+02 0.  0.
        -12    1    1    2    0    0  0.26048689159E+02 -0.87984089612E+01  0.16148510720E+02  0.31886056602E+02  0.00000000000E+00 0.  1.
         11    1    3    3    0    0  0.43317576713E+01  0.80713818328E+01  0.28123853140E+01  0.95823191676E+01  0.51100000000E-03 0.  1.
        -11    1    3    3    0    0  0.33080008817E+01  0.60104259096E+01  0.46102456616E+01  0.82657398198E+01  0.51100000000E-03 0. -1.
         12    1    3    3    0    0 -0.33688447712E+02 -0.52833987812E+01 -0.23571141695E+02  0.41453884411E+02  0.00000000000E+00 0. -1.
</event>
<event>
 7    1  0.7284210E-013  0.5930195E+02  0.7816164E-02  0.1266605E+00
        -11   -1    0    0    0    0  0.00000000000E+00  0.00000000000E+00  0.45593999997E+02  0.45594000000E+02  0.51100000000E-03 0.  1.
         11   -1    0    0    0    0 -0.00000000000E+00 -0.00000000000E+00 -0.45593999997E+02  0.45594000000E+02  0.51100000000E-03 0. -1.
    9900012    2    1    2    0    0 -0.11524374354E+02 -0.28380896067E+02 -0.88562746576E+01  0.59301951850E+02  0.50000014266E+02 0.  0.
        -12    1    1    2    0    0  0.11524374354E+02  0.28380896067E+02  0.88562746576E+01  0.31886048150E+02  0.00000000000E+00 0.  1.
         11    1    3    3    0    0 -0.14682777756E+02  0.44437507031E+01 -0.11472776671E+02  0.19156082266E+02  0.51100000000E-03 0. -1.
        -11    1    3    3    0    0 -0.39130351101E+01  0.17673045453E+01  0.22260414002E+01  0.48363694757E+01  0.51100000000E-03 0.  1.
         12    1    3    3    0    0  0.70714385125E+01 -0.34591951315E+02  0.39046061343E+00  0.35309500109E+02  0.00000000000E+00 0. -1.
</event>
<event>
 7    1  0.7284210E-013  0.5930194E+02  0.7816164E-02  0.1266605E+00
        -11   -1    0    0    0    0  0.00000000000E+00  0.00000000000E+00  0.45593999997E+02  0.45594000000E+02  0.51100000000E-03 0.  1.
         11   -1    0    0    0    0 -0.00000000000E+00 -0.00000000000E+00 -0.45593999997E+02  0.45594000000E+02  0.51100000000E-03 0. -1.
    9900012    2    1    2    0    0  0.22609421039E+02 -0.88219693997E+01 -0.20681091551E+02  0.59301943305E+02  0.49999998681E+02 0.  0.
        -12    1    1    2    0    0 -0.22609421039E+02  0.88219693997E+01  0.20681091551E+02  0.31886056695E+02  0.00000000000E+00 0.  1.
         11    1    3    3    0    0  0.17250247666E+02 -0.74981323982E+01 -0.12358268795E+01  0.18849941706E+02  0.51100000000E-03 0. -1.
        -11    1    3    3    0    0  0.14592558359E+02  0.97884306743E+01 -0.19165687095E+02  0.26001532582E+02  0.51100000000E-03 0.  1.
         12    1    3    3    0    0 -0.92333849853E+01 -0.11112267676E+02 -0.27957757701E+00  0.14450469017E+02  0.00000000000E+00 0. -1.
</event>
<event>
 7    1  0.7284210E-013  0.5930194E+02  0.7816164E-02  0.1266605E+00
        -11   -1    0    0    0    0  0.00000000000E+00  0.00000000000E+00  0.45593999997E+02  0.45594000000E+02  0.51100000000E-03 0.  1.
         11   -1    0    0    0    0 -0.00000000000E+00 -0.00000000000E+00 -0.45593999997E+02  0.45594000000E+02  0.51100000000E-03 0. -1.
    9900012    2    1    2    0    0 -0.24727513744E+02  0.11618671180E+02 -0.16440116270E+02  0.59301939112E+02  0.49999991036E+02 0.  0.
        -12    1    1    2    0    0  0.24727513744E+02 -0.11618671180E+02  0.16440116270E+02  0.31886060888E+02  0.00000000000E+00 0.  1.
         11    1    3    3    0    0  0.78445748337E+00 -0.18960645658E+01 -0.14484927974E+02  0.14629544526E+02  0.51100000000E-03 0. -1.
        -11    1    3    3    0    0 -0.22228931607E+02  0.24226559892E+02  0.15998636626E+01  0.32918249781E+02  0.51100000000E-03 0.  1.
         12    1    3    3    0    0 -0.32830396197E+01 -0.10711824146E+02 -0.35550519594E+01  0.11754144806E+02  0.00000000000E+00 0. -1.
</event>
<event>
 7    1  0.7284210E-013  0.5930195E+02  0.7816164E-02  0.1266605E+00
        -11   -1    0    0    0    0  0.00000000000E+00  0.00000000000E+00  0.45593999997E+02  0.45594000000E+02  0.51100000000E-03 0.  1.
         11   -1    0    0    0    0 -0.00000000000E+00 -0.00000000000E+00 -0.45593999997E+02  0.45594000000E+02  0.51100000000E-03 0. -1.
    9900012    2    1    2    0    0  0.69645466244E+01  0.24214159659E+02 -0.19542000085E+02  0.59301949680E+02  0.50000010309E+02 0.  0.
        -12    1    1    2    0    0 -0.69645466244E+01 -0.24214159659E+02  0.19542000085E+02  0.31886050320E+02  0.00000000000E+00 0.  1.
         11    1    3    3    0    0  0.18079581569E+01 -0.85970834631E+01 -0.72700407286E+01  0.11403159616E+02  0.51100000000E-03 0. -1.
        -11    1    3    3    0    0  0.59542434032E+00  0.29886341727E+02  0.45401466172E+01  0.30235093576E+02  0.51100000000E-03 0.  1.
         12    1    3    3    0    0  0.45611641272E+01  0.29249013945E+01 -0.16812105974E+02  0.17663696488E+02  0.00000000000E+00 0. -1.
</event>
<event>
 7    1  0.7284210E-013  0.5930195E+02  0.7816164E-02  0.1266605E+00
        -11   -1    0    0    0    0  0.00000000000E+00  0.00000000000E+00  0.45593999997E+02  0.45594000000E+02  0.51100000000E-03 0. -1.
         11   -1    0    0    0    0 -0.00000000000E+00 -0.00000000000E+00 -0.45593999997E+02  0.45594000000E+02  0.51100000000E-03 0.  1.
    9900012    2    1    2    0    0  0.23512954022E+02  0.21376080600E+02  0.26313959864E+01  0.59301951743E+02  0.50000014071E+02 0.  0.
        -12    1    1    2    0    0 -0.23512954022E+02 -0.21376080600E+02 -0.26313959864E+01  0.31886048257E+02  0.00000000000E+00 0.  1.
         11    1    3    3    0    0  0.11260667036E+02  0.13639787249E+02  0.34953109619E+01  0.18029520716E+02  0.51100000000E-03 0. -1.
        -11    1    3    3    0    0  0.20109994521E+02  0.18168570036E+02 -0.50278350608E+01  0.27564251168E+02  0.51100000000E-03 0.  1.
         12    1    3    3    0    0 -0.78577075351E+01 -0.10432276686E+02  0.41639200853E+01  0.13708179858E+02  0.00000000000E+00 0. -1.
</event>
<event>
 7    1  0.7284210E-013  0.5930199E+02  0.7816164E-02  0.1266605E+00
        -11   -1    0    0    0    0  0.00000000000E+00  0.00000000000E+00  0.45593999997E+02  0.45594000000E+02  0.51100000000E-03 0. -1.
         11   -1    0    0    0    0 -0.00000000000E+00 -0.00000000000E+00 -0.45593999997E+02  0.45594000000E+02  0.51100000000E-03 0.  1.
    9900012    2    1    2    0    0  0.21780457104E+02  0.23237224821E+02  0.15365611052E+01  0.59301985056E+02  0.50000074825E+02 0.  0.
        -12    1    1    2    0    0 -0.21780457104E+02 -0.23237224821E+02 -0.15365611052E+01  0.31886014944E+02  0.00000000000E+00 0.  1.
         11    1    3    3    0    0  0.10844871857E+02  0.39777625809E+01  0.22984429348E+02  0.25723876719E+02  0.51100000000E-03 0. -1.
        -11    1    3    3    0    0 -0.31411602854E+01  0.35959532917E+01 -0.41030830852E+01  0.62954792573E+01  0.51100000000E-03 0.  1.
        -12    1    3    3    0    0  0.14076745532E+02  0.15663508948E+02 -0.17344785157E+02  0.27282629080E+02  0.00000000000E+00 0.  1.
</event>
<event>
 7    1  0.7284210E-013  0.5930172E+02  0.7816164E-02  0.1266606E+00
        -11   -1    0    0    0    0  0.00000000000E+00  0.00000000000E+00  0.45593999997E+02  0.45594000000E+02  0.51100000000E-03 0.  1.
         11   -1    0    0    0    0 -0.00000000000E+00 -0.00000000000E+00 -0.45593999997E+02  0.45594000000E+02  0.51100000000E-03 0. -1.
    9900012    2    1    2    0    0  0.29585662826E+02 -0.31934717092E+01 -0.11455362196E+02  0.59301717221E+02  0.49999586357E+02 0.  0.
        -12    1    1    2    0    0 -0.29585662826E+02  0.31934717092E+01  0.11455362196E+02  0.31886282779E+02  0.00000000000E+00 0.  1.
         11    1    3    3    0    0  0.27788072804E+02 -0.15058465134E+02 -0.11117355399E+02  0.33504178152E+02  0.51100000000E-03 0.  1.
        -11    1    3    3    0    0  0.12195760465E+02  0.46989025965E+01 -0.12911262713E+01  0.13133288477E+02  0.51100000000E-03 0. -1.
        -12    1    3    3    0    0 -0.10398170442E+02  0.71660908280E+01  0.95311947462E+00  0.12664250591E+02  0.00000000000E+00 0.  1.
</event>
<event>
 7    1  0.7284210E-013  0.5930203E+02  0.7816164E-02  0.1266604E+00
        -11   -1    0    0    0    0  0.00000000000E+00  0.00000000000E+00  0.45593999997E+02  0.45594000000E+02  0.51100000000E-03 0. -1.
         11   -1    0    0    0    0 -0.00000000000E+00 -0.00000000000E+00 -0.45593999997E+02  0.45594000000E+02  0.51100000000E-03 0.  1.
    9900012    2    1    2    0    0 -0.11651332771E+01 -0.96067017304E+01  0.30382051327E+02  0.59302026649E+02  0.50000150682E+02 0.  0.
        -12    1    1    2    0    0  0.11651332771E+01  0.96067017304E+01 -0.30382051327E+02  0.31885973351E+02  0.00000000000E+00 0.  1.
         11    1    3    3    0    0 -0.56863765564E+01  0.14433878320E+02  0.20413055793E+02  0.25639121840E+02  0.51100000000E-03 0. -1.
        -11    1    3    3    0    0  0.41928565329E+01 -0.66570474928E+01 -0.61252567758E+01  0.99707120136E+01  0.51100000000E-03 0.  1.
         12    1    3    3    0    0  0.32838674641E+00 -0.17383532557E+02  0.16094252310E+02  0.23692192795E+02  0.00000000000E+00 0. -1.
</event>
<event>
 7    1  0.7284210E-013  0.5930194E+02  0.7816164E-02  0.1266605E+00
        -11   -1    0    0    0    0  0.00000000000E+00  0.00000000000E+00  0.45593999997E+02  0.45594000000E+02  0.51100000000E-03 0. -1.
         11   -1    0    0    0    0 -0.00000000000E+00 -0.00000000000E+00 -0.45593999997E+02  0.45594000000E+02  0.51100000000E-03 0.  1.
    9900012    2    1    2    0    0  0.17179921121E+02 -0.22261182613E+02  0.15033650144E+02  0.59301943836E+02  0.49999999651E+02 0.  0.
        -12    1    1    2    0    0 -0.17179921121E+02  0.22261182613E+02 -0.15033650144E+02  0.31886056164E+02  0.00000000000E+00 0.  1.
         11    1    3    3    0    0 -0.71700170249E+01  0.58920130626E+00  0.10682916004E+02  0.12879479684E+02  0.51100000000E-03 0. -1.
        -11    1    3    3    0    0  0.10795606787E+02  0.33345230510E+01  0.11459033717E+02  0.16092657452E+02  0.51100000000E-03 0.  1.
        -12    1    3    3    0    0  0.13554331359E+02 -0.26184906970E+02 -0.71082995771E+01  0.30329806700E+02  0.00000000000E+00 0.  1.
</event>
<event>
 7    1  0.7284210E-013  0.5930193E+02  0.7816164E-02  0.1266605E+00
        -11   -1    0    0    0    0  0.00000000000E+00  0.00000000000E+00  0.45593999997E+02  0.45594000000E+02  0.51100000000E-03 0. -1.
         11   -1    0    0    0    0 -0.00000000000E+00 -0.00000000000E+00 -0.45593999997E+02  0.45594000000E+02  0.51100000000E-03 0.  1.
    9900012    2    1    2    0    0  0.66857688036E+01 -0.31176303696E+02 -0.24558346358E+00  0.59301925800E+02  0.49999966757E+02 0.  0.
        -12    1    1    2    0    0 -0.66857688036E+01  0.31176303696E+02  0.24558346358E+00  0.31886074200E+02  0.00000000000E+00 0.  1.
         11    1    3    3    0    0 -0.17197704162E+02 -0.13249207619E+02  0.69250082979E+01  0.22787239217E+02  0.51100000000E-03 0. -1.
        -11    1    3    3    0    0 -0.32582938680E+01 -0.19396289499E-01 -0.10756931202E+01  0.34313220625E+01  0.51100000000E-03 0.  1.
        -12    1    3    3    0    0  0.27141766833E+02 -0.17907699788E+02 -0.60948986413E+01  0.33083364520E+02  0.00000000000E+00 0.  1.
</event>
<event>
 7    1  0.7284210E-013  0.5930206E+02  0.7816164E-02  0.1266604E+00
        -11   -1    0    0    0    0  0.00000000000E+00  0.00000000000E+00  0.45593999997E+02  0.45594000000E+02  0.51100000000E-03 0.  1.
         11   -1    0    0    0    0 -0.00000000000E+00 -0.00000000000E+00 -0.45593999997E+02  0.45594000000E+02  0.51100000000E-03 0. -1.
    9900012    2    1    2    0    0 -0.36384830195E+01 -0.30647406824E+02 -0.80131819739E+01  0.59302059696E+02  0.50000210950E+02 0.  0.
        -12    1    1    2    0    0  0.36384830195E+01  0.30647406824E+02  0.80131819739E+01  0.31885940304E+02  0.00000000000E+00 0.  1.
         11    1    3    3    0    0 -0.51627438219E+01 -0.31420588224E+02 -0.85536239396E+01  0.32970771463E+02  0.51100000000E-03 0. -1.
        -11    1    3    3    0    0 -0.74963370922E+01 -0.92595267623E+01 -0.31900937965E+01  0.12333312789E+02  0.51100000000E-03 0.  1.
        -12    1    3    3    0    0  0.90205978946E+01  0.10032708162E+02  0.37305357622E+01  0.13997975443E+02  0.00000000000E+00 0.  1.
</event>
<event>
 7    1  0.7284210E-013  0.5930198E+02  0.7816164E-02  0.1266605E+00
        -11   -1    0    0    0    0  0.00000000000E+00  0.00000000000E+00  0.45593999997E+02  0.45594000000E+02  0.51100000000E-03 0. -1.
         11   -1    0    0    0    0 -0.00000000000E+00 -0.00000000000E+00 -0.45593999997E+02  0.45594000000E+02  0.51100000000E-03 0.  1.
    9900012    2    1    2    0    0 -0.31044918363E+02 -0.20023782409E+01  0.69943904638E+01  0.59301984684E+02  0.50000074148E+02 0.  0.
        -12    1    1    2    0    0  0.31044918363E+02  0.20023782409E+01 -0.69943904638E+01  0.31886015316E+02  0.00000000000E+00 0.  1.
         11    1    3    3    0    0 -0.26069722156E+01 -0.19504168605E+01 -0.78233093093E+01  0.84737594297E+01  0.51100000000E-03 0. -1.
        -11    1    3    3    0    0 -0.45918663155E+01  0.17115174400E+02 -0.42815638559E+00  0.17725624084E+02  0.51100000000E-03 0.  1.
         12    1    3    3    0    0 -0.23846079832E+02 -0.17167135781E+02  0.15245856159E+02  0.33102601171E+02  0.00000000000E+00 0. -1.
</event>
<event>
 7    1  0.7284210E-013  0.5930192E+02  0.7816164E-02  0.1266605E+00
        -11   -1    0    0    0    0  0.00000000000E+00  0.00000000000E+00  0.45593999997E+02  0.45594000000E+02  0.51100000000E-03 0. -1.
         11   -1    0    0    0    0 -0.00000000000E+00 -0.00000000000E+00 -0.45593999997E+02  0.45594000000E+02  0.51100000000E-03 0.  1.
    9900012    2    1    2    0    0  0.17546120417E+02 -0.19060887474E+02  0.18588662921E+02  0.59301918990E+02  0.49999954336E+02 0.  0.
        -12    1    1    2    0    0 -0.17546120417E+02  0.19060887474E+02 -0.18588662921E+02  0.31886081010E+02  0.00000000000E+00 0.  1.
         11    1    3    3    0    0  0.19925471948E+02 -0.14732416189E+02 -0.78930164193E+01  0.26007080335E+02  0.51100000000E-03 0.  1.
        -11    1    3    3    0    0  0.82529626154E+01 -0.37773291020E+01  0.15749575709E+02  0.18177699039E+02  0.51100000000E-03 0. -1.
        -12    1    3    3    0    0 -0.10632314146E+02 -0.55114218296E+00  0.10732103631E+02  0.15117139615E+02  0.00000000000E+00 0.  1.
</event>
<event>
 7    1  0.7284210E-013  0.5930183E+02  0.7816164E-02  0.1266605E+00
        -11   -1    0    0    0    0  0.00000000000E+00  0.00000000000E+00  0.45593999997E+02  0.45594000000E+02  0.51100000000E-03 0.  1.
         11   -1    0    0    0    0 -0.00000000000E+00 -0.00000000000E+00 -0.45593999997E+02  0.45594000000E+02  0.51100000000E-03 0. -1.
    9900012    2    1    2    0    0  0.21353524986E+02 -0.14838055681E+02 -0.18454996585E+02  0.59301830198E+02  0.49999792401E+02 0.  0.
        -12    1    1    2    0    0 -0.21353524986E+02  0.14838055681E+02  0.18454996585E+02  0.31886169802E+02  0.00000000000E+00 0.  1.
         11    1    3    3    0    0 -0.29019032769E+01  0.45966609973E+00 -0.17915628434E+02  0.18154946378E+02  0.51100000000E-03 0. -1.
        -11    1    3    3    0    0  0.68078727137E+01  0.89625416201E+01  0.15642625700E+00  0.11256054043E+02  0.51100000000E-03 0.  1.
         12    1    3    3    0    0  0.17447555549E+02 -0.24260263401E+02 -0.69579440882E+00  0.29890829777E+02  0.00000000000E+00 0. -1.
</event>
<event>
 7    1  0.7284210E-013  0.5930195E+02  0.7816164E-02  0.1266605E+00
        -11   -1    0    0    0    0  0.00000000000E+00  0.00000000000E+00  0.45593999997E+02  0.45594000000E+02  0.51100000000E-03 0.  1.
         11   -1    0    0    0    0 -0.00000000000E+00 -0.00000000000E+00 -0.45593999997E+02  0.45594000000E+02  0.51100000000E-03 0. -1.
    9900012    2    1    2    0    0  0.10869895632E+02  0.16728232892E+01 -0.29929372588E+02  0.59301947998E+02  0.50000007240E+02 0.  0.
        -12    1    1    2    0    0 -0.10869895632E+02 -0.16728232892E+01  0.29929372588E+02  0.31886052002E+02  0.00000000000E+00 0.  1.
         11    1    3    3    0    0 -0.10741750533E+02 -0.12225527427E+01  0.86545952958E+00  0.10845683943E+02  0.51100000000E-03 0. -1.
        -11    1    3    3    0    0 -0.28288947929E+01  0.94039343936E+01 -0.18061826737E+01  0.99849348491E+01  0.51100000000E-03 0.  1.
         12    1    3    3    0    0  0.24440540958E+02 -0.65085583617E+01 -0.28988649444E+02  0.38471329206E+02  0.00000000000E+00 0. -1.
</event>
<event>
 7    1  0.7284210E-013  0.5930195E+02  0.7816164E-02  0.1266605E+00
        -11   -1    0    0    0    0  0.00000000000E+00  0.00000000000E+00  0.45593999997E+02  0.45594000000E+02  0.51100000000E-03 0.  1.
         11   -1    0    0    0    0 -0.00000000000E+00 -0.00000000000E+00 -0.45593999997E+02  0.45594000000E+02  0.51100000000E-03 0. -1.
    9900012    2    1    2    0    0 -0.22689691941E+02  0.20775516742E+02 -0.83830701340E+01  0.59301951622E+02  0.50000013851E+02 0.  0.
        -12    1    1    2    0    0  0.22689691941E+02 -0.20775516742E+02  0.83830701340E+01  0.31886048378E+02  0.00000000000E+00 0.  1.
         11    1    3    3    0    0 -0.15294346500E+02  0.12578523321E+01 -0.29988579836E+01  0.15636252007E+02  0.51100000000E-03 0. -1.
        -11    1    3    3    0    0 -0.17795050700E+02  0.77079609046E+01  0.98610646653E+01  0.21755851795E+02  0.51100000000E-03 0.  1.
        -12    1    3    3    0    0  0.10399705259E+02  0.11809703505E+02 -0.15245276816E+02  0.21909847821E+02  0.00000000000E+00 0.  1.
</event>
<event>
 7    1  0.7284210E-013  0.5930194E+02  0.7816164E-02  0.1266605E+00
        -11   -1    0    0    0    0  0.00000000000E+00  0.00000000000E+00  0.45593999997E+02  0.45594000000E+02  0.51100000000E-03 0.  1.
         11   -1    0    0    0    0 -0.00000000000E+00 -0.00000000000E+00 -0.45593999997E+02  0.45594000000E+02  0.51100000000E-03 0. -1.
    9900012    2    1    2    0    0 -0.19330809320E+02 -0.24759968321E+01 -0.25237081836E+02  0.59301936448E+02  0.49999986176E+02 0.  0.
        -12    1    1    2    0    0  0.19330809320E+02  0.24759968321E+01  0.25237081836E+02  0.31886063552E+02  0.00000000000E+00 0.  1.
         11    1    3    3    0    0  0.89685426994E+00  0.88271105870E+01  0.57159412060E+01  0.10554345694E+02  0.51100000000E-03 0. -1.
        -11    1    3    3    0    0 -0.19965108501E+01  0.86095693851E+01 -0.18109540952E+01  0.90216570300E+01  0.51100000000E-03 0.  1.
         12    1    3    3    0    0 -0.18231152740E+02 -0.19912676804E+02 -0.29142068946E+02  0.39725933724E+02  0.00000000000E+00 0. -1.
</event>
<event>
 7    1  0.7284210E-013  0.5930191E+02  0.7816164E-02  0.1266605E+00
        -11   -1    0    0    0    0  0.00000000000E+00  0.00000000000E+00  0.45593999997E+02  0.45594000000E+02  0.51100000000E-03 0.  1.
         11   -1    0    0    0    0 -0.00000000000E+00 -0.00000000000E+00 -0.45593999997E+02  0.45594000000E+02  0.51100000000E-03 0. -1.
    9900012    2    1    2    0    0 -0.91056512110E+01  0.25798215635E+02 -0.16378700267E+02  0.59301911554E+02  0.49999940776E+02 0.  0.
        -12    1    1    2    0    0  0.91056512110E+01 -0.25798215635E+02  0.16378700267E+02  0.31886088446E+02  0.00000000000E+00 0.  1.
         11    1    3    3    0    0  0.10145438910E+02 -0.23547248209E+01 -0.80594676004E+01  0.13169270212E+02  0.51100000000E-03 0. -1.
        -11    1    3    3    0    0  0.48649189908E+01  0.10187435908E+00 -0.77317085570E+01  0.91354875428E+01  0.51100000000E-03 0.  1.
        -12    1    3    3    0    0 -0.24116009112E+02  0.28051066097E+02 -0.58752410986E+00  0.36997153799E+02  0.00000000000E+00 0.  1.
</event>
<event>
 7    1  0.7284210E-013  0.5930192E+02  0.7816164E-02  0.1266605E+00
        -11   -1    0    0    0    0  0.00000000000E+00  0.00000000000E+00  0.45593999997E+02  0.45594000000E+02  0.51100000000E-03 0.  1.
         11   -1    0    0    0    0 -0.00000000000E+00 -0.00000000000E+00 -0.45593999997E+02  0.45594000000E+02  0.51100000000E-03 0. -1.
    9900012    2    1    2    0    0 -0.14433590503E+02  0.22371927954E+02 -0.17546807295E+02  0.59301919315E+02  0.49999954930E+02 0.  0.
        -12    1    1    2    0    0  0.14433590503E+02 -0.22371927954E+02  0.17546807295E+02  0.31886080685E+02  0.00000000000E+00 0.  1.
         11    1    3    3    0    0 -0.28964917791E+01 -0.79507913429E+01 -0.17234264943E+02  0.19199599891E+02  0.51100000000E-03 0. -1.
        -11    1    3    3    0    0 -0.37851615735E+01 -0.32099043771E+01  0.25253725530E+01  0.55685223390E+01  0.51100000000E-03 0.  1.
        -12    1    3    3    0    0 -0.77519371506E+01  0.33532623674E+02 -0.28379149055E+01  0.34533797085E+02  0.00000000000E+00 0.  1.
</event>
<event>
 7    1  0.7284210E-013  0.5930197E+02  0.7816164E-02  0.1266605E+00
        -11   -1    0    0    0    0  0.00000000000E+00  0.00000000000E+00  0.45593999997E+02  0.45594000000E+02  0.51100000000E-03 0. -1.
         11   -1    0    0    0    0 -0.00000000000E+00 -0.00000000000E+00 -0.45593999997E+02  0.45594000000E+02  0.51100000000E-03 0.  1.
    9900012    2    1    2    0    0 -0.23679324434E+02 -0.21116408263E+02 -0.31789902946E+01  0.59301967276E+02  0.50000042399E+02 0.  0.
        -12    1    1    2    0    0  0.23679324434E+02  0.21116408263E+02  0.31789902946E+01  0.31886032724E+02  0.00000000000E+00 0.  1.
         11    1    3    3    0    0 -0.18314544407E+01  0.77306861946E+01 -0.30446788459E+01  0.85081022528E+01  0.51100000000E-03 0. -1.
        -11    1    3    3    0    0 -0.29836396724E+02 -0.12031567014E+02 -0.46535736177E+00  0.32174302355E+02  0.51100000000E-03 0.  1.
        -12    1    3    3    0    0  0.79885267314E+01 -0.16815527444E+02  0.33104591305E+00  0.18619562668E+02  0.00000000000E+00 0.  1.
</event>
<event>
 7    1  0.7284210E-013  0.5930195E+02  0.7816164E-02  0.1266605E+00
        -11   -1    0    0    0    0  0.00000000000E+00  0.00000000000E+00  0.45593999997E+02  0.45594000000E+02  0.51100000000E-03 0.  1.
         11   -1    0    0    0    0 -0.00000000000E+00 -0.00000000000E+00 -0.45593999997E+02  0.45594000000E+02  0.51100000000E-03 0. -1.
    9900012    2    1    2    0    0  0.11072118322E+02 -0.25163831412E+02 -0.16152698838E+02  0.59301954538E+02  0.50000019169E+02 0.  0.
        -12    1    1    2    0    0 -0.11072118322E+02  0.25163831412E+02  0.16152698838E+02  0.31886045462E+02  0.00000000000E+00 0.  1.
         11    1    3    3    0    0  0.13372825048E+02 -0.21431126515E+00 -0.58808562280E+01  0.14610367871E+02  0.51100000000E-03 0. -1.
        -11    1    3    3    0    0  0.14527245954E+02 -0.29791742836E+01  0.87777775672E+00  0.14855532588E+02  0.51100000000E-03 0.  1.
        -12    1    3    3    0    0 -0.16827952680E+02 -0.21970345863E+02 -0.11149620367E+02  0.29836054080E+02  0.00000000000E+00 0.  1.
</event>
<event>
 7    1  0.7284210E-013  0.5930195E+02  0.7816164E-02  0.1266605E+00
        -11   -1    0    0    0    0  0.00000000000E+00  0.00000000000E+00  0.45593999997E+02  0.45594000000E+02  0.51100000000E-03 0. -1.
         11   -1    0    0    0    0 -0.00000000000E+00 -0.00000000000E+00 -0.45593999997E+02  0.45594000000E+02  0.51100000000E-03 0.  1.
    9900012    2    1    2    0    0  0.19751520964E+02 -0.18583637134E+02  0.16770393119E+02  0.59301949211E+02  0.50000009454E+02 0.  0.
        -12    1    1    2    0    0 -0.19751520964E+02  0.18583637134E+02 -0.16770393119E+02  0.31886050789E+02  0.00000000000E+00 0.  1.
         11    1    3    3    0    0  0.16193216457E+02  0.11188842129E+01  0.22222908329E+02  0.27519626014E+02  0.51100000000E-03 0. -1.
        -11    1    3    3    0    0  0.33139748483E+01 -0.11802903494E+02  0.90691336648E+01  0.15249267060E+02  0.51100000000E-03 0.  1.
        -12    1    3    3    0    0  0.24432965958E+00 -0.78996178526E+01 -0.14521648874E+02  0.16533056137E+02  0.00000000000E+00 0.  1.
</event>
<event>
 7    1  0.7284210E-013  0.5930193E+02  0.7816164E-02  0.1266605E+00
        -11   -1    0    0    0    0  0.00000000000E+00  0.00000000000E+00  0.45593999997E+02  0.45594000000E+02  0.51100000000E-03 0.  1.
         11   -1    0    0    0    0 -0.00000000000E+00 -0.00000000000E+00 -0.45593999997E+02  0.45594000000E+02  0.51100000000E-03 0. -1.
    9900012    2    1    2    0    0 -0.13891624629E+02 -0.28643853866E+02  0.18093548215E+01  0.59301931506E+02  0.49999977164E+02 0.  0.
        -12    1    1    2    0    0  0.13891624629E+02  0.28643853866E+02 -0.18093548215E+01  0.31886068494E+02  0.00000000000E+00 0.  1.
         11    1    3    3    0    0 -0.45235232490E+01  0.49546026688E+01  0.23698393591E+01  0.71152293736E+01  0.51100000000E-03 0. -1.
        -11    1    3    3    0    0 -0.15236577420E+02  0.22044805745E+01 -0.34968486960E+01  0.15787367645E+02  0.51100000000E-03 0.  1.
         12    1    3    3    0    0  0.58684760405E+01 -0.35802937109E+02  0.29363641584E+01  0.36399334488E+02  0.00000000000E+00 0. -1.
</event>
<event>
 7    1  0.7284210E-013  0.5930197E+02  0.7816164E-02  0.1266605E+00
        -11   -1    0    0    0    0  0.00000000000E+00  0.00000000000E+00  0.45593999997E+02  0.45594000000E+02  0.51100000000E-03 0. -1.
         11   -1    0    0    0    0 -0.00000000000E+00 -0.00000000000E+00 -0.45593999997E+02  0.45594000000E+02  0.51100000000E-03 0.  1.
    9900012    2    1    2    0    0 -0.49677829879E+01 -0.31489189889E+02  0.68610010814E+00  0.59301973577E+02  0.50000053891E+02 0.  0.
        -12    1    1    2    0    0  0.49677829879E+01  0.31489189889E+02 -0.68610010814E+00  0.31886026423E+02  0.00000000000E+00 0.  1.
         11    1    3    3    0    0 -0.53497629425E+01 -0.22455124014E+01 -0.13405928186E+02  0.14607573388E+02  0.51100000000E-03 0.  1.
        -11    1    3    3    0    0 -0.44549740950E+01 -0.30758608111E+02  0.19962651949E+02  0.36938411447E+02  0.51100000000E-03 0. -1.
         12    1    3    3    0    0  0.48369540496E+01  0.15149306235E+01 -0.58706236551E+01  0.77559887423E+01  0.00000000000E+00 0. -1.
</event>
<event>
 7    1  0.7360191E-013  0.5930195E+02  0.7816164E-02  0.1266605E+00
        -11   -1    0    0    0    0  0.00000000000E+00  0.00000000000E+00  0.45593999997E+02  0.45594000000E+02  0.51100000000E-03 0.  1.
         11   -1    0    0    0    0 -0.00000000000E+00 -0.00000000000E+00 -0.45593999997E+02  0.45594000000E+02  0.51100000000E-03 0. -1.
    9900012    2    1    2    0    0 -0.15383953600E+02 -0.16750110604E+02  0.22349226061E+02  0.59301950713E+02  0.50000012192E+02 0.  0.
        -12    1    1    2    0    0  0.15383953600E+02  0.16750110604E+02 -0.22349226061E+02  0.31886049287E+02  0.00000000000E+00 0.  1.
         11    1    3    3    0    0 -0.37624131401E+01 -0.20006999012E+01 -0.84371231051E+01  0.94521743151E+01  0.51100000000E-03 0. -1.
        -11    1    3    3    0    0  0.84920462325E+01  0.47086496314E+01  0.24303087703E+01  0.10009626943E+02  0.51100000000E-03 0.  1.
         12    1    3    3    0    0 -0.20113586693E+02 -0.19458060334E+02  0.28356040396E+02  0.39840149454E+02  0.00000000000E+00 0. -1.
</event>
<event>
 7    1  0.7284210E-013  0.5930194E+02  0.7816164E-02  0.1266605E+00
        -11   -1    0    0    0    0  0.00000000000E+00  0.00000000000E+00  0.45593999997E+02  0.45594000000E+02  0.51100000000E-03 0.  1.
         11   -1    0    0    0    0 -0.00000000000E+00 -0.00000000000E+00 -0.45593999997E+02  0.45594000000E+02  0.51100000000E-03 0. -1.
    9900012    2    1    2    0    0 -0.38201380841E+01  0.49804546945E+01 -0.31262156996E+02  0.59301939660E+02  0.49999992035E+02 0.  0.
        -12    1    1    2    0    0  0.38201380841E+01 -0.49804546945E+01  0.31262156996E+02  0.31886060340E+02  0.00000000000E+00 0.  1.
         11    1    3    3    0    0  0.94827237804E+00  0.67815448349E+01 -0.91182964714E+01  0.11403153145E+02  0.51100000000E-03 0. -1.
        -11    1    3    3    0    0 -0.38891748963E+01  0.20113186739E+02 -0.94755789566E+01  0.22571055779E+02  0.51100000000E-03 0.  1.
         12    1    3    3    0    0 -0.87923556586E+00 -0.21914276879E+02 -0.12668281568E+02  0.25327730736E+02  0.00000000000E+00 0. -1.
</event>
<event>
 7    1  0.7284210E-013  0.5930202E+02  0.7816164E-02  0.1266605E+00
        -11   -1    0    0    0    0  0.00000000000E+00  0.00000000000E+00  0.45593999997E+02  0.45594000000E+02  0.51100000000E-03 0.  1.
         11   -1    0    0    0    0 -0.00000000000E+00 -0.00000000000E+00 -0.45593999997E+02  0.45594000000E+02  0.51100000000E-03 0. -1.
    9900012    2    1    2    0    0  0.22792071152E+02 -0.21634548908E+02 -0.54022027493E+01  0.59302015487E+02  0.50000130324E+02 0.  0.
        -12    1    1    2    0    0 -0.22792071152E+02  0.21634548908E+02  0.54022027493E+01  0.31885984513E+02  0.00000000000E+00 0.  1.
         11    1    3    3    0    0  0.72503736421E+01 -0.52181148886E+01 -0.61556556069E+01  0.10848443997E+02  0.51100000000E-03 0. -1.
        -11    1    3    3    0    0  0.16622122284E+02 -0.15612735989E+02 -0.18369696734E+02  0.29283070752E+02  0.51100000000E-03 0.  1.
        -12    1    3    3    0    0 -0.10804247735E+01 -0.80369802957E+00  0.19123149592E+02  0.19170500738E+02  0.00000000000E+00 0.  1.
</event>
<event>
 7    1  0.7284210E-013  0.5930194E+02  0.7816164E-02  0.1266605E+00
        -11   -1    0    0    0    0  0.00000000000E+00  0.00000000000E+00  0.45593999997E+02  0.45594000000E+02  0.51100000000E-03 0. -1.
         11   -1    0    0    0    0 -0.00000000000E+00 -0.00000000000E+00 -0.45593999997E+02  0.45594000000E+02  0.51100000000E-03 0.  1.
    9900012    2    1    2    0    0 -0.25744043363E+02 -0.18453387765E+02 -0.36656975226E+01  0.59301943063E+02  0.49999998240E+02 0.  0.
        -12    1    1    2    0    0  0.25744043363E+02  0.18453387765E+02  0.36656975226E+01  0.31886056937E+02  0.00000000000E+00 0.  1.
         11    1    3    3    0    0 -0.10514778505E+02 -0.13565577643E+02  0.87201693966E+01  0.19251670534E+02  0.51100000000E-03 0. -1.
        -11    1    3    3    0    0 -0.84673298890E+01 -0.18070799019E+02  0.11400588629E+01  0.19988726500E+02  0.51100000000E-03 0.  1.
        -12    1    3    3    0    0 -0.67619349692E+01  0.13182988897E+02 -0.13525925782E+02  0.20061546028E+02  0.00000000000E+00 0.  1.
</event>
<event>
 7    1  0.7284210E-013  0.5930195E+02  0.7816164E-02  0.1266605E+00
        -11   -1    0    0    0    0  0.00000000000E+00  0.00000000000E+00  0.45593999997E+02  0.45594000000E+02  0.51100000000E-03 0.  1.
         11   -1    0    0    0    0 -0.00000000000E+00 -0.00000000000E+00 -0.45593999997E+02  0.45594000000E+02  0.51100000000E-03 0. -1.
    9900012    2    1    2    0    0 -0.29280956860E+02  0.10030271671E+02 -0.76641506787E+01  0.59301953050E+02  0.50000016455E+02 0.  0.
        -12    1    1    2    0    0  0.29280956860E+02 -0.10030271671E+02  0.76641506787E+01  0.31886046950E+02  0.00000000000E+00 0.  1.
         11    1    3    3    0    0 -0.31718385347E+02  0.48668240689E+01 -0.84800105846E+01  0.33191151310E+02  0.51100000000E-03 0. -1.
        -11    1    3    3    0    0 -0.91685027094E+01 -0.34378872696E+01 -0.44229211873E+01  0.10744428459E+02  0.51100000000E-03 0.  1.
        -12    1    3    3    0    0  0.11605931196E+02  0.86013348714E+01  0.52387810932E+01  0.15366373282E+02  0.00000000000E+00 0.  1.
</event>
<event>
 7    1  0.7284210E-013  0.5930194E+02  0.7816164E-02  0.1266605E+00
        -11   -1    0    0    0    0  0.00000000000E+00  0.00000000000E+00  0.45593999997E+02  0.45594000000E+02  0.51100000000E-03 0.  1.
         11   -1    0    0    0    0 -0.00000000000E+00 -0.00000000000E+00 -0.45593999997E+02  0.45594000000E+02  0.51100000000E-03 0. -1.
    9900012    2    1    2    0    0 -0.20252054863E+02 -0.50189842199E+01  0.24111924187E+02  0.59301940087E+02  0.49999992812E+02 0.  0.
        -12    1    1    2    0    0  0.20252054863E+02  0.50189842199E+01 -0.24111924187E+02  0.31886059913E+02  0.00000000000E+00 0.  1.
         11    1    3    3    0    0 -0.11254434402E+02  0.10396187041E+02  0.21944315435E+02  0.26763706373E+02  0.51100000000E-03 0. -1.
        -11    1    3    3    0    0 -0.72741327125E+01  0.36089376750E+01  0.91192778737E+01  0.12210596507E+02  0.51100000000E-03 0.  1.
        -12    1    3    3    0    0 -0.17234877490E+01 -0.19024108935E+02 -0.69516691211E+01  0.20327637206E+02  0.00000000000E+00 0.  1.
</event>
<event>
 7    1  0.7284210E-013  0.5930191E+02  0.7816164E-02  0.1266605E+00
        -11   -1    0    0    0    0  0.00000000000E+00  0.00000000000E+00  0.45593999997E+02  0.45594000000E+02  0.51100000000E-03 0.  1.
         11   -1    0    0    0    0 -0.00000000000E+00 -0.00000000000E+00 -0.45593999997E+02  0.45594000000E+02  0.51100000000E-03 0. -1.
    9900012    2    1    2    0    0  0.24257931804E+02 -0.22678885698E+01 -0.20570169467E+02  0.59301914542E+02  0.49999946225E+02 0.  0.
        -12    1    1    2    0    0 -0.24257931804E+02  0.22678885698E+01  0.20570169467E+02  0.31886085458E+02  0.00000000000E+00 0.  1.
         11    1    3    3    0    0  0.12564855196E+02  0.49217540368E+01 -0.20939719673E+02  0.24911264704E+02  0.51100000000E-03 0. -1.
        -11    1    3    3    0    0  0.15182699725E+02  0.80199554115E+01  0.53921560681E+01  0.17997483243E+02  0.51100000000E-03 0.  1.
         12    1    3    3    0    0 -0.34896231173E+01 -0.15209598018E+02 -0.50226058613E+01  0.16393166595E+02  0.00000000000E+00 0. -1.
</event>
<event>
 7    1  0.7284210E-013  0.5930192E+02  0.7816164E-02  0.1266605E+00
        -11   -1    0    0    0    0  0.00000000000E+00  0.00000000000E+00  0.45593999997E+02  0.45594000000E+02  0.51100000000E-03 0. -1.
         11   -1    0    0    0    0 -0.00000000000E+00 -0.00000000000E+00 -0.45593999997E+02  0.45594000000E+02  0.51100000000E-03 0.  1.
    9900012    2    1    2    0    0  0.22927929912E+02 -0.14880928755E+02  0.16419195559E+02  0.59301921635E+02  0.49999959162E+02 0.  0.
        -12    1    1    2    0    0 -0.22927929912E+02  0.14880928755E+02 -0.16419195559E+02  0.31886078365E+02  0.00000000000E+00 0.  1.
         11    1    3    3    0    0  0.89857630351E+01 -0.38801548170E+01  0.12707117423E+02  0.16039650002E+02  0.51100000000E-03 0. -1.
        -11    1    3    3    0    0 -0.18999105397E+01  0.96541531149E+01  0.12391396611E+02  0.15822738153E+02  0.51100000000E-03 0.  1.
        -12    1    3    3    0    0  0.15842077417E+02 -0.20654927053E+02 -0.86793184747E+01  0.27439533481E+02  0.00000000000E+00 0.  1.
</event>
<event>
 7    1  0.7284210E-013  0.5930213E+02  0.7816164E-02  0.1266604E+00
        -11   -1    0    0    0    0  0.00000000000E+00  0.00000000000E+00  0.45593999997E+02  0.45594000000E+02  0.51100000000E-03 0. -1.
         11   -1    0    0    0    0 -0.00000000000E+00 -0.00000000000E+00 -0.45593999997E+02  0.45594000000E+02  0.51100000000E-03 0.  1.
    9900012    2    1    2    0    0 -0.19045483100E+02 -0.24767124965E+02  0.63693106398E+01  0.59302125015E+02  0.50000330075E+02 0.  0.
        -12    1    1    2    0    0  0.19045483100E+02  0.24767124965E+02 -0.63693106398E+01  0.31885874985E+02  0.00000000000E+00 0.  1.
         11    1    3    3    0    0  0.24654691476E+01  0.31504402500E+01  0.11415313058E+02  0.12095998692E+02  0.51100000000E-03 0. -1.
        -11    1    3    3    0    0 -0.21333524788E+01 -0.25588327820E+02  0.34728225566E+01  0.25910889799E+02  0.51100000000E-03 0.  1.
        -12    1    3    3    0    0 -0.19377599769E+02 -0.23292373953E+01 -0.85188249745E+01  0.21295236523E+02  0.00000000000E+00 0.  1.
</event>
<event>
 7    1  0.7284210E-013  0.5930195E+02  0.7816164E-02  0.1266605E+00
        -11   -1    0    0    0    0  0.00000000000E+00  0.00000000000E+00  0.45593999997E+02  0.45594000000E+02  0.51100000000E-03 0. -1.
         11   -1    0    0    0    0 -0.00000000000E+00 -0.00000000000E+00 -0.45593999997E+02  0.45594000000E+02  0.51100000000E-03 0.  1.
    9900012    2    1    2    0    0  0.25231829445E+02 -0.17177056907E+02  0.92208432804E+01  0.59301945808E+02  0.50000003247E+02 0.  0.
        -12    1    1    2    0    0 -0.25231829445E+02  0.17177056907E+02 -0.92208432804E+01  0.31886054192E+02  0.00000000000E+00 0.  1.
         11    1    3    3    0    0 -0.64404393523E+01 -0.13170308991E+02  0.83426234795E+01  0.16868184987E+02  0.51100000000E-03 0. -1.
        -11    1    3    3    0    0  0.11931989610E+02  0.15577017679E+01 -0.12965651615E+02  0.17689175586E+02  0.51100000000E-03 0.  1.
         12    1    3    3    0    0  0.19740279187E+02 -0.55644496835E+01  0.13843871416E+02  0.24744585235E+02  0.00000000000E+00 0. -1.
</event>
<event>
 7    1  0.7284210E-013  0.5930194E+02  0.7816164E-02  0.1266605E+00
        -11   -1    0    0    0    0  0.00000000000E+00  0.00000000000E+00  0.45593999997E+02  0.45594000000E+02  0.51100000000E-03 0.  1.
         11   -1    0    0    0    0 -0.00000000000E+00 -0.00000000000E+00 -0.45593999997E+02  0.45594000000E+02  0.51100000000E-03 0. -1.
    9900012    2    1    2    0    0  0.12911893748E+02 -0.72732955233E+01 -0.28233017167E+02  0.59301935861E+02  0.49999985105E+02 0.  0.
        -12    1    1    2    0    0 -0.12911893748E+02  0.72732955233E+01  0.28233017167E+02  0.31886064139E+02  0.00000000000E+00 0.  1.
         11    1    3    3    0    0  0.11218912666E+02  0.88895550225E+01 -0.16222599802E+02  0.21634715956E+02  0.51100000000E-03 0. -1.
        -11    1    3    3    0    0  0.11575375644E+02  0.12116269331E+01 -0.13255794894E+02  0.17640109400E+02  0.51100000000E-03 0.  1.
         12    1    3    3    0    0 -0.98823945624E+01 -0.17374477479E+02  0.12453775287E+01  0.20027110504E+02  0.00000000000E+00 0. -1.
</event>
<event>
 7    1  0.7284210E-013  0.5930192E+02  0.7816164E-02  0.1266605E+00
        -11   -1    0    0    0    0  0.00000000000E+00  0.00000000000E+00  0.45593999997E+02  0.45594000000E+02  0.51100000000E-03 0.  1.
         11   -1    0    0    0    0 -0.00000000000E+00 -0.00000000000E+00 -0.45593999997E+02  0.45594000000E+02  0.51100000000E-03 0. -1.
    9900012    2    1    2    0    0  0.18695602396E+02  0.35574581764E+01 -0.25584001500E+02  0.59301918547E+02  0.49999953530E+02 0.  0.
        -12    1    1    2    0    0 -0.18695602396E+02 -0.35574581764E+01  0.25584001500E+02  0.31886081453E+02  0.00000000000E+00 0.  1.
         11    1    3    3    0    0  0.11382947582E+02  0.18727202267E+01 -0.22172725835E+02  0.24994166277E+02  0.51100000000E-03 0. -1.
        -11    1    3    3    0    0  0.49099141341E+00  0.14869417802E+02 -0.10144745092E+02  0.18007123912E+02  0.51100000000E-03 0.  1.
         12    1    3    3    0    0  0.68216634006E+01 -0.13184679852E+02  0.67334694263E+01  0.16300628358E+02  0.00000000000E+00 0. -1.
</event>
<event>
 7    1  0.7284210E-013  0.5930191E+02  0.7816164E-02  0.1266605E+00
        -11   -1    0    0    0    0  0.00000000000E+00  0.00000000000E+00  0.45593999997E+02  0.45594000000E+02  0.51100000000E-03 0.  1.
         11   -1    0    0    0    0 -0.00000000000E+00 -0.00000000000E+00 -0.45593999997E+02  0.45594000000E+02  0.51100000000E-03 0. -1.
    9900012    2    1    2    0    0  0.31158651941E+02 -0.11568330203E+01 -0.66725440489E+01  0.59301910596E+02  0.49999939029E+02 0.  0.
        -12    1    1    2    0    0 -0.31158651941E+02  0.11568330203E+01  0.66725440489E+01  0.31886089404E+02  0.00000000000E+00 0.  1.
         11    1    3    3    0    0  0.26212682154E+01  0.71523370607E+00 -0.11859740508E+02  0.12167006677E+02  0.51100000000E-03 0. -1.
        -11    1    3    3    0    0  0.13615925204E+02 -0.12589940429E+02 -0.11908902131E+02  0.22039100921E+02  0.51100000000E-03 0.  1.
        -12    1    3    3    0    0  0.14921458521E+02  0.10717873703E+02  0.17096098590E+02  0.25095802998E+02  0.00000000000E+00 0.  1.
</event>
<event>
 7    1  0.7284210E-013  0.5930194E+02  0.7816164E-02  0.1266605E+00
        -11   -1    0    0    0    0  0.00000000000E+00  0.00000000000E+00  0.45593999997E+02  0.45594000000E+02  0.51100000000E-03 0.  1.
         11   -1    0    0    0    0 -0.00000000000E+00 -0.00000000000E+00 -0.45593999997E+02  0.45594000000E+02  0.51100000000E-03 0. -1.
    9900012    2    1    2    0    0 -0.28309795262E+02 -0.38323334877E+01 -0.14162968642E+02  0.59301937708E+02  0.49999988474E+02 0.  0.
        -12    1    1    2    0    0  0.28309795262E+02  0.38323334877E+01  0.14162968642E+02  0.31886062292E+02  0.00000000000E+00 0.  1.
         11    1    3    3    0    0 -0.23191336201E+01  0.93387262871E+01 -0.10216588296E+02  0.14034559704E+02  0.51100000000E-03 0. -1.
        -11    1    3    3    0    0  0.69555822534E+01 -0.42881790994E+01  0.55138487636E+01  0.98575419310E+01  0.51100000000E-03 0.  1.
         12    1    3    3    0    0 -0.32946243895E+02 -0.88828806755E+01 -0.94602291094E+01  0.35409836073E+02  0.00000000000E+00 0. -1.
</event>
<event>
 7    1  0.7284210E-013  0.5930205E+02  0.7816164E-02  0.1266604E+00
        -11   -1    0    0    0    0  0.00000000000E+00  0.00000000000E+00  0.45593999997E+02  0.45594000000E+02  0.51100000000E-03 0.  1.
         11   -1    0    0    0    0 -0.00000000000E+00 -0.00000000000E+00 -0.45593999997E+02  0.45594000000E+02  0.51100000000E-03 0. -1.
    9900012    2    1    2    0    0 -0.23915840372E+02  0.19331835023E+02 -0.84277088901E+01  0.59302054143E+02  0.50000200823E+02 0.  0.
        -12    1    1    2    0    0  0.23915840372E+02 -0.19331835023E+02  0.84277088901E+01  0.31885945857E+02  0.00000000000E+00 0.  1.
         11    1    3    3    0    0 -0.28687804429E+02  0.17548442540E+02  0.83351945767E+01  0.34646982949E+02  0.51100000000E-03 0. -1.
        -11    1    3    3    0    0 -0.42837728100E+01  0.63907790721E+01 -0.53288060747E+01  0.93588963601E+01  0.51100000000E-03 0.  1.
        -12    1    3    3    0    0  0.90557368673E+01 -0.46073865888E+01 -0.11434097392E+02  0.15296174834E+02  0.00000000000E+00 0.  1.
</event>
<event>
 7    1  0.7284210E-013  0.5930194E+02  0.7816164E-02  0.1266605E+00
        -11   -1    0    0    0    0  0.00000000000E+00  0.00000000000E+00  0.45593999997E+02  0.45594000000E+02  0.51100000000E-03 0. -1.
         11   -1    0    0    0    0 -0.00000000000E+00 -0.00000000000E+00 -0.45593999997E+02  0.45594000000E+02  0.51100000000E-03 0.  1.
    9900012    2    1    2    0    0  0.84047853237E+01  0.59424955013E+01  0.30178918693E+02  0.59301940309E+02  0.49999993218E+02 0.  0.
        -12    1    1    2    0    0 -0.84047853237E+01 -0.59424955013E+01 -0.30178918693E+02  0.31886059691E+02  0.00000000000E+00 0.  1.
         11    1    3    3    0    0 -0.41057068585E+01  0.15819208307E+02  0.46274856990E+01  0.16985811857E+02  0.51100000000E-03 0.  1.
        -11    1    3    3    0    0  0.11710630721E+02  0.85798828137E+01  0.15686309447E+02  0.21373197358E+02  0.51100000000E-03 0. -1.
        -12    1    3    3    0    0  0.79986146135E+00 -0.18456595620E+02  0.98651235468E+01  0.20942931094E+02  0.00000000000E+00 0.  1.
</event>
<event>
 7    1  0.7284210E-013  0.5930195E+02  0.7816164E-02  0.1266605E+00
        -11   -1    0    0    0    0  0.00000000000E+00  0.00000000000E+00  0.45593999997E+02  0.45594000000E+02  0.51100000000E-03 0. -1.
         11   -1    0    0    0    0 -0.00000000000E+00 -0.00000000000E+00 -0.45593999997E+02  0.45594000000E+02  0.51100000000E-03 0.  1.
    9900012    2    1    2    0    0  0.10887104706E+02  0.69447362497E+01  0.29154100230E+02  0.59301953355E+02  0.50000017011E+02 0.  0.
        -12    1    1    2    0    0 -0.10887104706E+02 -0.69447362497E+01 -0.29154100230E+02  0.31886046645E+02  0.00000000000E+00 0.  1.
         11    1    3    3    0    0  0.39204180869E+01 -0.76574833470E+01  0.17802294860E+02  0.19771910169E+02  0.51100000000E-03 0. -1.
        -11    1    3    3    0    0 -0.99664638085E+01 -0.50186205777E+01  0.72060073063E+01  0.13283203488E+02  0.51100000000E-03 0.  1.
        -12    1    3    3    0    0  0.16933150427E+02  0.19620840174E+02  0.41457980632E+01  0.26246839698E+02  0.00000000000E+00 0.  1.
</event>
<event>
 7    1  0.7284210E-013  0.5930194E+02  0.7816164E-02  0.1266605E+00
        -11   -1    0    0    0    0  0.00000000000E+00  0.00000000000E+00  0.45593999997E+02  0.45594000000E+02  0.51100000000E-03 0.  1.
         11   -1    0    0    0    0 -0.00000000000E+00 -0.00000000000E+00 -0.45593999997E+02  0.45594000000E+02  0.51100000000E-03 0. -1.
    9900012    2    1    2    0    0 -0.18829755557E+02  0.11602939157E+02 -0.22968084884E+02  0.59301940121E+02  0.49999992875E+02 0.  0.
        -12    1    1    2    0    0  0.18829755557E+02 -0.11602939157E+02  0.22968084884E+02  0.31886059879E+02  0.00000000000E+00 0.  1.
         11    1    3    3    0    0 -0.36983376844E+01  0.10222813194E+02 -0.21157296300E+02  0.23786861883E+02  0.51100000000E-03 0. -1.
        -11    1    3    3    0    0 -0.66706825572E+01  0.10991908067E+02 -0.13164269380E+02  0.18401577033E+02  0.51100000000E-03 0.  1.
        -12    1    3    3    0    0 -0.84607353150E+01 -0.96117821045E+01  0.11353480797E+02  0.17113501205E+02  0.00000000000E+00 0.  1.
</event>
<event>
 7    1  0.7284210E-013  0.5930195E+02  0.7816164E-02  0.1266605E+00
        -11   -1    0    0    0    0  0.00000000000E+00  0.00000000000E+00  0.45593999997E+02  0.45594000000E+02  0.51100000000E-03 0. -1.
         11   -1    0    0    0    0 -0.00000000000E+00 -0.00000000000E+00 -0.45593999997E+02  0.45594000000E+02  0.51100000000E-03 0.  1.
    9900012    2    1    2    0    0 -0.96491231596E+00 -0.20618860239E+02 -0.24303329317E+02  0.59301948673E+02  0.50000008473E+02 0.  0.
        -12    1    1    2    0    0  0.96491231596E+00  0.20618860239E+02  0.24303329317E+02  0.31886051327E+02  0.00000000000E+00 0.  1.
         11    1    3    3    0    0  0.90096564998E+01 -0.12585524721E+02 -0.47829020696E+00  0.15485415865E+02  0.51100000000E-03 0. -1.
        -11    1    3    3    0    0 -0.10034437143E+02  0.11456879178E+02 -0.34405234836E+01  0.15613686668E+02  0.51100000000E-03 0.  1.
         12    1    3    3    0    0  0.59868326988E-01 -0.19490214696E+02 -0.20384515626E+02  0.28202846140E+02  0.00000000000E+00 0. -1.
</event>
<event>
 7    1  0.7284210E-013  0.5930195E+02  0.7816164E-02  0.1266605E+00
        -11   -1    0    0    0    0  0.00000000000E+00  0.00000000000E+00  0.45593999997E+02  0.45594000000E+02  0.51100000000E-03 0. -1.
         11   -1    0    0    0    0 -0.00000000000E+00 -0.00000000000E+00 -0.45593999997E+02  0.45594000000E+02  0.51100000000E-03 0.  1.
    9900012    2    1    2    0    0  0.41589555603E+01 -0.24018871093E+02  0.20555224220E+02  0.59301947835E+02  0.50000006943E+02 0.  0.
        -12    1    1    2    0    0 -0.41589555603E+01  0.24018871093E+02 -0.20555224220E+02  0.31886052165E+02  0.00000000000E+00 0.  1.
         11    1    3    3    0    0  0.18411495731E+01 -0.10644534993E+02  0.27617952913E+01  0.11150043518E+02  0.51100000000E-03 0. -1.
        -11    1    3    3    0    0 -0.80812143585E-01 -0.28667355222E+02  0.15227333980E+02  0.32460676001E+02  0.51100000000E-03 0.  1.
         12    1    3    3    0    0  0.23986181308E+01  0.15293019121E+02  0.25660949485E+01  0.15691228316E+02  0.00000000000E+00 0. -1.
</event>
<event>
 7    1  0.7284210E-013  0.5930192E+02  0.7816164E-02  0.1266605E+00
        -11   -1    0    0    0    0  0.00000000000E+00  0.00000000000E+00  0.45593999997E+02  0.45594000000E+02  0.51100000000E-03 0. -1.
         11   -1    0    0    0    0 -0.00000000000E+00 -0.00000000000E+00 -0.45593999997E+02  0.45594000000E+02  0.51100000000E-03 0.  1.
    9900012    2    1    2    0    0 -0.27698458315E+02  0.15337738852E+02  0.37777694088E+01  0.59301915765E+02  0.49999948456E+02 0.  0.
        -12    1    1    2    0    0  0.27698458315E+02 -0.15337738852E+02 -0.37777694088E+01  0.31886084235E+02  0.00000000000E+00 0.  1.
         11    1    3    3    0    0  0.33662741011E+01 -0.56047305074E+01 -0.45141757291E+01  0.79449725083E+01  0.51100000000E-03 0. -1.
        -11    1    3    3    0    0 -0.45397487157E+01 -0.62237629021E+01  0.10845561804E+02  0.13303035525E+02  0.51100000000E-03 0.  1.
         12    1    3    3    0    0 -0.26524983701E+02  0.27166232262E+02 -0.25536166661E+01  0.38053907732E+02  0.00000000000E+00 0. -1.
</event>
<event>
 7    1  0.7284210E-013  0.5930201E+02  0.7816164E-02  0.1266605E+00
        -11   -1    0    0    0    0  0.00000000000E+00  0.00000000000E+00  0.45593999997E+02  0.45594000000E+02  0.51100000000E-03 0.  1.
         11   -1    0    0    0    0 -0.00000000000E+00 -0.00000000000E+00 -0.45593999997E+02  0.45594000000E+02  0.51100000000E-03 0. -1.
    9900012    2    1    2    0    0 -0.30295885313E+02 -0.21852533327E+01 -0.97005206935E+01  0.59302014038E+02  0.50000127683E+02 0.  0.
        -12    1    1    2    0    0  0.30295885313E+02  0.21852533327E+01  0.97005206935E+01  0.31885985962E+02  0.00000000000E+00 0.  1.
         11    1    3    3    0    0  0.18904251981E+01  0.26011684588E+01 -0.12401649491E+01  0.34464175810E+01  0.51100000000E-03 0. -1.
        -11    1    3    3    0    0  0.95680425627E+01 -0.91258399130E+01 -0.24725615745E+01  0.13451466597E+02  0.51100000000E-03 0.  1.
        -12    1    3    3    0    0 -0.41754353074E+02  0.43394181215E+01 -0.59877941699E+01  0.42404129861E+02  0.00000000000E+00 0.  1.
</event>
<event>
 7    1  0.7284210E-013  0.5930190E+02  0.7816164E-02  0.1266605E+00
        -11   -1    0    0    0    0  0.00000000000E+00  0.00000000000E+00  0.45593999997E+02  0.45594000000E+02  0.51100000000E-03 0.  1.
         11   -1    0    0    0    0 -0.00000000000E+00 -0.00000000000E+00 -0.45593999997E+02  0.45594000000E+02  0.51100000000E-03 0. -1.
    9900012    2    1    2    0    0  0.13982030671E+02 -0.17687569286E+02 -0.22547199256E+02  0.59301898275E+02  0.49999916558E+02 0.  0.
        -12    1    1    2    0    0 -0.13982030671E+02  0.17687569286E+02  0.22547199256E+02  0.31886101725E+02  0.00000000000E+00 0.  1.
         11    1    3    3    0    0  0.19592988712E+02  0.54945438000E+01  0.39519509359E+00  0.20352675443E+02  0.51100000000E-03 0. -1.
        -11    1    3    3    0    0  0.77313070913E+00 -0.20531592160E+02 -0.72258675228E+01  0.21779742180E+02  0.51100000000E-03 0.  1.
        -12    1    3    3    0    0 -0.63840887508E+01 -0.26505209259E+01 -0.15716526827E+02  0.17169480652E+02  0.00000000000E+00 0.  1.
</event>
<event>
 7    1  0.7284210E-013  0.5930195E+02  0.7816164E-02  0.1266605E+00
        -11   -1    0    0    0    0  0.00000000000E+00  0.00000000000E+00  0.45593999997E+02  0.45594000000E+02  0.51100000000E-03 0. -1.
         11   -1    0    0    0    0 -0.00000000000E+00 -0.00000000000E+00 -0.45593999997E+02  0.45594000000E+02  0.51100000000E-03 0.  1.
    9900012    2    1    2    0    0 -0.27455990439E+02  0.95789407619E+01  0.13081763488E+02  0.59301952063E+02  0.50000014654E+02 0.  0.
        -12    1    1    2    0    0  0.27455990439E+02 -0.95789407619E+01 -0.13081763488E+02  0.31886047937E+02  0.00000000000E+00 0.  1.
         11    1    3    3    0    0  0.18646917188E+01  0.63690802520E+01  0.79978809240E+01  0.10392706962E+02  0.51100000000E-03 0. -1.
        -11    1    3    3    0    0  0.42055241299E+01 -0.11769527803E+01  0.13396565849E+02  0.14090409074E+02  0.51100000000E-03 0.  1.
         12    1    3    3    0    0 -0.33526206288E+02  0.43868132902E+01 -0.83126832846E+01  0.34818836027E+02  0.00000000000E+00 0. -1.
</event>
<event>
 7    1  0.7284210E-013  0.5930198E+02  0.7816164E-02  0.1266605E+00
        -11   -1    0    0    0    0  0.00000000000E+00  0.00000000000E+00  0.45593999997E+02  0.45594000000E+02  0.51100000000E-03 0. -1.
         11   -1    0    0    0    0 -0.00000000000E+00 -0.00000000000E+00 -0.45593999997E+02  0.45594000000E+02  0.51100000000E-03 0.  1.
    9900012    2    1    2    0    0 -0.11645185160E+02  0.23272965230E+02  0.18424910317E+02  0.59301975347E+02  0.50000057118E+02 0.  0.
        -12    1    1    2    0    0  0.11645185160E+02 -0.23272965230E+02 -0.18424910317E+02  0.31886024653E+02  0.00000000000E+00 0.  1.
         11    1    3    3    0    0 -0.67939499315E-01  0.34159529122E+01 -0.43358823509E+00  0.34440309367E+01  0.51100000000E-03 0. -1.
        -11    1    3    3    0    0 -0.17450517497E+02  0.32452264730E+02  0.68219409041E+01  0.37472775784E+02  0.51100000000E-03 0.  1.
        -12    1    3    3    0    0  0.58732718364E+01 -0.12595252412E+02  0.12036557648E+02  0.18385168626E+02  0.00000000000E+00 0.  1.
</event>
<event>
 7    1  0.7284210E-013  0.5930193E+02  0.7816164E-02  0.1266605E+00
        -11   -1    0    0    0    0  0.00000000000E+00  0.00000000000E+00  0.45593999997E+02  0.45594000000E+02  0.51100000000E-03 0.  1.
         11   -1    0    0    0    0 -0.00000000000E+00 -0.00000000000E+00 -0.45593999997E+02  0.45594000000E+02  0.51100000000E-03 0. -1.
    9900012    2    1    2    0    0  0.31161518307E+01  0.31321185982E+02 -0.50984436489E+01  0.59301933745E+02  0.49999981247E+02 0.  0.
        -12    1    1    2    0    0 -0.31161518307E+01 -0.31321185982E+02  0.50984436489E+01  0.31886066255E+02  0.00000000000E+00 0.  1.
         11    1    3    3    0    0  0.23327239137E+01 -0.91435350011E+01 -0.83186478495E+01  0.12579576125E+02  0.51100000000E-03 0. -1.
        -11    1    3    3    0    0 -0.41025614650E+01  0.36331780740E+01 -0.63178603119E+01  0.83633936098E+01  0.51100000000E-03 0.  1.
        -12    1    3    3    0    0  0.48859893820E+01  0.36831542909E+02  0.95380645125E+01  0.38358964011E+02  0.00000000000E+00 0.  1.
</event>
<event>
 7    1  0.7284210E-013  0.5930201E+02  0.7816164E-02  0.1266605E+00
        -11   -1    0    0    0    0  0.00000000000E+00  0.00000000000E+00  0.45593999997E+02  0.45594000000E+02  0.51100000000E-03 0.  1.
         11   -1    0    0    0    0 -0.00000000000E+00 -0.00000000000E+00 -0.45593999997E+02  0.45594000000E+02  0.51100000000E-03 0. -1.
    9900012    2    1    2    0    0 -0.50012366261E+01 -0.53368807719E+01 -0.31035812311E+02  0.59302010758E+02  0.50000121700E+02 0.  0.
        -12    1    1    2    0    0  0.50012366261E+01  0.53368807719E+01  0.31035812311E+02  0.31885989242E+02  0.00000000000E+00 0.  1.
         11    1    3    3    0    0  0.89329506365E+01 -0.79505012018E+00 -0.88799790411E+01  0.12620766213E+02  0.51100000000E-03 0. -1.
        -11    1    3    3    0    0 -0.16342385611E+02  0.14523423615E+02 -0.12261631782E+02  0.25066930709E+02  0.51100000000E-03 0.  1.
         12    1    3    3    0    0  0.24081983480E+01 -0.19065254267E+02 -0.98942014877E+01  0.21614313836E+02  0.00000000000E+00 0. -1.
</event>
<event>
 7    1  0.7284210E-013  0.5930194E+02  0.7816164E-02  0.1266605E+00
        -11   -1    0    0    0    0  0.00000000000E+00  0.00000000000E+00  0.45593999997E+02  0.45594000000E+02  0.51100000000E-03 0.  1.
         11   -1    0    0    0    0 -0.00000000000E+00 -0.00000000000E+00 -0.45593999997E+02  0.45594000000E+02  0.51100000000E-03 0. -1.
    9900012    2    1    2    0    0 -0.22950334184E+02  0.21358024227E+02 -0.58170268360E+01  0.59301939735E+02  0.49999992171E+02 0.  0.
        -12    1    1    2    0    0  0.22950334184E+02 -0.21358024227E+02  0.58170268360E+01  0.31886060265E+02  0.00000000000E+00 0.  1.
         11    1    3    3    0    0  0.18525131010E+00  0.32676065452E+01 -0.34943641241E+01  0.47877083741E+01  0.51100000000E-03 0. -1.
        -11    1    3    3    0    0  0.14089567575E+02  0.54764417379E+01 -0.16276321778E+01  0.15203832258E+02  0.51100000000E-03 0.  1.
         12    1    3    3    0    0 -0.37225153069E+02  0.12613975944E+02 -0.69503053410E+00  0.39310399102E+02  0.00000000000E+00 0. -1.
</event>
<event>
 7    1  0.7284210E-013  0.5930191E+02  0.7816164E-02  0.1266605E+00
        -11   -1    0    0    0    0  0.00000000000E+00  0.00000000000E+00  0.45593999997E+02  0.45594000000E+02  0.51100000000E-03 0.  1.
         11   -1    0    0    0    0 -0.00000000000E+00 -0.00000000000E+00 -0.45593999997E+02  0.45594000000E+02  0.51100000000E-03 0. -1.
    9900012    2    1    2    0    0  0.46582199895E+01 -0.31277363536E+02 -0.40926994044E+01  0.59301911001E+02  0.49999939768E+02 0.  0.
        -12    1    1    2    0    0 -0.46582199895E+01  0.31277363536E+02  0.40926994044E+01  0.31886088999E+02  0.00000000000E+00 0.  1.
         11    1    3    3    0    0  0.92540235385E+01 -0.30003379320E+02 -0.97443615606E+01  0.32875405773E+02  0.51100000000E-03 0. -1.
        -11    1    3    3    0    0  0.63264823420E+01 -0.90491344738E+01  0.68049864662E+01  0.12969928859E+02  0.51100000000E-03 0.  1.
         12    1    3    3    0    0 -0.10922285891E+02  0.77751502577E+01 -0.11533243100E+01  0.13456576369E+02  0.00000000000E+00 0. -1.
</event>
<event>
 7    1  0.7284210E-013  0.5930194E+02  0.7816164E-02  0.1266605E+00
        -11   -1    0    0    0    0  0.00000000000E+00  0.00000000000E+00  0.45593999997E+02  0.45594000000E+02  0.51100000000E-03 0. -1.
         11   -1    0    0    0    0 -0.00000000000E+00 -0.00000000000E+00 -0.45593999997E+02  0.45594000000E+02  0.51100000000E-03 0.  1.
    9900012    2    1    2    0    0 -0.28754820842E+02 -0.10875484935E+02  0.84619624735E+01  0.59301941869E+02  0.49999996064E+02 0.  0.
        -12    1    1    2    0    0  0.28754820842E+02  0.10875484935E+02 -0.84619624735E+01  0.31886058131E+02  0.00000000000E+00 0.  1.
         11    1    3    3    0    0 -0.10074895271E+02 -0.86615283414E+01  0.10143032627E+01  0.13324954008E+02  0.51100000000E-03 0. -1.
        -11    1    3    3    0    0 -0.21265455730E+02  0.79502609647E+01 -0.10636906912E+02  0.25071299243E+02  0.51100000000E-03 0.  1.
         12    1    3    3    0    0  0.25855301599E+01 -0.10164217559E+02  0.18084566122E+02  0.20905688619E+02  0.00000000000E+00 0. -1.
</event>
<event>
 7    1  0.7284210E-013  0.5930192E+02  0.7816164E-02  0.1266605E+00
        -11   -1    0    0    0    0  0.00000000000E+00  0.00000000000E+00  0.45593999997E+02  0.45594000000E+02  0.51100000000E-03 0. -1.
         11   -1    0    0    0    0 -0.00000000000E+00 -0.00000000000E+00 -0.45593999997E+02  0.45594000000E+02  0.51100000000E-03 0.  1.
    9900012    2    1    2    0    0  0.30822431254E+02  0.67978372462E+01  0.45264920621E+01  0.59301921690E+02  0.49999959261E+02 0.  0.
        -12    1    1    2    0    0 -0.30822431254E+02 -0.67978372462E+01 -0.45264920621E+01  0.31886078310E+02  0.00000000000E+00 0.  1.
         11    1    3    3    0    0  0.19946310704E+02  0.18150089067E+02  0.15850916615E+02  0.31281505745E+02  0.51100000000E-03 0. -1.
        -11    1    3    3    0    0  0.15932437793E+02 -0.38308625281E+01 -0.88596840794E+01  0.18628260359E+02  0.51100000000E-03 0.  1.
        -12    1    3    3    0    0 -0.50563172440E+01 -0.75213892923E+01 -0.24647404739E+01  0.93921555866E+01  0.00000000000E+00 0.  1.
</event>
<event>
 7    1  0.7284210E-013  0.5930197E+02  0.7816164E-02  0.1266605E+00
        -11   -1    0    0    0    0  0.00000000000E+00  0.00000000000E+00  0.45593999997E+02  0.45594000000E+02  0.51100000000E-03 0.  1.
         11   -1    0    0    0    0 -0.00000000000E+00 -0.00000000000E+00 -0.45593999997E+02  0.45594000000E+02  0.51100000000E-03 0. -1.
    9900012    2    1    2    0    0  0.19770969937E+02  0.24729270251E+02  0.37803129130E+01  0.59301971317E+02  0.50000049770E+02 0.  0.
        -12    1    1    2    0    0 -0.19770969937E+02 -0.24729270251E+02 -0.37803129130E+01  0.31886028683E+02  0.00000000000E+00 0.  1.
         11    1    3    3    0    0  0.22866205346E+02  0.20205748437E+02 -0.14630725799E+00  0.30514865605E+02  0.51100000000E-03 0. -1.
        -11    1    3    3    0    0  0.11520762956E+02 -0.23456178224E+01 -0.12613106713E+01  0.11824584852E+02  0.51100000000E-03 0.  1.
        -12    1    3    3    0    0 -0.14615998364E+02  0.68691396365E+01  0.51879308423E+01  0.16962520860E+02  0.00000000000E+00 0.  1.
</event>
<event>
 7    1  0.7284210E-013  0.5930195E+02  0.7816164E-02  0.1266605E+00
        -11   -1    0    0    0    0  0.00000000000E+00  0.00000000000E+00  0.45593999997E+02  0.45594000000E+02  0.51100000000E-03 0.  1.
         11   -1    0    0    0    0 -0.00000000000E+00 -0.00000000000E+00 -0.45593999997E+02  0.45594000000E+02  0.51100000000E-03 0. -1.
    9900012    2    1    2    0    0  0.12325133475E+02 -0.15032065743E+02 -0.25275447300E+02  0.59301950513E+02  0.50000011828E+02 0.  0.
        -12    1    1    2    0    0 -0.12325133475E+02  0.15032065743E+02  0.25275447300E+02  0.31886049487E+02  0.00000000000E+00 0.  1.
         11    1    3    3    0    0 -0.57521568162E+01  0.27747832203E+01 -0.38686336492E+01  0.74667969392E+01  0.51100000000E-03 0. -1.
        -11    1    3    3    0    0 -0.82399962335E+01 -0.68180517942E+01  0.60156172846E+01  0.12270738355E+02  0.51100000000E-03 0.  1.
         12    1    3    3    0    0  0.26317286524E+02 -0.10988797170E+02 -0.27422430935E+02  0.39564415219E+02  0.00000000000E+00 0. -1.
</event>
<event>
 7    1  0.7284210E-013  0.5930193E+02  0.7816164E-02  0.1266605E+00
        -11   -1    0    0    0    0  0.00000000000E+00  0.00000000000E+00  0.45593999997E+02  0.45594000000E+02  0.51100000000E-03 0. -1.
         11   -1    0    0    0    0 -0.00000000000E+00 -0.00000000000E+00 -0.45593999997E+02  0.45594000000E+02  0.51100000000E-03 0.  1.
    9900012    2    1    2    0    0  0.24035077169E+02  0.20932730342E+02 -0.92591139455E+00  0.59301930220E+02  0.49999974819E+02 0.  0.
        -12    1    1    2    0    0 -0.24035077169E+02 -0.20932730342E+02  0.92591139455E+00  0.31886069780E+02  0.00000000000E+00 0.  1.
         11    1    3    3    0    0  0.62308221745E+01  0.12133541459E+02  0.47789491255E+01  0.14452831152E+02  0.51100000000E-03 0.  1.
        -11    1    3    3    0    0 -0.93663023006E+01  0.83849796446E+01  0.74982841110E+01  0.14637614809E+02  0.51100000000E-03 0. -1.
        -12    1    3    3    0    0  0.27170557295E+02  0.41420923870E+00 -0.13203144631E+02  0.30211484259E+02  0.00000000000E+00 0.  1.
</event>
<event>
 7    1  0.7284210E-013  0.5930194E+02  0.7816164E-02  0.1266605E+00
        -11   -1    0    0    0    0  0.00000000000E+00  0.00000000000E+00  0.45593999997E+02  0.45594000000E+02  0.51100000000E-03 0. -1.
         11   -1    0    0    0    0 -0.00000000000E+00 -0.00000000000E+00 -0.45593999997E+02  0.45594000000E+02  0.51100000000E-03 0.  1.
    9900012    2    1    2    0    0 -0.31060553258E+02 -0.80064145083E-02  0.72085273059E+01  0.59301938802E+02  0.49999990469E+02 0.  0.
        -12    1    1    2    0    0  0.31060553258E+02  0.80064145083E-02 -0.72085273059E+01  0.31886061198E+02  0.00000000000E+00 0.  1.
         11    1    3    3    0    0  0.65811987992E+01 -0.10254802016E+01  0.63082792011E+00  0.66904208690E+01  0.51100000000E-03 0.  1.
        -11    1    3    3    0    0 -0.15731257024E+02 -0.13405661529E+02  0.14456204715E+02  0.25222332636E+02  0.51100000000E-03 0. -1.
        -12    1    3    3    0    0 -0.21910495034E+02  0.14423135316E+02 -0.78785053297E+01  0.27389185296E+02  0.00000000000E+00 0.  1.
</event>
<event>
 7    1  0.7284210E-013  0.5930190E+02  0.7816164E-02  0.1266605E+00
        -11   -1    0    0    0    0  0.00000000000E+00  0.00000000000E+00  0.45593999997E+02  0.45594000000E+02  0.51100000000E-03 0. -1.
         11   -1    0    0    0    0 -0.00000000000E+00 -0.00000000000E+00 -0.45593999997E+02  0.45594000000E+02  0.51100000000E-03 0.  1.
    9900012    2    1    2    0    0 -0.23509364551E+02  0.10239320891E+02  0.18952288014E+02  0.59301903737E+02  0.49999926520E+02 0.  0.
        -12    1    1    2    0    0  0.23509364551E+02 -0.10239320891E+02 -0.18952288014E+02  0.31886096263E+02  0.00000000000E+00 0.  1.
         11    1    3    3    0    0  0.20265910068E+01 -0.74275540251E+01  0.31753367278E+01  0.83281686763E+01  0.51100000000E-03 0. -1.
        -11    1    3    3    0    0 -0.21108898781E+02  0.10910697468E+02 -0.86178811750E+01  0.25276408036E+02  0.51100000000E-03 0.  1.
         12    1    3    3    0    0 -0.44270567768E+01  0.67561774483E+01  0.24394832461E+02  0.25697327025E+02  0.00000000000E+00 0. -1.
</event>
<event>
 7    1  0.7284210E-013  0.5930193E+02  0.7816164E-02  0.1266605E+00
        -11   -1    0    0    0    0  0.00000000000E+00  0.00000000000E+00  0.45593999997E+02  0.45594000000E+02  0.51100000000E-03 0. -1.
         11   -1    0    0    0    0 -0.00000000000E+00 -0.00000000000E+00 -0.45593999997E+02  0.45594000000E+02  0.51100000000E-03 0.  1.
    9900012    2    1    2    0    0 -0.10507582071E+02 -0.28210297564E+02 -0.10511478371E+02  0.59301931770E+02  0.49999977645E+02 0.  0.
        -12    1    1    2    0    0  0.10507582071E+02  0.28210297564E+02  0.10511478371E+02  0.31886068230E+02  0.00000000000E+00 0.  1.
         11    1    3    3    0    0 -0.62068185039E+01  0.63323722866E+01 -0.10301646420E+02  0.13592183560E+02  0.51100000000E-03 0. -1.
        -11    1    3    3    0    0  0.12726017382E+02 -0.14815864289E+02 -0.17245061112E+01  0.19607021055E+02  0.51100000000E-03 0.  1.
         12    1    3    3    0    0 -0.17026780949E+02 -0.19726805561E+02  0.15146741602E+01  0.26102727155E+02  0.00000000000E+00 0. -1.
</event>
<event>
 7    1  0.7284210E-013  0.5930194E+02  0.7816164E-02  0.1266605E+00
        -11   -1    0    0    0    0  0.00000000000E+00  0.00000000000E+00  0.45593999997E+02  0.45594000000E+02  0.51100000000E-03 0.  1.
         11   -1    0    0    0    0 -0.00000000000E+00 -0.00000000000E+00 -0.45593999997E+02  0.45594000000E+02  0.51100000000E-03 0. -1.
    9900012    2    1    2    0    0 -0.17195923684E+02 -0.26745270469E+02  0.23899245504E+01  0.59301936851E+02  0.49999986911E+02 0.  0.
        -12    1    1    2    0    0  0.17195923684E+02  0.26745270469E+02 -0.23899245504E+01  0.31886063149E+02  0.00000000000E+00 0.  1.
         11    1    3    3    0    0 -0.14733143406E+02  0.27467528110E+01  0.13282039704E+02  0.20025552291E+02  0.51100000000E-03 0. -1.
        -11    1    3    3    0    0  0.54713363622E+01 -0.26619322471E+01  0.42892125582E+01  0.74443770396E+01  0.51100000000E-03 0.  1.
         12    1    3    3    0    0 -0.79341166406E+01 -0.26830091033E+02 -0.15181327711E+02  0.31832007520E+02  0.00000000000E+00 0. -1.
</event>
<event>
 7    1  0.7284210E-013  0.5930194E+02  0.7816164E-02  0.1266605E+00
        -11   -1    0    0    0    0  0.00000000000E+00  0.00000000000E+00  0.45593999997E+02  0.45594000000E+02  0.51100000000E-03 0.  1.
         11   -1    0    0    0    0 -0.00000000000E+00 -0.00000000000E+00 -0.45593999997E+02  0.45594000000E+02  0.51100000000E-03 0. -1.
    9900012    2    1    2    0    0  0.48716216611E+01  0.52419751451E+01 -0.31072650265E+02  0.59301943557E+02  0.49999999141E+02 0.  0.
        -12    1    1    2    0    0 -0.48716216611E+01 -0.52419751451E+01  0.31072650265E+02  0.31886056443E+02  0.00000000000E+00 0.  1.
         11    1    3    3    0    0 -0.11160913888E+01  0.45163608525E+01 -0.12674516048E+02  0.13501352993E+02  0.51100000000E-03 0. -1.
        -11    1    3    3    0    0 -0.16077100059E+02  0.79883056544E+01 -0.12371175647E+02  0.21802113675E+02  0.51100000000E-03 0.  1.
        -12    1    3    3    0    0  0.22064813109E+02 -0.72626913618E+01 -0.60269585699E+01  0.23998476888E+02  0.00000000000E+00 0.  1.
</event>
<event>
 7    1  0.7284210E-013  0.5930194E+02  0.7816164E-02  0.1266605E+00
        -11   -1    0    0    0    0  0.00000000000E+00  0.00000000000E+00  0.45593999997E+02  0.45594000000E+02  0.51100000000E-03 0.  1.
         11   -1    0    0    0    0 -0.00000000000E+00 -0.00000000000E+00 -0.45593999997E+02  0.45594000000E+02  0.51100000000E-03 0. -1.
    9900012    2    1    2    0    0  0.84582368492E+01  0.20784704619E+02 -0.22653373999E+02  0.59301936112E+02  0.49999985564E+02 0.  0.
        -12    1    1    2    0    0 -0.84582368492E+01 -0.20784704619E+02  0.22653373999E+02  0.31886063888E+02  0.00000000000E+00 0.  1.
         11    1    3    3    0    0  0.12914481522E+02  0.39291012037E+00 -0.25391411715E+02  0.28489682352E+02  0.51100000000E-03 0. -1.
        -11    1    3    3    0    0  0.76161703545E+00  0.18228002744E+01 -0.83388788283E+01  0.85696885430E+01  0.51100000000E-03 0.  1.
        -12    1    3    3    0    0 -0.52178617085E+01  0.18568994224E+02  0.11076916544E+02  0.22242565217E+02  0.00000000000E+00 0.  1.
</event>
<event>
 7    1  0.7284210E-013  0.5930193E+02  0.7816164E-02  0.1266605E+00
        -11   -1    0    0    0    0  0.00000000000E+00  0.00000000000E+00  0.45593999997E+02  0.45594000000E+02  0.51100000000E-03 0.  1.
         11   -1    0    0    0    0 -0.00000000000E+00 -0.00000000000E+00 -0.45593999997E+02  0.45594000000E+02  0.51100000000E-03 0. -1.
    9900012    2    1    2    0    0  0.17157439940E+02  0.26397105044E+02 -0.50533802263E+01  0.59301928562E+02  0.49999971795E+02 0.  0.
        -12    1    1    2    0    0 -0.17157439940E+02 -0.26397105044E+02  0.50533802263E+01  0.31886071438E+02  0.00000000000E+00 0.  1.
         11    1    3    3    0    0  0.10155542385E+02  0.25625201037E+02 -0.55322441487E+01  0.28113905721E+02  0.51100000000E-03 0. -1.
        -11    1    3    3    0    0 -0.98141973813E+01  0.13469692155E+01 -0.76358357500E+01  0.12507549087E+02  0.51100000000E-03 0.  1.
         12    1    3    3    0    0  0.16816094936E+02 -0.57506520853E+00  0.81146996724E+01  0.18680473754E+02  0.00000000000E+00 0. -1.
</event>
<event>
 7    1  0.7284210E-013  0.5930191E+02  0.7816164E-02  0.1266605E+00
        -11   -1    0    0    0    0  0.00000000000E+00  0.00000000000E+00  0.45593999997E+02  0.45594000000E+02  0.51100000000E-03 0.  1.
         11   -1    0    0    0    0 -0.00000000000E+00 -0.00000000000E+00 -0.45593999997E+02  0.45594000000E+02  0.51100000000E-03 0. -1.
    9900012    2    1    2    0    0  0.19415201599E+02  0.22981042952E+02 -0.10566179005E+02  0.59301913269E+02  0.49999943903E+02 0.  0.
        -12    1    1    2    0    0 -0.19415201599E+02 -0.22981042952E+02  0.10566179005E+02  0.31886086731E+02  0.00000000000E+00 0.  1.
         11    1    3    3    0    0  0.15952725050E+02  0.23762638119E+02 -0.17762211957E+02  0.33684545132E+02  0.51100000000E-03 0. -1.
        -11    1    3    3    0    0  0.46349641963E+01 -0.40563324628E+01 -0.79614805452E+01  0.10065877949E+02  0.51100000000E-03 0.  1.
        -12    1    3    3    0    0 -0.11724876477E+01  0.32747372955E+01  0.15157513497E+02  0.15551490187E+02  0.00000000000E+00 0.  1.
</event>
<event>
 7    1  0.7284210E-013  0.5930195E+02  0.7816164E-02  0.1266605E+00
        -11   -1    0    0    0    0  0.00000000000E+00  0.00000000000E+00  0.45593999997E+02  0.45594000000E+02  0.51100000000E-03 0. -1.
         11   -1    0    0    0    0 -0.00000000000E+00 -0.00000000000E+00 -0.45593999997E+02  0.45594000000E+02  0.51100000000E-03 0.  1.
    9900012    2    1    2    0    0  0.20512881569E+02  0.14286029248E+02  0.19795238422E+02  0.59301946526E+02  0.50000004557E+02 0.  0.
        -12    1    1    2    0    0 -0.20512881569E+02 -0.14286029248E+02 -0.19795238422E+02  0.31886053474E+02  0.00000000000E+00 0.  1.
         11    1    3    3    0    0  0.27189052086E+01 -0.46896016638E+00  0.10520265968E+02  0.10876045488E+02  0.51100000000E-03 0. -1.
        -11    1    3    3    0    0 -0.11120578859E+02  0.12592984416E+02  0.97542268174E+01  0.19426669085E+02  0.51100000000E-03 0.  1.
        -12    1    3    3    0    0  0.28914555219E+02  0.21620049988E+01 -0.47925436328E+00  0.28999231953E+02  0.00000000000E+00 0.  1.
</event>
<event>
 7    1  0.7284210E-013  0.5930194E+02  0.7816164E-02  0.1266605E+00
        -11   -1    0    0    0    0  0.00000000000E+00  0.00000000000E+00  0.45593999997E+02  0.45594000000E+02  0.51100000000E-03 0. -1.
         11   -1    0    0    0    0 -0.00000000000E+00 -0.00000000000E+00 -0.45593999997E+02  0.45594000000E+02  0.51100000000E-03 0.  1.
    9900012    2    1    2    0    0 -0.11809188681E+02  0.28569359311E+02  0.78138020307E+01  0.59301941434E+02  0.49999995269E+02 0.  0.
        -12    1    1    2    0    0  0.11809188681E+02 -0.28569359311E+02 -0.78138020307E+01  0.31886058566E+02  0.00000000000E+00 0.  1.
         11    1    3    3    0    0 -0.39104294032E+01  0.20787993038E+01  0.17880156121E+02  0.18420446461E+02  0.51100000000E-03 0. -1.
        -11    1    3    3    0    0 -0.62822680268E+01  0.25858062392E+02  0.38235386927E+01  0.26883558742E+02  0.51100000000E-03 0.  1.
         12    1    3    3    0    0 -0.16164912506E+01  0.63249761478E+00 -0.13889892783E+02  0.13997936231E+02  0.00000000000E+00 0. -1.
</event>
<event>
 7    1  0.7284210E-013  0.5930195E+02  0.7816164E-02  0.1266605E+00
        -11   -1    0    0    0    0  0.00000000000E+00  0.00000000000E+00  0.45593999997E+02  0.45594000000E+02  0.51100000000E-03 0. -1.
         11   -1    0    0    0    0 -0.00000000000E+00 -0.00000000000E+00 -0.45593999997E+02  0.45594000000E+02  0.51100000000E-03 0.  1.
    9900012    2    1    2    0    0  0.63163505156E+01  0.11282673155E+02  0.29146619944E+02  0.59301945815E+02  0.50000003259E+02 0.  0.
        -12    1    1    2    0    0 -0.63163505156E+01 -0.11282673155E+02 -0.29146619944E+02  0.31886054185E+02  0.00000000000E+00 0.  1.
         11    1    3    3    0    0 -0.67016162278E+01  0.58245026697E+00  0.16469783145E+02  0.17790577997E+02  0.51100000000E-03 0. -1.
        -11    1    3    3    0    0  0.20610261050E+01  0.14636125125E+02  0.22063148860E+02  0.26556478026E+02  0.51100000000E-03 0.  1.
        -12    1    3    3    0    0  0.10956940638E+02 -0.39359022374E+01 -0.93863120605E+01  0.14954889791E+02  0.00000000000E+00 0.  1.
</event>
<event>
 7    1  0.7284210E-013  0.5930194E+02  0.7816164E-02  0.1266605E+00
        -11   -1    0    0    0    0  0.00000000000E+00  0.00000000000E+00  0.45593999997E+02  0.45594000000E+02  0.51100000000E-03 0.  1.
         11   -1    0    0    0    0 -0.00000000000E+00 -0.00000000000E+00 -0.45593999997E+02  0.45594000000E+02  0.51100000000E-03 0. -1.
    9900012    2    1    2    0    0  0.27034661945E+02 -0.71244951590E+01 -0.15332635595E+02  0.59301935771E+02  0.49999984941E+02 0.  0.
        -12    1    1    2    0    0 -0.27034661945E+02  0.71244951590E+01  0.15332635595E+02  0.31886064229E+02  0.00000000000E+00 0.  1.
         11    1    3    3    0    0 -0.11856034985E+01 -0.89276476127E+01  0.27780237317E+01  0.94247527112E+01  0.51100000000E-03 0. -1.
        -11    1    3    3    0    0  0.23654073299E+02  0.11048928495E+02  0.31019348733E+01  0.26290987139E+02  0.51100000000E-03 0.  1.
         12    1    3    3    0    0  0.45661921444E+01 -0.92457760417E+01 -0.21212594200E+02  0.23586195921E+02  0.00000000000E+00 0. -1.
</event>
<event>
 7    1  0.7284210E-013  0.5930194E+02  0.7816164E-02  0.1266605E+00
        -11   -1    0    0    0    0  0.00000000000E+00  0.00000000000E+00  0.45593999997E+02  0.45594000000E+02  0.51100000000E-03 0.  1.
         11   -1    0    0    0    0 -0.00000000000E+00 -0.00000000000E+00 -0.45593999997E+02  0.45594000000E+02  0.51100000000E-03 0. -1.
    9900012    2    1    2    0    0 -0.40880899059E+01  0.30831318018E+02 -0.70312473078E+01  0.59301935826E+02  0.49999985043E+02 0.  0.
        -12    1    1    2    0    0  0.40880899059E+01 -0.30831318018E+02  0.70312473078E+01  0.31886064174E+02  0.00000000000E+00 0.  1.
         11    1    3    3    0    0  0.79975140874E+01 -0.71928480094E+01 -0.47299355740E+01  0.11750301480E+02  0.51100000000E-03 0. -1.
        -11    1    3    3    0    0  0.10812272636E+01  0.12853664024E+02 -0.11917613162E+02  0.17561754894E+02  0.51100000000E-03 0.  1.
        -12    1    3    3    0    0 -0.13166831257E+02  0.25170502003E+02  0.96163014280E+01  0.29989879453E+02  0.00000000000E+00 0.  1.
</event>
<event>
 7    1  0.7284210E-013  0.5930203E+02  0.7816164E-02  0.1266604E+00
        -11   -1    0    0    0    0  0.00000000000E+00  0.00000000000E+00  0.45593999997E+02  0.45594000000E+02  0.51100000000E-03 0.  1.
         11   -1    0    0    0    0 -0.00000000000E+00 -0.00000000000E+00 -0.45593999997E+02  0.45594000000E+02  0.51100000000E-03 0. -1.
    9900012    2    1    2    0    0  0.27171367805E+02 -0.16381705679E+02 -0.31735722426E+01  0.59302030199E+02  0.50000157156E+02 0.  0.
        -12    1    1    2    0    0 -0.27171367805E+02  0.16381705679E+02  0.31735722426E+01  0.31885969801E+02  0.00000000000E+00 0.  1.
         11    1    3    3    0    0 -0.31334253888E+01 -0.91226621780E+01 -0.14264273154E+01  0.97506930538E+01  0.51100000000E-03 0.  1.
        -11    1    3    3    0    0  0.11681684531E+02 -0.19553180652E+02 -0.11121492700E+02  0.25347114771E+02  0.51100000000E-03 0. -1.
        -12    1    3    3    0    0  0.18623108663E+02  0.12294137151E+02  0.93743477730E+01  0.24204222374E+02  0.00000000000E+00 0.  1.
</event>
<event>
 7    1  0.7284210E-013  0.5930194E+02  0.7816164E-02  0.1266605E+00
        -11   -1    0    0    0    0  0.00000000000E+00  0.00000000000E+00  0.45593999997E+02  0.45594000000E+02  0.51100000000E-03 0. -1.
         11   -1    0    0    0    0 -0.00000000000E+00 -0.00000000000E+00 -0.45593999997E+02  0.45594000000E+02  0.51100000000E-03 0.  1.
    9900012    2    1    2    0    0  0.29687120409E+02  0.11385807089E+02 -0.23997569149E+01  0.59301944199E+02  0.50000000313E+02 0.  0.
        -12    1    1    2    0    0 -0.29687120409E+02 -0.11385807089E+02  0.23997569149E+01  0.31886055801E+02  0.00000000000E+00 0.  1.
         11    1    3    3    0    0  0.24557557584E+01 -0.49968111754E+01 -0.20178622276E+02  0.20932645688E+02  0.51100000000E-03 0.  1.
        -11    1    3    3    0    0  0.10588363248E+02  0.19211455367E+00  0.37132905918E+01  0.11222248953E+02  0.51100000000E-03 0. -1.
        -12    1    3    3    0    0  0.16643001403E+02  0.16190503711E+02  0.14065574770E+02  0.27147049558E+02  0.00000000000E+00 0.  1.
</event>
<event>
 7    1  0.7284210E-013  0.5930190E+02  0.7816164E-02  0.1266605E+00
        -11   -1    0    0    0    0  0.00000000000E+00  0.00000000000E+00  0.45593999997E+02  0.45594000000E+02  0.51100000000E-03 0.  1.
         11   -1    0    0    0    0 -0.00000000000E+00 -0.00000000000E+00 -0.45593999997E+02  0.45594000000E+02  0.51100000000E-03 0. -1.
    9900012    2    1    2    0    0 -0.30945100015E+02  0.40982536858E+01 -0.65060491709E+01  0.59301896851E+02  0.49999913961E+02 0.  0.
        -12    1    1    2    0    0  0.30945100015E+02 -0.40982536858E+01  0.65060491709E+01  0.31886103149E+02  0.00000000000E+00 0.  1.
         11    1    3    3    0    0 -0.15482026789E+02 -0.12838073074E+02 -0.62150516987E+01  0.21050799074E+02  0.51100000000E-03 0. -1.
        -11    1    3    3    0    0 -0.24009074761E+02  0.70916714933E+01  0.15635601040E+01  0.25083305124E+02  0.51100000000E-03 0.  1.
        -12    1    3    3    0    0  0.85460015356E+01  0.98446552666E+01 -0.18545575762E+01  0.13167792654E+02  0.00000000000E+00 0.  1.
</event>
<event>
 7    1  0.7284210E-013  0.5930218E+02  0.7816164E-02  0.1266604E+00
        -11   -1    0    0    0    0  0.00000000000E+00  0.00000000000E+00  0.45593999997E+02  0.45594000000E+02  0.51100000000E-03 0. -1.
         11   -1    0    0    0    0 -0.00000000000E+00 -0.00000000000E+00 -0.45593999997E+02  0.45594000000E+02  0.51100000000E-03 0.  1.
    9900012    2    1    2    0    0 -0.29429366020E+02 -0.65634475107E+01  0.10370113113E+02  0.59302177546E+02  0.50000425880E+02 0.  0.
        -12    1    1    2    0    0  0.29429366020E+02  0.65634475107E+01 -0.10370113113E+02  0.31885822454E+02  0.00000000000E+00 0.  1.
         11    1    3    3    0    0 -0.45136651587E+01  0.11489291455E+02 -0.15699017317E+01  0.12443535792E+02  0.51100000000E-03 0.  1.
        -11    1    3    3    0    0 -0.80797074287E+01  0.93904312990E+01  0.71642507672E+01  0.14310428415E+02  0.51100000000E-03 0. -1.
        -12    1    3    3    0    0 -0.16835993433E+02 -0.27443170265E+02  0.47757640775E+01  0.32548213339E+02  0.00000000000E+00 0.  1.
</event>
<event>
 7    1  0.7284210E-013  0.5930170E+02  0.7816164E-02  0.1266606E+00
        -11   -1    0    0    0    0  0.00000000000E+00  0.00000000000E+00  0.45593999997E+02  0.45594000000E+02  0.51100000000E-03 0. -1.
         11   -1    0    0    0    0 -0.00000000000E+00 -0.00000000000E+00 -0.45593999997E+02  0.45594000000E+02  0.51100000000E-03 0.  1.
    9900012    2    1    2    0    0 -0.25827285372E+02  0.67546062278E+01  0.17437402315E+02  0.59301696130E+02  0.49999547892E+02 0.  0.
        -12    1    1    2    0    0  0.25827285372E+02 -0.67546062278E+01 -0.17437402315E+02  0.31886303870E+02  0.00000000000E+00 0.  1.
         11    1    3    3    0    0  0.77139480194E+01  0.40478204694E+01  0.24487497798E+01  0.90491005267E+01  0.51100000000E-03 0. -1.
        -11    1    3    3    0    0  0.61110665381E+01 -0.55864963945E+00  0.76295829411E+01  0.97912082895E+01  0.51100000000E-03 0.  1.
         12    1    3    3    0    0 -0.39652299930E+02  0.32654353978E+01  0.73590695942E+01  0.40461387314E+02  0.00000000000E+00 0. -1.
</event>
<event>
 7    1  0.7284210E-013  0.5930199E+02  0.7816164E-02  0.1266605E+00
        -11   -1    0    0    0    0  0.00000000000E+00  0.00000000000E+00  0.45593999997E+02  0.45594000000E+02  0.51100000000E-03 0.  1.
         11   -1    0    0    0    0 -0.00000000000E+00 -0.00000000000E+00 -0.45593999997E+02  0.45594000000E+02  0.51100000000E-03 0. -1.
    9900012    2    1    2    0    0  0.16651410223E+02  0.13973607133E+02 -0.23327803656E+02  0.59301990809E+02  0.50000085317E+02 0.  0.
        -12    1    1    2    0    0 -0.16651410223E+02 -0.13973607133E+02  0.23327803656E+02  0.31886009191E+02  0.00000000000E+00 0.  1.
         11    1    3    3    0    0  0.88877046874E+01  0.26710798129E+01 -0.13977504238E+01  0.93850769036E+01  0.51100000000E-03 0.  1.
        -11    1    3    3    0    0  0.24241741715E+02  0.17026838521E+00 -0.16426295992E+02  0.29283343951E+02  0.51100000000E-03 0. -1.
         12    1    3    3    0    0 -0.16478036179E+02  0.11132258935E+02 -0.55037572408E+01  0.20633569954E+02  0.00000000000E+00 0. -1.
</event>
<event>
 7    1  0.7284210E-013  0.5930198E+02  0.7816164E-02  0.1266605E+00
        -11   -1    0    0    0    0  0.00000000000E+00  0.00000000000E+00  0.45593999997E+02  0.45594000000E+02  0.51100000000E-03 0. -1.
         11   -1    0    0    0    0 -0.00000000000E+00 -0.00000000000E+00 -0.45593999997E+02  0.45594000000E+02  0.51100000000E-03 0.  1.
    9900012    2    1    2    0    0  0.65400352157E+01  0.27027879899E+02 -0.15602567383E+02  0.59301977021E+02  0.50000060172E+02 0.  0.
        -12    1    1    2    0    0 -0.65400352157E+01 -0.27027879899E+02  0.15602567383E+02  0.31886022979E+02  0.00000000000E+00 0.  1.
         11    1    3    3    0    0 -0.43408891366E+01  0.64211332886E+01 -0.29265755965E+01  0.82848727322E+01  0.51100000000E-03 0. -1.
        -11    1    3    3    0    0  0.12391556432E+02  0.30635221360E+02 -0.19890916565E+02  0.38570921957E+02  0.51100000000E-03 0.  1.
         12    1    3    3    0    0 -0.15106320798E+01 -0.10028474749E+02  0.72149247785E+01  0.12446182332E+02  0.00000000000E+00 0. -1.
</event>
<event>
 7    1  0.7284210E-013  0.5930206E+02  0.7816164E-02  0.1266604E+00
        -11   -1    0    0    0    0  0.00000000000E+00  0.00000000000E+00  0.45593999997E+02  0.45594000000E+02  0.51100000000E-03 0.  1.
         11   -1    0    0    0    0 -0.00000000000E+00 -0.00000000000E+00 -0.45593999997E+02  0.45594000000E+02  0.51100000000E-03 0. -1.
    9900012    2    1    2    0    0  0.26638052516E+02 -0.51784736257E+01 -0.16742486016E+02  0.59302058444E+02  0.50000208667E+02 0.  0.
        -12    1    1    2    0    0 -0.26638052516E+02  0.51784736257E+01  0.16742486016E+02  0.31885941556E+02  0.00000000000E+00 0.  1.
         11    1    3    3    0    0 -0.68569954998E+01 -0.46041655125E+01 -0.89060923489E+01  0.12146407228E+02  0.51100000000E-03 0. -1.
        -11    1    3    3    0    0 -0.49029717493E+01 -0.43962008636E+01 -0.53558034425E+01  0.84882474506E+01  0.51100000000E-03 0.  1.
         12    1    3    3    0    0  0.38398019765E+02  0.38218927504E+01 -0.24805902250E+01  0.38667403765E+02  0.00000000000E+00 0. -1.
</event>
<event>
 7    1  0.7284210E-013  0.5930208E+02  0.7816164E-02  0.1266604E+00
        -11   -1    0    0    0    0  0.00000000000E+00  0.00000000000E+00  0.45593999997E+02  0.45594000000E+02  0.51100000000E-03 0. -1.
         11   -1    0    0    0    0 -0.00000000000E+00 -0.00000000000E+00 -0.45593999997E+02  0.45594000000E+02  0.51100000000E-03 0.  1.
    9900012    2    1    2    0    0  0.24971580949E+02  0.60424835450E+01  0.18884402039E+02  0.59302076729E+02  0.50000242015E+02 0.  0.
        -12    1    1    2    0    0 -0.24971580949E+02 -0.60424835450E+01 -0.18884402039E+02  0.31885923271E+02  0.00000000000E+00 0.  1.
         11    1    3    3    0    0  0.15471506887E+02 -0.11019297894E+01 -0.81639642528E+01  0.17528037175E+02  0.51100000000E-03 0. -1.
        -11    1    3    3    0    0  0.23218264711E+01 -0.26321993360E+00 -0.63778549470E+01  0.67924367411E+01  0.51100000000E-03 0.  1.
         12    1    3    3    0    0  0.71782475911E+01  0.74076332680E+01  0.33426221238E+02  0.34981602813E+02  0.00000000000E+00 0. -1.
</event>
<event>
 7    1  0.7284210E-013  0.5930195E+02  0.7816164E-02  0.1266605E+00
        -11   -1    0    0    0    0  0.00000000000E+00  0.00000000000E+00  0.45593999997E+02  0.45594000000E+02  0.51100000000E-03 0.  1.
         11   -1    0    0    0    0 -0.00000000000E+00 -0.00000000000E+00 -0.45593999997E+02  0.45594000000E+02  0.51100000000E-03 0. -1.
    9900012    2    1    2    0    0 -0.10229152435E+02  0.85681834154E+01 -0.28959819008E+02  0.59301945940E+02  0.50000003487E+02 0.  0.
        -12    1    1    2    0    0  0.10229152435E+02 -0.85681834154E+01  0.28959819008E+02  0.31886054060E+02  0.00000000000E+00 0.  1.
         11    1    3    3    0    0 -0.10701243980E+02 -0.34315949091E+01 -0.18159385331E+02  0.21355461648E+02  0.51100000000E-03 0. -1.
        -11    1    3    3    0    0 -0.16870672976E+02  0.72799559459E+01 -0.62182987726E+01  0.19398056736E+02  0.51100000000E-03 0.  1.
        -12    1    3    3    0    0  0.17342764521E+02  0.47198223785E+01 -0.45821349046E+01  0.18548427556E+02  0.00000000000E+00 0.  1.
</event>
<event>
 7    1  0.7284210E-013  0.5930195E+02  0.7816164E-02  0.1266605E+00
        -11   -1    0    0    0    0  0.00000000000E+00  0.00000000000E+00  0.45593999997E+02  0.45594000000E+02  0.51100000000E-03 0. -1.
         11   -1    0    0    0    0 -0.00000000000E+00 -0.00000000000E+00 -0.45593999997E+02  0.45594000000E+02  0.51100000000E-03 0.  1.
    9900012    2    1    2    0    0  0.20638462647E+02 -0.20249364573E+02  0.13443861824E+02  0.59301947770E+02  0.50000006825E+02 0.  0.
        -12    1    1    2    0    0 -0.20638462647E+02  0.20249364573E+02 -0.13443861824E+02  0.31886052230E+02  0.00000000000E+00 0.  1.
         11    1    3    3    0    0  0.12539905612E+02 -0.84940663325E+01 -0.28571054595E+01  0.15413028499E+02  0.51100000000E-03 0. -1.
        -11    1    3    3    0    0  0.12704510780E+02 -0.11209297506E+02 -0.82916216385E+01  0.18862765820E+02  0.51100000000E-03 0.  1.
         12    1    3    3    0    0 -0.46059537446E+01 -0.54600073539E+00  0.24592588922E+02  0.25026153452E+02  0.00000000000E+00 0. -1.
</event>
<event>
 7    1  0.7284210E-013  0.5930191E+02  0.7816164E-02  0.1266605E+00
        -11   -1    0    0    0    0  0.00000000000E+00  0.00000000000E+00  0.45593999997E+02  0.45594000000E+02  0.51100000000E-03 0.  1.
         11   -1    0    0    0    0 -0.00000000000E+00 -0.00000000000E+00 -0.45593999997E+02  0.45594000000E+02  0.51100000000E-03 0. -1.
    9900012    2    1    2    0    0 -0.15531213614E+02  0.23955041292E+02 -0.14200701754E+02  0.59301913223E+02  0.49999943820E+02 0.  0.
        -12    1    1    2    0    0  0.15531213614E+02 -0.23955041292E+02  0.14200701754E+02  0.31886086777E+02  0.00000000000E+00 0.  1.
         11    1    3    3    0    0 -0.12053780326E+02  0.11642183441E+02  0.91078033461E+01  0.19073178484E+02  0.51100000000E-03 0. -1.
        -11    1    3    3    0    0  0.11234847355E+02  0.99350858179E+01 -0.34313868376E+01  0.15385127273E+02  0.51100000000E-03 0.  1.
        -12    1    3    3    0    0 -0.14712280643E+02  0.23777720339E+01 -0.19877118262E+02  0.24843607467E+02  0.00000000000E+00 0.  1.
</event>
<event>
 7    1  0.7284210E-013  0.5930195E+02  0.7816164E-02  0.1266605E+00
        -11   -1    0    0    0    0  0.00000000000E+00  0.00000000000E+00  0.45593999997E+02  0.45594000000E+02  0.51100000000E-03 0.  1.
         11   -1    0    0    0    0 -0.00000000000E+00 -0.00000000000E+00 -0.45593999997E+02  0.45594000000E+02  0.51100000000E-03 0. -1.
    9900012    2    1    2    0    0 -0.16745364580E+02  0.26919289502E+01 -0.27001235307E+02  0.59301946238E+02  0.50000004030E+02 0.  0.
        -12    1    1    2    0    0  0.16745364580E+02 -0.26919289502E+01  0.27001235307E+02  0.31886053762E+02  0.00000000000E+00 0.  1.
         11    1    3    3    0    0 -0.67729862870E+01  0.65984915555E+01 -0.25868842996E+02  0.27542884241E+02  0.51100000000E-03 0. -1.
        -11    1    3    3    0    0 -0.56709879630E+01  0.12453939060E+02 -0.47028273876E+01  0.14469875199E+02  0.51100000000E-03 0.  1.
        -12    1    3    3    0    0 -0.43013903305E+01 -0.16360501665E+02  0.35704350767E+01  0.17289186798E+02  0.00000000000E+00 0.  1.
</event>
<event>
 7    1  0.7284210E-013  0.5930194E+02  0.7816164E-02  0.1266605E+00
        -11   -1    0    0    0    0  0.00000000000E+00  0.00000000000E+00  0.45593999997E+02  0.45594000000E+02  0.51100000000E-03 0.  1.
         11   -1    0    0    0    0 -0.00000000000E+00 -0.00000000000E+00 -0.45593999997E+02  0.45594000000E+02  0.51100000000E-03 0. -1.
    9900012    2    1    2    0    0 -0.13714035929E+02 -0.57206311015E+01 -0.28212065702E+02  0.59301936385E+02  0.49999986062E+02 0.  0.
        -12    1    1    2    0    0  0.13714035929E+02  0.57206311015E+01  0.28212065702E+02  0.31886063615E+02  0.00000000000E+00 0.  1.
         11    1    3    3    0    0  0.45839917315E+01 -0.65708697142E+01 -0.27027988093E+02  0.28190449617E+02  0.51100000000E-03 0. -1.
        -11    1    3    3    0    0 -0.34398789547E+01 -0.55775227522E+01 -0.10541860522E+02  0.12412588400E+02  0.51100000000E-03 0.  1.
        -12    1    3    3    0    0 -0.14858148706E+02  0.64277613649E+01  0.93577829126E+01  0.18698898368E+02  0.00000000000E+00 0.  1.
</event>
<event>
 7    1  0.7284210E-013  0.5930192E+02  0.7816164E-02  0.1266605E+00
        -11   -1    0    0    0    0  0.00000000000E+00  0.00000000000E+00  0.45593999997E+02  0.45594000000E+02  0.51100000000E-03 0.  1.
         11   -1    0    0    0    0 -0.00000000000E+00 -0.00000000000E+00 -0.45593999997E+02  0.45594000000E+02  0.51100000000E-03 0. -1.
    9900012    2    1    2    0    0  0.14828371995E+02 -0.28165148922E+02 -0.18883116380E+01  0.59301922307E+02  0.49999960387E+02 0.  0.
        -12    1    1    2    0    0 -0.14828371995E+02  0.28165148922E+02  0.18883116380E+01  0.31886077693E+02  0.00000000000E+00 0.  1.
         11    1    3    3    0    0  0.40968917218E+01 -0.93702635277E+01  0.40976051178E+01  0.11017110707E+02  0.51100000000E-03 0. -1.
        -11    1    3    3    0    0  0.76529410375E+01  0.91165358999E+01  0.10371262158E+02  0.15787394096E+02  0.51100000000E-03 0.  1.
         12    1    3    3    0    0  0.30785392359E+01 -0.27911421294E+02 -0.16357178913E+02  0.32497417505E+02  0.00000000000E+00 0. -1.
</event>
<event>
 7    1  0.7284210E-013  0.5930195E+02  0.7816164E-02  0.1266605E+00
        -11   -1    0    0    0    0  0.00000000000E+00  0.00000000000E+00  0.45593999997E+02  0.45594000000E+02  0.51100000000E-03 0.  1.
         11   -1    0    0    0    0 -0.00000000000E+00 -0.00000000000E+00 -0.45593999997E+02  0.45594000000E+02  0.51100000000E-03 0. -1.
    9900012    2    1    2    0    0  0.16015688847E+02 -0.27571749393E+02 -0.12977871604E+00  0.59301945112E+02  0.50000001977E+02 0.  0.
        -12    1    1    2    0    0 -0.16015688847E+02  0.27571749393E+02  0.12977871604E+00  0.31886054888E+02  0.00000000000E+00 0.  1.
         11    1    3    3    0    0  0.24599028461E+02 -0.10258640605E+02  0.92296453070E+01  0.28205287821E+02  0.51100000000E-03 0. -1.
        -11    1    3    3    0    0 -0.10863296241E+01 -0.18198639601E+02  0.10231388272E+01  0.18259720937E+02  0.51100000000E-03 0.  1.
        -12    1    3    3    0    0 -0.74970099901E+01  0.88553081280E+00 -0.10382562850E+02  0.12836936354E+02  0.00000000000E+00 0.  1.
</event>
<event>
 7    1  0.7284210E-013  0.5930197E+02  0.7816164E-02  0.1266605E+00
        -11   -1    0    0    0    0  0.00000000000E+00  0.00000000000E+00  0.45593999997E+02  0.45594000000E+02  0.51100000000E-03 0. -1.
         11   -1    0    0    0    0 -0.00000000000E+00 -0.00000000000E+00 -0.45593999997E+02  0.45594000000E+02  0.51100000000E-03 0.  1.
    9900012    2    1    2    0    0 -0.22059979187E+02  0.21873690904E+02  0.71845496142E+01  0.59301971890E+02  0.50000050814E+02 0.  0.
        -12    1    1    2    0    0  0.22059979187E+02 -0.21873690904E+02 -0.71845496142E+01  0.31886028110E+02  0.00000000000E+00 0.  1.
         11    1    3    3    0    0 -0.71541394482E+01  0.96042090758E+01 -0.67486625180E+01  0.13746526443E+02  0.51100000000E-03 0.  1.
        -11    1    3    3    0    0  0.52440281916E+01  0.14167565232E+02  0.19402716385E+02  0.24590346473E+02  0.51100000000E-03 0. -1.
         12    1    3    3    0    0 -0.20149867930E+02 -0.18980834036E+01 -0.54695042530E+01  0.20965098974E+02  0.00000000000E+00 0. -1.
</event>
<event>
 7    1  0.7284210E-013  0.5930195E+02  0.7816164E-02  0.1266605E+00
        -11   -1    0    0    0    0  0.00000000000E+00  0.00000000000E+00  0.45593999997E+02  0.45594000000E+02  0.51100000000E-03 0.  1.
         11   -1    0    0    0    0 -0.00000000000E+00 -0.00000000000E+00 -0.45593999997E+02  0.45594000000E+02  0.51100000000E-03 0. -1.
    9900012    2    1    2    0    0 -0.19332041607E+02  0.17377852742E+02 -0.18466257829E+02  0.59301948553E+02  0.50000008254E+02 0.  0.
        -12    1    1    2    0    0  0.19332041607E+02 -0.17377852742E+02  0.18466257829E+02  0.31886051447E+02  0.00000000000E+00 0.  1.
         11    1    3    3    0    0 -0.34218932468E+01  0.34905156101E+01 -0.10375730360E+02  0.11469473980E+02  0.51100000000E-03 0. -1.
        -11    1    3    3    0    0 -0.16173520466E+02  0.12738532015E+01 -0.23098147523E+02  0.28226404048E+02  0.51100000000E-03 0.  1.
        -12    1    3    3    0    0  0.26337210493E+00  0.12613483931E+02  0.15007620054E+02  0.19606070525E+02  0.00000000000E+00 0.  1.
</event>
<event>
 7    1  0.7284210E-013  0.5930199E+02  0.7816164E-02  0.1266605E+00
        -11   -1    0    0    0    0  0.00000000000E+00  0.00000000000E+00  0.45593999997E+02  0.45594000000E+02  0.51100000000E-03 0.  1.
         11   -1    0    0    0    0 -0.00000000000E+00 -0.00000000000E+00 -0.45593999997E+02  0.45594000000E+02  0.51100000000E-03 0. -1.
    9900012    2    1    2    0    0  0.65165649195E+00  0.30499884487E+02 -0.92763017586E+01  0.59301993912E+02  0.50000090977E+02 0.  0.
        -12    1    1    2    0    0 -0.65165649195E+00 -0.30499884487E+02  0.92763017586E+01  0.31886006088E+02  0.00000000000E+00 0.  1.
         11    1    3    3    0    0  0.70082898791E+01  0.87221514926E+01 -0.13050161984E+02  0.17190078003E+02  0.51100000000E-03 0. -1.
        -11    1    3    3    0    0  0.86287515617E+01  0.13994916155E+02 -0.10912272955E+02  0.19732985912E+02  0.51100000000E-03 0.  1.
         12    1    3    3    0    0 -0.14985384949E+02  0.77828168392E+01  0.14686133180E+02  0.22378929997E+02  0.00000000000E+00 0. -1.
</event>
<event>
 7    1  0.7284210E-013  0.5930195E+02  0.7816164E-02  0.1266605E+00
        -11   -1    0    0    0    0  0.00000000000E+00  0.00000000000E+00  0.45593999997E+02  0.45594000000E+02  0.51100000000E-03 0. -1.
         11   -1    0    0    0    0 -0.00000000000E+00 -0.00000000000E+00 -0.45593999997E+02  0.45594000000E+02  0.51100000000E-03 0.  1.
    9900012    2    1    2    0    0  0.17516625687E+02  0.30538977640E+01  0.26468129917E+02  0.59301947119E+02  0.50000005638E+02 0.  0.
        -12    1    1    2    0    0 -0.17516625687E+02 -0.30538977640E+01 -0.26468129917E+02  0.31886052881E+02  0.00000000000E+00 0.  1.
         11    1    3    3    0    0  0.16299873385E+02 -0.12060484332E+02  0.40513991503E+01  0.20677402884E+02  0.51100000000E-03 0. -1.
        -11    1    3    3    0    0  0.58011302334E+01  0.38417008656E+01  0.25198471982E+02  0.26141437757E+02  0.51100000000E-03 0.  1.
        -12    1    3    3    0    0 -0.45843779316E+01  0.11272681231E+02 -0.27817412146E+01  0.12483106478E+02  0.00000000000E+00 0.  1.
</event>
<event>
 7    1  0.7284210E-013  0.5930194E+02  0.7816164E-02  0.1266605E+00
        -11   -1    0    0    0    0  0.00000000000E+00  0.00000000000E+00  0.45593999997E+02  0.45594000000E+02  0.51100000000E-03 0. -1.
         11   -1    0    0    0    0 -0.00000000000E+00 -0.00000000000E+00 -0.45593999997E+02  0.45594000000E+02  0.51100000000E-03 0.  1.
    9900012    2    1    2    0    0  0.30786189322E+02  0.80760493602E+01 -0.19257587356E+01  0.59301943910E+02  0.49999999786E+02 0.  0.
        -12    1    1    2    0    0 -0.30786189322E+02 -0.80760493602E+01  0.19257587356E+01  0.31886056090E+02  0.00000000000E+00 0.  1.
         11    1    3    3    0    0  0.72831013072E+01  0.12666822837E+02 -0.10766312284E+02  0.18149530184E+02  0.51100000000E-03 0. -1.
        -11    1    3    3    0    0 -0.41739507214E+01 -0.10232389830E+02  0.64730704057E+01  0.12807197468E+02  0.51100000000E-03 0.  1.
         12    1    3    3    0    0  0.27677038736E+02  0.56416163526E+01  0.23674831428E+01  0.28345216258E+02  0.00000000000E+00 0. -1.
</event>
<event>
 7    1  0.7284210E-013  0.5930188E+02  0.7816164E-02  0.1266605E+00
        -11   -1    0    0    0    0  0.00000000000E+00  0.00000000000E+00  0.45593999997E+02  0.45594000000E+02  0.51100000000E-03 0. -1.
         11   -1    0    0    0    0 -0.00000000000E+00 -0.00000000000E+00 -0.45593999997E+02  0.45594000000E+02  0.51100000000E-03 0.  1.
    9900012    2    1    2    0    0  0.12987590546E+02 -0.19932572409E+02  0.21230624759E+02  0.59301884233E+02  0.49999890949E+02 0.  0.
        -12    1    1    2    0    0 -0.12987590546E+02  0.19932572409E+02 -0.21230624759E+02  0.31886115767E+02  0.00000000000E+00 0.  1.
         11    1    3    3    0    0  0.15748635044E+02 -0.19914016238E+00  0.27973449569E+02  0.32102539519E+02  0.51100000000E-03 0. -1.
        -11    1    3    3    0    0 -0.28086844184E+01  0.16969210755E+01  0.22287325992E+01  0.39667995360E+01  0.51100000000E-03 0.  1.
         12    1    3    3    0    0  0.47639920392E-01 -0.21430353323E+02 -0.89715574095E+01  0.23232545178E+02  0.00000000000E+00 0. -1.
</event>
<event>
 7    1  0.7284210E-013  0.5930196E+02  0.7816164E-02  0.1266605E+00
        -11   -1    0    0    0    0  0.00000000000E+00  0.00000000000E+00  0.45593999997E+02  0.45594000000E+02  0.51100000000E-03 0.  1.
         11   -1    0    0    0    0 -0.00000000000E+00 -0.00000000000E+00 -0.45593999997E+02  0.45594000000E+02  0.51100000000E-03 0. -1.
    9900012    2    1    2    0    0  0.28142753776E+02  0.11250280283E+02 -0.99063766524E+01  0.59301957679E+02  0.50000024896E+02 0.  0.
        -12    1    1    2    0    0 -0.28142753776E+02 -0.11250280283E+02  0.99063766524E+01  0.31886042321E+02  0.00000000000E+00 0.  1.
         11    1    3    3    0    0  0.10097290074E+02 -0.89137005707E+01 -0.77933425174E+01  0.15561025434E+02  0.51100000000E-03 0. -1.
        -11    1    3    3    0    0  0.17692680422E+02 -0.40104687295E+01 -0.62994933815E+01  0.19204125001E+02  0.51100000000E-03 0.  1.
        -12    1    3    3    0    0  0.35278327978E+00  0.24174449583E+02  0.41864592466E+01  0.24536807243E+02  0.00000000000E+00 0.  1.
</event>
<event>
 7    1  0.7284210E-013  0.5930187E+02  0.7816164E-02  0.1266605E+00
        -11   -1    0    0    0    0  0.00000000000E+00  0.00000000000E+00  0.45593999997E+02  0.45594000000E+02  0.51100000000E-03 0. -1.
         11   -1    0    0    0    0 -0.00000000000E+00 -0.00000000000E+00 -0.45593999997E+02  0.45594000000E+02  0.51100000000E-03 0.  1.
    9900012    2    1    2    0    0  0.11704487459E+02  0.27320415075E+02  0.11546658618E+02  0.59301867720E+02  0.49999860833E+02 0.  0.
        -12    1    1    2    0    0 -0.11704487459E+02 -0.27320415075E+02 -0.11546658618E+02  0.31886132280E+02  0.00000000000E+00 0.  1.
         11    1    3    3    0    0 -0.19072688694E+01 -0.31968135701E+01  0.83362814158E+01  0.91296702923E+01  0.51100000000E-03 0. -1.
        -11    1    3    3    0    0  0.88865323895E+01 -0.19807820716E+01  0.13030019003E+02  0.15895765191E+02  0.51100000000E-03 0.  1.
        -12    1    3    3    0    0  0.47252239389E+01  0.32498010717E+02 -0.98196418005E+01  0.34276432237E+02  0.00000000000E+00 0.  1.
</event>
<event>
 7    1  0.7284210E-013  0.5930193E+02  0.7816164E-02  0.1266605E+00
        -11   -1    0    0    0    0  0.00000000000E+00  0.00000000000E+00  0.45593999997E+02  0.45594000000E+02  0.51100000000E-03 0.  1.
         11   -1    0    0    0    0 -0.00000000000E+00 -0.00000000000E+00 -0.45593999997E+02  0.45594000000E+02  0.51100000000E-03 0. -1.
    9900012    2    1    2    0    0  0.18427424530E+02 -0.93578429411E+00 -0.26005298253E+02  0.59301934010E+02  0.49999981731E+02 0.  0.
        -12    1    1    2    0    0 -0.18427424530E+02  0.93578429411E+00  0.26005298253E+02  0.31886065990E+02  0.00000000000E+00 0.  1.
         11    1    3    3    0    0 -0.16728314704E+01 -0.47757850258E+01 -0.95906442240E+01  0.10843751410E+02  0.51100000000E-03 0. -1.
        -11    1    3    3    0    0 -0.53184816920E+01 -0.47445756563E-01  0.10167075829E+02  0.11474228941E+02  0.51100000000E-03 0.  1.
        -12    1    3    3    0    0  0.25418737692E+02  0.38874464882E+01 -0.26581729858E+02  0.36983953660E+02  0.00000000000E+00 0.  1.
</event>
<event>
 7    1  0.7284210E-013  0.5930193E+02  0.7816164E-02  0.1266605E+00
        -11   -1    0    0    0    0  0.00000000000E+00  0.00000000000E+00  0.45593999997E+02  0.45594000000E+02  0.51100000000E-03 0.  1.
         11   -1    0    0    0    0 -0.00000000000E+00 -0.00000000000E+00 -0.45593999997E+02  0.45594000000E+02  0.51100000000E-03 0. -1.
    9900012    2    1    2    0    0  0.53253365637E+01  0.31430248774E+02  0.70815195572E+00  0.59301933659E+02  0.49999981090E+02 0.  0.
        -12    1    1    2    0    0 -0.53253365637E+01 -0.31430248774E+02 -0.70815195572E+00  0.31886066341E+02  0.00000000000E+00 0.  1.
         11    1    3    3    0    0 -0.86731225279E+01  0.43141811648E+01  0.33008271877E+01  0.10233800559E+02  0.51100000000E-03 0. -1.
        -11    1    3    3    0    0  0.74027143514E+01 -0.61013060049E+01  0.91177110472E+01  0.13234756127E+02  0.51100000000E-03 0.  1.
         12    1    3    3    0    0  0.65957447403E+01  0.33217373614E+02 -0.11710386279E+02  0.35833376973E+02  0.00000000000E+00 0. -1.
</event>
<event>
 7    1  0.7284210E-013  0.5930194E+02  0.7816164E-02  0.1266605E+00
        -11   -1    0    0    0    0  0.00000000000E+00  0.00000000000E+00  0.45593999997E+02  0.45594000000E+02  0.51100000000E-03 0.  1.
         11   -1    0    0    0    0 -0.00000000000E+00 -0.00000000000E+00 -0.45593999997E+02  0.45594000000E+02  0.51100000000E-03 0. -1.
    9900012    2    1    2    0    0  0.31316517092E+02  0.28661038185E+01 -0.52708628633E+01  0.59301940520E+02  0.49999993602E+02 0.  0.
        -12    1    1    2    0    0 -0.31316517092E+02 -0.28661038185E+01  0.52708628633E+01  0.31886059480E+02  0.00000000000E+00 0.  1.
         11    1    3    3    0    0  0.96859903673E+01  0.17383972691E+02 -0.81566377790E+01  0.21507014112E+02  0.51100000000E-03 0. -1.
        -11    1    3    3    0    0  0.51105316328E+01 -0.23046234202E+01  0.13538184151E+02  0.14653028801E+02  0.51100000000E-03 0.  1.
        -12    1    3    3    0    0  0.16519995092E+02 -0.12213245452E+02 -0.10652409235E+02  0.23141897606E+02  0.00000000000E+00 0.  1.
</event>
<event>
 7    1  0.7284210E-013  0.5930192E+02  0.7816164E-02  0.1266605E+00
        -11   -1    0    0    0    0  0.00000000000E+00  0.00000000000E+00  0.45593999997E+02  0.45594000000E+02  0.51100000000E-03 0.  1.
         11   -1    0    0    0    0 -0.00000000000E+00 -0.00000000000E+00 -0.45593999997E+02  0.45594000000E+02  0.51100000000E-03 0. -1.
    9900012    2    1    2    0    0 -0.76067594403E+01 -0.23466573405E+02 -0.20203440448E+02  0.59301923690E+02  0.49999962908E+02 0.  0.
        -12    1    1    2    0    0  0.76067594403E+01  0.23466573405E+02  0.20203440448E+02  0.31886076310E+02  0.00000000000E+00 0.  1.
         11    1    3    3    0    0  0.77567367270E+01 -0.90257901700E+01  0.10734899993E+01  0.11949235703E+02  0.51100000000E-03 0. -1.
        -11    1    3    3    0    0  0.54059486596E+01  0.91317439080E+01 -0.77839911431E+01  0.13160681825E+02  0.51100000000E-03 0.  1.
         12    1    3    3    0    0 -0.20769444827E+02 -0.23572527143E+02 -0.13492939304E+02  0.34192006162E+02  0.00000000000E+00 0. -1.
</event>
<event>
 7    1  0.7284210E-013  0.5930189E+02  0.7816164E-02  0.1266605E+00
        -11   -1    0    0    0    0  0.00000000000E+00  0.00000000000E+00  0.45593999997E+02  0.45594000000E+02  0.51100000000E-03 0.  1.
         11   -1    0    0    0    0 -0.00000000000E+00 -0.00000000000E+00 -0.45593999997E+02  0.45594000000E+02  0.51100000000E-03 0. -1.
    9900012    2    1    2    0    0 -0.21401763942E+02 -0.35015518651E+01 -0.23375794031E+02  0.59301888417E+02  0.49999898580E+02 0.  0.
        -12    1    1    2    0    0  0.21401763942E+02  0.35015518651E+01  0.23375794031E+02  0.31886111583E+02  0.00000000000E+00 0.  1.
         11    1    3    3    0    0 -0.45441640595E+01 -0.85906482666E+01 -0.11703748729E+02  0.15212705191E+02  0.51100000000E-03 0. -1.
        -11    1    3    3    0    0 -0.94358421551E+01  0.90313244176E+01 -0.25073044194E+02  0.28271142236E+02  0.51100000000E-03 0.  1.
        -12    1    3    3    0    0 -0.74217577271E+01 -0.39422280161E+01  0.13400998892E+02  0.15818040991E+02  0.00000000000E+00 0.  1.
</event>
<event>
 7    1  0.7284210E-013  0.5930191E+02  0.7816164E-02  0.1266605E+00
        -11   -1    0    0    0    0  0.00000000000E+00  0.00000000000E+00  0.45593999997E+02  0.45594000000E+02  0.51100000000E-03 0.  1.
         11   -1    0    0    0    0 -0.00000000000E+00 -0.00000000000E+00 -0.45593999997E+02  0.45594000000E+02  0.51100000000E-03 0. -1.
    9900012    2    1    2    0    0 -0.15786171609E+02 -0.27047105018E+01 -0.27571794923E+02  0.59301912936E+02  0.49999943295E+02 0.  0.
        -12    1    1    2    0    0  0.15786171609E+02  0.27047105018E+01  0.27571794923E+02  0.31886087064E+02  0.00000000000E+00 0.  1.
         11    1    3    3    0    0  0.97064934618E+01 -0.49859368997E+01  0.10349112748E+01  0.10961141533E+02  0.51100000000E-03 0. -1.
        -11    1    3    3    0    0  0.65337903245E+01 -0.14905509634E+01 -0.43713447474E+01  0.80013007281E+01  0.51100000000E-03 0.  1.
        -12    1    3    3    0    0 -0.32026455396E+02  0.37717773614E+01 -0.24235361451E+02  0.40339470675E+02  0.00000000000E+00 0.  1.
</event>
<event>
 7    1  0.7284210E-013  0.5930190E+02  0.7816164E-02  0.1266605E+00
        -11   -1    0    0    0    0  0.00000000000E+00  0.00000000000E+00  0.45593999997E+02  0.45594000000E+02  0.51100000000E-03 0.  1.
         11   -1    0    0    0    0 -0.00000000000E+00 -0.00000000000E+00 -0.45593999997E+02  0.45594000000E+02  0.51100000000E-03 0. -1.
    9900012    2    1    2    0    0  0.17611618791E+02 -0.17032377856E+01  0.26526462293E+02  0.59301900565E+02  0.49999920735E+02 0.  0.
        -12    1    1    2    0    0 -0.17611618791E+02  0.17032377856E+01 -0.26526462293E+02  0.31886099435E+02  0.00000000000E+00 0.  1.
         11    1    3    3    0    0 -0.10511524464E+02  0.85010929524E+01  0.14313332740E+02  0.19688377849E+02  0.51100000000E-03 0. -1.
        -11    1    3    3    0    0 -0.15500557207E+01  0.39665959350E+01  0.37112707011E+01  0.56489013558E+01  0.51100000000E-03 0.  1.
         12    1    3    3    0    0  0.29673198976E+02 -0.14170926673E+02  0.85018588517E+01  0.33964621360E+02  0.00000000000E+00 0. -1.
</event>
<event>
 7    1  0.7284210E-013  0.5930193E+02  0.7816164E-02  0.1266605E+00
        -11   -1    0    0    0    0  0.00000000000E+00  0.00000000000E+00  0.45593999997E+02  0.45594000000E+02  0.51100000000E-03 0. -1.
         11   -1    0    0    0    0 -0.00000000000E+00 -0.00000000000E+00 -0.45593999997E+02  0.45594000000E+02  0.51100000000E-03 0.  1.
    9900012    2    1    2    0    0  0.60987548250E+01  0.75576028390E+01  0.30371190227E+02  0.59301931461E+02  0.49999977081E+02 0.  0.
        -12    1    1    2    0    0 -0.60987548250E+01 -0.75576028390E+01 -0.30371190227E+02  0.31886068539E+02  0.00000000000E+00 0.  1.
         11    1    3    3    0    0 -0.71109508354E+01 -0.15982615187E+01  0.44821440020E+01  0.85562653525E+01  0.51100000000E-03 0. -1.
        -11    1    3    3    0    0 -0.13036284816E+02  0.39785983681E+01  0.16254995770E+00  0.13630861658E+02  0.51100000000E-03 0.  1.
         12    1    3    3    0    0  0.26245990477E+02  0.51772659896E+01  0.25726496267E+02  0.37114804451E+02  0.00000000000E+00 0. -1.
</event>
<event>
 7    1  0.7284210E-013  0.5930196E+02  0.7816164E-02  0.1266605E+00
        -11   -1    0    0    0    0  0.00000000000E+00  0.00000000000E+00  0.45593999997E+02  0.45594000000E+02  0.51100000000E-03 0.  1.
         11   -1    0    0    0    0 -0.00000000000E+00 -0.00000000000E+00 -0.45593999997E+02  0.45594000000E+02  0.51100000000E-03 0. -1.
    9900012    2    1    2    0    0  0.29731286085E+02  0.96231080951E+01 -0.63376469881E+01  0.59301963071E+02  0.50000034731E+02 0.  0.
        -12    1    1    2    0    0 -0.29731286085E+02 -0.96231080951E+01  0.63376469881E+01  0.31886036929E+02  0.00000000000E+00 0.  1.
         11    1    3    3    0    0  0.10544696038E+02 -0.39053126724E+01 -0.13184990384E+01  0.11321683690E+02  0.51100000000E-03 0. -1.
        -11    1    3    3    0    0  0.23140295923E+02  0.19206309978E+02  0.97971318580E+01  0.31628143026E+02  0.51100000000E-03 0.  1.
         12    1    3    3    0    0 -0.39537058757E+01 -0.56778892109E+01 -0.14816279808E+02  0.16352136355E+02  0.00000000000E+00 0. -1.
</event>
<event>
 7    1  0.7284210E-013  0.5930194E+02  0.7816164E-02  0.1266605E+00
        -11   -1    0    0    0    0  0.00000000000E+00  0.00000000000E+00  0.45593999997E+02  0.45594000000E+02  0.51100000000E-03 0.  1.
         11   -1    0    0    0    0 -0.00000000000E+00 -0.00000000000E+00 -0.45593999997E+02  0.45594000000E+02  0.51100000000E-03 0. -1.
    9900012    2    1    2    0    0 -0.20397582120E+02 -0.12634784072E+01 -0.24475761739E+02  0.59301942753E+02  0.49999997675E+02 0.  0.
        -12    1    1    2    0    0  0.20397582120E+02  0.12634784072E+01  0.24475761739E+02  0.31886057247E+02  0.00000000000E+00 0.  1.
         11    1    3    3    0    0 -0.17896333764E+01  0.53258115418E+01  0.43811053332E+01  0.71246852845E+01  0.51100000000E-03 0. -1.
        -11    1    3    3    0    0 -0.10390512506E+02 -0.14017908789E+02  0.36571033706E+01  0.17828037533E+02  0.51100000000E-03 0.  1.
         12    1    3    3    0    0 -0.82174362376E+01  0.74286188402E+01 -0.32513970443E+02  0.34349219935E+02  0.00000000000E+00 0. -1.
</event>
<event>
 7    1  0.7284210E-013  0.5930195E+02  0.7816164E-02  0.1266605E+00
        -11   -1    0    0    0    0  0.00000000000E+00  0.00000000000E+00  0.45593999997E+02  0.45594000000E+02  0.51100000000E-03 0.  1.
         11   -1    0    0    0    0 -0.00000000000E+00 -0.00000000000E+00 -0.45593999997E+02  0.45594000000E+02  0.51100000000E-03 0. -1.
    9900012    2    1    2    0    0  0.66772516841E+01 -0.32000475347E+01 -0.31014417209E+02  0.59301951811E+02  0.50000014195E+02 0.  0.
        -12    1    1    2    0    0 -0.66772516841E+01  0.32000475347E+01  0.31014417209E+02  0.31886048189E+02  0.00000000000E+00 0.  1.
         11    1    3    3    0    0 -0.84948244573E+01 -0.26547350978E+01  0.13527587661E+01  0.90022007054E+01  0.51100000000E-03 0. -1.
        -11    1    3    3    0    0 -0.48034392215E+01  0.70272138064E-01  0.56095819901E+01  0.73854842017E+01  0.51100000000E-03 0.  1.
         12    1    3    3    0    0  0.19975515363E+02 -0.61558457499E+00 -0.37976757965E+02  0.42914266904E+02  0.00000000000E+00 0. -1.
</event>
<event>
 7    1  0.7284210E-013  0.5930194E+02  0.7816164E-02  0.1266605E+00
        -11   -1    0    0    0    0  0.00000000000E+00  0.00000000000E+00  0.45593999997E+02  0.45594000000E+02  0.51100000000E-03 0. -1.
         11   -1    0    0    0    0 -0.00000000000E+00 -0.00000000000E+00 -0.45593999997E+02  0.45594000000E+02  0.51100000000E-03 0.  1.
    9900012    2    1    2    0    0 -0.17265889980E+02  0.26709822526E+02  0.22792544345E+01  0.59301943848E+02  0.49999999672E+02 0.  0.
        -12    1    1    2    0    0  0.17265889980E+02 -0.26709822526E+02 -0.22792544345E+01  0.31886056152E+02  0.00000000000E+00 0.  1.
         11    1    3    3    0    0  0.28656726354E+01  0.15423950801E+02  0.95150010859E+00  0.15716732824E+02  0.51100000000E-03 0. -1.
        -11    1    3    3    0    0 -0.25508073118E+02  0.52632476921E+00 -0.96725514644E+01  0.27285473499E+02  0.51100000000E-03 0.  1.
         12    1    3    3    0    0  0.53765105033E+01  0.10759546956E+02  0.11000305790E+02  0.16299737525E+02  0.00000000000E+00 0. -1.
</event>
<event>
 7    1  0.7284210E-013  0.5930194E+02  0.7816164E-02  0.1266605E+00
        -11   -1    0    0    0    0  0.00000000000E+00  0.00000000000E+00  0.45593999997E+02  0.45594000000E+02  0.51100000000E-03 0. -1.
         11   -1    0    0    0    0 -0.00000000000E+00 -0.00000000000E+00 -0.45593999997E+02  0.45594000000E+02  0.51100000000E-03 0.  1.
    9900012    2    1    2    0    0 -0.43341733243E+01 -0.40870046258E+01  0.31324627217E+02  0.59301938225E+02  0.49999989417E+02 0.  0.
        -12    1    1    2    0    0  0.43341733243E+01  0.40870046258E+01 -0.31324627217E+02  0.31886061775E+02  0.00000000000E+00 0.  1.
         11    1    3    3    0    0 -0.11139562024E+02  0.40519931344E+01  0.15255342870E+02  0.19319264396E+02  0.51100000000E-03 0. -1.
        -11    1    3    3    0    0 -0.41873104206E+01  0.12522753092E+02  0.55470328630E+01  0.14322097870E+02  0.51100000000E-03 0.  1.
         12    1    3    3    0    0  0.10992699120E+02 -0.20661750852E+02  0.10522251484E+02  0.25660575959E+02  0.00000000000E+00 0. -1.
</event>
<event>
 7    1  0.7284210E-013  0.5930195E+02  0.7816164E-02  0.1266605E+00
        -11   -1    0    0    0    0  0.00000000000E+00  0.00000000000E+00  0.45593999997E+02  0.45594000000E+02  0.51100000000E-03 0.  1.
         11   -1    0    0    0    0 -0.00000000000E+00 -0.00000000000E+00 -0.45593999997E+02  0.45594000000E+02  0.51100000000E-03 0. -1.
    9900012    2    1    2    0    0 -0.20797299875E+02  0.10497148290E+02  0.21771595405E+02  0.59301950216E+02  0.50000011287E+02 0.  0.
        -12    1    1    2    0    0  0.20797299875E+02 -0.10497148290E+02 -0.21771595405E+02  0.31886049784E+02  0.00000000000E+00 0.  1.
         11    1    3    3    0    0 -0.17182870805E+02  0.24868817968E+01 -0.27091390028E+01  0.17571996602E+02  0.51100000000E-03 0. -1.
        -11    1    3    3    0    0 -0.18098431330E+02  0.29768495198E+01  0.15071571093E+02  0.23739568344E+02  0.51100000000E-03 0.  1.
        -12    1    3    3    0    0  0.14484002260E+02  0.50334169731E+01  0.94091633149E+01  0.17990385271E+02  0.00000000000E+00 0.  1.
</event>
<event>
 7    1  0.7284210E-013  0.5930195E+02  0.7816164E-02  0.1266605E+00
        -11   -1    0    0    0    0  0.00000000000E+00  0.00000000000E+00  0.45593999997E+02  0.45594000000E+02  0.51100000000E-03 0.  1.
         11   -1    0    0    0    0 -0.00000000000E+00 -0.00000000000E+00 -0.45593999997E+02  0.45594000000E+02  0.51100000000E-03 0. -1.
    9900012    2    1    2    0    0  0.22031428648E+02 -0.57309726535E+01  0.22326939914E+02  0.59301950672E+02  0.50000012117E+02 0.  0.
        -12    1    1    2    0    0 -0.22031428648E+02  0.57309726535E+01 -0.22326939914E+02  0.31886049328E+02  0.00000000000E+00 0.  1.
         11    1    3    3    0    0 -0.81930648526E+01 -0.63034097793E+01  0.84532203699E+00  0.10371781724E+02  0.51100000000E-03 0. -1.
        -11    1    3    3    0    0  0.59906379394E+01  0.70875782692E+01 -0.65107558028E+01  0.11336289077E+02  0.51100000000E-03 0.  1.
        -12    1    3    3    0    0  0.24233855561E+02 -0.65151411434E+01  0.27992373680E+02  0.37593879871E+02  0.00000000000E+00 0.  1.
</event>
<event>
 7    1  0.7284210E-013  0.5930196E+02  0.7816164E-02  0.1266605E+00
        -11   -1    0    0    0    0  0.00000000000E+00  0.00000000000E+00  0.45593999997E+02  0.45594000000E+02  0.51100000000E-03 0.  1.
         11   -1    0    0    0    0 -0.00000000000E+00 -0.00000000000E+00 -0.45593999997E+02  0.45594000000E+02  0.51100000000E-03 0. -1.
    9900012    2    1    2    0    0  0.12392713343E+02 -0.29169668402E+02 -0.35029604453E+01  0.59301958688E+02  0.50000026737E+02 0.  0.
        -12    1    1    2    0    0 -0.12392713343E+02  0.29169668402E+02  0.35029604453E+01  0.31886041312E+02  0.00000000000E+00 0.  1.
         11    1    3    3    0    0  0.80689740265E+01  0.96422219822E+01 -0.54896113514E+01  0.13719206232E+02  0.51100000000E-03 0. -1.
        -11    1    3    3    0    0 -0.99696857731E+00  0.27737613457E+01 -0.18547244037E+01  0.34824849205E+01  0.51100000000E-03 0.  1.
        -12    1    3    3    0    0  0.53207078939E+01 -0.41585651730E+02  0.38413753098E+01  0.42100267535E+02  0.00000000000E+00 0.  1.
</event>
<event>
 7    1  0.7284210E-013  0.5930195E+02  0.7816164E-02  0.1266605E+00
        -11   -1    0    0    0    0  0.00000000000E+00  0.00000000000E+00  0.45593999997E+02  0.45594000000E+02  0.51100000000E-03 0. -1.
         11   -1    0    0    0    0 -0.00000000000E+00 -0.00000000000E+00 -0.45593999997E+02  0.45594000000E+02  0.51100000000E-03 0.  1.
    9900012    2    1    2    0    0  0.31745721765E+01  0.52228155881E+01  0.31294796886E+02  0.59301952529E+02  0.50000015504E+02 0.  0.
        -12    1    1    2    0    0 -0.31745721765E+01 -0.52228155881E+01 -0.31294796886E+02  0.31886047471E+02  0.00000000000E+00 0.  1.
         11    1    3    3    0    0 -0.24551959458E+01  0.12438946503E+02  0.23814721316E+01  0.12900650643E+02  0.51100000000E-03 0. -1.
        -11    1    3    3    0    0 -0.13722368496E+01  0.69194838598E+01 -0.52356337401E+01  0.87848820015E+01  0.51100000000E-03 0.  1.
         12    1    3    3    0    0  0.70020049718E+01 -0.14135614775E+02  0.34148958495E+02  0.37616419885E+02  0.00000000000E+00 0. -1.
</event>
<event>
 7    1  0.7284210E-013  0.5930197E+02  0.7816164E-02  0.1266605E+00
        -11   -1    0    0    0    0  0.00000000000E+00  0.00000000000E+00  0.45593999997E+02  0.45594000000E+02  0.51100000000E-03 0. -1.
         11   -1    0    0    0    0 -0.00000000000E+00 -0.00000000000E+00 -0.45593999997E+02  0.45594000000E+02  0.51100000000E-03 0.  1.
    9900012    2    1    2    0    0  0.90212483595E+01 -0.23266715260E+02 -0.19849323710E+02  0.59301974649E+02  0.50000055845E+02 0.  0.
        -12    1    1    2    0    0 -0.90212483595E+01  0.23266715260E+02  0.19849323710E+02  0.31886025351E+02  0.00000000000E+00 0.  1.
         11    1    3    3    0    0  0.11556435777E+02 -0.26340540808E+02 -0.66963090745E+01  0.29533300754E+02  0.51100000000E-03 0. -1.
        -11    1    3    3    0    0  0.48033150299E+01 -0.10318138508E+02 -0.65484852154E+01  0.13130821620E+02  0.51100000000E-03 0.  1.
         12    1    3    3    0    0 -0.73385024474E+01  0.13391964056E+02 -0.66045294203E+01  0.16637852275E+02  0.00000000000E+00 0. -1.
</event>
<event>
 7    1  0.7284210E-013  0.5930197E+02  0.7816164E-02  0.1266605E+00
        -11   -1    0    0    0    0  0.00000000000E+00  0.00000000000E+00  0.45593999997E+02  0.45594000000E+02  0.51100000000E-03 0.  1.
         11   -1    0    0    0    0 -0.00000000000E+00 -0.00000000000E+00 -0.45593999997E+02  0.45594000000E+02  0.51100000000E-03 0. -1.
    9900012    2    1    2    0    0 -0.34792536229E+01  0.29404989191E+02 -0.11830489592E+02  0.59301967335E+02  0.50000042507E+02 0.  0.
        -12    1    1    2    0    0  0.34792536229E+01 -0.29404989191E+02  0.11830489592E+02  0.31886032665E+02  0.00000000000E+00 0.  1.
         11    1    3    3    0    0  0.10635292043E+02  0.40270812064E+01  0.90983004060E+01  0.14563855616E+02  0.51100000000E-03 0. -1.
        -11    1    3    3    0    0  0.39716622837E+01  0.20247607203E+02 -0.93002440989E+01  0.22632592412E+02  0.51100000000E-03 0.  1.
         12    1    3    3    0    0 -0.18086207949E+02  0.51303007819E+01 -0.11628545899E+02  0.22105519307E+02  0.00000000000E+00 0. -1.
</event>
<event>
 7    1  0.7284210E-013  0.5930195E+02  0.7816164E-02  0.1266605E+00
        -11   -1    0    0    0    0  0.00000000000E+00  0.00000000000E+00  0.45593999997E+02  0.45594000000E+02  0.51100000000E-03 0. -1.
         11   -1    0    0    0    0 -0.00000000000E+00 -0.00000000000E+00 -0.45593999997E+02  0.45594000000E+02  0.51100000000E-03 0.  1.
    9900012    2    1    2    0    0 -0.31403966576E+02  0.52413576787E+01 -0.17434044469E+01  0.59301946527E+02  0.50000004557E+02 0.  0.
        -12    1    1    2    0    0  0.31403966576E+02 -0.52413576787E+01  0.17434044469E+01  0.31886053473E+02  0.00000000000E+00 0.  1.
         11    1    3    3    0    0 -0.30681336696E+02  0.27182340708E+01  0.69635670600E+01  0.31578861353E+02  0.51100000000E-03 0. -1.
        -11    1    3    3    0    0 -0.12635824023E+02  0.38484376989E+01 -0.85514904358E+01  0.15735390379E+02  0.51100000000E-03 0.  1.
        -12    1    3    3    0    0  0.11913194142E+02 -0.13253140909E+01 -0.15548107123E+00  0.11987694794E+02  0.00000000000E+00 0.  1.
</event>
<event>
 7    1  0.7284210E-013  0.5930195E+02  0.7816164E-02  0.1266605E+00
        -11   -1    0    0    0    0  0.00000000000E+00  0.00000000000E+00  0.45593999997E+02  0.45594000000E+02  0.51100000000E-03 0.  1.
         11   -1    0    0    0    0 -0.00000000000E+00 -0.00000000000E+00 -0.45593999997E+02  0.45594000000E+02  0.51100000000E-03 0. -1.
    9900012    2    1    2    0    0  0.23993145404E+02  0.20905065136E+02 -0.20068659268E+01  0.59301948417E+02  0.50000008005E+02 0.  0.
        -12    1    1    2    0    0 -0.23993145404E+02 -0.20905065136E+02  0.20068659268E+01  0.31886051583E+02  0.00000000000E+00 0.  1.
         11    1    3    3    0    0  0.12681209256E+02  0.36516009484E+01  0.74513546794E+00  0.13217506754E+02  0.51100000000E-03 0. -1.
        -11    1    3    3    0    0  0.47633710478E+01 -0.12020102173E+02  0.67929641622E+01  0.14605373065E+02  0.51100000000E-03 0.  1.
         12    1    3    3    0    0  0.65485651006E+01  0.29273566360E+02 -0.95449655569E+01  0.31479068598E+02  0.00000000000E+00 0. -1.
</event>
<event>
 7    1  0.7284210E-013  0.5930193E+02  0.7816164E-02  0.1266605E+00
        -11   -1    0    0    0    0  0.00000000000E+00  0.00000000000E+00  0.45593999997E+02  0.45594000000E+02  0.51100000000E-03 0. -1.
         11   -1    0    0    0    0 -0.00000000000E+00 -0.00000000000E+00 -0.45593999997E+02  0.45594000000E+02  0.51100000000E-03 0.  1.
    9900012    2    1    2    0    0 -0.27604777980E+02 -0.14306996275E+02 -0.70715935215E+01  0.59301931809E+02  0.49999977716E+02 0.  0.
        -12    1    1    2    0    0  0.27604777980E+02  0.14306996275E+02  0.70715935215E+01  0.31886068191E+02  0.00000000000E+00 0.  1.
         11    1    3    3    0    0 -0.32085855564E+02  0.48583658939E+01  0.78514770043E+00  0.32461089070E+02  0.51100000000E-03 0. -1.
        -11    1    3    3    0    0 -0.12787447646E+01 -0.55716330800E+01 -0.10392558458E+02  0.11861009860E+02  0.51100000000E-03 0.  1.
        -12    1    3    3    0    0  0.57598223487E+01 -0.13593729089E+02  0.25358172357E+01  0.14979832879E+02  0.00000000000E+00 0.  1.
</event>
<event>
 7    1  0.7284210E-013  0.5930198E+02  0.7816164E-02  0.1266605E+00
        -11   -1    0    0    0    0  0.00000000000E+00  0.00000000000E+00  0.45593999997E+02  0.45594000000E+02  0.51100000000E-03 0. -1.
         11   -1    0    0    0    0 -0.00000000000E+00 -0.00000000000E+00 -0.45593999997E+02  0.45594000000E+02  0.51100000000E-03 0.  1.
    9900012    2    1    2    0    0 -0.14884722726E+02 -0.80582661652E+01  0.27022730372E+02  0.59301975146E+02  0.50000056752E+02 0.  0.
        -12    1    1    2    0    0  0.14884722726E+02  0.80582661652E+01 -0.27022730372E+02  0.31886024854E+02  0.00000000000E+00 0.  1.
         11    1    3    3    0    0 -0.11762847152E+02 -0.18897119600E+02  0.23224046576E+02  0.32168649986E+02  0.51100000000E-03 0. -1.
        -11    1    3    3    0    0 -0.13650169471E+02  0.43653163585E+01  0.35823958790E+01  0.14772158745E+02  0.51100000000E-03 0.  1.
        -12    1    3    3    0    0  0.10528293897E+02  0.64735370767E+01  0.21628791733E+00  0.12361166415E+02  0.00000000000E+00 0.  1.
</event>
<event>
 7    1  0.7900818E-013  0.5930195E+02  0.7816164E-02  0.1266605E+00
        -11   -1    0    0    0    0  0.00000000000E+00  0.00000000000E+00  0.45593999997E+02  0.45594000000E+02  0.51100000000E-03 0. -1.
         11   -1    0    0    0    0 -0.00000000000E+00 -0.00000000000E+00 -0.45593999997E+02  0.45594000000E+02  0.51100000000E-03 0.  1.
    9900012    2    1    2    0    0  0.28601308731E+02 -0.60938599745E+01  0.12710234087E+02  0.59301952251E+02  0.50000014997E+02 0.  0.
        -12    1    1    2    0    0 -0.28601308731E+02  0.60938599745E+01 -0.12710234087E+02  0.31886047749E+02  0.00000000000E+00 0.  1.
         11    1    3    3    0    0  0.10411530274E+02 -0.45057889681E+01  0.20086867654E+02  0.23069121120E+02  0.51100000000E-03 0. -1.
        -11    1    3    3    0    0 -0.65237171120E+01 -0.74855989211E+01 -0.65325998809E+00  0.99508705669E+01  0.51100000000E-03 0.  1.
         12    1    3    3    0    0  0.24713495570E+02  0.58975279147E+01 -0.67233735790E+01  0.26281960563E+02  0.00000000000E+00 0. -1.
</event>
<event>
 7    1  0.7284210E-013  0.5930197E+02  0.7816164E-02  0.1266605E+00
        -11   -1    0    0    0    0  0.00000000000E+00  0.00000000000E+00  0.45593999997E+02  0.45594000000E+02  0.51100000000E-03 0. -1.
         11   -1    0    0    0    0 -0.00000000000E+00 -0.00000000000E+00 -0.45593999997E+02  0.45594000000E+02  0.51100000000E-03 0.  1.
    9900012    2    1    2    0    0  0.28518326910E+02  0.91409097309E+01  0.10948421986E+02  0.59301966310E+02  0.50000040638E+02 0.  0.
        -12    1    1    2    0    0 -0.28518326910E+02 -0.91409097309E+01 -0.10948421986E+02  0.31886033690E+02  0.00000000000E+00 0.  1.
         11    1    3    3    0    0 -0.11738931284E+01 -0.55760603691E-01  0.21589904336E+01  0.24581241375E+01  0.51100000000E-03 0. -1.
        -11    1    3    3    0    0 -0.28020526584E+01 -0.14323319135E+02 -0.32708940225E+01  0.14956861908E+02  0.51100000000E-03 0.  1.
         12    1    3    3    0    0  0.32494272697E+02  0.23519989470E+02  0.12060325575E+02  0.41886980265E+02  0.00000000000E+00 0. -1.
</event>
<event>
 7    1  0.7284210E-013  0.5930194E+02  0.7816164E-02  0.1266605E+00
        -11   -1    0    0    0    0  0.00000000000E+00  0.00000000000E+00  0.45593999997E+02  0.45594000000E+02  0.51100000000E-03 0.  1.
         11   -1    0    0    0    0 -0.00000000000E+00 -0.00000000000E+00 -0.45593999997E+02  0.45594000000E+02  0.51100000000E-03 0. -1.
    9900012    2    1    2    0    0  0.35495256093E+01  0.30303793772E+02 -0.92629092330E+01  0.59301944482E+02  0.50000000829E+02 0.  0.
        -12    1    1    2    0    0 -0.35495256093E+01 -0.30303793772E+02  0.92629092330E+01  0.31886055518E+02  0.00000000000E+00 0.  1.
         11    1    3    3    0    0  0.12657500224E+02 -0.48204106891E+01 -0.81408460460E+01  0.15802596170E+02  0.51100000000E-03 0. -1.
        -11    1    3    3    0    0 -0.90724619822E+00  0.31167202457E+01 -0.89695582983E+01  0.95388687528E+01  0.51100000000E-03 0.  1.
        -12    1    3    3    0    0 -0.82007284160E+01  0.32007484215E+02  0.78474951114E+01  0.33960479559E+02  0.00000000000E+00 0.  1.
</event>
<event>
 7    1  0.7284210E-013  0.5930191E+02  0.7816164E-02  0.1266605E+00
        -11   -1    0    0    0    0  0.00000000000E+00  0.00000000000E+00  0.45593999997E+02  0.45594000000E+02  0.51100000000E-03 0.  1.
         11   -1    0    0    0    0 -0.00000000000E+00 -0.00000000000E+00 -0.45593999997E+02  0.45594000000E+02  0.51100000000E-03 0. -1.
    9900012    2    1    2    0    0  0.13976262382E+02  0.18188026329E+02  0.22149101641E+02  0.59301907178E+02  0.49999932795E+02 0.  0.
        -12    1    1    2    0    0 -0.13976262382E+02 -0.18188026329E+02 -0.22149101641E+02  0.31886092822E+02  0.00000000000E+00 0.  1.
         11    1    3    3    0    0 -0.10122241382E+02  0.13575418514E+02 -0.14443946099E+01  0.16995235641E+02  0.51100000000E-03 0. -1.
        -11    1    3    3    0    0  0.27007945670E+01  0.11692289936E+02  0.11961853472E+02  0.16943726685E+02  0.51100000000E-03 0.  1.
         12    1    3    3    0    0  0.21397709197E+02 -0.70796821206E+01  0.11631642779E+02  0.25362944852E+02  0.00000000000E+00 0. -1.
</event>
<event>
 7    1  0.7284210E-013  0.5930184E+02  0.7816164E-02  0.1266605E+00
        -11   -1    0    0    0    0  0.00000000000E+00  0.00000000000E+00  0.45593999997E+02  0.45594000000E+02  0.51100000000E-03 0. -1.
         11   -1    0    0    0    0 -0.00000000000E+00 -0.00000000000E+00 -0.45593999997E+02  0.45594000000E+02  0.51100000000E-03 0.  1.
    9900012    2    1    2    0    0  0.90339504869E+01  0.19333940449E+02  0.23692064900E+02  0.59301836011E+02  0.49999803003E+02 0.  0.
        -12    1    1    2    0    0 -0.90339504869E+01 -0.19333940449E+02 -0.23692064900E+02  0.31886163989E+02  0.00000000000E+00 0.  1.
         11    1    3    3    0    0 -0.79719688258E+01 -0.10665677796E+02  0.15433349579E+02  0.20383749638E+02  0.51100000000E-03 0. -1.
        -11    1    3    3    0    0  0.34328586204E+00  0.24289069904E+01 -0.37978340656E+01  0.45211700037E+01  0.51100000000E-03 0.  1.
         12    1    3    3    0    0  0.16662633451E+02  0.27570711255E+02  0.12056549387E+02  0.34396916370E+02  0.00000000000E+00 0. -1.
</event>
<event>
 7    1  0.7284210E-013  0.5930191E+02  0.7816164E-02  0.1266605E+00
        -11   -1    0    0    0    0  0.00000000000E+00  0.00000000000E+00  0.45593999997E+02  0.45594000000E+02  0.51100000000E-03 0.  1.
         11   -1    0    0    0    0 -0.00000000000E+00 -0.00000000000E+00 -0.45593999997E+02  0.45594000000E+02  0.51100000000E-03 0. -1.
    9900012    2    1    2    0    0  0.26257218231E+01 -0.15889556951E+02 -0.27520003342E+02  0.59301905552E+02  0.49999929829E+02 0.  0.
        -12    1    1    2    0    0 -0.26257218231E+01  0.15889556951E+02  0.27520003342E+02  0.31886094448E+02  0.00000000000E+00 0.  1.
         11    1    3    3    0    0  0.18466099655E+02 -0.42504499596E+01 -0.12240183746E+02  0.22558485316E+02  0.51100000000E-03 0. -1.
        -11    1    3    3    0    0  0.15764521318E+01  0.67449760806E+01 -0.75938597608E+01  0.10278453676E+02  0.51100000000E-03 0.  1.
        -12    1    3    3    0    0 -0.17416829964E+02 -0.18384083072E+02 -0.76859598360E+01  0.26464966560E+02  0.00000000000E+00 0.  1.
</event>
<event>
 7    1  0.7284210E-013  0.5930194E+02  0.7816164E-02  0.1266605E+00
        -11   -1    0    0    0    0  0.00000000000E+00  0.00000000000E+00  0.45593999997E+02  0.45594000000E+02  0.51100000000E-03 0.  1.
         11   -1    0    0    0    0 -0.00000000000E+00 -0.00000000000E+00 -0.45593999997E+02  0.45594000000E+02  0.51100000000E-03 0. -1.
    9900012    2    1    2    0    0  0.13071383675E+02 -0.27951827202E+02 -0.80346043504E+01  0.59301943765E+02  0.49999999521E+02 0.  0.
        -12    1    1    2    0    0 -0.13071383675E+02  0.27951827202E+02  0.80346043504E+01  0.31886056235E+02  0.00000000000E+00 0.  1.
         11    1    3    3    0    0 -0.12429326095E+02 -0.12976947101E+02  0.12270172645E+02  0.21758824422E+02  0.51100000000E-03 0. -1.
        -11    1    3    3    0    0  0.95573290260E+01 -0.59524313185E+01 -0.14433990891E+02  0.18306121108E+02  0.51100000000E-03 0.  1.
        -12    1    3    3    0    0  0.15943380745E+02 -0.90224487831E+01 -0.58707861036E+01  0.19236998235E+02  0.00000000000E+00 0.  1.
</event>
<event>
 7    1  0.7284210E-013  0.5930194E+02  0.7816164E-02  0.1266605E+00
        -11   -1    0    0    0    0  0.00000000000E+00  0.00000000000E+00  0.45593999997E+02  0.45594000000E+02  0.51100000000E-03 0.  1.
         11   -1    0    0    0    0 -0.00000000000E+00 -0.00000000000E+00 -0.45593999997E+02  0.45594000000E+02  0.51100000000E-03 0. -1.
    9900012    2    1    2    0    0  0.28884883327E+02  0.13464095251E+02  0.10499364974E+01  0.59301941724E+02  0.49999995798E+02 0.  0.
        -12    1    1    2    0    0 -0.28884883327E+02 -0.13464095251E+02 -0.10499364974E+01  0.31886058276E+02  0.00000000000E+00 0.  1.
         11    1    3    3    0    0  0.80133182621E+01  0.11643543851E+02 -0.87646327576E+01  0.16631421184E+02  0.51100000000E-03 0. -1.
        -11    1    3    3    0    0  0.29867655270E+02  0.14410545878E+00  0.87964223097E+00  0.29880953272E+02  0.51100000000E-03 0.  1.
         12    1    3    3    0    0 -0.89960902048E+01  0.16764459417E+01  0.89349270240E+01  0.12789567268E+02  0.00000000000E+00 0. -1.
</event>
<event>
 7    1  0.7284210E-013  0.5930194E+02  0.7816164E-02  0.1266605E+00
        -11   -1    0    0    0    0  0.00000000000E+00  0.00000000000E+00  0.45593999997E+02  0.45594000000E+02  0.51100000000E-03 0.  1.
         11   -1    0    0    0    0 -0.00000000000E+00 -0.00000000000E+00 -0.45593999997E+02  0.45594000000E+02  0.51100000000E-03 0. -1.
    9900012    2    1    2    0    0  0.21295649666E+02  0.15571825903E+02 -0.17909058417E+02  0.59301939879E+02  0.49999992435E+02 0.  0.
        -12    1    1    2    0    0 -0.21295649666E+02 -0.15571825903E+02  0.17909058417E+02  0.31886060121E+02  0.00000000000E+00 0.  1.
         11    1    3    3    0    0  0.12669037141E+02  0.13578047115E+02  0.47898480170E+01  0.19178386528E+02  0.51100000000E-03 0. -1.
        -11    1    3    3    0    0  0.18171037720E+02  0.10743227774E+01 -0.33212155417E+01  0.18503276850E+02  0.51100000000E-03 0.  1.
         12    1    3    3    0    0 -0.95444251960E+01  0.91945601117E+00 -0.19377690892E+02  0.21620276501E+02  0.00000000000E+00 0. -1.
</event>
<event>
 7    1  0.7284210E-013  0.5930193E+02  0.7816164E-02  0.1266605E+00
        -11   -1    0    0    0    0  0.00000000000E+00  0.00000000000E+00  0.45593999997E+02  0.45594000000E+02  0.51100000000E-03 0.  1.
         11   -1    0    0    0    0 -0.00000000000E+00 -0.00000000000E+00 -0.45593999997E+02  0.45594000000E+02  0.51100000000E-03 0. -1.
    9900012    2    1    2    0    0  0.30369191310E+02 -0.22085471674E+01 -0.94633972864E+01  0.59301931731E+02  0.49999977575E+02 0.  0.
        -12    1    1    2    0    0 -0.30369191310E+02  0.22085471674E+01  0.94633972864E+01  0.31886068269E+02  0.00000000000E+00 0.  1.
         11    1    3    3    0    0 -0.21073127708E+01  0.67896015362E+00  0.60319726798E+01  0.64254531883E+01  0.51100000000E-03 0. -1.
        -11    1    3    3    0    0  0.19819856320E+02 -0.57356829283E+01  0.10995146608E+02  0.23379863395E+02  0.51100000000E-03 0.  1.
         12    1    3    3    0    0  0.12656647761E+02  0.28481756073E+01 -0.26490516574E+02  0.29496615148E+02  0.00000000000E+00 0. -1.
</event>
<event>
 7    1  0.7284210E-013  0.5930195E+02  0.7816164E-02  0.1266605E+00
        -11   -1    0    0    0    0  0.00000000000E+00  0.00000000000E+00  0.45593999997E+02  0.45594000000E+02  0.51100000000E-03 0.  1.
         11   -1    0    0    0    0 -0.00000000000E+00 -0.00000000000E+00 -0.45593999997E+02  0.45594000000E+02  0.51100000000E-03 0. -1.
    9900012    2    1    2    0    0 -0.13312518004E+02  0.17915719402E+02 -0.22771128665E+02  0.59301946027E+02  0.50000003646E+02 0.  0.
        -12    1    1    2    0    0  0.13312518004E+02 -0.17915719402E+02  0.22771128665E+02  0.31886053973E+02  0.00000000000E+00 0.  1.
         11    1    3    3    0    0 -0.55207340689E+01  0.95132358782E+01 -0.77038339055E+01  0.13428671514E+02  0.51100000000E-03 0. -1.
        -11    1    3    3    0    0  0.20258736630E+01  0.23541917697E+02 -0.14694333968E+02  0.27825339242E+02  0.51100000000E-03 0.  1.
        -12    1    3    3    0    0 -0.98176575982E+01 -0.15139434172E+02 -0.37296079133E+00  0.18047935270E+02  0.00000000000E+00 0.  1.
</event>
<event>
 7    1  0.7284210E-013  0.5930234E+02  0.7816164E-02  0.1266603E+00
        -11   -1    0    0    0    0  0.00000000000E+00  0.00000000000E+00  0.45593999997E+02  0.45594000000E+02  0.51100000000E-03 0. -1.
         11   -1    0    0    0    0 -0.00000000000E+00 -0.00000000000E+00 -0.45593999997E+02  0.45594000000E+02  0.51100000000E-03 0.  1.
    9900012    2    1    2    0    0  0.24381496681E+02  0.21741016520E+01  0.20433087579E+02  0.59302342308E+02  0.50000726363E+02 0.  0.
        -12    1    1    2    0    0 -0.24381496681E+02 -0.21741016520E+01 -0.20433087579E+02  0.31885657692E+02  0.00000000000E+00 0.  1.
         11    1    3    3    0    0  0.19960249263E+02  0.11918373264E+02  0.67753983994E+00  0.23257648900E+02  0.51100000000E-03 0. -1.
        -11    1    3    3    0    0  0.15450343517E+02 -0.33886845994E+01  0.50701769040E+01  0.16610327877E+02  0.51100000000E-03 0.  1.
         12    1    3    3    0    0 -0.11029096098E+02 -0.63555870121E+01  0.14685370835E+02  0.19434365530E+02  0.00000000000E+00 0. -1.
</event>
<event>
 7    1  0.7284210E-013  0.5930197E+02  0.7816164E-02  0.1266605E+00
        -11   -1    0    0    0    0  0.00000000000E+00  0.00000000000E+00  0.45593999997E+02  0.45594000000E+02  0.51100000000E-03 0. -1.
         11   -1    0    0    0    0 -0.00000000000E+00 -0.00000000000E+00 -0.45593999997E+02  0.45594000000E+02  0.51100000000E-03 0.  1.
    9900012    2    1    2    0    0  0.14630149066E+02 -0.17170764700E+02  0.22535365648E+02  0.59301966585E+02  0.50000041139E+02 0.  0.
        -12    1    1    2    0    0 -0.14630149066E+02  0.17170764700E+02 -0.22535365648E+02  0.31886033415E+02  0.00000000000E+00 0.  1.
         11    1    3    3    0    0 -0.86851482945E+01  0.10905742230E+00  0.21997775232E+02  0.23650492803E+02  0.51100000000E-03 0. -1.
        -11    1    3    3    0    0  0.36030607332E+00  0.27030855166E+01  0.41894878276E+01  0.49988298926E+01  0.51100000000E-03 0.  1.
        -12    1    3    3    0    0  0.22954991287E+02 -0.19982907639E+02 -0.36518974115E+01  0.30652643889E+02  0.00000000000E+00 0.  1.
</event>
<event>
 7    1  0.7284210E-013  0.5930181E+02  0.7816164E-02  0.1266605E+00
        -11   -1    0    0    0    0  0.00000000000E+00  0.00000000000E+00  0.45593999997E+02  0.45594000000E+02  0.51100000000E-03 0.  1.
         11   -1    0    0    0    0 -0.00000000000E+00 -0.00000000000E+00 -0.45593999997E+02  0.45594000000E+02  0.51100000000E-03 0. -1.
    9900012    2    1    2    0    0  0.31808986638E+02  0.19223225817E+01 -0.11056183621E+01  0.59301806326E+02  0.49999748864E+02 0.  0.
        -12    1    1    2    0    0 -0.31808986638E+02 -0.19223225817E+01  0.11056183621E+01  0.31886193674E+02  0.00000000000E+00 0.  1.
         11    1    3    3    0    0  0.37500623877E+01  0.74931538332E+01  0.86903978142E+01  0.12072006325E+02  0.51100000000E-03 0. -1.
        -11    1    3    3    0    0 -0.22993315384E+01  0.92867557195E+01  0.44496674811E+01  0.10551317371E+02  0.51100000000E-03 0.  1.
         12    1    3    3    0    0  0.30358255789E+02 -0.14857586971E+02 -0.14245683657E+02  0.36678482630E+02  0.00000000000E+00 0. -1.
</event>
<event>
 7    1  0.7284210E-013  0.5930195E+02  0.7816164E-02  0.1266605E+00
        -11   -1    0    0    0    0  0.00000000000E+00  0.00000000000E+00  0.45593999997E+02  0.45594000000E+02  0.51100000000E-03 0.  1.
         11   -1    0    0    0    0 -0.00000000000E+00 -0.00000000000E+00 -0.45593999997E+02  0.45594000000E+02  0.51100000000E-03 0. -1.
    9900012    2    1    2    0    0  0.31419820383E+02 -0.53210204568E+01  0.10963018131E+01  0.59301948986E+02  0.50000009042E+02 0.  0.
        -12    1    1    2    0    0 -0.31419820383E+02  0.53210204568E+01 -0.10963018131E+01  0.31886051014E+02  0.00000000000E+00 0.  1.
         11    1    3    3    0    0  0.13795692804E+02 -0.90465818945E+01 -0.16529840210E+02  0.23353744915E+02  0.51100000000E-03 0. -1.
        -11    1    3    3    0    0 -0.42745735765E+01  0.22727272758E+01 -0.31104595532E+01  0.57543224991E+01  0.51100000000E-03 0.  1.
        -12    1    3    3    0    0  0.21898701156E+02  0.14528341620E+01  0.20736601577E+02  0.30193881572E+02  0.00000000000E+00 0.  1.
</event>
<event>
 7    1  0.7284210E-013  0.5930193E+02  0.7816164E-02  0.1266605E+00
        -11   -1    0    0    0    0  0.00000000000E+00  0.00000000000E+00  0.45593999997E+02  0.45594000000E+02  0.51100000000E-03 0.  1.
         11   -1    0    0    0    0 -0.00000000000E+00 -0.00000000000E+00 -0.45593999997E+02  0.45594000000E+02  0.51100000000E-03 0. -1.
    9900012    2    1    2    0    0  0.87302518115E+01  0.26762655406E+01 -0.30550639628E+02  0.59301932892E+02  0.49999979690E+02 0.  0.
        -12    1    1    2    0    0 -0.87302518115E+01 -0.26762655406E+01  0.30550639628E+02  0.31886067108E+02  0.00000000000E+00 0.  1.
         11    1    3    3    0    0  0.89786229382E+01  0.36092285828E+01 -0.13180948013E+02  0.16351745828E+02  0.51100000000E-03 0. -1.
        -11    1    3    3    0    0  0.12456032702E+02 -0.24091715633E+01 -0.25015822892E+02  0.28049033023E+02  0.51100000000E-03 0.  1.
        -12    1    3    3    0    0 -0.12704403828E+02  0.14762085211E+01  0.76461312775E+01  0.14901154041E+02  0.00000000000E+00 0.  1.
</event>
<event>
 7    1  0.7284210E-013  0.5930195E+02  0.7816164E-02  0.1266605E+00
        -11   -1    0    0    0    0  0.00000000000E+00  0.00000000000E+00  0.45593999997E+02  0.45594000000E+02  0.51100000000E-03 0.  1.
         11   -1    0    0    0    0 -0.00000000000E+00 -0.00000000000E+00 -0.45593999997E+02  0.45594000000E+02  0.51100000000E-03 0. -1.
    9900012    2    1    2    0    0  0.21279792812E+02 -0.22535615421E+02  0.74857643717E+01  0.59301949559E+02  0.50000010088E+02 0.  0.
        -12    1    1    2    0    0 -0.21279792812E+02  0.22535615421E+02 -0.74857643717E+01  0.31886050441E+02  0.00000000000E+00 0.  1.
         11    1    3    3    0    0  0.28644435794E+02 -0.85927358843E+01 -0.83558203850E+01  0.31050902507E+02  0.51100000000E-03 0. -1.
        -11    1    3    3    0    0 -0.66644785552E+00  0.15085548673E+01 -0.27245731603E+01  0.31848374682E+01  0.51100000000E-03 0.  1.
        -12    1    3    3    0    0 -0.66981951267E+01 -0.15451434404E+02  0.18566157917E+02  0.25066209584E+02  0.00000000000E+00 0.  1.
</event>
<event>
 7    1  0.7284210E-013  0.5930193E+02  0.7816164E-02  0.1266605E+00
        -11   -1    0    0    0    0  0.00000000000E+00  0.00000000000E+00  0.45593999997E+02  0.45594000000E+02  0.51100000000E-03 0.  1.
         11   -1    0    0    0    0 -0.00000000000E+00 -0.00000000000E+00 -0.45593999997E+02  0.45594000000E+02  0.51100000000E-03 0. -1.
    9900012    2    1    2    0    0  0.48392417520E+01 -0.48811964504E+01 -0.31136427747E+02  0.59301929807E+02  0.49999974065E+02 0.  0.
        -12    1    1    2    0    0 -0.48392417520E+01  0.48811964504E+01  0.31136427747E+02  0.31886070193E+02  0.00000000000E+00 0.  1.
         11    1    3    3    0    0 -0.98390483938E+01 -0.10668907255E+02 -0.21622191632E+02  0.26041344561E+02  0.51100000000E-03 0. -1.
        -11    1    3    3    0    0  0.22530713654E+01 -0.61044581665E+01  0.69011549242E+01  0.94850766804E+01  0.51100000000E-03 0.  1.
        -12    1    3    3    0    0  0.12425218780E+02  0.11892168972E+02 -0.16415391039E+02  0.23775508566E+02  0.00000000000E+00 0.  1.
</event>
<event>
 7    1  0.7284210E-013  0.5930191E+02  0.7816164E-02  0.1266605E+00
        -11   -1    0    0    0    0  0.00000000000E+00  0.00000000000E+00  0.45593999997E+02  0.45594000000E+02  0.51100000000E-03 0. -1.
         11   -1    0    0    0    0 -0.00000000000E+00 -0.00000000000E+00 -0.45593999997E+02  0.45594000000E+02  0.51100000000E-03 0.  1.
    9900012    2    1    2    0    0  0.13894293680E+02  0.49597431676E+01  0.28267863453E+02  0.59301912856E+02  0.49999943150E+02 0.  0.
        -12    1    1    2    0    0 -0.13894293680E+02 -0.49597431676E+01 -0.28267863453E+02  0.31886087144E+02  0.00000000000E+00 0.  1.
         11    1    3    3    0    0 -0.12442841025E+00  0.79674410316E+01  0.11795030829E+02  0.14234407313E+02  0.51100000000E-03 0. -1.
        -11    1    3    3    0    0  0.13032449656E+02 -0.87389170189E+01  0.28033710790E+02  0.32126349865E+02  0.51100000000E-03 0.  1.
        -12    1    3    3    0    0  0.98627243464E+00  0.57312191549E+01 -0.11560878166E+02  0.12941155678E+02  0.00000000000E+00 0.  1.
</event>
<event>
 7    1  0.7284210E-013  0.5930184E+02  0.7816164E-02  0.1266605E+00
        -11   -1    0    0    0    0  0.00000000000E+00  0.00000000000E+00  0.45593999997E+02  0.45594000000E+02  0.51100000000E-03 0.  1.
         11   -1    0    0    0    0 -0.00000000000E+00 -0.00000000000E+00 -0.45593999997E+02  0.45594000000E+02  0.51100000000E-03 0. -1.
    9900012    2    1    2    0    0 -0.10028393053E+02  0.14775726916E+02 -0.26416590279E+02  0.59301842892E+02  0.49999815552E+02 0.  0.
        -12    1    1    2    0    0  0.10028393053E+02 -0.14775726916E+02  0.26416590279E+02  0.31886157108E+02  0.00000000000E+00 0.  1.
         11    1    3    3    0    0 -0.28437361714E+01  0.26343728248E+00 -0.57558618956E+00  0.29133373195E+01  0.51100000000E-03 0. -1.
        -11    1    3    3    0    0  0.11391065663E+02 -0.66597733718E+01  0.54605622056E+01  0.14280290549E+02  0.51100000000E-03 0.  1.
         12    1    3    3    0    0 -0.18575722544E+02  0.21172063006E+02 -0.31301566295E+02  0.42108215024E+02  0.00000000000E+00 0. -1.
</event>
<event>
 7    1  0.7284210E-013  0.5930194E+02  0.7816164E-02  0.1266605E+00
        -11   -1    0    0    0    0  0.00000000000E+00  0.00000000000E+00  0.45593999997E+02  0.45594000000E+02  0.51100000000E-03 0.  1.
         11   -1    0    0    0    0 -0.00000000000E+00 -0.00000000000E+00 -0.45593999997E+02  0.45594000000E+02  0.51100000000E-03 0. -1.
    9900012    2    1    2    0    0  0.27176063527E+02  0.10627923037E+02 -0.12854164096E+02  0.59301941737E+02  0.49999995823E+02 0.  0.
        -12    1    1    2    0    0 -0.27176063527E+02 -0.10627923037E+02  0.12854164096E+02  0.31886058263E+02  0.00000000000E+00 0.  1.
         11    1    3    3    0    0  0.57377555349E+01  0.11262931221E+02  0.20721893293E+01  0.12808958863E+02  0.51100000000E-03 0. -1.
        -11    1    3    3    0    0  0.32399116297E+02 -0.80743746155E-01 -0.75429029029E+01  0.33265667600E+02  0.51100000000E-03 0.  1.
        -12    1    3    3    0    0 -0.10960808305E+02 -0.55426443786E+00 -0.73834505221E+01  0.13227315275E+02  0.00000000000E+00 0.  1.
</event>
<event>
 7    1  0.7284210E-013  0.5930194E+02  0.7816164E-02  0.1266605E+00
        -11   -1    0    0    0    0  0.00000000000E+00  0.00000000000E+00  0.45593999997E+02  0.45594000000E+02  0.51100000000E-03 0.  1.
         11   -1    0    0    0    0 -0.00000000000E+00 -0.00000000000E+00 -0.45593999997E+02  0.45594000000E+02  0.51100000000E-03 0. -1.
    9900012    2    1    2    0    0 -0.15966611742E+02  0.14603581331E+02 -0.23420575703E+02  0.59301942789E+02  0.49999997741E+02 0.  0.
        -12    1    1    2    0    0  0.15966611742E+02 -0.14603581331E+02  0.23420575703E+02  0.31886057211E+02  0.00000000000E+00 0.  1.
         11    1    3    3    0    0  0.74821828598E+01 -0.81542187844E+01 -0.76071008395E+01  0.13429159608E+02  0.51100000000E-03 0.  1.
        -11    1    3    3    0    0 -0.28595329063E+01  0.21685718847E+02 -0.44151759598E+01  0.22314594089E+02  0.51100000000E-03 0. -1.
        -12    1    3    3    0    0 -0.20589261695E+02  0.10720812686E+01 -0.11398298904E+02  0.23558189092E+02  0.00000000000E+00 0.  1.
</event>
<event>
 7    1  0.7284210E-013  0.5930206E+02  0.7816164E-02  0.1266604E+00
        -11   -1    0    0    0    0  0.00000000000E+00  0.00000000000E+00  0.45593999997E+02  0.45594000000E+02  0.51100000000E-03 0.  1.
         11   -1    0    0    0    0 -0.00000000000E+00 -0.00000000000E+00 -0.45593999997E+02  0.45594000000E+02  0.51100000000E-03 0. -1.
    9900012    2    1    2    0    0 -0.81265423007E+01 -0.29962722171E+02 -0.72737836819E+01  0.59302057350E+02  0.50000206672E+02 0.  0.
        -12    1    1    2    0    0  0.81265423007E+01  0.29962722171E+02  0.72737836819E+01  0.31885942650E+02  0.00000000000E+00 0.  1.
         11    1    3    3    0    0  0.18099078272E+01  0.20185214455E-01  0.72055581784E+01  0.74294173869E+01  0.51100000000E-03 0. -1.
        -11    1    3    3    0    0  0.37303178394E+01 -0.18271483804E+02  0.10255709323E+02  0.21282433262E+02  0.51100000000E-03 0.  1.
         12    1    3    3    0    0 -0.13666767967E+02 -0.11711423581E+02 -0.24735051183E+02  0.30590206701E+02  0.00000000000E+00 0. -1.
</event>
<event>
 7    1  0.7284210E-013  0.5930193E+02  0.7816164E-02  0.1266605E+00
        -11   -1    0    0    0    0  0.00000000000E+00  0.00000000000E+00  0.45593999997E+02  0.45594000000E+02  0.51100000000E-03 0. -1.
         11   -1    0    0    0    0 -0.00000000000E+00 -0.00000000000E+00 -0.45593999997E+02  0.45594000000E+02  0.51100000000E-03 0.  1.
    9900012    2    1    2    0    0 -0.17003702762E+02 -0.22597322046E+02  0.14729448707E+02  0.59301928896E+02  0.49999972403E+02 0.  0.
        -12    1    1    2    0    0  0.17003702762E+02  0.22597322046E+02 -0.14729448707E+02  0.31886071104E+02  0.00000000000E+00 0.  1.
         11    1    3    3    0    0 -0.29670308580E+01  0.10176319727E+02  0.11413752775E+02  0.15576729694E+02  0.51100000000E-03 0.  1.
        -11    1    3    3    0    0  0.30720585179E+01 -0.20458991531E+02  0.79127491196E+01  0.22149931758E+02  0.51100000000E-03 0. -1.
        -12    1    3    3    0    0 -0.17108730422E+02 -0.12314650242E+02 -0.45970531872E+01  0.21575267443E+02  0.00000000000E+00 0.  1.
</event>
<event>
 7    1  0.7284210E-013  0.5930197E+02  0.7816164E-02  0.1266605E+00
        -11   -1    0    0    0    0  0.00000000000E+00  0.00000000000E+00  0.45593999997E+02  0.45594000000E+02  0.51100000000E-03 0.  1.
         11   -1    0    0    0    0 -0.00000000000E+00 -0.00000000000E+00 -0.45593999997E+02  0.45594000000E+02  0.51100000000E-03 0. -1.
    9900012    2    1    2    0    0 -0.19193496002E+01 -0.16362794886E+02 -0.27300068402E+02  0.59301973372E+02  0.50000053517E+02 0.  0.
        -12    1    1    2    0    0  0.19193496002E+01  0.16362794886E+02  0.27300068402E+02  0.31886026628E+02  0.00000000000E+00 0.  1.
         11    1    3    3    0    0  0.63705712418E+01  0.13320740431E+02 -0.10478192355E+02  0.18105767558E+02  0.51100000000E-03 0. -1.
        -11    1    3    3    0    0 -0.99007719528E+00 -0.43331992897E+01  0.51937875242E+01  0.68361025478E+01  0.51100000000E-03 0.  1.
         12    1    3    3    0    0 -0.72998436467E+01 -0.25350336027E+02 -0.22015663571E+02  0.34360103266E+02  0.00000000000E+00 0. -1.
</event>
<event>
 7    1  0.8570558E-013  0.5930195E+02  0.7816164E-02  0.1266605E+00
        -11   -1    0    0    0    0  0.00000000000E+00  0.00000000000E+00  0.45593999997E+02  0.45594000000E+02  0.51100000000E-03 0. -1.
         11   -1    0    0    0    0 -0.00000000000E+00 -0.00000000000E+00 -0.45593999997E+02  0.45594000000E+02  0.51100000000E-03 0.  1.
    9900012    2    1    2    0    0  0.41214910259E+01  0.18061804983E+02  0.25951969470E+02  0.59301949651E+02  0.50000010255E+02 0.  0.
        -12    1    1    2    0    0 -0.41214910259E+01 -0.18061804983E+02 -0.25951969470E+02  0.31886050349E+02  0.00000000000E+00 0.  1.
         11    1    3    3    0    0 -0.84007975068E+00  0.27222142700E+02  0.16464372439E+02  0.31824932793E+02  0.51100000000E-03 0. -1.
        -11    1    3    3    0    0 -0.71753952979E+01  0.34956606551E+01  0.48476703645E+01  0.93384072154E+01  0.51100000000E-03 0.  1.
        -12    1    3    3    0    0  0.12136966075E+02 -0.12655998372E+02  0.46399266659E+01  0.18138609642E+02  0.00000000000E+00 0.  1.
</event>
<event>
 7    1  0.7284210E-013  0.5930192E+02  0.7816164E-02  0.1266605E+00
        -11   -1    0    0    0    0  0.00000000000E+00  0.00000000000E+00  0.45593999997E+02  0.45594000000E+02  0.51100000000E-03 0. -1.
         11   -1    0    0    0    0 -0.00000000000E+00 -0.00000000000E+00 -0.45593999997E+02  0.45594000000E+02  0.51100000000E-03 0.  1.
    9900012    2    1    2    0    0 -0.10793570056E+02 -0.29975536012E+02 -0.12993058782E+01  0.59301919815E+02  0.49999955842E+02 0.  0.
        -12    1    1    2    0    0  0.10793570056E+02  0.29975536012E+02  0.12993058782E+01  0.31886080185E+02  0.00000000000E+00 0.  1.
         11    1    3    3    0    0  0.77312527387E+00 -0.82646685507E+01  0.29538425517E+01  0.88106557658E+01  0.51100000000E-03 0. -1.
        -11    1    3    3    0    0 -0.16549496869E+02 -0.33064093484E+02 -0.73813563054E+01  0.37704171463E+02  0.51100000000E-03 0.  1.
         12    1    3    3    0    0  0.49828015387E+01  0.11353226023E+02  0.31282078755E+01  0.12787092586E+02  0.00000000000E+00 0. -1.
</event>
<event>
 7    1  0.7284210E-013  0.5930187E+02  0.7816164E-02  0.1266605E+00
        -11   -1    0    0    0    0  0.00000000000E+00  0.00000000000E+00  0.45593999997E+02  0.45594000000E+02  0.51100000000E-03 0.  1.
         11   -1    0    0    0    0 -0.00000000000E+00 -0.00000000000E+00 -0.45593999997E+02  0.45594000000E+02  0.51100000000E-03 0. -1.
    9900012    2    1    2    0    0  0.26019877660E+02 -0.78414244282E+01 -0.16679420123E+02  0.59301874081E+02  0.49999872433E+02 0.  0.
        -12    1    1    2    0    0 -0.26019877660E+02  0.78414244282E+01  0.16679420123E+02  0.31886125919E+02  0.00000000000E+00 0.  1.
         11    1    3    3    0    0 -0.98830504684E+01  0.99548468773E-01  0.14171594210E+01  0.99846350732E+01  0.51100000000E-03 0. -1.
        -11    1    3    3    0    0  0.25629563986E+02 -0.17041037271E+02 -0.67482899408E+01  0.31508902215E+02  0.51100000000E-03 0.  1.
         12    1    3    3    0    0  0.10273364142E+02  0.91000643739E+01 -0.11348289604E+02  0.17808336793E+02  0.00000000000E+00 0. -1.
</event>
<event>
 7    1  0.7284210E-013  0.5930193E+02  0.7816164E-02  0.1266605E+00
        -11   -1    0    0    0    0  0.00000000000E+00  0.00000000000E+00  0.45593999997E+02  0.45594000000E+02  0.51100000000E-03 0.  1.
         11   -1    0    0    0    0 -0.00000000000E+00 -0.00000000000E+00 -0.45593999997E+02  0.45594000000E+02  0.51100000000E-03 0. -1.
    9900012    2    1    2    0    0 -0.80132283969E+01 -0.27767353214E+02 -0.13471584251E+02  0.59301932257E+02  0.49999978534E+02 0.  0.
        -12    1    1    2    0    0  0.80132283969E+01  0.27767353214E+02  0.13471584251E+02  0.31886067743E+02  0.00000000000E+00 0.  1.
         11    1    3    3    0    0 -0.95389172935E+01 -0.12140158693E+02 -0.16849631639E+02  0.22853544208E+02  0.51100000000E-03 0. -1.
        -11    1    3    3    0    0  0.10015417953E+02  0.46893921359E+01 -0.59233850619E+01  0.12545337231E+02  0.51100000000E-03 0.  1.
        -12    1    3    3    0    0 -0.84897290566E+01 -0.20316586657E+02  0.93014324495E+01  0.23903050819E+02  0.00000000000E+00 0.  1.
</event>
<event>
 7    1  0.7284210E-013  0.5930191E+02  0.7816164E-02  0.1266605E+00
        -11   -1    0    0    0    0  0.00000000000E+00  0.00000000000E+00  0.45593999997E+02  0.45594000000E+02  0.51100000000E-03 0.  1.
         11   -1    0    0    0    0 -0.00000000000E+00 -0.00000000000E+00 -0.45593999997E+02  0.45594000000E+02  0.51100000000E-03 0. -1.
    9900012    2    1    2    0    0  0.15963213753E+01 -0.12757980290E+02 -0.29178909041E+02  0.59301905290E+02  0.49999929351E+02 0.  0.
        -12    1    1    2    0    0 -0.15963213753E+01  0.12757980290E+02  0.29178909041E+02  0.31886094710E+02  0.00000000000E+00 0.  1.
         11    1    3    3    0    0 -0.62967995382E-01 -0.12869706540E+02 -0.15185195018E+02  0.19905362579E+02  0.51100000000E-03 0. -1.
        -11    1    3    3    0    0  0.18313867215E+02  0.27503028884E+01 -0.18393393484E+01  0.18610348408E+02  0.51100000000E-03 0.  1.
         12    1    3    3    0    0 -0.16654577845E+02 -0.26385766383E+01 -0.12154374675E+02  0.20786194303E+02  0.00000000000E+00 0. -1.
</event>
<event>
 7    1  0.7284210E-013  0.5930194E+02  0.7816164E-02  0.1266605E+00
        -11   -1    0    0    0    0  0.00000000000E+00  0.00000000000E+00  0.45593999997E+02  0.45594000000E+02  0.51100000000E-03 0.  1.
         11   -1    0    0    0    0 -0.00000000000E+00 -0.00000000000E+00 -0.45593999997E+02  0.45594000000E+02  0.51100000000E-03 0. -1.
    9900012    2    1    2    0    0  0.30440022896E+02  0.84049439273E+01  0.44139131292E+01  0.59301941833E+02  0.49999995998E+02 0.  0.
        -12    1    1    2    0    0 -0.30440022896E+02 -0.84049439273E+01 -0.44139131292E+01  0.31886058167E+02  0.00000000000E+00 0.  1.
         11    1    3    3    0    0  0.12829610713E+02  0.84943796517E+01 -0.92554367741E+01  0.17955960205E+02  0.51100000000E-03 0. -1.
        -11    1    3    3    0    0  0.16467576036E+02 -0.13271038310E+01 -0.88647311796E+01  0.18749019287E+02  0.51100000000E-03 0.  1.
        -12    1    3    3    0    0  0.11428361458E+01  0.12376681066E+01  0.22534081083E+02  0.22596962341E+02  0.00000000000E+00 0.  1.
</event>
<event>
 7    1  0.7284210E-013  0.5930193E+02  0.7816164E-02  0.1266605E+00
        -11   -1    0    0    0    0  0.00000000000E+00  0.00000000000E+00  0.45593999997E+02  0.45594000000E+02  0.51100000000E-03 0.  1.
         11   -1    0    0    0    0 -0.00000000000E+00 -0.00000000000E+00 -0.45593999997E+02  0.45594000000E+02  0.51100000000E-03 0. -1.
    9900012    2    1    2    0    0 -0.85922877667E+01  0.11472560026E+02 -0.28482874255E+02  0.59301934573E+02  0.49999982756E+02 0.  0.
        -12    1    1    2    0    0  0.85922877667E+01 -0.11472560026E+02  0.28482874255E+02  0.31886065427E+02  0.00000000000E+00 0.  1.
         11    1    3    3    0    0  0.18760727080E+01  0.61658436573E+01 -0.21098120591E+02  0.22060552340E+02  0.51100000000E-03 0. -1.
        -11    1    3    3    0    0  0.71465989098E+01 -0.29534047297E+00 -0.15487260232E+02  0.17059200794E+02  0.51100000000E-03 0.  1.
        -12    1    3    3    0    0 -0.17614959384E+02  0.56020568418E+01  0.81025065677E+01  0.20182181439E+02  0.00000000000E+00 0.  1.
</event>
<event>
 7    1  0.7284210E-013  0.5930194E+02  0.7816164E-02  0.1266605E+00
        -11   -1    0    0    0    0  0.00000000000E+00  0.00000000000E+00  0.45593999997E+02  0.45594000000E+02  0.51100000000E-03 0. -1.
         11   -1    0    0    0    0 -0.00000000000E+00 -0.00000000000E+00 -0.45593999997E+02  0.45594000000E+02  0.51100000000E-03 0.  1.
    9900012    2    1    2    0    0  0.91902226797E+01 -0.20138974100E+01  0.30466451965E+02  0.59301942372E+02  0.49999996981E+02 0.  0.
        -12    1    1    2    0    0 -0.91902226797E+01  0.20138974100E+01 -0.30466451965E+02  0.31886057628E+02  0.00000000000E+00 0.  1.
         11    1    3    3    0    0 -0.17073403251E+01  0.37900137565E+01 -0.73546430237E+01  0.84480760843E+01  0.51100000000E-03 0. -1.
        -11    1    3    3    0    0  0.10983177335E+02 -0.17179211784E+01 -0.15913946939E+01  0.11230047857E+02  0.51100000000E-03 0.  1.
         12    1    3    3    0    0 -0.85614330235E-01 -0.40859899880E+01  0.39412489683E+02  0.39623818430E+02  0.00000000000E+00 0. -1.
</event>
<event>
 7    1  0.7284210E-013  0.5930191E+02  0.7816164E-02  0.1266605E+00
        -11   -1    0    0    0    0  0.00000000000E+00  0.00000000000E+00  0.45593999997E+02  0.45594000000E+02  0.51100000000E-03 0.  1.
         11   -1    0    0    0    0 -0.00000000000E+00 -0.00000000000E+00 -0.45593999997E+02  0.45594000000E+02  0.51100000000E-03 0. -1.
    9900012    2    1    2    0    0  0.10329819468E+02  0.28107265068E+02 -0.10954415927E+02  0.59301909802E+02  0.49999937581E+02 0.  0.
        -12    1    1    2    0    0 -0.10329819468E+02 -0.28107265068E+02  0.10954415927E+02  0.31886090198E+02  0.00000000000E+00 0.  1.
         11    1    3    3    0    0 -0.24443907273E+01  0.11098246296E+01  0.52918716670E+00  0.27362010260E+01  0.51100000000E-03 0. -1.
        -11    1    3    3    0    0  0.48781934172E+01  0.60425260225E+01  0.17964080872E+02  0.19570822507E+02  0.51100000000E-03 0.  1.
        -12    1    3    3    0    0  0.78960167777E+01  0.20954914415E+02 -0.29447683966E+02  0.36994886269E+02  0.00000000000E+00 0.  1.
</event>
<event>
 7    1  0.7284210E-013  0.5930191E+02  0.7816164E-02  0.1266605E+00
        -11   -1    0    0    0    0  0.00000000000E+00  0.00000000000E+00  0.45593999997E+02  0.45594000000E+02  0.51100000000E-03 0.  1.
         11   -1    0    0    0    0 -0.00000000000E+00 -0.00000000000E+00 -0.45593999997E+02  0.45594000000E+02  0.51100000000E-03 0. -1.
    9900012    2    1    2    0    0  0.13604245511E+02  0.25287645756E+02 -0.13862983495E+02  0.59301908437E+02  0.49999935090E+02 0.  0.
        -12    1    1    2    0    0 -0.13604245511E+02 -0.25287645756E+02  0.13862983495E+02  0.31886091563E+02  0.00000000000E+00 0.  1.
         11    1    3    3    0    0 -0.45458559934E+01  0.22515337247E+02  0.11607238070E+02  0.25735834821E+02  0.51100000000E-03 0. -1.
        -11    1    3    3    0    0  0.69418585930E+01 -0.28472001373E+01 -0.35209273083E+01  0.82881167172E+01  0.51100000000E-03 0.  1.
        -12    1    3    3    0    0  0.11208242911E+02  0.56195086465E+01 -0.21949294257E+02  0.25277956898E+02  0.00000000000E+00 0.  1.
</event>
<event>
 7    1  0.7284210E-013  0.5930202E+02  0.7816164E-02  0.1266605E+00
        -11   -1    0    0    0    0  0.00000000000E+00  0.00000000000E+00  0.45593999997E+02  0.45594000000E+02  0.51100000000E-03 0.  1.
         11   -1    0    0    0    0 -0.00000000000E+00 -0.00000000000E+00 -0.45593999997E+02  0.45594000000E+02  0.51100000000E-03 0. -1.
    9900012    2    1    2    0    0 -0.72959233369E+01 -0.18572244270E+02 -0.24870810501E+02  0.59302016096E+02  0.50000131434E+02 0.  0.
        -12    1    1    2    0    0  0.72959233369E+01  0.18572244270E+02  0.24870810501E+02  0.31885983904E+02  0.00000000000E+00 0.  1.
         11    1    3    3    0    0 -0.56243756239E+00 -0.10215682575E+02  0.48582296656E+01  0.11326027645E+02  0.51100000000E-03 0. -1.
        -11    1    3    3    0    0  0.13425350059E+02  0.26561729114E+01 -0.59786785479E+01  0.14934519616E+02  0.51100000000E-03 0.  1.
         12    1    3    3    0    0 -0.20158835833E+02 -0.11012734606E+02 -0.23750361619E+02  0.33041468834E+02  0.00000000000E+00 0. -1.
</event>
<event>
 7    1  0.7284210E-013  0.5930195E+02  0.7816164E-02  0.1266605E+00
        -11   -1    0    0    0    0  0.00000000000E+00  0.00000000000E+00  0.45593999997E+02  0.45594000000E+02  0.51100000000E-03 0.  1.
         11   -1    0    0    0    0 -0.00000000000E+00 -0.00000000000E+00 -0.45593999997E+02  0.45594000000E+02  0.51100000000E-03 0. -1.
    9900012    2    1    2    0    0  0.67348014986E+01  0.19087937623E+02  0.24637634250E+02  0.59301953908E+02  0.50000018020E+02 0.  0.
        -12    1    1    2    0    0 -0.67348014986E+01 -0.19087937623E+02 -0.24637634250E+02  0.31886046092E+02  0.00000000000E+00 0.  1.
         11    1    3    3    0    0  0.26298976249E+01 -0.66521211860E+00  0.65708965462E+01  0.71088360764E+01  0.51100000000E-03 0. -1.
        -11    1    3    3    0    0  0.71257912014E+01 -0.10702703847E+02 -0.50753636630E+01  0.13823316768E+02  0.51100000000E-03 0.  1.
         12    1    3    3    0    0 -0.30208873277E+01  0.30455853588E+02  0.23142101367E+02  0.38369801064E+02  0.00000000000E+00 0. -1.
</event>
<event>
 7    1  0.7284210E-013  0.5930195E+02  0.7816164E-02  0.1266605E+00
        -11   -1    0    0    0    0  0.00000000000E+00  0.00000000000E+00  0.45593999997E+02  0.45594000000E+02  0.51100000000E-03 0. -1.
         11   -1    0    0    0    0 -0.00000000000E+00 -0.00000000000E+00 -0.45593999997E+02  0.45594000000E+02  0.51100000000E-03 0.  1.
    9900012    2    1    2    0    0 -0.81331051313E+01  0.87137664553E+00  0.30819047261E+02  0.59301947087E+02  0.50000005579E+02 0.  0.
        -12    1    1    2    0    0  0.81331051313E+01 -0.87137664553E+00 -0.30819047261E+02  0.31886052913E+02  0.00000000000E+00 0.  1.
         11    1    3    3    0    0 -0.11576786896E+02 -0.87330766552E+01  0.27163509562E+01  0.14753548233E+02  0.51100000000E-03 0. -1.
        -11    1    3    3    0    0 -0.10203156865E+02  0.63149345687E+00 -0.18910952128E+01  0.10396125978E+02  0.51100000000E-03 0.  1.
         12    1    3    3    0    0  0.13646838629E+02  0.89729598438E+01  0.29993791517E+02  0.34152272875E+02  0.00000000000E+00 0. -1.
</event>
<event>
 7    1  0.7284210E-013  0.5930194E+02  0.7816164E-02  0.1266605E+00
        -11   -1    0    0    0    0  0.00000000000E+00  0.00000000000E+00  0.45593999997E+02  0.45594000000E+02  0.51100000000E-03 0.  1.
         11   -1    0    0    0    0 -0.00000000000E+00 -0.00000000000E+00 -0.45593999997E+02  0.45594000000E+02  0.51100000000E-03 0. -1.
    9900012    2    1    2    0    0  0.11604801477E+02  0.27062571259E+02 -0.12233824365E+02  0.59301942874E+02  0.49999997895E+02 0.  0.
        -12    1    1    2    0    0 -0.11604801477E+02 -0.27062571259E+02  0.12233824365E+02  0.31886057126E+02  0.00000000000E+00 0.  1.
         11    1    3    3    0    0  0.16062159799E+02 -0.36528894574E+01  0.65488228622E+01  0.17726354954E+02  0.51100000000E-03 0. -1.
        -11    1    3    3    0    0 -0.41832130406E+01  0.70390217531E+00  0.23686068221E+01  0.48585026659E+01  0.51100000000E-03 0.  1.
        -12    1    3    3    0    0 -0.27414528135E+00  0.30011558541E+02 -0.21151254050E+02  0.36717085254E+02  0.00000000000E+00 0.  1.
</event>
<event>
 7    1  0.7284210E-013  0.5930197E+02  0.7816164E-02  0.1266605E+00
        -11   -1    0    0    0    0  0.00000000000E+00  0.00000000000E+00  0.45593999997E+02  0.45594000000E+02  0.51100000000E-03 0. -1.
         11   -1    0    0    0    0 -0.00000000000E+00 -0.00000000000E+00 -0.45593999997E+02  0.45594000000E+02  0.51100000000E-03 0.  1.
    9900012    2    1    2    0    0  0.25370223511E+01 -0.28303934664E+02  0.14462708535E+02  0.59301966411E+02  0.50000040822E+02 0.  0.
        -12    1    1    2    0    0 -0.25370223511E+01  0.28303934664E+02 -0.14462708535E+02  0.31886033589E+02  0.00000000000E+00 0.  1.
         11    1    3    3    0    0  0.29939655059E+01 -0.18386040691E+02 -0.46906368954E+01  0.19209695377E+02  0.51100000000E-03 0. -1.
        -11    1    3    3    0    0  0.56767267931E+01  0.39164252985E+01 -0.70313995362E+01  0.98490707125E+01  0.51100000000E-03 0.  1.
         12    1    3    3    0    0 -0.61336699478E+01 -0.13834319271E+02  0.26184744966E+02  0.30243200321E+02  0.00000000000E+00 0. -1.
</event>
<event>
 7    1  0.7284210E-013  0.5930196E+02  0.7816164E-02  0.1266605E+00
        -11   -1    0    0    0    0  0.00000000000E+00  0.00000000000E+00  0.45593999997E+02  0.45594000000E+02  0.51100000000E-03 0.  1.
         11   -1    0    0    0    0 -0.00000000000E+00 -0.00000000000E+00 -0.45593999997E+02  0.45594000000E+02  0.51100000000E-03 0. -1.
    9900012    2    1    2    0    0  0.17329300469E+02  0.25666836436E+02 -0.75913525944E+01  0.59301956320E+02  0.50000022418E+02 0.  0.
        -12    1    1    2    0    0 -0.17329300469E+02 -0.25666836436E+02  0.75913525944E+01  0.31886043680E+02  0.00000000000E+00 0.  1.
         11    1    3    3    0    0  0.53107920553E+01  0.14698094990E+02 -0.51071289532E+01  0.16441449906E+02  0.51100000000E-03 0. -1.
        -11    1    3    3    0    0  0.21636238307E+02  0.14833442715E+02 -0.11947351992E+02  0.28825284920E+02  0.51100000000E-03 0.  1.
        -12    1    3    3    0    0 -0.96177298931E+01 -0.38647012691E+01  0.94631283508E+01  0.14035221494E+02  0.00000000000E+00 0.  1.
</event>
<event>
 7    1  0.7284210E-013  0.5930194E+02  0.7816164E-02  0.1266605E+00
        -11   -1    0    0    0    0  0.00000000000E+00  0.00000000000E+00  0.45593999997E+02  0.45594000000E+02  0.51100000000E-03 0.  1.
         11   -1    0    0    0    0 -0.00000000000E+00 -0.00000000000E+00 -0.45593999997E+02  0.45594000000E+02  0.51100000000E-03 0. -1.
    9900012    2    1    2    0    0  0.25299730852E+02 -0.10047965180E+02 -0.16603708225E+02  0.59301935454E+02  0.49999984363E+02 0.  0.
        -12    1    1    2    0    0 -0.25299730852E+02  0.10047965180E+02  0.16603708225E+02  0.31886064546E+02  0.00000000000E+00 0.  1.
         11    1    3    3    0    0  0.13514249932E+01  0.21634239940E+01  0.83703366052E+01  0.87503878792E+01  0.51100000000E-03 0.  1.
        -11    1    3    3    0    0  0.17128205015E+02 -0.22395439261E+02 -0.25866467890E+02  0.38262321781E+02  0.51100000000E-03 0. -1.
         12    1    3    3    0    0  0.68201008432E+01  0.10184050087E+02  0.89242305966E+00  0.12289225793E+02  0.00000000000E+00 0. -1.
</event>
<event>
 7    1  0.7284210E-013  0.5930194E+02  0.7816164E-02  0.1266605E+00
        -11   -1    0    0    0    0  0.00000000000E+00  0.00000000000E+00  0.45593999997E+02  0.45594000000E+02  0.51100000000E-03 0.  1.
         11   -1    0    0    0    0 -0.00000000000E+00 -0.00000000000E+00 -0.45593999997E+02  0.45594000000E+02  0.51100000000E-03 0. -1.
    9900012    2    1    2    0    0 -0.10214708967E+02  0.22796730841E+02 -0.19816396980E+02  0.59301940262E+02  0.49999993132E+02 0.  0.
        -12    1    1    2    0    0  0.10214708967E+02 -0.22796730841E+02  0.19816396980E+02  0.31886059738E+02  0.00000000000E+00 0.  1.
         11    1    3    3    0    0 -0.14358198718E+02  0.15693225000E+02 -0.74683850064E+00  0.21283631018E+02  0.51100000000E-03 0. -1.
        -11    1    3    3    0    0  0.89181992320E+01  0.17026541833E+02 -0.44740223529E+01  0.19734596034E+02  0.51100000000E-03 0.  1.
        -12    1    3    3    0    0 -0.47747094801E+01 -0.99230359913E+01 -0.14595536127E+02  0.18283713210E+02  0.00000000000E+00 0.  1.
</event>
<event>
 7    1  0.7284210E-013  0.5930197E+02  0.7816164E-02  0.1266605E+00
        -11   -1    0    0    0    0  0.00000000000E+00  0.00000000000E+00  0.45593999997E+02  0.45594000000E+02  0.51100000000E-03 0.  1.
         11   -1    0    0    0    0 -0.00000000000E+00 -0.00000000000E+00 -0.45593999997E+02  0.45594000000E+02  0.51100000000E-03 0. -1.
    9900012    2    1    2    0    0  0.51693774537E+01 -0.51641499186E+00 -0.31459974618E+02  0.59301966213E+02  0.50000040461E+02 0.  0.
        -12    1    1    2    0    0 -0.51693774537E+01  0.51641499186E+00  0.31459974618E+02  0.31886033787E+02  0.00000000000E+00 0.  1.
         11    1    3    3    0    0 -0.94321181270E+01 -0.26318455581E+01 -0.83988920064E+01  0.12900885652E+02  0.51100000000E-03 0. -1.
        -11    1    3    3    0    0  0.40861680777E+01  0.15055727463E+02  0.25830421071E+01  0.15812773501E+02  0.51100000000E-03 0.  1.
         12    1    3    3    0    0  0.10515327503E+02 -0.12940296896E+02 -0.25644124719E+02  0.30588307061E+02  0.00000000000E+00 0. -1.
</event>
<event>
 7    1  0.7284210E-013  0.5930193E+02  0.7816164E-02  0.1266605E+00
        -11   -1    0    0    0    0  0.00000000000E+00  0.00000000000E+00  0.45593999997E+02  0.45594000000E+02  0.51100000000E-03 0.  1.
         11   -1    0    0    0    0 -0.00000000000E+00 -0.00000000000E+00 -0.45593999997E+02  0.45594000000E+02  0.51100000000E-03 0. -1.
    9900012    2    1    2    0    0 -0.20181751004E+02  0.20468864111E+02 -0.13800138431E+02  0.59301932631E+02  0.49999979214E+02 0.  0.
        -12    1    1    2    0    0  0.20181751004E+02 -0.20468864111E+02  0.13800138431E+02  0.31886067369E+02  0.00000000000E+00 0.  1.
         11    1    3    3    0    0 -0.91827695494E+01 -0.12558117254E+01  0.27634079214E+01  0.96714395665E+01  0.51100000000E-03 0. -1.
        -11    1    3    3    0    0 -0.13353076652E+02 -0.53057943420E+00  0.86490370858E+01  0.15918291786E+02  0.51100000000E-03 0.  1.
        -12    1    3    3    0    0  0.23540951981E+01  0.22255255271E+02 -0.25212583438E+02  0.33712201278E+02  0.00000000000E+00 0.  1.
</event>
<event>
 7    1  0.7284210E-013  0.5930212E+02  0.7816164E-02  0.1266604E+00
        -11   -1    0    0    0    0  0.00000000000E+00  0.00000000000E+00  0.45593999997E+02  0.45594000000E+02  0.51100000000E-03 0.  1.
         11   -1    0    0    0    0 -0.00000000000E+00 -0.00000000000E+00 -0.45593999997E+02  0.45594000000E+02  0.51100000000E-03 0. -1.
    9900012    2    1    2    0    0  0.95736908787E+01 -0.30408969491E+02 -0.59030424936E+00  0.59302118459E+02  0.50000318119E+02 0.  0.
        -12    1    1    2    0    0 -0.95736908787E+01  0.30408969491E+02  0.59030424936E+00  0.31885881541E+02  0.00000000000E+00 0.  1.
         11    1    3    3    0    0  0.54742568885E+01 -0.17348677454E+02  0.11216502028E+02  0.21371804226E+02  0.51100000000E-03 0. -1.
        -11    1    3    3    0    0 -0.11022439839E+02 -0.16481014314E+02 -0.28664928863E+01  0.20033342071E+02  0.51100000000E-03 0.  1.
         12    1    3    3    0    0  0.15121873829E+02  0.34207222772E+01 -0.89403133905E+01  0.17896972161E+02  0.00000000000E+00 0. -1.
</event>
<event>
 7    1  0.7284210E-013  0.5930213E+02  0.7816164E-02  0.1266604E+00
        -11   -1    0    0    0    0  0.00000000000E+00  0.00000000000E+00  0.45593999997E+02  0.45594000000E+02  0.51100000000E-03 0.  1.
         11   -1    0    0    0    0 -0.00000000000E+00 -0.00000000000E+00 -0.45593999997E+02  0.45594000000E+02  0.51100000000E-03 0. -1.
    9900012    2    1    2    0    0  0.31106861141E+02 -0.37744623501E+01 -0.59012814677E+01  0.59302133240E+02  0.50000345077E+02 0.  0.
        -12    1    1    2    0    0 -0.31106861141E+02  0.37744623501E+01  0.59012814677E+01  0.31885866760E+02  0.00000000000E+00 0.  1.
         11    1    3    3    0    0  0.16466639403E+02  0.15641380310E+02 -0.97821030622E+00  0.22732353308E+02  0.51100000000E-03 0. -1.
        -11    1    3    3    0    0 -0.39588860437E+01  0.42490329058E+00 -0.82609756685E+01  0.91704438698E+01  0.51100000000E-03 0.  1.
         12    1    3    3    0    0  0.18599107781E+02 -0.19840745951E+02  0.33379045071E+01  0.27399336062E+02  0.00000000000E+00 0. -1.
</event>
<event>
 7    1  0.7284210E-013  0.5930197E+02  0.7816164E-02  0.1266605E+00
        -11   -1    0    0    0    0  0.00000000000E+00  0.00000000000E+00  0.45593999997E+02  0.45594000000E+02  0.51100000000E-03 0. -1.
         11   -1    0    0    0    0 -0.00000000000E+00 -0.00000000000E+00 -0.45593999997E+02  0.45594000000E+02  0.51100000000E-03 0.  1.
    9900012    2    1    2    0    0 -0.67485701246E+01 -0.17708029063E+02  0.25643735716E+02  0.59301973696E+02  0.50000054107E+02 0.  0.
        -12    1    1    2    0    0  0.67485701246E+01  0.17708029063E+02 -0.25643735716E+02  0.31886026304E+02  0.00000000000E+00 0.  1.
         11    1    3    3    0    0  0.22098813162E+01  0.77908734817E+01  0.29689125331E+01  0.86252957590E+01  0.51100000000E-03 0. -1.
        -11    1    3    3    0    0 -0.11620674106E+02  0.30749048566E+01  0.17934406199E+02  0.21590230025E+02  0.51100000000E-03 0.  1.
         12    1    3    3    0    0  0.26622226651E+01 -0.28573807402E+02  0.47404169835E+01  0.29086447912E+02  0.00000000000E+00 0. -1.
</event>
<event>
 7    1  0.7284210E-013  0.5930188E+02  0.7816164E-02  0.1266605E+00
        -11   -1    0    0    0    0  0.00000000000E+00  0.00000000000E+00  0.45593999997E+02  0.45594000000E+02  0.51100000000E-03 0.  1.
         11   -1    0    0    0    0 -0.00000000000E+00 -0.00000000000E+00 -0.45593999997E+02  0.45594000000E+02  0.51100000000E-03 0. -1.
    9900012    2    1    2    0    0 -0.16568799643E+02  0.18934248355E+02 -0.19588100910E+02  0.59301881082E+02  0.49999885202E+02 0.  0.
        -12    1    1    2    0    0  0.16568799643E+02 -0.18934248355E+02  0.19588100910E+02  0.31886118918E+02  0.00000000000E+00 0.  1.
         11    1    3    3    0    0  0.17147770827E+01  0.11625400078E+02 -0.80272309617E+01  0.14231191959E+02  0.51100000000E-03 0. -1.
        -11    1    3    3    0    0 -0.23072332045E+02  0.18432210065E+02 -0.14056689350E+02  0.32705800550E+02  0.51100000000E-03 0.  1.
        -12    1    3    3    0    0  0.47887553187E+01 -0.11123361787E+02  0.24958194023E+01  0.12364888574E+02  0.00000000000E+00 0.  1.
</event>
<event>
 7    1  0.7284210E-013  0.5930197E+02  0.7816164E-02  0.1266605E+00
        -11   -1    0    0    0    0  0.00000000000E+00  0.00000000000E+00  0.45593999997E+02  0.45594000000E+02  0.51100000000E-03 0.  1.
         11   -1    0    0    0    0 -0.00000000000E+00 -0.00000000000E+00 -0.45593999997E+02  0.45594000000E+02  0.51100000000E-03 0. -1.
    9900012    2    1    2    0    0  0.24892316265E+01  0.31542646565E+02  0.39476656508E+01  0.59301970293E+02  0.50000047901E+02 0.  0.
        -12    1    1    2    0    0 -0.24892316265E+01 -0.31542646565E+02 -0.39476656508E+01  0.31886029707E+02  0.00000000000E+00 0.  1.
         11    1    3    3    0    0  0.62610365938E+01  0.11003639471E+01 -0.37560610411E+01  0.73837236440E+01  0.51100000000E-03 0. -1.
        -11    1    3    3    0    0  0.34878559183E+01 -0.36043649764E+00  0.18232109911E+02  0.18566229705E+02  0.51100000000E-03 0.  1.
         12    1    3    3    0    0 -0.72596608855E+01  0.30802719115E+02 -0.10528383219E+02  0.33352016944E+02  0.00000000000E+00 0. -1.
</event>
<event>
 7    1  0.7284210E-013  0.5930194E+02  0.7816164E-02  0.1266605E+00
        -11   -1    0    0    0    0  0.00000000000E+00  0.00000000000E+00  0.45593999997E+02  0.45594000000E+02  0.51100000000E-03 0.  1.
         11   -1    0    0    0    0 -0.00000000000E+00 -0.00000000000E+00 -0.45593999997E+02  0.45594000000E+02  0.51100000000E-03 0. -1.
    9900012    2    1    2    0    0 -0.13835586638E+02  0.42030197234E+01 -0.28418866612E+02  0.59301940163E+02  0.49999992953E+02 0.  0.
        -12    1    1    2    0    0  0.13835586638E+02 -0.42030197234E+01  0.28418866612E+02  0.31886059837E+02  0.00000000000E+00 0.  1.
         11    1    3    3    0    0  0.38396399131E+01  0.16717910455E+01  0.58621036556E+01  0.72043028457E+01  0.51100000000E-03 0. -1.
        -11    1    3    3    0    0 -0.20522428740E+02 -0.28014980918E+01 -0.38443705835E+01  0.21066505604E+02  0.51100000000E-03 0.  1.
         12    1    3    3    0    0  0.28472021888E+01  0.53327267697E+01 -0.30436599684E+02  0.31031131714E+02  0.00000000000E+00 0. -1.
</event>
<event>
 7    1  0.7284210E-013  0.5930195E+02  0.7816164E-02  0.1266605E+00
        -11   -1    0    0    0    0  0.00000000000E+00  0.00000000000E+00  0.45593999997E+02  0.45594000000E+02  0.51100000000E-03 0. -1.
         11   -1    0    0    0    0 -0.00000000000E+00 -0.00000000000E+00 -0.45593999997E+02  0.45594000000E+02  0.51100000000E-03 0.  1.
    9900012    2    1    2    0    0  0.26794257903E+02 -0.15667233386E+02 -0.73024270761E+01  0.59301954467E+02  0.50000019039E+02 0.  0.
        -12    1    1    2    0    0 -0.26794257903E+02  0.15667233386E+02  0.73024270761E+01  0.31886045533E+02  0.00000000000E+00 0.  1.
         11    1    3    3    0    0  0.61631384536E+01  0.23938898882E+01  0.93039014828E+01  0.11413919899E+02  0.51100000000E-03 0. -1.
        -11    1    3    3    0    0  0.24584939908E+02 -0.25762451293E+02 -0.99699823807E+01  0.36980044833E+02  0.51100000000E-03 0.  1.
         12    1    3    3    0    0 -0.39538204590E+01  0.77013280187E+01 -0.66363461783E+01  0.10907989736E+02  0.00000000000E+00 0. -1.
</event>
<event>
 7    1  0.7284210E-013  0.5930189E+02  0.7816164E-02  0.1266605E+00
        -11   -1    0    0    0    0  0.00000000000E+00  0.00000000000E+00  0.45593999997E+02  0.45594000000E+02  0.51100000000E-03 0.  1.
         11   -1    0    0    0    0 -0.00000000000E+00 -0.00000000000E+00 -0.45593999997E+02  0.45594000000E+02  0.51100000000E-03 0. -1.
    9900012    2    1    2    0    0 -0.31669730041E+02 -0.11456368851E+01 -0.35270076191E+01  0.59301889113E+02  0.49999899849E+02 0.  0.
        -12    1    1    2    0    0  0.31669730041E+02  0.11456368851E+01  0.35270076191E+01  0.31886110887E+02  0.00000000000E+00 0.  1.
         11    1    3    3    0    0 -0.60579999691E+01 -0.14426579272E+02 -0.13983273778E+02  0.20984696780E+02  0.51100000000E-03 0. -1.
        -11    1    3    3    0    0 -0.22129808010E+01 -0.41382716612E+01  0.76989523078E+01  0.90164540295E+01  0.51100000000E-03 0.  1.
         12    1    3    3    0    0 -0.23398749271E+02  0.17419214048E+02  0.27573138517E+01  0.29300738304E+02  0.00000000000E+00 0. -1.
</event>
<event>
 7    1  0.7284210E-013  0.5930194E+02  0.7816164E-02  0.1266605E+00
        -11   -1    0    0    0    0  0.00000000000E+00  0.00000000000E+00  0.45593999997E+02  0.45594000000E+02  0.51100000000E-03 0.  1.
         11   -1    0    0    0    0 -0.00000000000E+00 -0.00000000000E+00 -0.45593999997E+02  0.45594000000E+02  0.51100000000E-03 0. -1.
    9900012    2    1    2    0    0  0.13313184928E+02  0.24806761648E+02  0.14970114078E+02  0.59301942986E+02  0.49999998100E+02 0.  0.
        -12    1    1    2    0    0 -0.13313184928E+02 -0.24806761648E+02 -0.14970114078E+02  0.31886057014E+02  0.00000000000E+00 0.  1.
         11    1    3    3    0    0  0.11821716555E+02  0.12783188646E+02  0.32163864542E+01  0.17706158148E+02  0.51100000000E-03 0. -1.
        -11    1    3    3    0    0 -0.18738364516E+00  0.17160393080E+02  0.23247047116E+02  0.28895318014E+02  0.51100000000E-03 0.  1.
         12    1    3    3    0    0  0.16788520186E+01 -0.51368200785E+01 -0.11493319492E+02  0.12700466824E+02  0.00000000000E+00 0. -1.
</event>
<event>
 7    1  0.7284210E-013  0.5930193E+02  0.7816164E-02  0.1266605E+00
        -11   -1    0    0    0    0  0.00000000000E+00  0.00000000000E+00  0.45593999997E+02  0.45594000000E+02  0.51100000000E-03 0.  1.
         11   -1    0    0    0    0 -0.00000000000E+00 -0.00000000000E+00 -0.45593999997E+02  0.45594000000E+02  0.51100000000E-03 0. -1.
    9900012    2    1    2    0    0 -0.23690926329E+02  0.40306446690E+01  0.20957466375E+02  0.59301929630E+02  0.49999973742E+02 0.  0.
        -12    1    1    2    0    0  0.23690926329E+02 -0.40306446690E+01 -0.20957466375E+02  0.31886070370E+02  0.00000000000E+00 0.  1.
         11    1    3    3    0    0 -0.91025875446E+00  0.28561709656E+01 -0.10499516320E+02  0.10919071701E+02  0.51100000000E-03 0.  1.
        -11    1    3    3    0    0 -0.25108407395E+02 -0.45825303130E+01  0.12470708083E+02  0.28406870055E+02  0.51100000000E-03 0. -1.
        -12    1    3    3    0    0  0.23277398204E+01  0.57570040164E+01  0.18986274612E+02  0.19975987874E+02  0.00000000000E+00 0.  1.
</event>
<event>
 7    1  0.7284210E-013  0.5930195E+02  0.7816164E-02  0.1266605E+00
        -11   -1    0    0    0    0  0.00000000000E+00  0.00000000000E+00  0.45593999997E+02  0.45594000000E+02  0.51100000000E-03 0. -1.
         11   -1    0    0    0    0 -0.00000000000E+00 -0.00000000000E+00 -0.45593999997E+02  0.45594000000E+02  0.51100000000E-03 0.  1.
    9900012    2    1    2    0    0 -0.55498566339E+01  0.29529359686E+02  0.10674095120E+02  0.59301948210E+02  0.50000007627E+02 0.  0.
        -12    1    1    2    0    0  0.55498566339E+01 -0.29529359686E+02 -0.10674095120E+02  0.31886051790E+02  0.00000000000E+00 0.  1.
         11    1    3    3    0    0  0.21076145990E+01  0.12436228294E+01 -0.52114322457E+01  0.57574007461E+01  0.51100000000E-03 0. -1.
        -11    1    3    3    0    0  0.16199917877E+02  0.11095994494E+02  0.13929029092E+02  0.24074390641E+02  0.51100000000E-03 0.  1.
         12    1    3    3    0    0 -0.23857389110E+02  0.17189742363E+02  0.19564982732E+01  0.29470156823E+02  0.00000000000E+00 0. -1.
</event>
<event>
 7    1  0.7284210E-013  0.5930200E+02  0.7816164E-02  0.1266605E+00
        -11   -1    0    0    0    0  0.00000000000E+00  0.00000000000E+00  0.45593999997E+02  0.45594000000E+02  0.51100000000E-03 0. -1.
         11   -1    0    0    0    0 -0.00000000000E+00 -0.00000000000E+00 -0.45593999997E+02  0.45594000000E+02  0.51100000000E-03 0.  1.
    9900012    2    1    2    0    0 -0.23790115845E+02 -0.19997216170E+02 -0.71315196544E+01  0.59302002461E+02  0.50000106569E+02 0.  0.
        -12    1    1    2    0    0  0.23790115845E+02  0.19997216170E+02  0.71315196544E+01  0.31885997539E+02  0.00000000000E+00 0.  1.
         11    1    3    3    0    0 -0.23850421266E+02 -0.11190594399E+02 -0.10939235693E+02  0.28526108662E+02  0.51100000000E-03 0. -1.
        -11    1    3    3    0    0 -0.24309310479E+01 -0.15531744720E-01 -0.12148132873E+02  0.12388978956E+02  0.51100000000E-03 0.  1.
         12    1    3    3    0    0  0.24912364688E+01 -0.87910900257E+01  0.15955848912E+02  0.18386914844E+02  0.00000000000E+00 0. -1.
</event>
<event>
 7    1  0.7284210E-013  0.5930193E+02  0.7816164E-02  0.1266605E+00
        -11   -1    0    0    0    0  0.00000000000E+00  0.00000000000E+00  0.45593999997E+02  0.45594000000E+02  0.51100000000E-03 0.  1.
         11   -1    0    0    0    0 -0.00000000000E+00 -0.00000000000E+00 -0.45593999997E+02  0.45594000000E+02  0.51100000000E-03 0. -1.
    9900012    2    1    2    0    0  0.11129692052E+02  0.86905610904E+01 -0.28588900882E+02  0.59301934848E+02  0.49999983258E+02 0.  0.
        -12    1    1    2    0    0 -0.11129692052E+02 -0.86905610904E+01  0.28588900882E+02  0.31886065152E+02  0.00000000000E+00 0.  1.
         11    1    3    3    0    0 -0.12424129105E+02 -0.28045748098E+01 -0.76899764137E+00  0.12759936580E+02  0.51100000000E-03 0. -1.
        -11    1    3    3    0    0 -0.24925032395E+01  0.10833453908E+02 -0.65091506623E+01  0.12881977278E+02  0.51100000000E-03 0.  1.
         12    1    3    3    0    0  0.26046324396E+02  0.66168199188E+00 -0.21310752578E+02  0.33660020991E+02  0.00000000000E+00 0. -1.
</event>
<event>
 7    1  0.7284210E-013  0.5930193E+02  0.7816164E-02  0.1266605E+00
        -11   -1    0    0    0    0  0.00000000000E+00  0.00000000000E+00  0.45593999997E+02  0.45594000000E+02  0.51100000000E-03 0.  1.
         11   -1    0    0    0    0 -0.00000000000E+00 -0.00000000000E+00 -0.45593999997E+02  0.45594000000E+02  0.51100000000E-03 0. -1.
    9900012    2    1    2    0    0  0.11401209282E+02  0.25333181478E+02 -0.15651318814E+02  0.59301930354E+02  0.49999975062E+02 0.  0.
        -12    1    1    2    0    0 -0.11401209282E+02 -0.25333181478E+02  0.15651318814E+02  0.31886069646E+02  0.00000000000E+00 0.  1.
         11    1    3    3    0    0 -0.10966121043E+02  0.20739059842E+01  0.29155550765E+01  0.11535049130E+02  0.51100000000E-03 0.  1.
        -11    1    3    3    0    0  0.89840093555E+01  0.18931634622E+02  0.38467846111E+01  0.21305327166E+02  0.51100000000E-03 0. -1.
        -12    1    3    3    0    0  0.13383320969E+02  0.43276408719E+01 -0.22413658502E+02  0.26461554057E+02  0.00000000000E+00 0.  1.
</event>
<event>
 7    1  0.7284210E-013  0.5930198E+02  0.7816164E-02  0.1266605E+00
        -11   -1    0    0    0    0  0.00000000000E+00  0.00000000000E+00  0.45593999997E+02  0.45594000000E+02  0.51100000000E-03 0.  1.
         11   -1    0    0    0    0 -0.00000000000E+00 -0.00000000000E+00 -0.45593999997E+02  0.45594000000E+02  0.51100000000E-03 0. -1.
    9900012    2    1    2    0    0 -0.53950182277E+01  0.29690778888E+02  0.10298999223E+02  0.59301984920E+02  0.50000074578E+02 0.  0.
        -12    1    1    2    0    0  0.53950182277E+01 -0.29690778888E+02 -0.10298999223E+02  0.31886015080E+02  0.00000000000E+00 0.  1.
         11    1    3    3    0    0  0.76097577199E+01  0.94331075360E+01 -0.70823725285E+01  0.14037518699E+02  0.51100000000E-03 0. -1.
        -11    1    3    3    0    0  0.74089313861E+01  0.10460210019E+01  0.15449105649E+02  0.17165700971E+02  0.51100000000E-03 0.  1.
        -12    1    3    3    0    0 -0.20413707334E+02  0.19211650350E+02  0.19322661033E+01  0.28098765250E+02  0.00000000000E+00 0.  1.
</event>
<event>
 7    1  0.7284210E-013  0.5930193E+02  0.7816164E-02  0.1266605E+00
        -11   -1    0    0    0    0  0.00000000000E+00  0.00000000000E+00  0.45593999997E+02  0.45594000000E+02  0.51100000000E-03 0.  1.
         11   -1    0    0    0    0 -0.00000000000E+00 -0.00000000000E+00 -0.45593999997E+02  0.45594000000E+02  0.51100000000E-03 0. -1.
    9900012    2    1    2    0    0 -0.95054398339E+00  0.30234848921E+02 -0.10083248978E+02  0.59301928855E+02  0.49999972328E+02 0.  0.
        -12    1    1    2    0    0  0.95054398339E+00 -0.30234848921E+02  0.10083248978E+02  0.31886071145E+02  0.00000000000E+00 0.  1.
         11    1    3    3    0    0 -0.57877242389E+01  0.25547495415E+02  0.41941351444E+01  0.26528532634E+02  0.51100000000E-03 0. -1.
        -11    1    3    3    0    0 -0.12775424149E+01 -0.40936341868E+01  0.74261916961E+01  0.85754462768E+01  0.51100000000E-03 0.  1.
        -12    1    3    3    0    0  0.61147226705E+01  0.87809876933E+01 -0.21703575818E+02  0.24197949944E+02  0.00000000000E+00 0.  1.
</event>
<event>
 7    1  0.7284210E-013  0.5930195E+02  0.7816164E-02  0.1266605E+00
        -11   -1    0    0    0    0  0.00000000000E+00  0.00000000000E+00  0.45593999997E+02  0.45594000000E+02  0.51100000000E-03 0.  1.
         11   -1    0    0    0    0 -0.00000000000E+00 -0.00000000000E+00 -0.45593999997E+02  0.45594000000E+02  0.51100000000E-03 0. -1.
    9900012    2    1    2    0    0 -0.11481507092E+02 -0.10343716558E+02 -0.27890905392E+02  0.59301951626E+02  0.50000013858E+02 0.  0.
        -12    1    1    2    0    0  0.11481507092E+02  0.10343716558E+02  0.27890905392E+02  0.31886048374E+02  0.00000000000E+00 0.  1.
         11    1    3    3    0    0  0.27333598904E+01  0.76320662751E+01  0.69957756594E+00  0.81368975015E+01  0.51100000000E-03 0. -1.
        -11    1    3    3    0    0  0.10780832719E+02 -0.11502180494E+02 -0.15914931596E+02  0.22401150823E+02  0.51100000000E-03 0.  1.
        -12    1    3    3    0    0 -0.24995699701E+02 -0.64736023389E+01 -0.12675551362E+02  0.28763903301E+02  0.00000000000E+00 0.  1.
</event>
<event>
 7    1  0.7284210E-013  0.5930194E+02  0.7816164E-02  0.1266605E+00
        -11   -1    0    0    0    0  0.00000000000E+00  0.00000000000E+00  0.45593999997E+02  0.45594000000E+02  0.51100000000E-03 0.  1.
         11   -1    0    0    0    0 -0.00000000000E+00 -0.00000000000E+00 -0.45593999997E+02  0.45594000000E+02  0.51100000000E-03 0. -1.
    9900012    2    1    2    0    0 -0.22891598075E+02 -0.13278835297E+02  0.17786742489E+02  0.59301938192E+02  0.49999989357E+02 0.  0.
        -12    1    1    2    0    0  0.22891598075E+02  0.13278835297E+02 -0.17786742489E+02  0.31886061808E+02  0.00000000000E+00 0.  1.
         11    1    3    3    0    0  0.26769518749E+01 -0.11584429812E+02 -0.36827264829E+01  0.12446989998E+02  0.51100000000E-03 0. -1.
        -11    1    3    3    0    0  0.55500760106E+01 -0.19091314988E+01 -0.36073396554E+01  0.68891963576E+01  0.51100000000E-03 0.  1.
        -12    1    3    3    0    0 -0.31118625960E+02  0.21472601402E+00  0.25076808627E+02  0.39965751836E+02  0.00000000000E+00 0.  1.
</event>
<event>
 7    1  0.7284210E-013  0.5930197E+02  0.7816164E-02  0.1266605E+00
        -11   -1    0    0    0    0  0.00000000000E+00  0.00000000000E+00  0.45593999997E+02  0.45594000000E+02  0.51100000000E-03 0. -1.
         11   -1    0    0    0    0 -0.00000000000E+00 -0.00000000000E+00 -0.45593999997E+02  0.45594000000E+02  0.51100000000E-03 0.  1.
    9900012    2    1    2    0    0  0.22857612288E+02 -0.13269227115E+02  0.17837493752E+02  0.59301968402E+02  0.50000044453E+02 0.  0.
        -12    1    1    2    0    0 -0.22857612288E+02  0.13269227115E+02 -0.17837493752E+02  0.31886031598E+02  0.00000000000E+00 0.  1.
         11    1    3    3    0    0  0.11419263021E+02 -0.38693368116E+01  0.87515001681E+01  0.14898325099E+02  0.51100000000E-03 0.  1.
        -11    1    3    3    0    0  0.26586302007E+02 -0.93909811681E+01  0.74757607807E+01  0.29170344208E+02  0.51100000000E-03 0. -1.
        -12    1    3    3    0    0 -0.15147952741E+02 -0.89091347680E-02  0.16102328031E+01  0.15233299094E+02  0.00000000000E+00 0.  1.
</event>
<event>
 7    1  0.7284210E-013  0.5930197E+02  0.7816164E-02  0.1266605E+00
        -11   -1    0    0    0    0  0.00000000000E+00  0.00000000000E+00  0.45593999997E+02  0.45594000000E+02  0.51100000000E-03 0. -1.
         11   -1    0    0    0    0 -0.00000000000E+00 -0.00000000000E+00 -0.45593999997E+02  0.45594000000E+02  0.51100000000E-03 0.  1.
    9900012    2    1    2    0    0  0.10502755347E+02  0.23170197302E+02  0.19223757613E+02  0.59301972188E+02  0.50000051357E+02 0.  0.
        -12    1    1    2    0    0 -0.10502755347E+02 -0.23170197302E+02 -0.19223757613E+02  0.31886027812E+02  0.00000000000E+00 0.  1.
         11    1    3    3    0    0 -0.53291034392E+01 -0.20771976470E+00 -0.46354191731E+01  0.70660881779E+01  0.51100000000E-03 0. -1.
        -11    1    3    3    0    0  0.74331973341E+01 -0.17768503443E-01 -0.85901951424E+01  0.11359761933E+02  0.51100000000E-03 0.  1.
         12    1    3    3    0    0  0.83986614519E+01  0.23395685570E+02  0.32449371929E+02  0.40876122077E+02  0.00000000000E+00 0. -1.
</event>
<event>
 7    1  0.7284210E-013  0.5930155E+02  0.7816164E-02  0.1266606E+00
        -11   -1    0    0    0    0  0.00000000000E+00  0.00000000000E+00  0.45593999997E+02  0.45594000000E+02  0.51100000000E-03 0.  1.
         11   -1    0    0    0    0 -0.00000000000E+00 -0.00000000000E+00 -0.45593999997E+02  0.45594000000E+02  0.51100000000E-03 0. -1.
    9900012    2    1    2    0    0 -0.19134842718E+02  0.24628298986E+02 -0.66370596736E+01  0.59301547110E+02  0.49999276113E+02 0.  0.
        -12    1    1    2    0    0  0.19134842718E+02 -0.24628298986E+02  0.66370596736E+01  0.31886452890E+02  0.00000000000E+00 0.  1.
         11    1    3    3    0    0  0.25769399115E+00  0.44869851309E+01  0.63640869320E+00  0.45392133728E+01  0.51100000000E-03 0. -1.
        -11    1    3    3    0    0  0.14129866214E+02  0.73818215839E+01 -0.99529991486E+01  0.18793791566E+02  0.51100000000E-03 0.  1.
         12    1    3    3    0    0 -0.33522402923E+02  0.12759492271E+02  0.26795307818E+01  0.35968542172E+02  0.00000000000E+00 0. -1.
</event>
<event>
 7    1  0.7284210E-013  0.5930196E+02  0.7816164E-02  0.1266605E+00
        -11   -1    0    0    0    0  0.00000000000E+00  0.00000000000E+00  0.45593999997E+02  0.45594000000E+02  0.51100000000E-03 0.  1.
         11   -1    0    0    0    0 -0.00000000000E+00 -0.00000000000E+00 -0.45593999997E+02  0.45594000000E+02  0.51100000000E-03 0. -1.
    9900012    2    1    2    0    0  0.21619860348E+02  0.15841111558E+02  0.17273105622E+02  0.59301963014E+02  0.50000034627E+02 0.  0.
        -12    1    1    2    0    0 -0.21619860348E+02 -0.15841111558E+02 -0.17273105622E+02  0.31886036986E+02  0.00000000000E+00 0.  1.
         11    1    3    3    0    0  0.12896329253E+02  0.94944478537E+01 -0.76100029769E+01  0.17730538453E+02  0.51100000000E-03 0. -1.
        -11    1    3    3    0    0  0.61142728519E+01 -0.90428826098E+01 -0.13972790161E+01  0.11005019187E+02  0.51100000000E-03 0.  1.
        -12    1    3    3    0    0  0.26092582426E+01  0.15389546314E+02  0.26280387615E+02  0.30566405374E+02  0.00000000000E+00 0.  1.
</event>
<event>
 7    1  0.7284210E-013  0.5930194E+02  0.7816164E-02  0.1266605E+00
        -11   -1    0    0    0    0  0.00000000000E+00  0.00000000000E+00  0.45593999997E+02  0.45594000000E+02  0.51100000000E-03 0.  1.
         11   -1    0    0    0    0 -0.00000000000E+00 -0.00000000000E+00 -0.45593999997E+02  0.45594000000E+02  0.51100000000E-03 0. -1.
    9900012    2    1    2    0    0 -0.88285788133E+01 -0.20006212137E+02 -0.23206215574E+02  0.59301940834E+02  0.49999994175E+02 0.  0.
        -12    1    1    2    0    0  0.88285788133E+01  0.20006212137E+02  0.23206215574E+02  0.31886059166E+02  0.00000000000E+00 0.  1.
         11    1    3    3    0    0 -0.43740257768E+01 -0.54155569037E+01  0.77547031899E+01  0.10420929896E+02  0.51100000000E-03 0. -1.
        -11    1    3    3    0    0  0.14617387708E+02 -0.10704966617E+02 -0.12164772446E+02  0.21823061715E+02  0.51100000000E-03 0.  1.
         12    1    3    3    0    0 -0.19071940744E+02 -0.38856886158E+01 -0.18796146317E+02  0.27057949223E+02  0.00000000000E+00 0. -1.
</event>
<event>
 7    1  0.7284210E-013  0.5930192E+02  0.7816164E-02  0.1266605E+00
        -11   -1    0    0    0    0  0.00000000000E+00  0.00000000000E+00  0.45593999997E+02  0.45594000000E+02  0.51100000000E-03 0. -1.
         11   -1    0    0    0    0 -0.00000000000E+00 -0.00000000000E+00 -0.45593999997E+02  0.45594000000E+02  0.51100000000E-03 0.  1.
    9900012    2    1    2    0    0 -0.26932073882E+02 -0.16982759506E+02 -0.17237508327E+01  0.59301920890E+02  0.49999957803E+02 0.  0.
        -12    1    1    2    0    0  0.26932073882E+02  0.16982759506E+02  0.17237508327E+01  0.31886079110E+02  0.00000000000E+00 0.  1.
         11    1    3    3    0    0 -0.27845987822E+02 -0.21222422368E+02  0.10888103650E+02  0.36665256719E+02  0.51100000000E-03 0. -1.
        -11    1    3    3    0    0 -0.67930317441E+01 -0.16038439383E+01 -0.30815680102E+00  0.69865983519E+01  0.51100000000E-03 0.  1.
         12    1    3    3    0    0  0.77069456839E+01  0.58435067997E+01 -0.12303697682E+02  0.15650065819E+02  0.00000000000E+00 0. -1.
</event>
<event>
 7    1  0.7284210E-013  0.5930195E+02  0.7816164E-02  0.1266605E+00
        -11   -1    0    0    0    0  0.00000000000E+00  0.00000000000E+00  0.45593999997E+02  0.45594000000E+02  0.51100000000E-03 0.  1.
         11   -1    0    0    0    0 -0.00000000000E+00 -0.00000000000E+00 -0.45593999997E+02  0.45594000000E+02  0.51100000000E-03 0. -1.
    9900012    2    1    2    0    0 -0.26379963970E+02 -0.17906089865E+02 -0.43565265046E+00  0.59301947461E+02  0.50000006261E+02 0.  0.
        -12    1    1    2    0    0  0.26379963970E+02  0.17906089865E+02  0.43565265046E+00  0.31886052539E+02  0.00000000000E+00 0.  1.
         11    1    3    3    0    0 -0.23183364311E+02 -0.29947167898E+01  0.40569877069E+01  0.23725426423E+02  0.51100000000E-03 0. -1.
        -11    1    3    3    0    0 -0.16607737644E+02 -0.13727051800E+02 -0.57232749544E+00  0.21554035813E+02  0.51100000000E-03 0.  1.
         12    1    3    3    0    0  0.13411137986E+02 -0.11843212745E+01 -0.39203128619E+01  0.14022485225E+02  0.00000000000E+00 0. -1.
</event>
<event>
 7    1  0.7284210E-013  0.5930194E+02  0.7816164E-02  0.1266605E+00
        -11   -1    0    0    0    0  0.00000000000E+00  0.00000000000E+00  0.45593999997E+02  0.45594000000E+02  0.51100000000E-03 0.  1.
         11   -1    0    0    0    0 -0.00000000000E+00 -0.00000000000E+00 -0.45593999997E+02  0.45594000000E+02  0.51100000000E-03 0. -1.
    9900012    2    1    2    0    0  0.12820303674E+02  0.28262879360E+02  0.73191702792E+01  0.59301940513E+02  0.49999993591E+02 0.  0.
        -12    1    1    2    0    0 -0.12820303674E+02 -0.28262879360E+02 -0.73191702792E+01  0.31886059487E+02  0.00000000000E+00 0.  1.
         11    1    3    3    0    0  0.36351111438E+01  0.81671197364E+01 -0.60046110746E+00  0.89597115813E+01  0.51100000000E-03 0. -1.
        -11    1    3    3    0    0 -0.40138196565E+01  0.29517110990E+02 -0.42186839000E+01  0.30086008103E+02  0.51100000000E-03 0.  1.
        -12    1    3    3    0    0  0.13199012187E+02 -0.94213513668E+01  0.12138315287E+02  0.20256220829E+02  0.00000000000E+00 0.  1.
</event>
<event>
 7    1  0.7284210E-013  0.5930201E+02  0.7816164E-02  0.1266605E+00
        -11   -1    0    0    0    0  0.00000000000E+00  0.00000000000E+00  0.45593999997E+02  0.45594000000E+02  0.51100000000E-03 0.  1.
         11   -1    0    0    0    0 -0.00000000000E+00 -0.00000000000E+00 -0.45593999997E+02  0.45594000000E+02  0.51100000000E-03 0. -1.
    9900012    2    1    2    0    0 -0.28008807445E+02  0.13267618894E+02  0.74962279569E+01  0.59302008731E+02  0.50000118003E+02 0.  0.
        -12    1    1    2    0    0  0.28008807445E+02 -0.13267618894E+02 -0.74962279569E+01  0.31885991269E+02  0.00000000000E+00 0.  1.
         11    1    3    3    0    0 -0.33247333562E+01 -0.79463120694E+00  0.17785584799E+02  0.18111110334E+02  0.51100000000E-03 0. -1.
        -11    1    3    3    0    0 -0.46043103444E+01 -0.81443867110E+01  0.49529993754E+00  0.93688863232E+01  0.51100000000E-03 0.  1.
         12    1    3    3    0    0 -0.20079763745E+02  0.22206636812E+02 -0.10784656779E+02  0.31822012073E+02  0.00000000000E+00 0. -1.
</event>
<event>
 7    1  0.7284210E-013  0.5930192E+02  0.7816164E-02  0.1266605E+00
        -11   -1    0    0    0    0  0.00000000000E+00  0.00000000000E+00  0.45593999997E+02  0.45594000000E+02  0.51100000000E-03 0.  1.
         11   -1    0    0    0    0 -0.00000000000E+00 -0.00000000000E+00 -0.45593999997E+02  0.45594000000E+02  0.51100000000E-03 0. -1.
    9900012    2    1    2    0    0  0.31265530048E+02 -0.20089037871E+01  0.59290083416E+01  0.59301918342E+02  0.49999953155E+02 0.  0.
        -12    1    1    2    0    0 -0.31265530048E+02  0.20089037871E+01 -0.59290083416E+01  0.31886081658E+02  0.00000000000E+00 0.  1.
         11    1    3    3    0    0  0.17630923998E+01  0.75457046721E+01 -0.37359848315E+01  0.86025424574E+01  0.51100000000E-03 0. -1.
        -11    1    3    3    0    0  0.19857440881E+01 -0.20174424856E+02  0.36726733831E+01  0.20601920490E+02  0.51100000000E-03 0.  1.
         12    1    3    3    0    0  0.27516693560E+02  0.10619816396E+02  0.59923197900E+01  0.30097455394E+02  0.00000000000E+00 0. -1.
</event>
<event>
 7    1  0.7284210E-013  0.5930196E+02  0.7816164E-02  0.1266605E+00
        -11   -1    0    0    0    0  0.00000000000E+00  0.00000000000E+00  0.45593999997E+02  0.45594000000E+02  0.51100000000E-03 0.  1.
         11   -1    0    0    0    0 -0.00000000000E+00 -0.00000000000E+00 -0.45593999997E+02  0.45594000000E+02  0.51100000000E-03 0. -1.
    9900012    2    1    2    0    0 -0.20051354264E+02  0.20880972693E+02 -0.13365920183E+02  0.59301958371E+02  0.50000026159E+02 0.  0.
        -12    1    1    2    0    0  0.20051354264E+02 -0.20880972693E+02  0.13365920183E+02  0.31886041629E+02  0.00000000000E+00 0.  1.
         11    1    3    3    0    0  0.23272886979E+01  0.52216530191E+01  0.49542935352E+01  0.75648501392E+01  0.51100000000E-03 0. -1.
        -11    1    3    3    0    0 -0.59701197069E+01 -0.43650406465E+01  0.10598234455E+02  0.12923563092E+02  0.51100000000E-03 0.  1.
         12    1    3    3    0    0 -0.16408523255E+02  0.20024360320E+02 -0.28918448173E+02  0.38813545140E+02  0.00000000000E+00 0. -1.
</event>
<event>
 7    1  0.7284210E-013  0.5930195E+02  0.7816164E-02  0.1266605E+00
        -11   -1    0    0    0    0  0.00000000000E+00  0.00000000000E+00  0.45593999997E+02  0.45594000000E+02  0.51100000000E-03 0. -1.
         11   -1    0    0    0    0 -0.00000000000E+00 -0.00000000000E+00 -0.45593999997E+02  0.45594000000E+02  0.51100000000E-03 0.  1.
    9900012    2    1    2    0    0 -0.10870919672E+02  0.11956329269E+02  0.27487983700E+02  0.59301953647E+02  0.50000017543E+02 0.  0.
        -12    1    1    2    0    0  0.10870919672E+02 -0.11956329269E+02 -0.27487983700E+02  0.31886046353E+02  0.00000000000E+00 0.  1.
         11    1    3    3    0    0 -0.10994226063E+02 -0.11152483225E+01  0.91301697175E+01  0.14334461444E+02  0.51100000000E-03 0. -1.
        -11    1    3    3    0    0 -0.15869178431E+02  0.10520480426E+02  0.21233264589E+02  0.28519517139E+02  0.51100000000E-03 0.  1.
        -12    1    3    3    0    0  0.15992484822E+02  0.25510971655E+01 -0.28754506057E+01  0.16447975064E+02  0.00000000000E+00 0.  1.
</event>
<event>
 7    1  0.7284210E-013  0.5930190E+02  0.7816164E-02  0.1266605E+00
        -11   -1    0    0    0    0  0.00000000000E+00  0.00000000000E+00  0.45593999997E+02  0.45594000000E+02  0.51100000000E-03 0.  1.
         11   -1    0    0    0    0 -0.00000000000E+00 -0.00000000000E+00 -0.45593999997E+02  0.45594000000E+02  0.51100000000E-03 0. -1.
    9900012    2    1    2    0    0 -0.57208563409E+01 -0.22632836718E+02 -0.21719808214E+02  0.59301897008E+02  0.49999914248E+02 0.  0.
        -12    1    1    2    0    0  0.57208563409E+01  0.22632836718E+02  0.21719808214E+02  0.31886102992E+02  0.00000000000E+00 0.  1.
         11    1    3    3    0    0 -0.39271894252E+01  0.61337246564E+01 -0.98112980830E+00  0.73490142811E+01  0.51100000000E-03 0.  1.
        -11    1    3    3    0    0  0.95283017878E+01 -0.33296014393E+02 -0.19371532680E+02  0.39682104129E+02  0.51100000000E-03 0. -1.
         12    1    3    3    0    0 -0.11321968703E+02  0.45294530194E+01 -0.13671457259E+01  0.12270778599E+02  0.00000000000E+00 0. -1.
</event>
<event>
 7    1  0.7284210E-013  0.5930193E+02  0.7816164E-02  0.1266605E+00
        -11   -1    0    0    0    0  0.00000000000E+00  0.00000000000E+00  0.45593999997E+02  0.45594000000E+02  0.51100000000E-03 0.  1.
         11   -1    0    0    0    0 -0.00000000000E+00 -0.00000000000E+00 -0.45593999997E+02  0.45594000000E+02  0.51100000000E-03 0. -1.
    9900012    2    1    2    0    0  0.20743003363E+02  0.27293618682E+01 -0.24062410876E+02  0.59301933734E+02  0.49999981228E+02 0.  0.
        -12    1    1    2    0    0 -0.20743003363E+02 -0.27293618682E+01  0.24062410876E+02  0.31886066266E+02  0.00000000000E+00 0.  1.
         11    1    3    3    0    0  0.20856555300E+02  0.11363293588E+02 -0.15017200094E+02  0.28100474001E+02  0.51100000000E-03 0. -1.
        -11    1    3    3    0    0  0.84321133622E+01 -0.28251188002E+01  0.75411271971E+01  0.11659778371E+02  0.51100000000E-03 0.  1.
        -12    1    3    3    0    0 -0.85456652988E+01 -0.58088129200E+01 -0.16586337979E+02  0.19541681363E+02  0.00000000000E+00 0.  1.
</event>
<event>
 7    1  0.7284210E-013  0.5930194E+02  0.7816164E-02  0.1266605E+00
        -11   -1    0    0    0    0  0.00000000000E+00  0.00000000000E+00  0.45593999997E+02  0.45594000000E+02  0.51100000000E-03 0. -1.
         11   -1    0    0    0    0 -0.00000000000E+00 -0.00000000000E+00 -0.45593999997E+02  0.45594000000E+02  0.51100000000E-03 0.  1.
    9900012    2    1    2    0    0 -0.45934277819E+01 -0.23187677027E+02  0.21399827169E+02  0.59301944308E+02  0.50000000512E+02 0.  0.
        -12    1    1    2    0    0  0.45934277819E+01  0.23187677027E+02 -0.21399827169E+02  0.31886055692E+02  0.00000000000E+00 0.  1.
         11    1    3    3    0    0 -0.18259785046E+02  0.47198239579E+01  0.49788620823E+01  0.19506038963E+02  0.51100000000E-03 0. -1.
        -11    1    3    3    0    0 -0.25194147164E+00 -0.18608001497E+01 -0.36390817176E+01  0.40949930050E+01  0.51100000000E-03 0.  1.
         12    1    3    3    0    0  0.13918298736E+02 -0.26046700836E+02  0.20060046805E+02  0.35700912340E+02  0.00000000000E+00 0. -1.
</event>
<event>
 7    1  0.7284210E-013  0.5930196E+02  0.7816164E-02  0.1266605E+00
        -11   -1    0    0    0    0  0.00000000000E+00  0.00000000000E+00  0.45593999997E+02  0.45594000000E+02  0.51100000000E-03 0.  1.
         11   -1    0    0    0    0 -0.00000000000E+00 -0.00000000000E+00 -0.45593999997E+02  0.45594000000E+02  0.51100000000E-03 0. -1.
    9900012    2    1    2    0    0 -0.12581886037E+02  0.20492191164E+02 -0.20940059627E+02  0.59301955213E+02  0.50000020400E+02 0.  0.
        -12    1    1    2    0    0  0.12581886037E+02 -0.20492191164E+02  0.20940059627E+02  0.31886044787E+02  0.00000000000E+00 0.  1.
         11    1    3    3    0    0 -0.20255340121E+02  0.53324093170E+01 -0.47660076670E+01  0.21480880379E+02  0.51100000000E-03 0. -1.
        -11    1    3    3    0    0 -0.13428945623E+01 -0.46709360476E+01 -0.15262670124E+02  0.16017805997E+02  0.51100000000E-03 0.  1.
        -12    1    3    3    0    0  0.90163486461E+01  0.19830717895E+02 -0.91138183596E+00  0.21803268837E+02  0.00000000000E+00 0.  1.
</event>
<event>
 7    1  0.7284210E-013  0.5930200E+02  0.7816164E-02  0.1266605E+00
        -11   -1    0    0    0    0  0.00000000000E+00  0.00000000000E+00  0.45593999997E+02  0.45594000000E+02  0.51100000000E-03 0. -1.
         11   -1    0    0    0    0 -0.00000000000E+00 -0.00000000000E+00 -0.45593999997E+02  0.45594000000E+02  0.51100000000E-03 0.  1.
    9900012    2    1    2    0    0 -0.25495539724E+02 -0.41127349297E+01  0.18702399734E+02  0.59302001659E+02  0.50000105105E+02 0.  0.
        -12    1    1    2    0    0  0.25495539724E+02  0.41127349297E+01 -0.18702399734E+02  0.31885998341E+02  0.00000000000E+00 0.  1.
         11    1    3    3    0    0 -0.44400085617E+01 -0.58894384146E+01  0.82577095716E+01  0.11071988462E+02  0.51100000000E-03 0. -1.
        -11    1    3    3    0    0  0.11901231732E+02  0.62531614866E+01  0.26123708033E+00  0.13446545668E+02  0.51100000000E-03 0.  1.
         12    1    3    3    0    0 -0.32956762894E+02 -0.44764580017E+01  0.10183453082E+02  0.34783467529E+02  0.00000000000E+00 0. -1.
</event>
<event>
 7    1  0.7284210E-013  0.5930194E+02  0.7816164E-02  0.1266605E+00
        -11   -1    0    0    0    0  0.00000000000E+00  0.00000000000E+00  0.45593999997E+02  0.45594000000E+02  0.51100000000E-03 0. -1.
         11   -1    0    0    0    0 -0.00000000000E+00 -0.00000000000E+00 -0.45593999997E+02  0.45594000000E+02  0.51100000000E-03 0.  1.
    9900012    2    1    2    0    0  0.14498526538E+02  0.12869716666E+02  0.25315682957E+02  0.59301942194E+02  0.49999996656E+02 0.  0.
        -12    1    1    2    0    0 -0.14498526538E+02 -0.12869716666E+02 -0.25315682957E+02  0.31886057806E+02  0.00000000000E+00 0.  1.
         11    1    3    3    0    0  0.11211289300E+02 -0.11444451046E+02  0.96813006236E+00  0.16050101046E+02  0.51100000000E-03 0.  1.
        -11    1    3    3    0    0  0.95282860372E+01 -0.36403269380E+00  0.29019827665E+01  0.99670586858E+01  0.51100000000E-03 0. -1.
        -12    1    3    3    0    0 -0.62410487997E+01  0.24678200406E+02  0.21445570128E+02  0.33284782462E+02  0.00000000000E+00 0.  1.
</event>
<event>
 7    1  0.7284210E-013  0.5930191E+02  0.7816164E-02  0.1266605E+00
        -11   -1    0    0    0    0  0.00000000000E+00  0.00000000000E+00  0.45593999997E+02  0.45594000000E+02  0.51100000000E-03 0. -1.
         11   -1    0    0    0    0 -0.00000000000E+00 -0.00000000000E+00 -0.45593999997E+02  0.45594000000E+02  0.51100000000E-03 0.  1.
    9900012    2    1    2    0    0 -0.52084445905E+01 -0.30900620368E+02 -0.58946281546E+01  0.59301907808E+02  0.49999933944E+02 0.  0.
        -12    1    1    2    0    0  0.52084445905E+01  0.30900620368E+02  0.58946281546E+01  0.31886092192E+02  0.00000000000E+00 0.  1.
         11    1    3    3    0    0 -0.14319396812E+02 -0.89390160388E+01  0.14959073226E+02  0.22554933049E+02  0.51100000000E-03 0. -1.
        -11    1    3    3    0    0 -0.23841430532E+01 -0.42067814649E+01  0.23275069652E+01  0.53664175504E+01  0.51100000000E-03 0.  1.
        -12    1    3    3    0    0  0.11495095275E+02 -0.17754822864E+02 -0.23181208346E+02  0.31380557208E+02  0.00000000000E+00 0.  1.
</event>
<event>
 7    1  0.7284210E-013  0.5930192E+02  0.7816164E-02  0.1266605E+00
        -11   -1    0    0    0    0  0.00000000000E+00  0.00000000000E+00  0.45593999997E+02  0.45594000000E+02  0.51100000000E-03 0.  1.
         11   -1    0    0    0    0 -0.00000000000E+00 -0.00000000000E+00 -0.45593999997E+02  0.45594000000E+02  0.51100000000E-03 0. -1.
    9900012    2    1    2    0    0 -0.28732795341E+02 -0.81166202919E+01  0.11192364628E+02  0.59301920293E+02  0.49999956714E+02 0.  0.
        -12    1    1    2    0    0  0.28732795341E+02  0.81166202919E+01 -0.11192364628E+02  0.31886079707E+02  0.00000000000E+00 0.  1.
         11    1    3    3    0    0  0.16572367257E+01  0.10301093084E+02 -0.49396606616E-01  0.10433666305E+02  0.51100000000E-03 0.  1.
        -11    1    3    3    0    0 -0.79586461958E+01  0.82568599381E+01 -0.18922368915E+01  0.11623095372E+02  0.51100000000E-03 0. -1.
         12    1    3    3    0    0 -0.22431385871E+02 -0.26674573314E+02  0.13133998126E+02  0.37245158616E+02  0.00000000000E+00 0. -1.
</event>
<event>
 7    1  0.7284210E-013  0.5930194E+02  0.7816164E-02  0.1266605E+00
        -11   -1    0    0    0    0  0.00000000000E+00  0.00000000000E+00  0.45593999997E+02  0.45594000000E+02  0.51100000000E-03 0.  1.
         11   -1    0    0    0    0 -0.00000000000E+00 -0.00000000000E+00 -0.45593999997E+02  0.45594000000E+02  0.51100000000E-03 0. -1.
    9900012    2    1    2    0    0 -0.81482099307E+01 -0.21901413746E+02 -0.21694595522E+02  0.59301941542E+02  0.49999995466E+02 0.  0.
        -12    1    1    2    0    0  0.81482099307E+01  0.21901413746E+02  0.21694595522E+02  0.31886058458E+02  0.00000000000E+00 0.  1.
         11    1    3    3    0    0 -0.75604389761E+01  0.77730757734E+00 -0.15623458629E+02  0.17374029595E+02  0.51100000000E-03 0. -1.
        -11    1    3    3    0    0  0.50596620313E+01  0.76282751912E+01  0.32617605388E+01  0.97175019597E+01  0.51100000000E-03 0.  1.
         12    1    3    3    0    0 -0.56474329858E+01 -0.30306996515E+02 -0.93328974314E+01  0.32210409987E+02  0.00000000000E+00 0. -1.
</event>
<event>
 7    1  0.7284210E-013  0.5930195E+02  0.7816164E-02  0.1266605E+00
        -11   -1    0    0    0    0  0.00000000000E+00  0.00000000000E+00  0.45593999997E+02  0.45594000000E+02  0.51100000000E-03 0.  1.
         11   -1    0    0    0    0 -0.00000000000E+00 -0.00000000000E+00 -0.45593999997E+02  0.45594000000E+02  0.51100000000E-03 0. -1.
    9900012    2    1    2    0    0 -0.22674717261E+02  0.22417038358E+02 -0.23134798122E+00  0.59301953938E+02  0.50000018074E+02 0.  0.
        -12    1    1    2    0    0  0.22674717261E+02 -0.22417038358E+02  0.23134798122E+00  0.31886046062E+02  0.00000000000E+00 0.  1.
         11    1    3    3    0    0 -0.39836467450E+01  0.14541098604E+02 -0.20615779293E+01  0.15217197305E+02  0.51100000000E-03 0. -1.
        -11    1    3    3    0    0 -0.56553340659E+01 -0.95688012519E+00 -0.17925844960E+02  0.18821114228E+02  0.51100000000E-03 0.  1.
         12    1    3    3    0    0 -0.13035736450E+02  0.88328198791E+01  0.19756074908E+02  0.25263642405E+02  0.00000000000E+00 0. -1.
</event>
<event>
 7    1  0.7284210E-013  0.5930181E+02  0.7816164E-02  0.1266605E+00
        -11   -1    0    0    0    0  0.00000000000E+00  0.00000000000E+00  0.45593999997E+02  0.45594000000E+02  0.51100000000E-03 0.  1.
         11   -1    0    0    0    0 -0.00000000000E+00 -0.00000000000E+00 -0.45593999997E+02  0.45594000000E+02  0.51100000000E-03 0. -1.
    9900012    2    1    2    0    0 -0.94955589223E+01 -0.24880064047E+01 -0.30337653669E+02  0.59301811058E+02  0.49999757494E+02 0.  0.
        -12    1    1    2    0    0  0.94955589223E+01  0.24880064047E+01  0.30337653669E+02  0.31886188942E+02  0.00000000000E+00 0.  1.
         11    1    3    3    0    0 -0.29280098432E+00 -0.56692037387E+01 -0.19159256491E+02  0.19982560222E+02  0.51100000000E-03 0. -1.
        -11    1    3    3    0    0 -0.18666765802E+02 -0.29940611998E+00  0.58196889116E+01  0.19555218455E+02  0.51100000000E-03 0.  1.
         12    1    3    3    0    0  0.94640078641E+01  0.34806034540E+01 -0.16998086089E+02  0.19764032381E+02  0.00000000000E+00 0. -1.
</event>
<event>
 7    1  0.7284210E-013  0.5930191E+02  0.7816164E-02  0.1266605E+00
        -11   -1    0    0    0    0  0.00000000000E+00  0.00000000000E+00  0.45593999997E+02  0.45594000000E+02  0.51100000000E-03 0. -1.
         11   -1    0    0    0    0 -0.00000000000E+00 -0.00000000000E+00 -0.45593999997E+02  0.45594000000E+02  0.51100000000E-03 0.  1.
    9900012    2    1    2    0    0 -0.30056466145E+02  0.13863364383E+01 -0.10555072496E+02  0.59301911478E+02  0.49999940637E+02 0.  0.
        -12    1    1    2    0    0  0.30056466145E+02 -0.13863364383E+01  0.10555072496E+02  0.31886088522E+02  0.00000000000E+00 0.  1.
         11    1    3    3    0    0  0.26307455929E+01 -0.13277693061E+02 -0.67889803560E+01  0.15142926069E+02  0.51100000000E-03 0. -1.
        -11    1    3    3    0    0 -0.22062126270E+02 -0.37180185907E+01 -0.48749986738E+01  0.22898180934E+02  0.51100000000E-03 0.  1.
        -12    1    3    3    0    0 -0.10625085468E+02  0.18382048090E+02  0.11089065333E+01  0.21260804474E+02  0.00000000000E+00 0.  1.
</event>
<event>
 7    1  0.7284210E-013  0.5930189E+02  0.7816164E-02  0.1266605E+00
        -11   -1    0    0    0    0  0.00000000000E+00  0.00000000000E+00  0.45593999997E+02  0.45594000000E+02  0.51100000000E-03 0. -1.
         11   -1    0    0    0    0 -0.00000000000E+00 -0.00000000000E+00 -0.45593999997E+02  0.45594000000E+02  0.51100000000E-03 0.  1.
    9900012    2    1    2    0    0 -0.10453672565E+02  0.29526309290E+02 -0.59700736424E+01  0.59301890333E+02  0.49999902073E+02 0.  0.
        -12    1    1    2    0    0  0.10453672565E+02 -0.29526309290E+02  0.59700736424E+01  0.31886109667E+02  0.00000000000E+00 0.  1.
         11    1    3    3    0    0 -0.67988418659E+01  0.18591911612E+02 -0.59925967441E+01  0.20683197144E+02  0.51100000000E-03 0.  1.
        -11    1    3    3    0    0 -0.15709457261E+02 -0.42806471838E+01  0.73575909979E+01  0.17867432197E+02  0.51100000000E-03 0. -1.
        -12    1    3    3    0    0  0.12054626562E+02  0.15215044862E+02 -0.73350678962E+01  0.20751260991E+02  0.00000000000E+00 0.  1.
</event>
<event>
 7    1  0.7284210E-013  0.5930194E+02  0.7816164E-02  0.1266605E+00
        -11   -1    0    0    0    0  0.00000000000E+00  0.00000000000E+00  0.45593999997E+02  0.45594000000E+02  0.51100000000E-03 0.  1.
         11   -1    0    0    0    0 -0.00000000000E+00 -0.00000000000E+00 -0.45593999997E+02  0.45594000000E+02  0.51100000000E-03 0. -1.
    9900012    2    1    2    0    0 -0.61319415412E+01  0.13604909809E+02 -0.28178481198E+02  0.59301935950E+02  0.49999985268E+02 0.  0.
        -12    1    1    2    0    0  0.61319415412E+01 -0.13604909809E+02  0.28178481198E+02  0.31886064050E+02  0.00000000000E+00 0.  1.
         11    1    3    3    0    0 -0.81774815737E+01  0.86024836405E+01 -0.72037395094E+01  0.13884084156E+02  0.51100000000E-03 0. -1.
        -11    1    3    3    0    0 -0.18623993965E+02  0.42103816217E+01 -0.64939361486E+01  0.20168085471E+02  0.51100000000E-03 0.  1.
         12    1    3    3    0    0  0.20669533998E+02  0.79204454722E+00 -0.14480805540E+02  0.25249766322E+02  0.00000000000E+00 0. -1.
</event>
<event>
 7    1  0.7284210E-013  0.5930196E+02  0.7816164E-02  0.1266605E+00
        -11   -1    0    0    0    0  0.00000000000E+00  0.00000000000E+00  0.45593999997E+02  0.45594000000E+02  0.51100000000E-03 0. -1.
         11   -1    0    0    0    0 -0.00000000000E+00 -0.00000000000E+00 -0.45593999997E+02  0.45594000000E+02  0.51100000000E-03 0.  1.
    9900012    2    1    2    0    0 -0.13913704082E+02  0.72854208805E+01  0.27749789888E+02  0.59301962969E+02  0.50000034545E+02 0.  0.
        -12    1    1    2    0    0  0.13913704082E+02 -0.72854208805E+01 -0.27749789888E+02  0.31886037031E+02  0.00000000000E+00 0.  1.
         11    1    3    3    0    0  0.46669973491E+01  0.40299490823E+01  0.16037388569E+02  0.17181943611E+02  0.51100000000E-03 0. -1.
        -11    1    3    3    0    0  0.96802070205E+01 -0.16535367517E+01  0.89780994827E+01  0.13305895773E+02  0.51100000000E-03 0.  1.
        -12    1    3    3    0    0 -0.28260908451E+02  0.49090085499E+01  0.27343018363E+01  0.28814123585E+02  0.00000000000E+00 0.  1.
</event>
<event>
 7    1  0.7284210E-013  0.5930193E+02  0.7816164E-02  0.1266605E+00
        -11   -1    0    0    0    0  0.00000000000E+00  0.00000000000E+00  0.45593999997E+02  0.45594000000E+02  0.51100000000E-03 0.  1.
         11   -1    0    0    0    0 -0.00000000000E+00 -0.00000000000E+00 -0.45593999997E+02  0.45594000000E+02  0.51100000000E-03 0. -1.
    9900012    2    1    2    0    0 -0.17795788485E+01  0.42290370278E+01 -0.31554231823E+02  0.59301934062E+02  0.49999981826E+02 0.  0.
        -12    1    1    2    0    0  0.17795788485E+01 -0.42290370278E+01  0.31554231823E+02  0.31886065938E+02  0.00000000000E+00 0.  1.
         11    1    3    3    0    0  0.12183029161E+02 -0.47885638098E+01 -0.19101958670E+02  0.23156885978E+02  0.51100000000E-03 0. -1.
        -11    1    3    3    0    0 -0.15773453913E+02 -0.13112436473E+00  0.48385522103E+01  0.16499413011E+02  0.51100000000E-03 0.  1.
         12    1    3    3    0    0  0.18108459033E+01  0.91487252023E+01 -0.17290825363E+02  0.19645635074E+02  0.00000000000E+00 0. -1.
</event>
<event>
 7    1  0.7284210E-013  0.5930193E+02  0.7816164E-02  0.1266605E+00
        -11   -1    0    0    0    0  0.00000000000E+00  0.00000000000E+00  0.45593999997E+02  0.45594000000E+02  0.51100000000E-03 0. -1.
         11   -1    0    0    0    0 -0.00000000000E+00 -0.00000000000E+00 -0.45593999997E+02  0.45594000000E+02  0.51100000000E-03 0.  1.
    9900012    2    1    2    0    0 -0.26187968787E+02  0.76970574294E+00  0.18174684114E+02  0.59301932529E+02  0.49999979029E+02 0.  0.
        -12    1    1    2    0    0  0.26187968787E+02 -0.76970574294E+00 -0.18174684114E+02  0.31886067471E+02  0.00000000000E+00 0.  1.
         11    1    3    3    0    0 -0.13500208027E+02 -0.17061368688E+02  0.15478835560E+02  0.26700941347E+02  0.51100000000E-03 0. -1.
        -11    1    3    3    0    0 -0.61475196776E+00  0.14603200526E+02  0.10383225242E+02  0.17928824621E+02  0.51100000000E-03 0.  1.
        -12    1    3    3    0    0 -0.12073008792E+02  0.32278739049E+01 -0.76873766877E+01  0.14672166560E+02  0.00000000000E+00 0.  1.
</event>
<event>
 7    1  0.7284210E-013  0.5930196E+02  0.7816164E-02  0.1266605E+00
        -11   -1    0    0    0    0  0.00000000000E+00  0.00000000000E+00  0.45593999997E+02  0.45594000000E+02  0.51100000000E-03 0.  1.
         11   -1    0    0    0    0 -0.00000000000E+00 -0.00000000000E+00 -0.45593999997E+02  0.45594000000E+02  0.51100000000E-03 0. -1.
    9900012    2    1    2    0    0 -0.27855646583E+02 -0.23383496312E+01 -0.15339968622E+02  0.59301959749E+02  0.50000028672E+02 0.  0.
        -12    1    1    2    0    0  0.27855646583E+02  0.23383496312E+01  0.15339968622E+02  0.31886040251E+02  0.00000000000E+00 0.  1.
         11    1    3    3    0    0 -0.71520478514E+01 -0.53533220791E+00 -0.22559135326E+02  0.23671775513E+02  0.51100000000E-03 0. -1.
        -11    1    3    3    0    0 -0.19366387814E+02  0.10699738379E+02  0.27994309771E+01  0.22301977320E+02  0.51100000000E-03 0.  1.
         12    1    3    3    0    0 -0.13372109174E+01 -0.12502755802E+02  0.44197357263E+01  0.13328206915E+02  0.00000000000E+00 0. -1.
</event>
<event>
 7    1  0.7284210E-013  0.5930206E+02  0.7816164E-02  0.1266604E+00
        -11   -1    0    0    0    0  0.00000000000E+00  0.00000000000E+00  0.45593999997E+02  0.45594000000E+02  0.51100000000E-03 0.  1.
         11   -1    0    0    0    0 -0.00000000000E+00 -0.00000000000E+00 -0.45593999997E+02  0.45594000000E+02  0.51100000000E-03 0. -1.
    9900012    2    1    2    0    0 -0.15203287538E+02  0.21599210113E+02 -0.17861890083E+02  0.59302063495E+02  0.50000217880E+02 0.  0.
        -12    1    1    2    0    0  0.15203287538E+02 -0.21599210113E+02  0.17861890083E+02  0.31885936505E+02  0.00000000000E+00 0.  1.
         11    1    3    3    0    0 -0.13981604106E+02  0.21515537802E+02 -0.17536693339E+02  0.31079562961E+02  0.51100000000E-03 0. -1.
        -11    1    3    3    0    0 -0.12988951115E+02 -0.39366843227E+01 -0.56420698948E+01  0.14698411053E+02  0.51100000000E-03 0.  1.
        -12    1    3    3    0    0  0.11767267684E+02  0.40203566334E+01  0.53168731511E+01  0.13524089482E+02  0.00000000000E+00 0.  1.
</event>
<event>
 7    1  0.7284210E-013  0.5930198E+02  0.7816164E-02  0.1266605E+00
        -11   -1    0    0    0    0  0.00000000000E+00  0.00000000000E+00  0.45593999997E+02  0.45594000000E+02  0.51100000000E-03 0. -1.
         11   -1    0    0    0    0 -0.00000000000E+00 -0.00000000000E+00 -0.45593999997E+02  0.45594000000E+02  0.51100000000E-03 0.  1.
    9900012    2    1    2    0    0 -0.16198038457E+02  0.22462160608E+02  0.15804836219E+02  0.59301984932E+02  0.50000074600E+02 0.  0.
        -12    1    1    2    0    0  0.16198038457E+02 -0.22462160608E+02 -0.15804836219E+02  0.31886015068E+02  0.00000000000E+00 0.  1.
         11    1    3    3    0    0 -0.19724737877E+02  0.10317942254E+02  0.20774955365E+02  0.30448710767E+02  0.51100000000E-03 0. -1.
        -11    1    3    3    0    0  0.44552793689E+01  0.68451358989E+01  0.10020034479E+02  0.12926967585E+02  0.51100000000E-03 0.  1.
        -12    1    3    3    0    0 -0.92857994889E+00  0.52990824545E+01 -0.14990153625E+02  0.15926306580E+02  0.00000000000E+00 0.  1.
</event>
<event>
 7    1  0.7284210E-013  0.5930196E+02  0.7816164E-02  0.1266605E+00
        -11   -1    0    0    0    0  0.00000000000E+00  0.00000000000E+00  0.45593999997E+02  0.45594000000E+02  0.51100000000E-03 0.  1.
         11   -1    0    0    0    0 -0.00000000000E+00 -0.00000000000E+00 -0.45593999997E+02  0.45594000000E+02  0.51100000000E-03 0. -1.
    9900012    2    1    2    0    0 -0.83808705393E+01  0.54596852936E+01 -0.30276599470E+02  0.59301958697E+02  0.50000026753E+02 0.  0.
        -12    1    1    2    0    0  0.83808705393E+01 -0.54596852936E+01  0.30276599470E+02  0.31886041303E+02  0.00000000000E+00 0.  1.
         11    1    3    3    0    0 -0.11483570670E+02  0.50125088440E+01 -0.46449718923E+01  0.13363136024E+02  0.51100000000E-03 0. -1.
        -11    1    3    3    0    0 -0.11544926594E+02  0.86953593773E+00  0.45091114338E+01  0.12424713639E+02  0.51100000000E-03 0.  1.
         12    1    3    3    0    0  0.14647626725E+02 -0.42235948814E+00 -0.30140739012E+02  0.33514109035E+02  0.00000000000E+00 0. -1.
</event>
<event>
 7    1  0.7284210E-013  0.5930196E+02  0.7816164E-02  0.1266605E+00
        -11   -1    0    0    0    0  0.00000000000E+00  0.00000000000E+00  0.45593999997E+02  0.45594000000E+02  0.51100000000E-03 0. -1.
         11   -1    0    0    0    0 -0.00000000000E+00 -0.00000000000E+00 -0.45593999997E+02  0.45594000000E+02  0.51100000000E-03 0.  1.
    9900012    2    1    2    0    0 -0.95834293655E+01  0.14204226065E+02  0.26890841451E+02  0.59301960571E+02  0.50000030171E+02 0.  0.
        -12    1    1    2    0    0  0.95834293655E+01 -0.14204226065E+02 -0.26890841451E+02  0.31886039429E+02  0.00000000000E+00 0.  1.
         11    1    3    3    0    0  0.73239025324E+01  0.86861018557E+01  0.66284810715E+01  0.13153884420E+02  0.51100000000E-03 0.  1.
        -11    1    3    3    0    0  0.89715270545E+01 -0.67708256461E+01  0.32420568570E+00  0.11244442503E+02  0.51100000000E-03 0. -1.
        -12    1    3    3    0    0 -0.25878858952E+02  0.12288949855E+02  0.19938154694E+02  0.34903633648E+02  0.00000000000E+00 0.  1.
</event>
<event>
 7    1  0.7284210E-013  0.5930195E+02  0.7816164E-02  0.1266605E+00
        -11   -1    0    0    0    0  0.00000000000E+00  0.00000000000E+00  0.45593999997E+02  0.45594000000E+02  0.51100000000E-03 0.  1.
         11   -1    0    0    0    0 -0.00000000000E+00 -0.00000000000E+00 -0.45593999997E+02  0.45594000000E+02  0.51100000000E-03 0. -1.
    9900012    2    1    2    0    0 -0.30528056796E+02  0.86919025236E+01 -0.30345496454E+01  0.59301954262E+02  0.50000018665E+02 0.  0.
        -12    1    1    2    0    0  0.30528056796E+02 -0.86919025236E+01  0.30345496454E+01  0.31886045738E+02  0.00000000000E+00 0.  1.
         11    1    3    3    0    0  0.63698895714E+01  0.14376203222E+02  0.46647595100E+01  0.16401545469E+02  0.51100000000E-03 0. -1.
        -11    1    3    3    0    0 -0.23887051752E+02  0.26062128933E+01  0.28697684079E+01  0.24199569377E+02  0.51100000000E-03 0.  1.
        -12    1    3    3    0    0 -0.13010894616E+02 -0.82905135919E+01 -0.10569077563E+02  0.18700839416E+02  0.00000000000E+00 0.  1.
</event>
<event>
 7    1  0.7284210E-013  0.5930202E+02  0.7816164E-02  0.1266605E+00
        -11   -1    0    0    0    0  0.00000000000E+00  0.00000000000E+00  0.45593999997E+02  0.45594000000E+02  0.51100000000E-03 0.  1.
         11   -1    0    0    0    0 -0.00000000000E+00 -0.00000000000E+00 -0.45593999997E+02  0.45594000000E+02  0.51100000000E-03 0. -1.
    9900012    2    1    2    0    0  0.55723254128E+01 -0.15176937867E+02 -0.27483188858E+02  0.59302016820E+02  0.50000132756E+02 0.  0.
        -12    1    1    2    0    0 -0.55723254128E+01  0.15176937867E+02  0.27483188858E+02  0.31885983180E+02  0.00000000000E+00 0.  1.
         11    1    3    3    0    0  0.11608032733E+02 -0.77464305372E+01 -0.57691145909E+01  0.15100870618E+02  0.51100000000E-03 0.  1.
        -11    1    3    3    0    0 -0.10954456270E+02  0.12631568944E+02 -0.15052098280E+02  0.22497162244E+02  0.51100000000E-03 0. -1.
         12    1    3    3    0    0  0.49187489496E+01 -0.20062076273E+02 -0.66619759872E+01  0.21703983959E+02  0.00000000000E+00 0. -1.
</event>
<event>
 7    1  0.7284210E-013  0.5930197E+02  0.7816164E-02  0.1266605E+00
        -11   -1    0    0    0    0  0.00000000000E+00  0.00000000000E+00  0.45593999997E+02  0.45594000000E+02  0.51100000000E-03 0.  1.
         11   -1    0    0    0    0 -0.00000000000E+00 -0.00000000000E+00 -0.45593999997E+02  0.45594000000E+02  0.51100000000E-03 0. -1.
    9900012    2    1    2    0    0  0.69963378720E+01  0.73349490414E+01 -0.30231920302E+02  0.59301965028E+02  0.50000038299E+02 0.  0.
        -12    1    1    2    0    0 -0.69963378720E+01 -0.73349490414E+01  0.30231920302E+02  0.31886034972E+02  0.00000000000E+00 0.  1.
         11    1    3    3    0    0 -0.10829264896E+02  0.10905376452E+00 -0.28734659585E+02  0.30707743855E+02  0.51100000000E-03 0. -1.
        -11    1    3    3    0    0  0.94187842312E+01 -0.40349214409E+01 -0.81057613405E+01  0.13065123597E+02  0.51100000000E-03 0.  1.
        -12    1    3    3    0    0  0.84068185368E+01  0.11260816718E+02  0.66085006230E+01  0.15529097577E+02  0.00000000000E+00 0.  1.
</event>
<event>
 7    1  0.7284210E-013  0.5930196E+02  0.7816164E-02  0.1266605E+00
        -11   -1    0    0    0    0  0.00000000000E+00  0.00000000000E+00  0.45593999997E+02  0.45594000000E+02  0.51100000000E-03 0.  1.
         11   -1    0    0    0    0 -0.00000000000E+00 -0.00000000000E+00 -0.45593999997E+02  0.45594000000E+02  0.51100000000E-03 0. -1.
    9900012    2    1    2    0    0 -0.26726390782E+02 -0.10883777747E+02  0.13563292696E+02  0.59301960875E+02  0.50000030726E+02 0.  0.
        -12    1    1    2    0    0  0.26726390782E+02  0.10883777747E+02 -0.13563292696E+02  0.31886039125E+02  0.00000000000E+00 0.  1.
         11    1    3    3    0    0 -0.37265878708E+01 -0.96795867327E+00 -0.39869764543E+01  0.55425971043E+01  0.51100000000E-03 0. -1.
        -11    1    3    3    0    0 -0.34762906636E+01 -0.20422159755E+02  0.22973977871E+02  0.30934654763E+02  0.51100000000E-03 0.  1.
         12    1    3    3    0    0 -0.19523512248E+02  0.10506340681E+02 -0.54237087203E+01  0.22824709008E+02  0.00000000000E+00 0. -1.
</event>
<event>
 7    1  0.7284210E-013  0.5930194E+02  0.7816164E-02  0.1266605E+00
        -11   -1    0    0    0    0  0.00000000000E+00  0.00000000000E+00  0.45593999997E+02  0.45594000000E+02  0.51100000000E-03 0. -1.
         11   -1    0    0    0    0 -0.00000000000E+00 -0.00000000000E+00 -0.45593999997E+02  0.45594000000E+02  0.51100000000E-03 0.  1.
    9900012    2    1    2    0    0 -0.22444295566E+02 -0.21720536208E+02 -0.64181405031E+01  0.59301943108E+02  0.49999998323E+02 0.  0.
        -12    1    1    2    0    0  0.22444295566E+02  0.21720536208E+02  0.64181405031E+01  0.31886056892E+02  0.00000000000E+00 0.  1.
         11    1    3    3    0    0 -0.20550157914E+02 -0.47546061949E+01  0.64384472560E+01  0.22053772323E+02  0.51100000000E-03 0. -1.
        -11    1    3    3    0    0 -0.10830379999E+02 -0.16650215108E+02  0.19424900575E+01  0.19957456300E+02  0.51100000000E-03 0.  1.
        -12    1    3    3    0    0  0.89362423473E+01 -0.31571490492E+00 -0.14799077817E+02  0.17290714485E+02  0.00000000000E+00 0.  1.
</event>
<event>
 7    1  0.7284210E-013  0.5930193E+02  0.7816164E-02  0.1266605E+00
        -11   -1    0    0    0    0  0.00000000000E+00  0.00000000000E+00  0.45593999997E+02  0.45594000000E+02  0.51100000000E-03 0.  1.
         11   -1    0    0    0    0 -0.00000000000E+00 -0.00000000000E+00 -0.45593999997E+02  0.45594000000E+02  0.51100000000E-03 0. -1.
    9900012    2    1    2    0    0  0.23487272199E+02  0.15295134629E+02 -0.15202897464E+02  0.59301934235E+02  0.49999982141E+02 0.  0.
        -12    1    1    2    0    0 -0.23487272199E+02 -0.15295134629E+02  0.15202897464E+02  0.31886065765E+02  0.00000000000E+00 0.  1.
         11    1    3    3    0    0  0.23501183504E+02 -0.80008919448E+01 -0.11244392767E+02  0.27253555125E+02  0.51100000000E-03 0. -1.
        -11    1    3    3    0    0  0.32442147152E+01  0.43589694053E+01  0.78109931227E+01  0.95151015348E+01  0.51100000000E-03 0.  1.
         12    1    3    3    0    0 -0.32581260200E+01  0.18937057168E+02 -0.11769497820E+02  0.22533277575E+02  0.00000000000E+00 0. -1.
</event>
<event>
 7    1  0.7284210E-013  0.5930184E+02  0.7816164E-02  0.1266605E+00
        -11   -1    0    0    0    0  0.00000000000E+00  0.00000000000E+00  0.45593999997E+02  0.45594000000E+02  0.51100000000E-03 0. -1.
         11   -1    0    0    0    0 -0.00000000000E+00 -0.00000000000E+00 -0.45593999997E+02  0.45594000000E+02  0.51100000000E-03 0.  1.
    9900012    2    1    2    0    0 -0.19852283302E+02 -0.15154618655E+02  0.19823007572E+02  0.59301839239E+02  0.49999808890E+02 0.  0.
        -12    1    1    2    0    0  0.19852283302E+02  0.15154618655E+02 -0.19823007572E+02  0.31886160761E+02  0.00000000000E+00 0.  1.
         11    1    3    3    0    0 -0.14225271514E+01 -0.89964035890E+01 -0.68538505999E+01  0.11398865265E+02  0.51100000000E-03 0. -1.
        -11    1    3    3    0    0 -0.38390368425E+00 -0.62819393011E+01 -0.71732699650E+01  0.95428478807E+01  0.51100000000E-03 0.  1.
         12    1    3    3    0    0 -0.18045852466E+02  0.12372423516E+00  0.33850128137E+02  0.38360126093E+02  0.00000000000E+00 0. -1.
</event>
<event>
 7    1  0.7284210E-013  0.5930194E+02  0.7816164E-02  0.1266605E+00
        -11   -1    0    0    0    0  0.00000000000E+00  0.00000000000E+00  0.45593999997E+02  0.45594000000E+02  0.51100000000E-03 0. -1.
         11   -1    0    0    0    0 -0.00000000000E+00 -0.00000000000E+00 -0.45593999997E+02  0.45594000000E+02  0.51100000000E-03 0.  1.
    9900012    2    1    2    0    0 -0.20192745465E+02 -0.23677577091E+02  0.69531261853E+01  0.59301943642E+02  0.49999999297E+02 0.  0.
        -12    1    1    2    0    0  0.20192745465E+02  0.23677577091E+02 -0.69531261853E+01  0.31886056358E+02  0.00000000000E+00 0.  1.
         11    1    3    3    0    0  0.44875309973E+00  0.21686579944E+01 -0.60819872075E+01  0.64726366725E+01  0.51100000000E-03 0. -1.
        -11    1    3    3    0    0  0.24801535724E+01 -0.64649111126E+01 -0.11847025079E+02  0.13722180619E+02  0.51100000000E-03 0.  1.
         12    1    3    3    0    0 -0.23121652137E+02 -0.19381323973E+02  0.24882138472E+02  0.39107126351E+02  0.00000000000E+00 0. -1.
</event>
<event>
 7    1  0.7284210E-013  0.5930196E+02  0.7816164E-02  0.1266605E+00
        -11   -1    0    0    0    0  0.00000000000E+00  0.00000000000E+00  0.45593999997E+02  0.45594000000E+02  0.51100000000E-03 0.  1.
         11   -1    0    0    0    0 -0.00000000000E+00 -0.00000000000E+00 -0.45593999997E+02  0.45594000000E+02  0.51100000000E-03 0. -1.
    9900012    2    1    2    0    0  0.10083601937E+02  0.14945845292E+02 -0.26299475954E+02  0.59301956737E+02  0.50000023179E+02 0.  0.
        -12    1    1    2    0    0 -0.10083601937E+02 -0.14945845292E+02  0.26299475954E+02  0.31886043263E+02  0.00000000000E+00 0.  1.
         11    1    3    3    0    0  0.99576845348E+01 -0.11007073213E+02 -0.15439918172E+02  0.21417334461E+02  0.51100000000E-03 0. -1.
        -11    1    3    3    0    0 -0.10738971473E+02  0.50258964780E+01 -0.75938588661E+01  0.14080193054E+02  0.51100000000E-03 0.  1.
        -12    1    3    3    0    0  0.10864888875E+02  0.20927022027E+02 -0.32656989163E+01  0.23804429222E+02  0.00000000000E+00 0.  1.
</event>
<event>
 7    1  0.7284210E-013  0.5930198E+02  0.7816164E-02  0.1266605E+00
        -11   -1    0    0    0    0  0.00000000000E+00  0.00000000000E+00  0.45593999997E+02  0.45594000000E+02  0.51100000000E-03 0.  1.
         11   -1    0    0    0    0 -0.00000000000E+00 -0.00000000000E+00 -0.45593999997E+02  0.45594000000E+02  0.51100000000E-03 0. -1.
    9900012    2    1    2    0    0 -0.82637885936E+01 -0.11314132095E+02 -0.28642948648E+02  0.59301979642E+02  0.50000064953E+02 0.  0.
        -12    1    1    2    0    0  0.82637885936E+01  0.11314132095E+02  0.28642948648E+02  0.31886020358E+02  0.00000000000E+00 0.  1.
         11    1    3    3    0    0 -0.17277257868E+00 -0.93446355162E+01  0.34703334866E+01  0.99697180534E+01  0.51100000000E-03 0. -1.
        -11    1    3    3    0    0 -0.12443846769E+02  0.14149934359E+02 -0.91686624329E+01  0.20955532345E+02  0.51100000000E-03 0.  1.
         12    1    3    3    0    0  0.43528307544E+01 -0.16119430937E+02 -0.22944619702E+02  0.28376729244E+02  0.00000000000E+00 0. -1.
</event>
<event>
 7    1  0.7284210E-013  0.5930193E+02  0.7816164E-02  0.1266605E+00
        -11   -1    0    0    0    0  0.00000000000E+00  0.00000000000E+00  0.45593999997E+02  0.45594000000E+02  0.51100000000E-03 0.  1.
         11   -1    0    0    0    0 -0.00000000000E+00 -0.00000000000E+00 -0.45593999997E+02  0.45594000000E+02  0.51100000000E-03 0. -1.
    9900012    2    1    2    0    0 -0.18654284933E+02  0.23914405965E+02 -0.98407372362E+01  0.59301933005E+02  0.49999979898E+02 0.  0.
        -12    1    1    2    0    0  0.18654284933E+02 -0.23914405965E+02  0.98407372362E+01  0.31886066995E+02  0.00000000000E+00 0.  1.
         11    1    3    3    0    0 -0.26409043604E+02  0.94830323110E+01 -0.55679191408E+01  0.28607118165E+02  0.51100000000E-03 0. -1.
        -11    1    3    3    0    0 -0.66090161083E+01  0.79329292326E+01  0.59386548226E+01  0.11911258602E+02  0.51100000000E-03 0.  1.
        -12    1    3    3    0    0  0.14363774779E+02  0.64984444218E+01 -0.10211472918E+02  0.18783556238E+02  0.00000000000E+00 0.  1.
</event>
<event>
 7    1  0.7284210E-013  0.5930195E+02  0.7816164E-02  0.1266605E+00
        -11   -1    0    0    0    0  0.00000000000E+00  0.00000000000E+00  0.45593999997E+02  0.45594000000E+02  0.51100000000E-03 0.  1.
         11   -1    0    0    0    0 -0.00000000000E+00 -0.00000000000E+00 -0.45593999997E+02  0.45594000000E+02  0.51100000000E-03 0. -1.
    9900012    2    1    2    0    0 -0.17394923036E+02  0.26723085650E+02  0.11715160449E+00  0.59301946958E+02  0.50000005345E+02 0.  0.
        -12    1    1    2    0    0  0.17394923036E+02 -0.26723085650E+02 -0.11715160449E+00  0.31886053042E+02  0.00000000000E+00 0.  1.
         11    1    3    3    0    0 -0.11433436235E+02  0.10375757856E+02  0.12236591412E+02  0.19700608743E+02  0.51100000000E-03 0. -1.
        -11    1    3    3    0    0  0.46344969661E+01  0.23822106549E+02 -0.48949198762E+01  0.24757454704E+02  0.51100000000E-03 0.  1.
         12    1    3    3    0    0 -0.10595983768E+02 -0.74747787552E+01 -0.72245199313E+01  0.14843883511E+02  0.00000000000E+00 0. -1.
</event>
<event>
 7    1  0.7284210E-013  0.5930194E+02  0.7816164E-02  0.1266605E+00
        -11   -1    0    0    0    0  0.00000000000E+00  0.00000000000E+00  0.45593999997E+02  0.45594000000E+02  0.51100000000E-03 0.  1.
         11   -1    0    0    0    0 -0.00000000000E+00 -0.00000000000E+00 -0.45593999997E+02  0.45594000000E+02  0.51100000000E-03 0. -1.
    9900012    2    1    2    0    0 -0.13636912837E+02 -0.25544984667E+02 -0.13349506080E+02  0.59301938062E+02  0.49999989119E+02 0.  0.
        -12    1    1    2    0    0  0.13636912837E+02  0.25544984667E+02  0.13349506080E+02  0.31886061938E+02  0.00000000000E+00 0.  1.
         11    1    3    3    0    0 -0.17211398821E+01  0.27612536257E+01 -0.81836722938E-01  0.32547721256E+01  0.51100000000E-03 0. -1.
        -11    1    3    3    0    0 -0.88112468999E+01  0.10786595816E+02 -0.90388636100E+01  0.16603908481E+02  0.51100000000E-03 0.  1.
         12    1    3    3    0    0 -0.31045260552E+01 -0.39092834108E+02 -0.42288057472E+01  0.39443257455E+02  0.00000000000E+00 0. -1.
</event>
<event>
 7    1  0.7284210E-013  0.5930197E+02  0.7816164E-02  0.1266605E+00
        -11   -1    0    0    0    0  0.00000000000E+00  0.00000000000E+00  0.45593999997E+02  0.45594000000E+02  0.51100000000E-03 0. -1.
         11   -1    0    0    0    0 -0.00000000000E+00 -0.00000000000E+00 -0.45593999997E+02  0.45594000000E+02  0.51100000000E-03 0.  1.
    9900012    2    1    2    0    0  0.90639840848E+01  0.25831271123E+02  0.16349572756E+02  0.59301970072E+02  0.50000047498E+02 0.  0.
        -12    1    1    2    0    0 -0.90639840848E+01 -0.25831271123E+02 -0.16349572756E+02  0.31886029928E+02  0.00000000000E+00 0.  1.
         11    1    3    3    0    0  0.17316293374E+02  0.88762619358E+01  0.47920654599E+01  0.20040108129E+02  0.51100000000E-03 0. -1.
        -11    1    3    3    0    0  0.54690639783E+00  0.67789913278E+01  0.21489461893E+02  0.22539982315E+02  0.51100000000E-03 0.  1.
        -12    1    3    3    0    0 -0.87992156874E+01  0.10176017859E+02 -0.99319545972E+01  0.16721879628E+02  0.00000000000E+00 0.  1.
</event>
<event>
 7    1  0.7284210E-013  0.5930197E+02  0.7816164E-02  0.1266605E+00
        -11   -1    0    0    0    0  0.00000000000E+00  0.00000000000E+00  0.45593999997E+02  0.45594000000E+02  0.51100000000E-03 0. -1.
         11   -1    0    0    0    0 -0.00000000000E+00 -0.00000000000E+00 -0.45593999997E+02  0.45594000000E+02  0.51100000000E-03 0.  1.
    9900012    2    1    2    0    0 -0.22356312497E-01 -0.26870511553E+02  0.17166659604E+02  0.59301967119E+02  0.50000042112E+02 0.  0.
        -12    1    1    2    0    0  0.22356312497E-01  0.26870511553E+02 -0.17166659604E+02  0.31886032881E+02  0.00000000000E+00 0.  1.
         11    1    3    3    0    0  0.48647381183E+01  0.39160557512E+01  0.13289893765E+02  0.14684088196E+02  0.51100000000E-03 0. -1.
        -11    1    3    3    0    0  0.49465619459E+01 -0.83745138548E+01  0.14885531434E+02  0.17781451114E+02  0.51100000000E-03 0.  1.
        -12    1    3    3    0    0 -0.98336563766E+01 -0.22412053450E+02 -0.11008765595E+02  0.26836427808E+02  0.00000000000E+00 0.  1.
</event>
<event>
 7    1  0.7284210E-013  0.5930195E+02  0.7816164E-02  0.1266605E+00
        -11   -1    0    0    0    0  0.00000000000E+00  0.00000000000E+00  0.45593999997E+02  0.45594000000E+02  0.51100000000E-03 0.  1.
         11   -1    0    0    0    0 -0.00000000000E+00 -0.00000000000E+00 -0.45593999997E+02  0.45594000000E+02  0.51100000000E-03 0. -1.
    9900012    2    1    2    0    0  0.81510162697E+01 -0.29852708416E+02 -0.76874549159E+01  0.59301949303E+02  0.50000009620E+02 0.  0.
        -12    1    1    2    0    0 -0.81510162697E+01  0.29852708416E+02  0.76874549159E+01  0.31886050697E+02  0.00000000000E+00 0.  1.
         11    1    3    3    0    0 -0.21163781007E+01 -0.33997307622E+01 -0.21865693856E+02  0.22229390311E+02  0.51100000000E-03 0. -1.
        -11    1    3    3    0    0 -0.47111623450E+00  0.12376107504E+01 -0.26312474899E+01  0.29456908341E+01  0.51100000000E-03 0.  1.
        -12    1    3    3    0    0  0.10738510605E+02 -0.27690588404E+02  0.16809486430E+02  0.34126868157E+02  0.00000000000E+00 0.  1.
</event>
<event>
 7    1  0.7284210E-013  0.5930179E+02  0.7816164E-02  0.1266605E+00
        -11   -1    0    0    0    0  0.00000000000E+00  0.00000000000E+00  0.45593999997E+02  0.45594000000E+02  0.51100000000E-03 0. -1.
         11   -1    0    0    0    0 -0.00000000000E+00 -0.00000000000E+00 -0.45593999997E+02  0.45594000000E+02  0.51100000000E-03 0.  1.
    9900012    2    1    2    0    0 -0.25051128242E+01 -0.18813976765E+02  0.25622046737E+02  0.59301786820E+02  0.49999713290E+02 0.  0.
        -12    1    1    2    0    0  0.25051128242E+01  0.18813976765E+02 -0.25622046737E+02  0.31886213180E+02  0.00000000000E+00 0.  1.
         11    1    3    3    0    0 -0.23299071398E+01  0.11571169154E+02  0.92341822456E+00  0.11839473145E+02  0.51100000000E-03 0. -1.
        -11    1    3    3    0    0 -0.93908326386E+01 -0.22653558981E+01  0.11615890984E+02  0.15107895241E+02  0.51100000000E-03 0.  1.
        -12    1    3    3    0    0  0.92156269543E+01 -0.28119790021E+02  0.13082737528E+02  0.32354418434E+02  0.00000000000E+00 0.  1.
</event>
<event>
 7    1  0.7284210E-013  0.5930191E+02  0.7816164E-02  0.1266605E+00
        -11   -1    0    0    0    0  0.00000000000E+00  0.00000000000E+00  0.45593999997E+02  0.45594000000E+02  0.51100000000E-03 0. -1.
         11   -1    0    0    0    0 -0.00000000000E+00 -0.00000000000E+00 -0.45593999997E+02  0.45594000000E+02  0.51100000000E-03 0.  1.
    9900012    2    1    2    0    0 -0.21084424290E+01 -0.31598973368E+02  0.37123938787E+01  0.59301913446E+02  0.49999944226E+02 0.  0.
        -12    1    1    2    0    0  0.21084424290E+01  0.31598973368E+02 -0.37123938787E+01  0.31886086554E+02  0.00000000000E+00 0.  1.
         11    1    3    3    0    0  0.16009850818E+01  0.38983835554E+01 -0.20633420703E+01  0.46923265378E+01  0.51100000000E-03 0. -1.
        -11    1    3    3    0    0 -0.11648749806E+02 -0.12383501776E+02  0.20065152526E+02  0.26299331445E+02  0.51100000000E-03 0.  1.
        -12    1    3    3    0    0  0.79393222956E+01 -0.23113855148E+02 -0.14289416577E+02  0.28310255464E+02  0.00000000000E+00 0.  1.
</event>
<event>
 7    1  0.7284210E-013  0.5930194E+02  0.7816164E-02  0.1266605E+00
        -11   -1    0    0    0    0  0.00000000000E+00  0.00000000000E+00  0.45593999997E+02  0.45594000000E+02  0.51100000000E-03 0. -1.
         11   -1    0    0    0    0 -0.00000000000E+00 -0.00000000000E+00 -0.45593999997E+02  0.45594000000E+02  0.51100000000E-03 0.  1.
    9900012    2    1    2    0    0  0.14843060521E+02  0.10385423831E+02  0.26240184621E+02  0.59301940935E+02  0.49999994359E+02 0.  0.
        -12    1    1    2    0    0 -0.14843060521E+02 -0.10385423831E+02 -0.26240184621E+02  0.31886059065E+02  0.00000000000E+00 0.  1.
         11    1    3    3    0    0  0.23984975046E+01  0.12304464676E+02  0.18212867261E+01  0.12667664617E+02  0.51100000000E-03 0. -1.
        -11    1    3    3    0    0  0.13773772495E+02  0.16230008591E+02  0.10572668418E+02  0.23767862868E+02  0.51100000000E-03 0.  1.
        -12    1    3    3    0    0 -0.13292094783E+01 -0.18149049436E+02  0.13846229477E+02  0.22866413449E+02  0.00000000000E+00 0.  1.
</event>
<event>
 7    1  0.7284210E-013  0.5930192E+02  0.7816164E-02  0.1266605E+00
        -11   -1    0    0    0    0  0.00000000000E+00  0.00000000000E+00  0.45593999997E+02  0.45594000000E+02  0.51100000000E-03 0.  1.
         11   -1    0    0    0    0 -0.00000000000E+00 -0.00000000000E+00 -0.45593999997E+02  0.45594000000E+02  0.51100000000E-03 0. -1.
    9900012    2    1    2    0    0 -0.26723678033E+02  0.10701919934E+02 -0.13712624469E+02  0.59301919531E+02  0.49999955323E+02 0.  0.
        -12    1    1    2    0    0  0.26723678033E+02 -0.10701919934E+02  0.13712624469E+02  0.31886080469E+02  0.00000000000E+00 0.  1.
         11    1    3    3    0    0 -0.32735851458E+01  0.15783576366E+02 -0.67556869998E+01  0.17477898893E+02  0.51100000000E-03 0. -1.
        -11    1    3    3    0    0  0.53972956694E+01  0.89133681322E+00 -0.10808539849E+02  0.12114033836E+02  0.51100000000E-03 0.  1.
         12    1    3    3    0    0 -0.28847388557E+02 -0.59729932456E+01  0.38516023803E+01  0.29709986802E+02  0.00000000000E+00 0. -1.
</event>
<event>
 7    1  0.7284210E-013  0.5930205E+02  0.7816164E-02  0.1266604E+00
        -11   -1    0    0    0    0  0.00000000000E+00  0.00000000000E+00  0.45593999997E+02  0.45594000000E+02  0.51100000000E-03 0.  1.
         11   -1    0    0    0    0 -0.00000000000E+00 -0.00000000000E+00 -0.45593999997E+02  0.45594000000E+02  0.51100000000E-03 0. -1.
    9900012    2    1    2    0    0  0.92602069962E+01  0.29030802835E+02 -0.93901436685E+01  0.59302050979E+02  0.50000195052E+02 0.  0.
        -12    1    1    2    0    0 -0.92602069962E+01 -0.29030802835E+02  0.93901436685E+01  0.31885949021E+02  0.00000000000E+00 0.  1.
         11    1    3    3    0    0  0.33092508576E+01  0.30609314225E+01  0.23298823165E+01  0.50743269782E+01  0.51100000000E-03 0. -1.
        -11    1    3    3    0    0 -0.43574234839E+01  0.15308751207E+02  0.16139047047E+02  0.22667462204E+02  0.51100000000E-03 0.  1.
         12    1    3    3    0    0  0.10308379622E+02  0.10661120206E+02 -0.27859073032E+02  0.31560261797E+02  0.00000000000E+00 0. -1.
</event>
<event>
 7    1  0.7284210E-013  0.5930196E+02  0.7816164E-02  0.1266605E+00
        -11   -1    0    0    0    0  0.00000000000E+00  0.00000000000E+00  0.45593999997E+02  0.45594000000E+02  0.51100000000E-03 0. -1.
         11   -1    0    0    0    0 -0.00000000000E+00 -0.00000000000E+00 -0.45593999997E+02  0.45594000000E+02  0.51100000000E-03 0.  1.
    9900012    2    1    2    0    0  0.15587204248E+02 -0.20140562568E+02  0.19186365924E+02  0.59301955494E+02  0.50000020912E+02 0.  0.
        -12    1    1    2    0    0 -0.15587204248E+02  0.20140562568E+02 -0.19186365924E+02  0.31886044506E+02  0.00000000000E+00 0.  1.
         11    1    3    3    0    0  0.11796789722E+02  0.12814547435E+01 -0.15289505092E+01  0.11964282842E+02  0.51100000000E-03 0. -1.
        -11    1    3    3    0    0  0.72943950115E+01  0.31933839297E+01 -0.66424221665E+01  0.10369555053E+02  0.51100000000E-03 0.  1.
         12    1    3    3    0    0 -0.35039804850E+01 -0.24615401241E+02  0.27357738600E+02  0.36968117599E+02  0.00000000000E+00 0. -1.
</event>
<event>
 7    1  0.7284210E-013  0.5930195E+02  0.7816164E-02  0.1266605E+00
        -11   -1    0    0    0    0  0.00000000000E+00  0.00000000000E+00  0.45593999997E+02  0.45594000000E+02  0.51100000000E-03 0.  1.
         11   -1    0    0    0    0 -0.00000000000E+00 -0.00000000000E+00 -0.45593999997E+02  0.45594000000E+02  0.51100000000E-03 0. -1.
    9900012    2    1    2    0    0 -0.11972496938E+02 -0.25418851823E+02 -0.15075202400E+02  0.59301946021E+02  0.50000003635E+02 0.  0.
        -12    1    1    2    0    0  0.11972496938E+02  0.25418851823E+02  0.15075202400E+02  0.31886053979E+02  0.00000000000E+00 0.  1.
         11    1    3    3    0    0 -0.60177113662E+01 -0.75731374646E+01 -0.19674471163E+02  0.21923733189E+02  0.51100000000E-03 0. -1.
        -11    1    3    3    0    0  0.11563524750E+02 -0.23992216882E+01  0.72735718064E+01  0.13869975358E+02  0.51100000000E-03 0.  1.
        -12    1    3    3    0    0 -0.17518310322E+02 -0.15446492671E+02 -0.26743030438E+01  0.23508237474E+02  0.00000000000E+00 0.  1.
</event>
<event>
 7    1  0.7284210E-013  0.5930195E+02  0.7816164E-02  0.1266605E+00
        -11   -1    0    0    0    0  0.00000000000E+00  0.00000000000E+00  0.45593999997E+02  0.45594000000E+02  0.51100000000E-03 0.  1.
         11   -1    0    0    0    0 -0.00000000000E+00 -0.00000000000E+00 -0.45593999997E+02  0.45594000000E+02  0.51100000000E-03 0. -1.
    9900012    2    1    2    0    0  0.53138735673E+01  0.24691315897E+02 -0.19463344574E+02  0.59301951091E+02  0.50000012882E+02 0.  0.
        -12    1    1    2    0    0 -0.53138735673E+01 -0.24691315897E+02  0.19463344574E+02  0.31886048909E+02  0.00000000000E+00 0.  1.
         11    1    3    3    0    0  0.11179662516E+02  0.17468292102E+02 -0.16066907017E+02  0.26234930614E+02  0.51100000000E-03 0. -1.
        -11    1    3    3    0    0  0.38052239587E+01  0.10494630753E+01  0.12700379454E+02  0.13299651900E+02  0.51100000000E-03 0.  1.
         12    1    3    3    0    0 -0.96710129073E+01  0.61735607199E+01 -0.16096817010E+02  0.19767368577E+02  0.00000000000E+00 0. -1.
</event>
<event>
 7    1  0.7284210E-013  0.5930193E+02  0.7816164E-02  0.1266605E+00
        -11   -1    0    0    0    0  0.00000000000E+00  0.00000000000E+00  0.45593999997E+02  0.45594000000E+02  0.51100000000E-03 0.  1.
         11   -1    0    0    0    0 -0.00000000000E+00 -0.00000000000E+00 -0.45593999997E+02  0.45594000000E+02  0.51100000000E-03 0. -1.
    9900012    2    1    2    0    0 -0.14862191512E+02  0.16542394909E+02 -0.22851383714E+02  0.59301932454E+02  0.49999978893E+02 0.  0.
        -12    1    1    2    0    0  0.14862191512E+02 -0.16542394909E+02  0.22851383714E+02  0.31886067546E+02  0.00000000000E+00 0.  1.
         11    1    3    3    0    0  0.52464002326E+01  0.11029262655E+02  0.10270195180E+01  0.12256594937E+02  0.51100000000E-03 0. -1.
        -11    1    3    3    0    0 -0.14127541304E+02  0.19829294931E+02 -0.10333165632E+02  0.26449247116E+02  0.51100000000E-03 0.  1.
         12    1    3    3    0    0 -0.59810504409E+01 -0.14316162677E+02 -0.13545237600E+02  0.20596090401E+02  0.00000000000E+00 0. -1.
</event>
<event>
 7    1  0.7284210E-013  0.5930217E+02  0.7816164E-02  0.1266604E+00
        -11   -1    0    0    0    0  0.00000000000E+00  0.00000000000E+00  0.45593999997E+02  0.45594000000E+02  0.51100000000E-03 0. -1.
         11   -1    0    0    0    0 -0.00000000000E+00 -0.00000000000E+00 -0.45593999997E+02  0.45594000000E+02  0.51100000000E-03 0.  1.
    9900012    2    1    2    0    0 -0.36653085992E+01  0.24335001208E+02  0.20275090845E+02  0.59302171177E+02  0.50000414264E+02 0.  0.
        -12    1    1    2    0    0  0.36653085992E+01 -0.24335001208E+02 -0.20275090845E+02  0.31885828823E+02  0.00000000000E+00 0.  1.
         11    1    3    3    0    0 -0.90962733049E+01 -0.77873874191E+01  0.18629436356E+02  0.22145913620E+02  0.51100000000E-03 0. -1.
        -11    1    3    3    0    0  0.10853725429E+02  0.11915662140E+02 -0.49369084186E+00  0.16125448547E+02  0.51100000000E-03 0.  1.
        -12    1    3    3    0    0 -0.54227607236E+01  0.20206726487E+02  0.21393453313E+01  0.21030809010E+02  0.00000000000E+00 0.  1.
</event>
<event>
 7    1  0.7284210E-013  0.5930196E+02  0.7816164E-02  0.1266605E+00
        -11   -1    0    0    0    0  0.00000000000E+00  0.00000000000E+00  0.45593999997E+02  0.45594000000E+02  0.51100000000E-03 0.  1.
         11   -1    0    0    0    0 -0.00000000000E+00 -0.00000000000E+00 -0.45593999997E+02  0.45594000000E+02  0.51100000000E-03 0. -1.
    9900012    2    1    2    0    0  0.12868237410E+02 -0.13889872257E+02 -0.25655396276E+02  0.59301961622E+02  0.50000032088E+02 0.  0.
        -12    1    1    2    0    0 -0.12868237410E+02  0.13889872257E+02  0.25655396276E+02  0.31886038378E+02  0.00000000000E+00 0.  1.
         11    1    3    3    0    0 -0.64584989072E+01 -0.10699270269E+02 -0.88180106871E+01  0.15295224914E+02  0.51100000000E-03 0. -1.
        -11    1    3    3    0    0  0.17886331911E+02 -0.14678362080E+02  0.51805850107E+00  0.23143974755E+02  0.51100000000E-03 0.  1.
         12    1    3    3    0    0  0.14404044061E+01  0.11487760092E+02 -0.17355444090E+02  0.20862761954E+02  0.00000000000E+00 0. -1.
</event>
<event>
 7    1  0.7284210E-013  0.5930193E+02  0.7816164E-02  0.1266605E+00
        -11   -1    0    0    0    0  0.00000000000E+00  0.00000000000E+00  0.45593999997E+02  0.45594000000E+02  0.51100000000E-03 0.  1.
         11   -1    0    0    0    0 -0.00000000000E+00 -0.00000000000E+00 -0.45593999997E+02  0.45594000000E+02  0.51100000000E-03 0. -1.
    9900012    2    1    2    0    0 -0.25357281472E+02 -0.19229662552E+02 -0.19874025803E+01  0.59301930714E+02  0.49999975718E+02 0.  0.
        -12    1    1    2    0    0  0.25357281472E+02  0.19229662552E+02  0.19874025803E+01  0.31886069286E+02  0.00000000000E+00 0.  1.
         11    1    3    3    0    0 -0.27587490803E+02  0.73769681689E+01  0.15130192790E+01  0.28596827372E+02  0.51100000000E-03 0.  1.
        -11    1    3    3    0    0 -0.48855260015E+01 -0.17117618542E+02 -0.55975309101E+01  0.18660481811E+02  0.51100000000E-03 0. -1.
        -12    1    3    3    0    0  0.71157353321E+01 -0.94890121788E+01  0.20971090508E+01  0.12044621531E+02  0.00000000000E+00 0.  1.
</event>
<event>
 7    1  0.7284210E-013  0.5930176E+02  0.7816164E-02  0.1266605E+00
        -11   -1    0    0    0    0  0.00000000000E+00  0.00000000000E+00  0.45593999997E+02  0.45594000000E+02  0.51100000000E-03 0. -1.
         11   -1    0    0    0    0 -0.00000000000E+00 -0.00000000000E+00 -0.45593999997E+02  0.45594000000E+02  0.51100000000E-03 0.  1.
    9900012    2    1    2    0    0 -0.14867128967E+02  0.23479681427E+02  0.15633472751E+02  0.59301757922E+02  0.49999660586E+02 0.  0.
        -12    1    1    2    0    0  0.14867128967E+02 -0.23479681427E+02 -0.15633472751E+02  0.31886242078E+02  0.00000000000E+00 0.  1.
         11    1    3    3    0    0 -0.44349167528E+00  0.20097669715E+02 -0.15790941450E+01  0.20164487383E+02  0.51100000000E-03 0. -1.
        -11    1    3    3    0    0 -0.66868772577E+01  0.11751029343E+02  0.22751248330E+02  0.26465455200E+02  0.51100000000E-03 0.  1.
        -12    1    3    3    0    0 -0.77367600338E+01 -0.83690176319E+01 -0.55386814341E+01  0.12671815338E+02  0.00000000000E+00 0.  1.
</event>
<event>
 7    1  0.7284210E-013  0.5930191E+02  0.7816164E-02  0.1266605E+00
        -11   -1    0    0    0    0  0.00000000000E+00  0.00000000000E+00  0.45593999997E+02  0.45594000000E+02  0.51100000000E-03 0. -1.
         11   -1    0    0    0    0 -0.00000000000E+00 -0.00000000000E+00 -0.45593999997E+02  0.45594000000E+02  0.51100000000E-03 0.  1.
    9900012    2    1    2    0    0 -0.92009475236E+01 -0.30201099902E+02 -0.44675204480E+01  0.59301911974E+02  0.49999941542E+02 0.  0.
        -12    1    1    2    0    0  0.92009475236E+01  0.30201099902E+02  0.44675204480E+01  0.31886088026E+02  0.00000000000E+00 0.  1.
         11    1    3    3    0    0  0.23045141796E+01 -0.15846128115E+02  0.30241464383E+01  0.16295889782E+02  0.51100000000E-03 0. -1.
        -11    1    3    3    0    0  0.10345023102E+02 -0.52474489582E+00 -0.12943512549E+02  0.16577978693E+02  0.51100000000E-03 0.  1.
         12    1    3    3    0    0 -0.21850484805E+02 -0.13830226891E+02  0.54518456622E+01  0.26428043500E+02  0.00000000000E+00 0. -1.
</event>
<event>
 7    1  0.7284210E-013  0.5930198E+02  0.7816164E-02  0.1266605E+00
        -11   -1    0    0    0    0  0.00000000000E+00  0.00000000000E+00  0.45593999997E+02  0.45594000000E+02  0.51100000000E-03 0. -1.
         11   -1    0    0    0    0 -0.00000000000E+00 -0.00000000000E+00 -0.45593999997E+02  0.45594000000E+02  0.51100000000E-03 0.  1.
    9900012    2    1    2    0    0 -0.14271012784E+02  0.22259807844E+02  0.17820143647E+02  0.59301978443E+02  0.50000062765E+02 0.  0.
        -12    1    1    2    0    0  0.14271012784E+02 -0.22259807844E+02 -0.17820143647E+02  0.31886021557E+02  0.00000000000E+00 0.  1.
         11    1    3    3    0    0  0.12089115097E+02  0.88174128588E+01  0.60671018185E+00  0.14975365466E+02  0.51100000000E-03 0. -1.
        -11    1    3    3    0    0 -0.86600819157E+01  0.17202828579E+02  0.17795162536E+02  0.26222168863E+02  0.51100000000E-03 0.  1.
        -12    1    3    3    0    0 -0.17700045965E+02 -0.37604335943E+01 -0.58172907086E+00  0.18104444114E+02  0.00000000000E+00 0.  1.
</event>
<event>
 7    1  0.7284210E-013  0.5930197E+02  0.7816164E-02  0.1266605E+00
        -11   -1    0    0    0    0  0.00000000000E+00  0.00000000000E+00  0.45593999997E+02  0.45594000000E+02  0.51100000000E-03 0.  1.
         11   -1    0    0    0    0 -0.00000000000E+00 -0.00000000000E+00 -0.45593999997E+02  0.45594000000E+02  0.51100000000E-03 0. -1.
    9900012    2    1    2    0    0  0.14644299518E+02  0.52812937100E+01 -0.27827525917E+02  0.59301972178E+02  0.50000051339E+02 0.  0.
        -12    1    1    2    0    0 -0.14644299518E+02 -0.52812937100E+01  0.27827525917E+02  0.31886027822E+02  0.00000000000E+00 0.  1.
         11    1    3    3    0    0 -0.47512273653E+01  0.47583255893E+00 -0.13223866976E+02  0.14059560312E+02  0.51100000000E-03 0. -1.
        -11    1    3    3    0    0  0.10936619215E+02  0.80090380084E+01 -0.26814604821E+02  0.30046253703E+02  0.51100000000E-03 0.  1.
        -12    1    3    3    0    0  0.84589076684E+01 -0.32035768573E+01  0.12210945880E+02  0.15196158163E+02  0.00000000000E+00 0.  1.
</event>
<event>
 7    1  0.7284210E-013  0.5930198E+02  0.7816164E-02  0.1266605E+00
        -11   -1    0    0    0    0  0.00000000000E+00  0.00000000000E+00  0.45593999997E+02  0.45594000000E+02  0.51100000000E-03 0. -1.
         11   -1    0    0    0    0 -0.00000000000E+00 -0.00000000000E+00 -0.45593999997E+02  0.45594000000E+02  0.51100000000E-03 0.  1.
    9900012    2    1    2    0    0  0.24828219302E+02 -0.44387562050E+01  0.19508341508E+02  0.59301977691E+02  0.50000061393E+02 0.  0.
        -12    1    1    2    0    0 -0.24828219302E+02  0.44387562050E+01 -0.19508341508E+02  0.31886022309E+02  0.00000000000E+00 0.  1.
         11    1    3    3    0    0  0.14413353997E+02  0.99942613805E+01  0.41206318142E+01  0.18016926508E+02  0.51100000000E-03 0. -1.
        -11    1    3    3    0    0  0.10805970589E+02  0.78428006504E+01 -0.13483496956E+01  0.13420006318E+02  0.51100000000E-03 0.  1.
        -12    1    3    3    0    0 -0.39110528440E+00 -0.22275818236E+02  0.16736059389E+02  0.27865044865E+02  0.00000000000E+00 0.  1.
</event>
<event>
 7    1  0.7284210E-013  0.5930192E+02  0.7816164E-02  0.1266605E+00
        -11   -1    0    0    0    0  0.00000000000E+00  0.00000000000E+00  0.45593999997E+02  0.45594000000E+02  0.51100000000E-03 0.  1.
         11   -1    0    0    0    0 -0.00000000000E+00 -0.00000000000E+00 -0.45593999997E+02  0.45594000000E+02  0.51100000000E-03 0. -1.
    9900012    2    1    2    0    0  0.19018139972E+02 -0.23636661360E+01 -0.25484216714E+02  0.59301923617E+02  0.49999962775E+02 0.  0.
        -12    1    1    2    0    0 -0.19018139972E+02  0.23636661360E+01  0.25484216714E+02  0.31886076383E+02  0.00000000000E+00 0.  1.
         11    1    3    3    0    0  0.66236988809E+01  0.13715813361E+02 -0.66263089442E+01  0.16610385110E+02  0.51100000000E-03 0. -1.
        -11    1    3    3    0    0  0.17645722775E+02 -0.48193525241E+01  0.20129790483E+01  0.18402439401E+02  0.51100000000E-03 0.  1.
         12    1    3    3    0    0 -0.52512816837E+01 -0.11260126973E+02 -0.20870886818E+02  0.24289099105E+02  0.00000000000E+00 0. -1.
</event>
<event>
 7    1  0.7284210E-013  0.5930204E+02  0.7816164E-02  0.1266604E+00
        -11   -1    0    0    0    0  0.00000000000E+00  0.00000000000E+00  0.45593999997E+02  0.45594000000E+02  0.51100000000E-03 0.  1.
         11   -1    0    0    0    0 -0.00000000000E+00 -0.00000000000E+00 -0.45593999997E+02  0.45594000000E+02  0.51100000000E-03 0. -1.
    9900012    2    1    2    0    0  0.28694715875E+02  0.71529639082E+01  0.11923202905E+02  0.59302041032E+02  0.50000176912E+02 0.  0.
        -12    1    1    2    0    0 -0.28694715875E+02 -0.71529639082E+01 -0.11923202905E+02  0.31885958968E+02  0.00000000000E+00 0.  1.
         11    1    3    3    0    0 -0.28754870805E+01 -0.13293654812E+02 -0.45997848419E+01  0.14357844722E+02  0.51100000000E-03 0. -1.
        -11    1    3    3    0    0  0.17310728117E+02  0.77620694514E+01 -0.10511188907E+01  0.19000417924E+02  0.51100000000E-03 0.  1.
        -12    1    3    3    0    0  0.14259474839E+02  0.12684549269E+02  0.17574106637E+02  0.25943778386E+02  0.00000000000E+00 0.  1.
</event>
<event>
 7    1  0.7284210E-013  0.5930192E+02  0.7816164E-02  0.1266605E+00
        -11   -1    0    0    0    0  0.00000000000E+00  0.00000000000E+00  0.45593999997E+02  0.45594000000E+02  0.51100000000E-03 0. -1.
         11   -1    0    0    0    0 -0.00000000000E+00 -0.00000000000E+00 -0.45593999997E+02  0.45594000000E+02  0.51100000000E-03 0.  1.
    9900012    2    1    2    0    0  0.15912031690E+02 -0.24227892248E+02  0.13286778694E+02  0.59301921481E+02  0.49999958880E+02 0.  0.
        -12    1    1    2    0    0 -0.15912031690E+02  0.24227892248E+02 -0.13286778694E+02  0.31886078519E+02  0.00000000000E+00 0.  1.
         11    1    3    3    0    0  0.14537823185E+01  0.10310777627E+02  0.12352453053E+02  0.16155764141E+02  0.51100000000E-03 0.  1.
        -11    1    3    3    0    0  0.16276249846E+02 -0.11997130862E+02  0.29829597933E+01  0.20438823531E+02  0.51100000000E-03 0. -1.
        -12    1    3    3    0    0 -0.18180004744E+01 -0.22541539013E+02 -0.20486341524E+01  0.22707333808E+02  0.00000000000E+00 0.  1.
</event>
<event>
 7    1  0.7284210E-013  0.5930196E+02  0.7816164E-02  0.1266605E+00
        -11   -1    0    0    0    0  0.00000000000E+00  0.00000000000E+00  0.45593999997E+02  0.45594000000E+02  0.51100000000E-03 0. -1.
         11   -1    0    0    0    0 -0.00000000000E+00 -0.00000000000E+00 -0.45593999997E+02  0.45594000000E+02  0.51100000000E-03 0.  1.
    9900012    2    1    2    0    0  0.26107381826E+02 -0.92048066525E+00 -0.18283239490E+02  0.59301960473E+02  0.50000029993E+02 0.  0.
        -12    1    1    2    0    0 -0.26107381826E+02  0.92048066525E+00  0.18283239490E+02  0.31886039527E+02  0.00000000000E+00 0.  1.
         11    1    3    3    0    0  0.12964990969E+02 -0.94378121621E+01 -0.23433125941E+01  0.16206616038E+02  0.51100000000E-03 0. -1.
        -11    1    3    3    0    0 -0.19161707175E+01 -0.94286940062E+01 -0.17120370051E+02  0.19638713089E+02  0.51100000000E-03 0.  1.
         12    1    3    3    0    0  0.15058561574E+02  0.17946025503E+02  0.11804431550E+01  0.23456631346E+02  0.00000000000E+00 0. -1.
</event>
<event>
 7    1  0.7284210E-013  0.5930183E+02  0.7816164E-02  0.1266605E+00
        -11   -1    0    0    0    0  0.00000000000E+00  0.00000000000E+00  0.45593999997E+02  0.45594000000E+02  0.51100000000E-03 0.  1.
         11   -1    0    0    0    0 -0.00000000000E+00 -0.00000000000E+00 -0.45593999997E+02  0.45594000000E+02  0.51100000000E-03 0. -1.
    9900012    2    1    2    0    0 -0.29109663976E+02  0.12837571314E+02 -0.21335858273E+01  0.59301828036E+02  0.49999788459E+02 0.  0.
        -12    1    1    2    0    0  0.29109663976E+02 -0.12837571314E+02  0.21335858273E+01  0.31886171964E+02  0.00000000000E+00 0.  1.
         11    1    3    3    0    0 -0.28046873259E+02 -0.18746317838E+01 -0.12939808385E+02  0.30944789307E+02  0.51100000000E-03 0. -1.
        -11    1    3    3    0    0 -0.83644983226E+01 -0.14418515636E+01  0.36557945620E+01  0.92416774593E+01  0.51100000000E-03 0.  1.
        -12    1    3    3    0    0  0.73017076060E+01  0.16154054662E+02  0.71504279954E+01  0.19115361270E+02  0.00000000000E+00 0.  1.
</event>
<event>
 7    1  0.7284210E-013  0.5930208E+02  0.7816164E-02  0.1266604E+00
        -11   -1    0    0    0    0  0.00000000000E+00  0.00000000000E+00  0.45593999997E+02  0.45594000000E+02  0.51100000000E-03 0. -1.
         11   -1    0    0    0    0 -0.00000000000E+00 -0.00000000000E+00 -0.45593999997E+02  0.45594000000E+02  0.51100000000E-03 0.  1.
    9900012    2    1    2    0    0 -0.10959066755E+02 -0.41256440389E+01  0.29657876303E+02  0.59302082894E+02  0.50000253258E+02 0.  0.
        -12    1    1    2    0    0  0.10959066755E+02  0.41256440389E+01 -0.29657876303E+02  0.31885917106E+02  0.00000000000E+00 0.  1.
         11    1    3    3    0    0 -0.13665687929E+02 -0.76117772053E+01  0.29770695264E+02  0.33630112631E+02  0.51100000000E-03 0. -1.
        -11    1    3    3    0    0 -0.93086838537E+01  0.65130065800E+01  0.48125657641E+01  0.12338218643E+02  0.51100000000E-03 0.  1.
        -12    1    3    3    0    0  0.12015305028E+02 -0.30268734136E+01 -0.49253847251E+01  0.13333751620E+02  0.00000000000E+00 0.  1.
</event>
<event>
 7    1  0.7284210E-013  0.5930193E+02  0.7816164E-02  0.1266605E+00
        -11   -1    0    0    0    0  0.00000000000E+00  0.00000000000E+00  0.45593999997E+02  0.45594000000E+02  0.51100000000E-03 0. -1.
         11   -1    0    0    0    0 -0.00000000000E+00 -0.00000000000E+00 -0.45593999997E+02  0.45594000000E+02  0.51100000000E-03 0.  1.
    9900012    2    1    2    0    0  0.97431355192E+01  0.28210467775E+02  0.11223295352E+02  0.59301928740E+02  0.49999972118E+02 0.  0.
        -12    1    1    2    0    0 -0.97431355192E+01 -0.28210467775E+02 -0.11223295352E+02  0.31886071260E+02  0.00000000000E+00 0.  1.
         11    1    3    3    0    0 -0.40720099892E+01 -0.56496524078E+01  0.93552169638E+01  0.11662757923E+02  0.51100000000E-03 0. -1.
        -11    1    3    3    0    0 -0.90232788240E+01  0.71429360045E+01  0.45805451473E+01  0.12386383234E+02  0.51100000000E-03 0.  1.
         12    1    3    3    0    0  0.22838424332E+02  0.26717184179E+02 -0.27124667588E+01  0.35252787583E+02  0.00000000000E+00 0. -1.
</event>
<event>
 7    1  0.7284210E-013  0.5930196E+02  0.7816164E-02  0.1266605E+00
        -11   -1    0    0    0    0  0.00000000000E+00  0.00000000000E+00  0.45593999997E+02  0.45594000000E+02  0.51100000000E-03 0.  1.
         11   -1    0    0    0    0 -0.00000000000E+00 -0.00000000000E+00 -0.45593999997E+02  0.45594000000E+02  0.51100000000E-03 0. -1.
    9900012    2    1    2    0    0  0.17986538925E+02 -0.86730430865E+01 -0.24859245483E+02  0.59301963168E+02  0.50000034907E+02 0.  0.
        -12    1    1    2    0    0 -0.17986538925E+02  0.86730430865E+01  0.24859245483E+02  0.31886036832E+02  0.00000000000E+00 0.  1.
         11    1    3    3    0    0 -0.69570985298E+01 -0.36047654745E-01 -0.62296022160E+00  0.69850267777E+01  0.51100000000E-03 0. -1.
        -11    1    3    3    0    0 -0.55646932604E+01  0.90641373432E+01 -0.26394640165E+01  0.10958611564E+02  0.51100000000E-03 0.  1.
         12    1    3    3    0    0  0.30508330715E+02 -0.17701132775E+02 -0.21596821245E+02  0.41358324826E+02  0.00000000000E+00 0. -1.
</event>
<event>
 7    1  0.7284210E-013  0.5930196E+02  0.7816164E-02  0.1266605E+00
        -11   -1    0    0    0    0  0.00000000000E+00  0.00000000000E+00  0.45593999997E+02  0.45594000000E+02  0.51100000000E-03 0.  1.
         11   -1    0    0    0    0 -0.00000000000E+00 -0.00000000000E+00 -0.45593999997E+02  0.45594000000E+02  0.51100000000E-03 0. -1.
    9900012    2    1    2    0    0  0.99733722524E+01  0.28732209899E+02 -0.95766104827E+01  0.59301960608E+02  0.50000030238E+02 0.  0.
        -12    1    1    2    0    0 -0.99733722524E+01 -0.28732209899E+02  0.95766104827E+01  0.31886039392E+02  0.00000000000E+00 0.  1.
         11    1    3    3    0    0  0.11171204727E+02  0.70110561098E+01 -0.14812955308E+02  0.19833667539E+02  0.51100000000E-03 0. -1.
        -11    1    3    3    0    0  0.12893597887E+02  0.15431938419E+02  0.11089294304E+02  0.22964364530E+02  0.51100000000E-03 0.  1.
         12    1    3    3    0    0 -0.14091430362E+02  0.62892153705E+01 -0.58529494791E+01  0.16503928539E+02  0.00000000000E+00 0. -1.
</event>
<event>
 7    1  0.7284210E-013  0.5930202E+02  0.7816164E-02  0.1266605E+00
        -11   -1    0    0    0    0  0.00000000000E+00  0.00000000000E+00  0.45593999997E+02  0.45594000000E+02  0.51100000000E-03 0. -1.
         11   -1    0    0    0    0 -0.00000000000E+00 -0.00000000000E+00 -0.45593999997E+02  0.45594000000E+02  0.51100000000E-03 0.  1.
    9900012    2    1    2    0    0  0.25002563419E+02 -0.12432371591E+02  0.15395579468E+02  0.59302017060E+02  0.50000133193E+02 0.  0.
        -12    1    1    2    0    0 -0.25002563419E+02  0.12432371591E+02 -0.15395579468E+02  0.31885982940E+02  0.00000000000E+00 0.  1.
         11    1    3    3    0    0  0.29705626616E+02 -0.12442213318E+02  0.20629547489E+02  0.38246714300E+02  0.51100000000E-03 0. -1.
        -11    1    3    3    0    0  0.63480869003E+00 -0.14981730636E+01  0.72310503465E+01  0.74118549619E+01  0.51100000000E-03 0.  1.
        -12    1    3    3    0    0 -0.53378718867E+01  0.15080147908E+01 -0.12465018368E+02  0.13643447797E+02  0.00000000000E+00 0.  1.
</event>
<event>
 7    1  0.7284210E-013  0.5930194E+02  0.7816164E-02  0.1266605E+00
        -11   -1    0    0    0    0  0.00000000000E+00  0.00000000000E+00  0.45593999997E+02  0.45594000000E+02  0.51100000000E-03 0.  1.
         11   -1    0    0    0    0 -0.00000000000E+00 -0.00000000000E+00 -0.45593999997E+02  0.45594000000E+02  0.51100000000E-03 0. -1.
    9900012    2    1    2    0    0 -0.13275838429E+02  0.25702961939E+02 -0.13410084949E+02  0.59301944792E+02  0.50000001393E+02 0.  0.
        -12    1    1    2    0    0  0.13275838429E+02 -0.25702961939E+02  0.13410084949E+02  0.31886055208E+02  0.00000000000E+00 0.  1.
         11    1    3    3    0    0 -0.10929076559E+02  0.20079085277E+02 -0.22832940971E+02  0.32310332305E+02  0.51100000000E-03 0. -1.
        -11    1    3    3    0    0 -0.45346957665E+01 -0.74009515951E+01 -0.26733386472E+01  0.90820862136E+01  0.51100000000E-03 0.  1.
        -12    1    3    3    0    0  0.21879338965E+01  0.13024828257E+02  0.12096194669E+02  0.17909526273E+02  0.00000000000E+00 0.  1.
</event>
<event>
 7    1  0.7284210E-013  0.5930193E+02  0.7816164E-02  0.1266605E+00
        -11   -1    0    0    0    0  0.00000000000E+00  0.00000000000E+00  0.45593999997E+02  0.45594000000E+02  0.51100000000E-03 0.  1.
         11   -1    0    0    0    0 -0.00000000000E+00 -0.00000000000E+00 -0.45593999997E+02  0.45594000000E+02  0.51100000000E-03 0. -1.
    9900012    2    1    2    0    0  0.33634840632E+01  0.28131556136E+01 -0.31583140047E+02  0.59301927730E+02  0.49999970277E+02 0.  0.
        -12    1    1    2    0    0 -0.33634840632E+01 -0.28131556136E+01  0.31583140047E+02  0.31886072270E+02  0.00000000000E+00 0.  1.
         11    1    3    3    0    0 -0.28601678032E+01  0.93438660485E+01 -0.22466119336E+02  0.24499283885E+02  0.51100000000E-03 0. -1.
        -11    1    3    3    0    0 -0.87589396821E+01  0.53508683620E+01 -0.11635355103E+02  0.15515550432E+02  0.51100000000E-03 0.  1.
        -12    1    3    3    0    0  0.14982591548E+02 -0.11881578797E+02  0.25183343913E+01  0.19287093413E+02  0.00000000000E+00 0.  1.
</event>
<event>
 7    1  0.7284210E-013  0.5930195E+02  0.7816164E-02  0.1266605E+00
        -11   -1    0    0    0    0  0.00000000000E+00  0.00000000000E+00  0.45593999997E+02  0.45594000000E+02  0.51100000000E-03 0. -1.
         11   -1    0    0    0    0 -0.00000000000E+00 -0.00000000000E+00 -0.45593999997E+02  0.45594000000E+02  0.51100000000E-03 0.  1.
    9900012    2    1    2    0    0  0.23043439791E+02  0.16655566839E+02  0.14433029433E+02  0.59301947206E+02  0.50000005797E+02 0.  0.
        -12    1    1    2    0    0 -0.23043439791E+02 -0.16655566839E+02 -0.14433029433E+02  0.31886052794E+02  0.00000000000E+00 0.  1.
         11    1    3    3    0    0  0.84979513238E+01 -0.87779891092E+01  0.14679342197E+02  0.19098464784E+02  0.51100000000E-03 0. -1.
        -11    1    3    3    0    0  0.15774483703E+02  0.13185231777E+01  0.19887428578E+01  0.15953931737E+02  0.51100000000E-03 0.  1.
        -12    1    3    3    0    0 -0.12289952354E+01  0.24115032770E+02 -0.22350556219E+01  0.24249550685E+02  0.00000000000E+00 0.  1.
</event>
<event>
 7    1  0.7284210E-013  0.5930213E+02  0.7816164E-02  0.1266604E+00
        -11   -1    0    0    0    0  0.00000000000E+00  0.00000000000E+00  0.45593999997E+02  0.45594000000E+02  0.51100000000E-03 0.  1.
         11   -1    0    0    0    0 -0.00000000000E+00 -0.00000000000E+00 -0.45593999997E+02  0.45594000000E+02  0.51100000000E-03 0. -1.
    9900012    2    1    2    0    0 -0.29134947575E+02  0.89024786652E+01  0.94132586408E+01  0.59302129543E+02  0.50000338334E+02 0.  0.
        -12    1    1    2    0    0  0.29134947575E+02 -0.89024786652E+01 -0.94132586408E+01  0.31885870457E+02  0.00000000000E+00 0.  1.
         11    1    3    3    0    0 -0.58329854710E+01  0.21346057289E+02  0.13740887009E+02  0.26047837863E+02  0.51100000000E-03 0. -1.
        -11    1    3    3    0    0 -0.17317422551E+01  0.17518569055E+01  0.51812098336E+01  0.57369738937E+01  0.51100000000E-03 0.  1.
        -12    1    3    3    0    0 -0.21570219849E+02 -0.14195435529E+02 -0.95088382019E+01  0.27517317786E+02  0.00000000000E+00 0.  1.
</event>
<event>
 7    1  0.7284210E-013  0.5930195E+02  0.7816164E-02  0.1266605E+00
        -11   -1    0    0    0    0  0.00000000000E+00  0.00000000000E+00  0.45593999997E+02  0.45594000000E+02  0.51100000000E-03 0.  1.
         11   -1    0    0    0    0 -0.00000000000E+00 -0.00000000000E+00 -0.45593999997E+02  0.45594000000E+02  0.51100000000E-03 0. -1.
    9900012    2    1    2    0    0  0.11485572018E+02 -0.29252796328E+02  0.53922161602E+01  0.59301945796E+02  0.50000003226E+02 0.  0.
        -12    1    1    2    0    0 -0.11485572018E+02  0.29252796328E+02 -0.53922161602E+01  0.31886054204E+02  0.00000000000E+00 0.  1.
         11    1    3    3    0    0 -0.48097563845E+01 -0.36238284216E+01  0.22823987164E+01  0.64401267899E+01  0.51100000000E-03 0. -1.
        -11    1    3    3    0    0 -0.99803125531E+01 -0.17774820359E+02  0.12455054130E+02  0.23888893886E+02  0.51100000000E-03 0.  1.
        -12    1    3    3    0    0  0.26275640955E+02 -0.78541475468E+01 -0.93452366865E+01  0.28972925120E+02  0.00000000000E+00 0.  1.
</event>
<event>
 7    1  0.7284210E-013  0.5930192E+02  0.7816164E-02  0.1266605E+00
        -11   -1    0    0    0    0  0.00000000000E+00  0.00000000000E+00  0.45593999997E+02  0.45594000000E+02  0.51100000000E-03 0.  1.
         11   -1    0    0    0    0 -0.00000000000E+00 -0.00000000000E+00 -0.45593999997E+02  0.45594000000E+02  0.51100000000E-03 0. -1.
    9900012    2    1    2    0    0 -0.18019375285E+02 -0.26279483909E+02 -0.11886076025E+01  0.59301922345E+02  0.49999960456E+02 0.  0.
        -12    1    1    2    0    0  0.18019375285E+02  0.26279483909E+02  0.11886076025E+01  0.31886077655E+02  0.00000000000E+00 0.  1.
         11    1    3    3    0    0 -0.12408937475E+01 -0.26810439913E+02  0.82107931385E+00  0.26851697845E+02  0.51100000000E-03 0. -1.
        -11    1    3    3    0    0  0.25387322018E+01 -0.70528651701E+01 -0.78876074248E+01  0.10881287582E+02  0.51100000000E-03 0.  1.
        -12    1    3    3    0    0 -0.19317213740E+02  0.75838211749E+01  0.58779205085E+01  0.21568936918E+02  0.00000000000E+00 0.  1.
</event>
<event>
 7    1  0.7284210E-013  0.5930194E+02  0.7816164E-02  0.1266605E+00
        -11   -1    0    0    0    0  0.00000000000E+00  0.00000000000E+00  0.45593999997E+02  0.45594000000E+02  0.51100000000E-03 0. -1.
         11   -1    0    0    0    0 -0.00000000000E+00 -0.00000000000E+00 -0.45593999997E+02  0.45594000000E+02  0.51100000000E-03 0.  1.
    9900012    2    1    2    0    0  0.73892221261E+01  0.27736613807E+02  0.13885261693E+02  0.59301939701E+02  0.49999992109E+02 0.  0.
        -12    1    1    2    0    0 -0.73892221261E+01 -0.27736613807E+02 -0.13885261693E+02  0.31886060299E+02  0.00000000000E+00 0.  1.
         11    1    3    3    0    0 -0.67101702428E+01  0.25418626108E+02  0.13699249449E+02  0.29644601088E+02  0.51100000000E-03 0. -1.
        -11    1    3    3    0    0 -0.21584626894E+01  0.99274445373E+01  0.46303225932E+01  0.11164810961E+02  0.51100000000E-03 0.  1.
        -12    1    3    3    0    0  0.16257855058E+02 -0.76094568387E+01 -0.44443103497E+01  0.18492527652E+02  0.00000000000E+00 0.  1.
</event>
<event>
 7    1  0.7284210E-013  0.5930194E+02  0.7816164E-02  0.1266605E+00
        -11   -1    0    0    0    0  0.00000000000E+00  0.00000000000E+00  0.45593999997E+02  0.45594000000E+02  0.51100000000E-03 0.  1.
         11   -1    0    0    0    0 -0.00000000000E+00 -0.00000000000E+00 -0.45593999997E+02  0.45594000000E+02  0.51100000000E-03 0. -1.
    9900012    2    1    2    0    0 -0.31572788386E+02 -0.13366001291E+01 -0.42536217067E+01  0.59301940915E+02  0.49999994323E+02 0.  0.
        -12    1    1    2    0    0  0.31572788386E+02  0.13366001291E+01  0.42536217067E+01  0.31886059085E+02  0.00000000000E+00 0.  1.
         11    1    3    3    0    0 -0.18645168333E+02 -0.76863307938E+01 -0.17311687950E+02  0.26578497384E+02  0.51100000000E-03 0. -1.
        -11    1    3    3    0    0 -0.80124057044E+01 -0.26094756706E+01  0.19082943533E+02  0.20860650580E+02  0.51100000000E-03 0.  1.
         12    1    3    3    0    0 -0.49152143489E+01  0.89592063353E+01 -0.60248772898E+01  0.11862792952E+02  0.00000000000E+00 0. -1.
</event>
<event>
 7    1  0.7284210E-013  0.5930164E+02  0.7816164E-02  0.1266606E+00
        -11   -1    0    0    0    0  0.00000000000E+00  0.00000000000E+00  0.45593999997E+02  0.45594000000E+02  0.51100000000E-03 0. -1.
         11   -1    0    0    0    0 -0.00000000000E+00 -0.00000000000E+00 -0.45593999997E+02  0.45594000000E+02  0.51100000000E-03 0.  1.
    9900012    2    1    2    0    0  0.22096267723E+02 -0.22445077255E+02 -0.49712579618E+01  0.59301640126E+02  0.49999445753E+02 0.  0.
        -12    1    1    2    0    0 -0.22096267723E+02  0.22445077255E+02  0.49712579618E+01  0.31886359874E+02  0.00000000000E+00 0.  1.
         11    1    3    3    0    0  0.38350541924E+01 -0.56964280758E+01  0.74926604583E+01  0.10163507981E+02  0.51100000000E-03 0. -1.
        -11    1    3    3    0    0 -0.28467580416E+01 -0.91326729472E+01  0.12389762682E+02  0.15652985852E+02  0.51100000000E-03 0.  1.
         12    1    3    3    0    0  0.21107971573E+02 -0.76159762319E+01 -0.24853681103E+02  0.33485146292E+02  0.00000000000E+00 0. -1.
</event>
<event>
 7    1  0.7284210E-013  0.5930191E+02  0.7816164E-02  0.1266605E+00
        -11   -1    0    0    0    0  0.00000000000E+00  0.00000000000E+00  0.45593999997E+02  0.45594000000E+02  0.51100000000E-03 0. -1.
         11   -1    0    0    0    0 -0.00000000000E+00 -0.00000000000E+00 -0.45593999997E+02  0.45594000000E+02  0.51100000000E-03 0.  1.
    9900012    2    1    2    0    0  0.18510293166E+02 -0.23519499091E+02  0.10996589697E+02  0.59301909372E+02  0.49999936797E+02 0.  0.
        -12    1    1    2    0    0 -0.18510293166E+02  0.23519499091E+02 -0.10996589697E+02  0.31886090628E+02  0.00000000000E+00 0.  1.
         11    1    3    3    0    0  0.21749774806E+02 -0.20252542942E+02 -0.95226196416E-01  0.29719139759E+02  0.51100000000E-03 0. -1.
        -11    1    3    3    0    0  0.87524805547E+01 -0.56362494033E+01  0.13577208872E+02  0.17108881443E+02  0.51100000000E-03 0.  1.
        -12    1    3    3    0    0 -0.11991962195E+02  0.23692932547E+01 -0.24853929791E+01  0.12473888170E+02  0.00000000000E+00 0.  1.
</event>
<event>
 7    1  0.7284210E-013  0.5930194E+02  0.7816164E-02  0.1266605E+00
        -11   -1    0    0    0    0  0.00000000000E+00  0.00000000000E+00  0.45593999997E+02  0.45594000000E+02  0.51100000000E-03 0.  1.
         11   -1    0    0    0    0 -0.00000000000E+00 -0.00000000000E+00 -0.45593999997E+02  0.45594000000E+02  0.51100000000E-03 0. -1.
    9900012    2    1    2    0    0  0.17409030628E+02  0.26003558744E+02  0.61205479663E+01  0.59301944707E+02  0.50000001238E+02 0.  0.
        -12    1    1    2    0    0 -0.17409030628E+02 -0.26003558744E+02 -0.61205479663E+01  0.31886055293E+02  0.00000000000E+00 0.  1.
         11    1    3    3    0    0  0.76193318919E+00  0.13182670759E+02  0.96465731811E+01  0.16352972969E+02  0.51100000000E-03 0. -1.
        -11    1    3    3    0    0  0.14530959085E+02 -0.81957326146E+01  0.84144208947E+01  0.18684787509E+02  0.51100000000E-03 0.  1.
         12    1    3    3    0    0  0.21161383542E+01  0.21016620600E+02 -0.11940446109E+02  0.24264184228E+02  0.00000000000E+00 0. -1.
</event>
<event>
 7    1  0.7284210E-013  0.5930196E+02  0.7816164E-02  0.1266605E+00
        -11   -1    0    0    0    0  0.00000000000E+00  0.00000000000E+00  0.45593999997E+02  0.45594000000E+02  0.51100000000E-03 0.  1.
         11   -1    0    0    0    0 -0.00000000000E+00 -0.00000000000E+00 -0.45593999997E+02  0.45594000000E+02  0.51100000000E-03 0. -1.
    9900012    2    1    2    0    0  0.66239937248E+01  0.11743206751E+02 -0.28895319326E+02  0.59301957966E+02  0.50000025420E+02 0.  0.
        -12    1    1    2    0    0 -0.66239937248E+01 -0.11743206751E+02  0.28895319326E+02  0.31886042034E+02  0.00000000000E+00 0.  1.
         11    1    3    3    0    0 -0.13738353567E-01  0.13435355266E+02 -0.79288145926E+01  0.15600482716E+02  0.51100000000E-03 0.  1.
        -11    1    3    3    0    0  0.17644796236E+02 -0.12879291689E+02 -0.16523413394E+02  0.27390476065E+02  0.51100000000E-03 0. -1.
         12    1    3    3    0    0 -0.11007064158E+02  0.11187143174E+02 -0.44430913386E+01  0.16310999185E+02  0.00000000000E+00 0. -1.
</event>
<event>
 7    1  0.7284210E-013  0.5930197E+02  0.7816164E-02  0.1266605E+00
        -11   -1    0    0    0    0  0.00000000000E+00  0.00000000000E+00  0.45593999997E+02  0.45594000000E+02  0.51100000000E-03 0.  1.
         11   -1    0    0    0    0 -0.00000000000E+00 -0.00000000000E+00 -0.45593999997E+02  0.45594000000E+02  0.51100000000E-03 0. -1.
    9900012    2    1    2    0    0 -0.18934246126E+01  0.13596276985E+02 -0.28779764765E+02  0.59301973836E+02  0.50000054363E+02 0.  0.
        -12    1    1    2    0    0  0.18934246126E+01 -0.13596276985E+02  0.28779764765E+02  0.31886026164E+02  0.00000000000E+00 0.  1.
         11    1    3    3    0    0  0.49282800649E+01 -0.15423078104E+01 -0.51807775419E+01  0.73148557046E+01  0.51100000000E-03 0. -1.
        -11    1    3    3    0    0 -0.50130370247E+01  0.49646045122E+01 -0.35518210733E+02  0.36212168288E+02  0.51100000000E-03 0.  1.
         12    1    3    3    0    0 -0.18086676528E+01  0.10173980283E+02  0.11919223510E+02  0.15774949843E+02  0.00000000000E+00 0. -1.
</event>
<event>
 7    1  0.7284210E-013  0.5930194E+02  0.7816164E-02  0.1266605E+00
        -11   -1    0    0    0    0  0.00000000000E+00  0.00000000000E+00  0.45593999997E+02  0.45594000000E+02  0.51100000000E-03 0. -1.
         11   -1    0    0    0    0 -0.00000000000E+00 -0.00000000000E+00 -0.45593999997E+02  0.45594000000E+02  0.51100000000E-03 0.  1.
    9900012    2    1    2    0    0  0.23603572385E+02  0.90541720060E+01  0.19432294884E+02  0.59301941220E+02  0.49999994879E+02 0.  0.
        -12    1    1    2    0    0 -0.23603572385E+02 -0.90541720060E+01 -0.19432294884E+02  0.31886058780E+02  0.00000000000E+00 0.  1.
         11    1    3    3    0    0 -0.18474826390E+01  0.44232848259E+01 -0.14760190788E+02  0.15519080937E+02  0.51100000000E-03 0.  1.
        -11    1    3    3    0    0  0.12006867885E+02  0.33334565410E+01  0.96176921189E+01  0.15740927891E+02  0.51100000000E-03 0. -1.
        -12    1    3    3    0    0  0.13444187139E+02  0.12974306391E+01  0.24574793553E+02  0.28041932392E+02  0.00000000000E+00 0.  1.
</event>
<event>
 7    1  0.7284210E-013  0.5930192E+02  0.7816164E-02  0.1266605E+00
        -11   -1    0    0    0    0  0.00000000000E+00  0.00000000000E+00  0.45593999997E+02  0.45594000000E+02  0.51100000000E-03 0.  1.
         11   -1    0    0    0    0 -0.00000000000E+00 -0.00000000000E+00 -0.45593999997E+02  0.45594000000E+02  0.51100000000E-03 0. -1.
    9900012    2    1    2    0    0 -0.31453388524E+02 -0.50604729701E+01 -0.13409546928E+01  0.59301918463E+02  0.49999953376E+02 0.  0.
        -12    1    1    2    0    0  0.31453388524E+02  0.50604729701E+01  0.13409546928E+01  0.31886081537E+02  0.00000000000E+00 0.  1.
         11    1    3    3    0    0 -0.16440684795E+02 -0.14289666255E+02 -0.11430079301E+02  0.24599540469E+02  0.51100000000E-03 0. -1.
        -11    1    3    3    0    0 -0.59522534345E+01 -0.98835664453E+01  0.69477807166E+00  0.11558413536E+02  0.51100000000E-03 0.  1.
         12    1    3    3    0    0 -0.90604502943E+01  0.19112759730E+02  0.93943465364E+01  0.23143964459E+02  0.00000000000E+00 0. -1.
</event>
<event>
 7    1  0.7284210E-013  0.5930193E+02  0.7816164E-02  0.1266605E+00
        -11   -1    0    0    0    0  0.00000000000E+00  0.00000000000E+00  0.45593999997E+02  0.45594000000E+02  0.51100000000E-03 0.  1.
         11   -1    0    0    0    0 -0.00000000000E+00 -0.00000000000E+00 -0.45593999997E+02  0.45594000000E+02  0.51100000000E-03 0. -1.
    9900012    2    1    2    0    0  0.50657388790E+01  0.23787932288E+02 -0.20620227365E+02  0.59301933929E+02  0.49999981582E+02 0.  0.
        -12    1    1    2    0    0 -0.50657388790E+01 -0.23787932288E+02  0.20620227365E+02  0.31886066071E+02  0.00000000000E+00 0.  1.
         11    1    3    3    0    0 -0.14806199174E+02  0.81535378999E+01 -0.17770797275E+02  0.24525597858E+02  0.51100000000E-03 0. -1.
        -11    1    3    3    0    0  0.25664321583E+01 -0.31681715981E+01 -0.77494498388E+01  0.87565894253E+01  0.51100000000E-03 0.  1.
         12    1    3    3    0    0  0.17305505895E+02  0.18802565986E+02  0.49000197485E+01  0.26019746645E+02  0.00000000000E+00 0. -1.
</event>
<event>
 7    1  0.7284210E-013  0.5930194E+02  0.7816164E-02  0.1266605E+00
        -11   -1    0    0    0    0  0.00000000000E+00  0.00000000000E+00  0.45593999997E+02  0.45594000000E+02  0.51100000000E-03 0. -1.
         11   -1    0    0    0    0 -0.00000000000E+00 -0.00000000000E+00 -0.45593999997E+02  0.45594000000E+02  0.51100000000E-03 0.  1.
    9900012    2    1    2    0    0 -0.70139027344E+00 -0.27160714418E+02  0.16689044382E+02  0.59301944139E+02  0.50000000202E+02 0.  0.
        -12    1    1    2    0    0  0.70139027344E+00  0.27160714418E+02 -0.16689044382E+02  0.31886055861E+02  0.00000000000E+00 0.  1.
         11    1    3    3    0    0  0.51644795414E+01 -0.54230288605E+01  0.15781491138E+02  0.17468158282E+02  0.51100000000E-03 0. -1.
        -11    1    3    3    0    0  0.39691322014E+01 -0.33830999810E+01  0.15534429568E+02  0.16386515132E+02  0.51100000000E-03 0.  1.
        -12    1    3    3    0    0 -0.98350020162E+01 -0.18354585577E+02 -0.14626876324E+02  0.25447270725E+02  0.00000000000E+00 0.  1.
</event>
<event>
 7    1  0.7284210E-013  0.5930193E+02  0.7816164E-02  0.1266605E+00
        -11   -1    0    0    0    0  0.00000000000E+00  0.00000000000E+00  0.45593999997E+02  0.45594000000E+02  0.51100000000E-03 0.  1.
         11   -1    0    0    0    0 -0.00000000000E+00 -0.00000000000E+00 -0.45593999997E+02  0.45594000000E+02  0.51100000000E-03 0. -1.
    9900012    2    1    2    0    0  0.25871052158E+02  0.35462854047E+01 -0.18298468693E+02  0.59301930370E+02  0.49999975092E+02 0.  0.
        -12    1    1    2    0    0 -0.25871052158E+02 -0.35462854047E+01  0.18298468693E+02  0.31886069630E+02  0.00000000000E+00 0.  1.
         11    1    3    3    0    0  0.29577463359E+02  0.90964390742E+01 -0.25611418074E+01  0.31050458776E+02  0.51100000000E-03 0. -1.
        -11    1    3    3    0    0 -0.21414805474E+01 -0.83909030171E+01  0.30537832303E+01  0.91825260498E+01  0.51100000000E-03 0.  1.
         12    1    3    3    0    0 -0.15649306536E+01  0.28407493476E+01 -0.18791110116E+02  0.19068945545E+02  0.00000000000E+00 0. -1.
</event>
<event>
 7    1  0.7284210E-013  0.5930196E+02  0.7816164E-02  0.1266605E+00
        -11   -1    0    0    0    0  0.00000000000E+00  0.00000000000E+00  0.45593999997E+02  0.45594000000E+02  0.51100000000E-03 0.  1.
         11   -1    0    0    0    0 -0.00000000000E+00 -0.00000000000E+00 -0.45593999997E+02  0.45594000000E+02  0.51100000000E-03 0. -1.
    9900012    2    1    2    0    0 -0.20615318911E+02  0.23854061590E+02 -0.47656772306E+01  0.59301963752E+02  0.50000035972E+02 0.  0.
        -12    1    1    2    0    0  0.20615318911E+02 -0.23854061590E+02  0.47656772306E+01  0.31886036248E+02  0.00000000000E+00 0.  1.
         11    1    3    3    0    0  0.93976614089E+00  0.68738165583E+01 -0.12256903964E+02  0.14084182955E+02  0.51100000000E-03 0. -1.
        -11    1    3    3    0    0 -0.27037151384E+02  0.24051358348E+01 -0.15914440165E+01  0.27190530110E+02  0.51100000000E-03 0.  1.
        -12    1    3    3    0    0  0.54820663321E+01  0.14575109197E+02  0.90826707499E+01  0.18027250687E+02  0.00000000000E+00 0.  1.
</event>
<event>
 7    1  0.7284210E-013  0.5930210E+02  0.7816164E-02  0.1266604E+00
        -11   -1    0    0    0    0  0.00000000000E+00  0.00000000000E+00  0.45593999997E+02  0.45594000000E+02  0.51100000000E-03 0. -1.
         11   -1    0    0    0    0 -0.00000000000E+00 -0.00000000000E+00 -0.45593999997E+02  0.45594000000E+02  0.51100000000E-03 0.  1.
    9900012    2    1    2    0    0 -0.11598863895E+02  0.27843777238E+01  0.29570663976E+02  0.59302100750E+02  0.50000285823E+02 0.  0.
        -12    1    1    2    0    0  0.11598863895E+02 -0.27843777238E+01 -0.29570663976E+02  0.31885899250E+02  0.00000000000E+00 0.  1.
         11    1    3    3    0    0 -0.56084657528E-01  0.13912238965E+02 -0.30387529080E+01  0.14240349644E+02  0.51100000000E-03 0. -1.
        -11    1    3    3    0    0  0.56727764618E+01 -0.16710264732E+01 -0.11305258148E+01  0.60208646504E+01  0.51100000000E-03 0.  1.
         12    1    3    3    0    0 -0.17215555699E+02 -0.94568347677E+01  0.33739942699E+02  0.39040886455E+02  0.00000000000E+00 0. -1.
</event>
<event>
 7    1  0.7284210E-013  0.5930193E+02  0.7816164E-02  0.1266605E+00
        -11   -1    0    0    0    0  0.00000000000E+00  0.00000000000E+00  0.45593999997E+02  0.45594000000E+02  0.51100000000E-03 0. -1.
         11   -1    0    0    0    0 -0.00000000000E+00 -0.00000000000E+00 -0.45593999997E+02  0.45594000000E+02  0.51100000000E-03 0.  1.
    9900012    2    1    2    0    0  0.33613294493E+01 -0.80497007496E+01  0.30669612635E+02  0.59301931616E+02  0.49999977364E+02 0.  0.
        -12    1    1    2    0    0 -0.33613294493E+01  0.80497007496E+01 -0.30669612635E+02  0.31886068384E+02  0.00000000000E+00 0.  1.
         11    1    3    3    0    0  0.89253344769E+01  0.88190957519E+01  0.12454935563E+02  0.17679464515E+02  0.51100000000E-03 0. -1.
        -11    1    3    3    0    0  0.10823280552E+00  0.62957722545E+01  0.16559405558E+02  0.17716161416E+02  0.51100000000E-03 0.  1.
        -12    1    3    3    0    0 -0.56722378331E+01 -0.23164568756E+02  0.16552715139E+01  0.23906305684E+02  0.00000000000E+00 0.  1.
</event>
<event>
 7    1  0.7284210E-013  0.5930198E+02  0.7816164E-02  0.1266605E+00
        -11   -1    0    0    0    0  0.00000000000E+00  0.00000000000E+00  0.45593999997E+02  0.45594000000E+02  0.51100000000E-03 0.  1.
         11   -1    0    0    0    0 -0.00000000000E+00 -0.00000000000E+00 -0.45593999997E+02  0.45594000000E+02  0.51100000000E-03 0. -1.
    9900012    2    1    2    0    0 -0.18934188315E+02 -0.16780980237E+01 -0.25600760915E+02  0.59301977051E+02  0.50000060226E+02 0.  0.
        -12    1    1    2    0    0  0.18934188315E+02  0.16780980237E+01  0.25600760915E+02  0.31886022949E+02  0.00000000000E+00 0.  1.
         11    1    3    3    0    0 -0.34370196680E+01  0.14567692618E+00 -0.20250209572E+02  0.20540333833E+02  0.51100000000E-03 0. -1.
        -11    1    3    3    0    0 -0.68560395090E+01  0.14124590078E+02  0.66090135018E+01  0.17034916564E+02  0.51100000000E-03 0.  1.
         12    1    3    3    0    0 -0.86411291377E+01 -0.15948365028E+02 -0.11959564844E+02  0.21726726654E+02  0.00000000000E+00 0. -1.
</event>
<event>
 7    1  0.7284210E-013  0.5930187E+02  0.7816164E-02  0.1266605E+00
        -11   -1    0    0    0    0  0.00000000000E+00  0.00000000000E+00  0.45593999997E+02  0.45594000000E+02  0.51100000000E-03 0.  1.
         11   -1    0    0    0    0 -0.00000000000E+00 -0.00000000000E+00 -0.45593999997E+02  0.45594000000E+02  0.51100000000E-03 0. -1.
    9900012    2    1    2    0    0  0.94504406495E+01 -0.26141228071E+02  0.15622115730E+02  0.59301872398E+02  0.49999869365E+02 0.  0.
        -12    1    1    2    0    0 -0.94504406495E+01  0.26141228071E+02 -0.15622115730E+02  0.31886127602E+02  0.00000000000E+00 0.  1.
         11    1    3    3    0    0 -0.14885124740E+02 -0.98620315999E+01  0.28244843166E+01  0.18077729883E+02  0.51100000000E-03 0. -1.
        -11    1    3    3    0    0 -0.46203489161E+00 -0.49598984905E+01  0.13045403492E+02  0.13964119084E+02  0.51100000000E-03 0.  1.
         12    1    3    3    0    0  0.24797600281E+02 -0.11319297981E+02 -0.24777207878E+00  0.27260023431E+02  0.00000000000E+00 0. -1.
</event>
<event>
 7    1  0.7284210E-013  0.5930192E+02  0.7816164E-02  0.1266605E+00
        -11   -1    0    0    0    0  0.00000000000E+00  0.00000000000E+00  0.45593999997E+02  0.45594000000E+02  0.51100000000E-03 0. -1.
         11   -1    0    0    0    0 -0.00000000000E+00 -0.00000000000E+00 -0.45593999997E+02  0.45594000000E+02  0.51100000000E-03 0.  1.
    9900012    2    1    2    0    0  0.24273950438E+02  0.20675490398E+02 -0.14767184642E+00  0.59301915574E+02  0.49999948107E+02 0.  0.
        -12    1    1    2    0    0 -0.24273950438E+02 -0.20675490398E+02  0.14767184642E+00  0.31886084426E+02  0.00000000000E+00 0.  1.
         11    1    3    3    0    0  0.29411671383E+02  0.10639128295E+02  0.23706528573E+01  0.31366502191E+02  0.51100000000E-03 0. -1.
        -11    1    3    3    0    0  0.63480863281E+01 -0.50074540610E+01 -0.38623917344E+01  0.89605170818E+01  0.51100000000E-03 0.  1.
        -12    1    3    3    0    0 -0.11485807274E+02  0.15043816163E+02  0.13440670307E+01  0.18974896302E+02  0.00000000000E+00 0.  1.
</event>
<event>
 7    1  0.8434816E-013  0.5930195E+02  0.7816164E-02  0.1266605E+00
        -11   -1    0    0    0    0  0.00000000000E+00  0.00000000000E+00  0.45593999997E+02  0.45594000000E+02  0.51100000000E-03 0. -1.
         11   -1    0    0    0    0 -0.00000000000E+00 -0.00000000000E+00 -0.45593999997E+02  0.45594000000E+02  0.51100000000E-03 0.  1.
    9900012    2    1    2    0    0  0.20374499759E+02 -0.17840892139E+01  0.24462564801E+02  0.59301948325E+02  0.50000007838E+02 0.  0.
        -12    1    1    2    0    0 -0.20374499759E+02  0.17840892139E+01 -0.24462564801E+02  0.31886051675E+02  0.00000000000E+00 0.  1.
         11    1    3    3    0    0  0.88210097035E-02  0.11279473932E+02  0.10918807161E+02  0.15698629242E+02  0.51100000000E-03 0. -1.
        -11    1    3    3    0    0 -0.74129954515E+01 -0.11284981526E+02  0.29533790688E+01  0.13821206814E+02  0.51100000000E-03 0.  1.
         12    1    3    3    0    0  0.27778674201E+02 -0.17785816205E+01  0.10590378571E+02  0.29782112269E+02  0.00000000000E+00 0. -1.
</event>
<event>
 7    1  0.7284210E-013  0.5930196E+02  0.7816164E-02  0.1266605E+00
        -11   -1    0    0    0    0  0.00000000000E+00  0.00000000000E+00  0.45593999997E+02  0.45594000000E+02  0.51100000000E-03 0. -1.
         11   -1    0    0    0    0 -0.00000000000E+00 -0.00000000000E+00 -0.45593999997E+02  0.45594000000E+02  0.51100000000E-03 0.  1.
    9900012    2    1    2    0    0  0.18777531136E+02  0.21458269485E+02  0.14271182215E+02  0.59301958435E+02  0.50000026276E+02 0.  0.
        -12    1    1    2    0    0 -0.18777531136E+02 -0.21458269485E+02 -0.14271182215E+02  0.31886041565E+02  0.00000000000E+00 0.  1.
         11    1    3    3    0    0 -0.10240222710E+02  0.17631753831E+01  0.13482886062E+02  0.17022313750E+02  0.51100000000E-03 0. -1.
        -11    1    3    3    0    0  0.12666638931E+02 -0.20437450467E+01 -0.61185845416E+01  0.14214700584E+02  0.51100000000E-03 0.  1.
        -12    1    3    3    0    0  0.16351114915E+02  0.21738839149E+02  0.69068806948E+01  0.28064944101E+02  0.00000000000E+00 0.  1.
</event>
<event>
 7    1  0.7284210E-013  0.5930194E+02  0.7816164E-02  0.1266605E+00
        -11   -1    0    0    0    0  0.00000000000E+00  0.00000000000E+00  0.45593999997E+02  0.45594000000E+02  0.51100000000E-03 0.  1.
         11   -1    0    0    0    0 -0.00000000000E+00 -0.00000000000E+00 -0.45593999997E+02  0.45594000000E+02  0.51100000000E-03 0. -1.
    9900012    2    1    2    0    0 -0.23572949768E+02 -0.20581456166E+02 -0.61188458374E+01  0.59301943909E+02  0.49999999783E+02 0.  0.
        -12    1    1    2    0    0  0.23572949768E+02  0.20581456166E+02  0.61188458374E+01  0.31886056091E+02  0.00000000000E+00 0.  1.
         11    1    3    3    0    0 -0.16173122459E+02 -0.98934586505E+01 -0.15266936477E+02  0.24341934266E+02  0.51100000000E-03 0. -1.
        -11    1    3    3    0    0  0.95360335205E+01 -0.13359095879E+02  0.26566437067E+01  0.16627060295E+02  0.51100000000E-03 0.  1.
        -12    1    3    3    0    0 -0.16935860829E+02  0.26710983636E+01  0.64914469332E+01  0.18332949348E+02  0.00000000000E+00 0.  1.
</event>
<event>
 7    1  0.7284210E-013  0.5930192E+02  0.7816164E-02  0.1266605E+00
        -11   -1    0    0    0    0  0.00000000000E+00  0.00000000000E+00  0.45593999997E+02  0.45594000000E+02  0.51100000000E-03 0.  1.
         11   -1    0    0    0    0 -0.00000000000E+00 -0.00000000000E+00 -0.45593999997E+02  0.45594000000E+02  0.51100000000E-03 0. -1.
    9900012    2    1    2    0    0  0.17042558719E+02  0.78716023862E+01 -0.25774237663E+02  0.59301917473E+02  0.49999951571E+02 0.  0.
        -12    1    1    2    0    0 -0.17042558719E+02 -0.78716023862E+01  0.25774237663E+02  0.31886082527E+02  0.00000000000E+00 0.  1.
         11    1    3    3    0    0 -0.88037718767E+01  0.15454094648E+01 -0.12017761306E+02  0.14977358804E+02  0.51100000000E-03 0.  1.
        -11    1    3    3    0    0 -0.32830753847E+01  0.90446082533E+01 -0.11481498242E+02  0.14980264503E+02  0.51100000000E-03 0. -1.
        -12    1    3    3    0    0  0.29129405980E+02 -0.27184153318E+01 -0.22749781140E+01  0.29344294166E+02  0.00000000000E+00 0.  1.
</event>
<event>
 7    1  0.7284210E-013  0.5930193E+02  0.7816164E-02  0.1266605E+00
        -11   -1    0    0    0    0  0.00000000000E+00  0.00000000000E+00  0.45593999997E+02  0.45594000000E+02  0.51100000000E-03 0.  1.
         11   -1    0    0    0    0 -0.00000000000E+00 -0.00000000000E+00 -0.45593999997E+02  0.45594000000E+02  0.51100000000E-03 0. -1.
    9900012    2    1    2    0    0 -0.42638268070E+01  0.27087785042E+02 -0.16272457590E+02  0.59301934180E+02  0.49999982039E+02 0.  0.
        -12    1    1    2    0    0  0.42638268070E+01 -0.27087785042E+02  0.16272457590E+02  0.31886065820E+02  0.00000000000E+00 0.  1.
         11    1    3    3    0    0 -0.32659582690E+00 -0.88864282953E+01 -0.21161689271E+01  0.91407572920E+01  0.51100000000E-03 0. -1.
        -11    1    3    3    0    0  0.37113810362E+01 -0.48008716717E+01 -0.45305139562E+01  0.75728643836E+01  0.51100000000E-03 0.  1.
        -12    1    3    3    0    0 -0.76486120163E+01  0.40775085009E+02 -0.96257747064E+01  0.42588312504E+02  0.00000000000E+00 0.  1.
</event>
<event>
 7    1  0.7284210E-013  0.5930195E+02  0.7816164E-02  0.1266605E+00
        -11   -1    0    0    0    0  0.00000000000E+00  0.00000000000E+00  0.45593999997E+02  0.45594000000E+02  0.51100000000E-03 0.  1.
         11   -1    0    0    0    0 -0.00000000000E+00 -0.00000000000E+00 -0.45593999997E+02  0.45594000000E+02  0.51100000000E-03 0. -1.
    9900012    2    1    2    0    0  0.63332785142E+01  0.27902162727E+02 -0.14074056015E+02  0.59301950476E+02  0.50000011760E+02 0.  0.
        -12    1    1    2    0    0 -0.63332785142E+01 -0.27902162727E+02  0.14074056015E+02  0.31886049524E+02  0.00000000000E+00 0.  1.
         11    1    3    3    0    0 -0.10613877458E+01  0.27658911031E+02  0.51785110407E+01  0.28159525569E+02  0.51100000000E-03 0. -1.
        -11    1    3    3    0    0 -0.60585686743E+01 -0.84321583507E+00  0.15818461864E+01  0.63181884226E+01  0.51100000000E-03 0.  1.
        -12    1    3    3    0    0  0.13453234934E+02  0.10864675301E+01 -0.20834413242E+02  0.24824236484E+02  0.00000000000E+00 0.  1.
</event>
<event>
 7    1  0.7284210E-013  0.5930194E+02  0.7816164E-02  0.1266605E+00
        -11   -1    0    0    0    0  0.00000000000E+00  0.00000000000E+00  0.45593999997E+02  0.45594000000E+02  0.51100000000E-03 0. -1.
         11   -1    0    0    0    0 -0.00000000000E+00 -0.00000000000E+00 -0.45593999997E+02  0.45594000000E+02  0.51100000000E-03 0.  1.
    9900012    2    1    2    0    0 -0.26546270423E+02  0.17161698196E+02 -0.41823822074E+01  0.59301942243E+02  0.49999996745E+02 0.  0.
        -12    1    1    2    0    0  0.26546270423E+02 -0.17161698196E+02  0.41823822074E+01  0.31886057757E+02  0.00000000000E+00 0.  1.
         11    1    3    3    0    0 -0.76567758123E+01  0.11794574574E+02  0.66194803524E+01  0.15542063107E+02  0.51100000000E-03 0. -1.
        -11    1    3    3    0    0 -0.29061853905E+02  0.77642339892E+01 -0.20893685429E+01  0.30153609121E+02  0.51100000000E-03 0.  1.
         12    1    3    3    0    0  0.10172359294E+02 -0.23971103668E+01 -0.87124940169E+01  0.13606270015E+02  0.00000000000E+00 0. -1.
</event>
<event>
 7    1  0.7284210E-013  0.5930193E+02  0.7816164E-02  0.1266605E+00
        -11   -1    0    0    0    0  0.00000000000E+00  0.00000000000E+00  0.45593999997E+02  0.45594000000E+02  0.51100000000E-03 0.  1.
         11   -1    0    0    0    0 -0.00000000000E+00 -0.00000000000E+00 -0.45593999997E+02  0.45594000000E+02  0.51100000000E-03 0. -1.
    9900012    2    1    2    0    0 -0.54396739179E+01 -0.46918912733E+01 -0.31066342667E+02  0.59301928703E+02  0.49999972051E+02 0.  0.
        -12    1    1    2    0    0  0.54396739179E+01  0.46918912733E+01  0.31066342667E+02  0.31886071297E+02  0.00000000000E+00 0.  1.
         11    1    3    3    0    0 -0.16301895752E+02 -0.15412453751E+02 -0.65696880907E+01  0.23376405575E+02  0.51100000000E-03 0. -1.
        -11    1    3    3    0    0  0.10434024360E+02  0.22316808002E+01 -0.74173685934E+00  0.10695767264E+02  0.51100000000E-03 0.  1.
         12    1    3    3    0    0  0.42819747424E+00  0.84888816772E+01 -0.23754917717E+02  0.25229755864E+02  0.00000000000E+00 0. -1.
</event>
<event>
 7    1  0.7284210E-013  0.5930193E+02  0.7816164E-02  0.1266605E+00
        -11   -1    0    0    0    0  0.00000000000E+00  0.00000000000E+00  0.45593999997E+02  0.45594000000E+02  0.51100000000E-03 0.  1.
         11   -1    0    0    0    0 -0.00000000000E+00 -0.00000000000E+00 -0.45593999997E+02  0.45594000000E+02  0.51100000000E-03 0. -1.
    9900012    2    1    2    0    0 -0.26554928250E+02 -0.17068496381E+02 -0.44970655792E+01  0.59301931226E+02  0.49999976652E+02 0.  0.
        -12    1    1    2    0    0  0.26554928250E+02  0.17068496381E+02  0.44970655792E+01  0.31886068774E+02  0.00000000000E+00 0.  1.
         11    1    3    3    0    0 -0.10476626139E+02 -0.72147262037E+00  0.14155905572E+02  0.17625829933E+02  0.51100000000E-03 0. -1.
        -11    1    3    3    0    0  0.67211316381E+01 -0.60954738706E+01  0.19513283304E+01  0.92809533302E+01  0.51100000000E-03 0.  1.
         12    1    3    3    0    0 -0.22799433749E+02 -0.10251549890E+02 -0.20604299481E+02  0.32395147963E+02  0.00000000000E+00 0. -1.
</event>
<event>
 7    1  0.7284210E-013  0.5930195E+02  0.7816164E-02  0.1266605E+00
        -11   -1    0    0    0    0  0.00000000000E+00  0.00000000000E+00  0.45593999997E+02  0.45594000000E+02  0.51100000000E-03 0.  1.
         11   -1    0    0    0    0 -0.00000000000E+00 -0.00000000000E+00 -0.45593999997E+02  0.45594000000E+02  0.51100000000E-03 0. -1.
    9900012    2    1    2    0    0 -0.26480638231E+02  0.25726275227E+01 -0.17574920166E+02  0.59301946116E+02  0.50000003808E+02 0.  0.
        -12    1    1    2    0    0  0.26480638231E+02 -0.25726275227E+01  0.17574920166E+02  0.31886053884E+02  0.00000000000E+00 0.  1.
         11    1    3    3    0    0 -0.19692894967E+02  0.99169667721E+01 -0.86296562311E+00  0.22065834498E+02  0.51100000000E-03 0. -1.
        -11    1    3    3    0    0  0.36445570200E+01  0.35876663066E+00  0.82945603154E+01  0.90670414389E+01  0.51100000000E-03 0.  1.
        -12    1    3    3    0    0 -0.10432300283E+02 -0.77031058801E+01 -0.25006514858E+02  0.28169070179E+02  0.00000000000E+00 0.  1.
</event>
<event>
 7    1  0.7284210E-013  0.5930190E+02  0.7816164E-02  0.1266605E+00
        -11   -1    0    0    0    0  0.00000000000E+00  0.00000000000E+00  0.45593999997E+02  0.45594000000E+02  0.51100000000E-03 0.  1.
         11   -1    0    0    0    0 -0.00000000000E+00 -0.00000000000E+00 -0.45593999997E+02  0.45594000000E+02  0.51100000000E-03 0. -1.
    9900012    2    1    2    0    0  0.31141286390E+01 -0.30734630560E+02 -0.78998964669E+01  0.59301895235E+02  0.49999911014E+02 0.  0.
        -12    1    1    2    0    0 -0.31141286390E+01  0.30734630560E+02  0.78998964669E+01  0.31886104765E+02  0.00000000000E+00 0.  1.
         11    1    3    3    0    0 -0.38057675997E+01 -0.47596449021E+01  0.12132698891E+01  0.62137034610E+01  0.51100000000E-03 0. -1.
        -11    1    3    3    0    0 -0.11392568045E+02 -0.19265536061E+02  0.11114582334E+02  0.24989706422E+02  0.51100000000E-03 0.  1.
         12    1    3    3    0    0  0.18312464283E+02 -0.67094495977E+01 -0.20227748690E+02  0.28098485352E+02  0.00000000000E+00 0. -1.
</event>
<event>
 7    1  0.7284210E-013  0.5930194E+02  0.7816164E-02  0.1266605E+00
        -11   -1    0    0    0    0  0.00000000000E+00  0.00000000000E+00  0.45593999997E+02  0.45594000000E+02  0.51100000000E-03 0.  1.
         11   -1    0    0    0    0 -0.00000000000E+00 -0.00000000000E+00 -0.45593999997E+02  0.45594000000E+02  0.51100000000E-03 0. -1.
    9900012    2    1    2    0    0 -0.28973891010E+02 -0.10103693589E+02  0.86689065279E+01  0.59301938393E+02  0.49999989723E+02 0.  0.
        -12    1    1    2    0    0  0.28973891010E+02  0.10103693589E+02 -0.86689065279E+01  0.31886061607E+02  0.00000000000E+00 0.  1.
         11    1    3    3    0    0 -0.17336267535E+02 -0.10539732587E+02 -0.10945297570E+02  0.23052801873E+02  0.51100000000E-03 0. -1.
        -11    1    3    3    0    0 -0.19465772830E+02 -0.95601180690E-02  0.57090771014E+01  0.20285708390E+02  0.51100000000E-03 0.  1.
        -12    1    3    3    0    0  0.78281493545E+01  0.44559911600E+00  0.13905126996E+02  0.15963428130E+02  0.00000000000E+00 0.  1.
</event>
<event>
 7    1  0.7284210E-013  0.5930204E+02  0.7816164E-02  0.1266604E+00
        -11   -1    0    0    0    0  0.00000000000E+00  0.00000000000E+00  0.45593999997E+02  0.45594000000E+02  0.51100000000E-03 0.  1.
         11   -1    0    0    0    0 -0.00000000000E+00 -0.00000000000E+00 -0.45593999997E+02  0.45594000000E+02  0.51100000000E-03 0. -1.
    9900012    2    1    2    0    0 -0.17228006870E+02  0.26188719718E+02  0.58361900875E+01  0.59302041085E+02  0.50000177009E+02 0.  0.
        -12    1    1    2    0    0  0.17228006870E+02 -0.26188719718E+02 -0.58361900875E+01  0.31885958915E+02  0.00000000000E+00 0.  1.
         11    1    3    3    0    0 -0.19094671559E+02  0.76110333179E+01  0.10071472270E+02  0.22890366184E+02  0.51100000000E-03 0. -1.
        -11    1    3    3    0    0  0.23581493150E+01  0.61520432000E+01  0.13342129729E+02  0.14880219410E+02  0.51100000000E-03 0.  1.
         12    1    3    3    0    0 -0.49148462633E+00  0.12425643200E+02 -0.17577411911E+02  0.21531455491E+02  0.00000000000E+00 0. -1.
</event>
<event>
 7    1  0.7284210E-013  0.5930195E+02  0.7816164E-02  0.1266605E+00
        -11   -1    0    0    0    0  0.00000000000E+00  0.00000000000E+00  0.45593999997E+02  0.45594000000E+02  0.51100000000E-03 0. -1.
         11   -1    0    0    0    0 -0.00000000000E+00 -0.00000000000E+00 -0.45593999997E+02  0.45594000000E+02  0.51100000000E-03 0.  1.
    9900012    2    1    2    0    0  0.29221337324E+02 -0.42580140825E+01  0.12029251725E+02  0.59301950762E+02  0.50000012281E+02 0.  0.
        -12    1    1    2    0    0 -0.29221337324E+02  0.42580140825E+01 -0.12029251725E+02  0.31886049238E+02  0.00000000000E+00 0.  1.
         11    1    3    3    0    0  0.20101774388E+02  0.10726847246E+02  0.59124009982E+01  0.23539394029E+02  0.51100000000E-03 0. -1.
        -11    1    3    3    0    0 -0.30562897314E+01 -0.88699361485E+01 -0.10626896195E+02  0.14175598654E+02  0.51100000000E-03 0.  1.
        -12    1    3    3    0    0  0.12175852667E+02 -0.61149251804E+01  0.16743746922E+02  0.21586958079E+02  0.00000000000E+00 0.  1.
</event>
<event>
 7    1  0.7284210E-013  0.5930194E+02  0.7816164E-02  0.1266605E+00
        -11   -1    0    0    0    0  0.00000000000E+00  0.00000000000E+00  0.45593999997E+02  0.45594000000E+02  0.51100000000E-03 0. -1.
         11   -1    0    0    0    0 -0.00000000000E+00 -0.00000000000E+00 -0.45593999997E+02  0.45594000000E+02  0.51100000000E-03 0.  1.
    9900012    2    1    2    0    0 -0.67138151250E+01  0.96876130954E+01  0.29627612459E+02  0.59301943784E+02  0.49999999555E+02 0.  0.
        -12    1    1    2    0    0  0.67138151250E+01 -0.96876130954E+01 -0.29627612459E+02  0.31886056216E+02  0.00000000000E+00 0.  1.
         11    1    3    3    0    0 -0.78307162734E+01 -0.15182195532E+01  0.79889451743E+01  0.11289302601E+02  0.51100000000E-03 0. -1.
        -11    1    3    3    0    0  0.16017326756E+02 -0.26348324553E+01  0.22397974025E+02  0.27661640211E+02  0.51100000000E-03 0.  1.
        -12    1    3    3    0    0 -0.14900425608E+02  0.13840665104E+02 -0.75930674034E+00  0.20351000971E+02  0.00000000000E+00 0.  1.
</event>
<event>
 7    1  0.7284210E-013  0.5930192E+02  0.7816164E-02  0.1266605E+00
        -11   -1    0    0    0    0  0.00000000000E+00  0.00000000000E+00  0.45593999997E+02  0.45594000000E+02  0.51100000000E-03 0.  1.
         11   -1    0    0    0    0 -0.00000000000E+00 -0.00000000000E+00 -0.45593999997E+02  0.45594000000E+02  0.51100000000E-03 0. -1.
    9900012    2    1    2    0    0 -0.39276093477E+01 -0.42247259047E+01 -0.31359968891E+02  0.59301920388E+02  0.49999956888E+02 0.  0.
        -12    1    1    2    0    0  0.39276093477E+01  0.42247259047E+01  0.31359968891E+02  0.31886079612E+02  0.00000000000E+00 0.  1.
         11    1    3    3    0    0  0.59577879825E+01 -0.16906097901E+02 -0.78194295156E+00  0.17942207750E+02  0.51100000000E-03 0. -1.
        -11    1    3    3    0    0  0.47935576033E+01 -0.31854786144E+01 -0.35932244841E+01  0.67850372846E+01  0.51100000000E-03 0.  1.
        -12    1    3    3    0    0 -0.14678954934E+02  0.15866850611E+02 -0.26984801455E+02  0.34574675354E+02  0.00000000000E+00 0.  1.
</event>
<event>
 7    1  0.7284210E-013  0.5930194E+02  0.7816164E-02  0.1266605E+00
        -11   -1    0    0    0    0  0.00000000000E+00  0.00000000000E+00  0.45593999997E+02  0.45594000000E+02  0.51100000000E-03 0. -1.
         11   -1    0    0    0    0 -0.00000000000E+00 -0.00000000000E+00 -0.45593999997E+02  0.45594000000E+02  0.51100000000E-03 0.  1.
    9900012    2    1    2    0    0  0.28336760460E+02 -0.15200958337E+01  0.14540910502E+02  0.59301940931E+02  0.49999994353E+02 0.  0.
        -12    1    1    2    0    0 -0.28336760460E+02  0.15200958337E+01 -0.14540910502E+02  0.31886059069E+02  0.00000000000E+00 0.  1.
         11    1    3    3    0    0  0.20627449202E+01  0.10806020186E+02  0.38459375298E+01  0.11654021821E+02  0.51100000000E-03 0. -1.
        -11    1    3    3    0    0 -0.80338642849E+00 -0.13544314128E+02 -0.70109884977E+01  0.15272453468E+02  0.51100000000E-03 0.  1.
         12    1    3    3    0    0  0.27077401968E+02  0.12181981088E+01  0.17705961470E+02  0.32375465642E+02  0.00000000000E+00 0. -1.
</event>
<event>
 7    1  0.7284210E-013  0.5930194E+02  0.7816164E-02  0.1266605E+00
        -11   -1    0    0    0    0  0.00000000000E+00  0.00000000000E+00  0.45593999997E+02  0.45594000000E+02  0.51100000000E-03 0.  1.
         11   -1    0    0    0    0 -0.00000000000E+00 -0.00000000000E+00 -0.45593999997E+02  0.45594000000E+02  0.51100000000E-03 0. -1.
    9900012    2    1    2    0    0  0.28570831884E+01 -0.31182044471E+02  0.60198079071E+01  0.59301938641E+02  0.49999990176E+02 0.  0.
        -12    1    1    2    0    0 -0.28570831884E+01  0.31182044471E+02 -0.60198079071E+01  0.31886061359E+02  0.00000000000E+00 0.  1.
         11    1    3    3    0    0  0.92493848645E+01 -0.25139716269E+02 -0.51597940164E+01  0.27279661453E+02  0.51100000000E-03 0. -1.
        -11    1    3    3    0    0  0.30167878657E+01 -0.15171288318E+02  0.11409198375E+01  0.15510341601E+02  0.51100000000E-03 0.  1.
         12    1    3    3    0    0 -0.94090895418E+01  0.91289601157E+01  0.10038682086E+02  0.16511935587E+02  0.00000000000E+00 0. -1.
</event>
<event>
 7    1  0.7485312E-013  0.5930193E+02  0.7816164E-02  0.1266605E+00
        -11   -1    0    0    0    0  0.00000000000E+00  0.00000000000E+00  0.45593999997E+02  0.45594000000E+02  0.51100000000E-03 0. -1.
         11   -1    0    0    0    0 -0.00000000000E+00 -0.00000000000E+00 -0.45593999997E+02  0.45594000000E+02  0.51100000000E-03 0.  1.
    9900012    2    1    2    0    0  0.30795916556E+01  0.24745296138E+02  0.19872284205E+02  0.59301933368E+02  0.49999980559E+02 0.  0.
        -12    1    1    2    0    0 -0.30795916556E+01 -0.24745296138E+02 -0.19872284205E+02  0.31886066632E+02  0.00000000000E+00 0.  1.
         11    1    3    3    0    0 -0.63856331270E+01  0.26482065896E+02  0.21895508596E+02  0.34949812897E+02  0.51100000000E-03 0. -1.
        -11    1    3    3    0    0  0.82144920897E+01 -0.59552283807E+01  0.83140525184E+01  0.13117396651E+02  0.51100000000E-03 0.  1.
        -12    1    3    3    0    0  0.12507326929E+01  0.42184586228E+01 -0.10337276909E+02  0.11234723820E+02  0.00000000000E+00 0.  1.
</event>
<event>
 7    1  0.7284210E-013  0.5930203E+02  0.7816164E-02  0.1266604E+00
        -11   -1    0    0    0    0  0.00000000000E+00  0.00000000000E+00  0.45593999997E+02  0.45594000000E+02  0.51100000000E-03 0.  1.
         11   -1    0    0    0    0 -0.00000000000E+00 -0.00000000000E+00 -0.45593999997E+02  0.45594000000E+02  0.51100000000E-03 0. -1.
    9900012    2    1    2    0    0 -0.29902827287E+01  0.25653617018E+02  0.18699345138E+02  0.59302025568E+02  0.50000148709E+02 0.  0.
        -12    1    1    2    0    0  0.29902827287E+01 -0.25653617018E+02 -0.18699345138E+02  0.31885974432E+02  0.00000000000E+00 0.  1.
         11    1    3    3    0    0 -0.81218622448E+00  0.76650089963E+01  0.32003188622E+02  0.32918324556E+02  0.51100000000E-03 0.  1.
        -11    1    3    3    0    0 -0.65183801712E+01  0.49468662599E+01 -0.16154866729E+01  0.83408970321E+01  0.51100000000E-03 0. -1.
        -12    1    3    3    0    0  0.43402836670E+01  0.13041741762E+02 -0.11688356811E+02  0.18042803979E+02  0.00000000000E+00 0.  1.
</event>
<event>
 7    1  0.7284210E-013  0.5930162E+02  0.7816164E-02  0.1266606E+00
        -11   -1    0    0    0    0  0.00000000000E+00  0.00000000000E+00  0.45593999997E+02  0.45594000000E+02  0.51100000000E-03 0. -1.
         11   -1    0    0    0    0 -0.00000000000E+00 -0.00000000000E+00 -0.45593999997E+02  0.45594000000E+02  0.51100000000E-03 0.  1.
    9900012    2    1    2    0    0 -0.11222206962E+01  0.72544661559E+01  0.31029900306E+02  0.59301617773E+02  0.49999404986E+02 0.  0.
        -12    1    1    2    0    0  0.11222206962E+01 -0.72544661559E+01 -0.31029900306E+02  0.31886382227E+02  0.00000000000E+00 0.  1.
         11    1    3    3    0    0 -0.13492762729E+02  0.34572359879E+01  0.15715570570E+02  0.20999673457E+02  0.51100000000E-03 0. -1.
        -11    1    3    3    0    0 -0.16812963897E+01  0.87962763260E+01  0.20612792836E+02  0.22474173255E+02  0.51100000000E-03 0.  1.
        -12    1    3    3    0    0  0.14051838422E+02 -0.49990461580E+01 -0.52984630990E+01  0.15827771060E+02  0.00000000000E+00 0.  1.
</event>
<event>
 7    1  0.7284210E-013  0.5930193E+02  0.7816164E-02  0.1266605E+00
        -11   -1    0    0    0    0  0.00000000000E+00  0.00000000000E+00  0.45593999997E+02  0.45594000000E+02  0.51100000000E-03 0.  1.
         11   -1    0    0    0    0 -0.00000000000E+00 -0.00000000000E+00 -0.45593999997E+02  0.45594000000E+02  0.51100000000E-03 0. -1.
    9900012    2    1    2    0    0 -0.10417329195E+02 -0.28831996245E+02 -0.87702078442E+01  0.59301932499E+02  0.49999978975E+02 0.  0.
        -12    1    1    2    0    0  0.10417329195E+02  0.28831996245E+02  0.87702078442E+01  0.31886067501E+02  0.00000000000E+00 0.  1.
         11    1    3    3    0    0 -0.42863375311E+01  0.18089520009E+01 -0.89568036972E+01  0.10093033712E+02  0.51100000000E-03 0. -1.
        -11    1    3    3    0    0 -0.20652269497E+02 -0.17804641445E+02 -0.76232361147E+01  0.28313163396E+02  0.51100000000E-03 0.  1.
        -12    1    3    3    0    0  0.14521277833E+02 -0.12836306801E+02  0.78098319677E+01  0.20895735392E+02  0.00000000000E+00 0.  1.
</event>
<event>
 7    1  0.7284210E-013  0.5930189E+02  0.7816164E-02  0.1266605E+00
        -11   -1    0    0    0    0  0.00000000000E+00  0.00000000000E+00  0.45593999997E+02  0.45594000000E+02  0.51100000000E-03 0.  1.
         11   -1    0    0    0    0 -0.00000000000E+00 -0.00000000000E+00 -0.45593999997E+02  0.45594000000E+02  0.51100000000E-03 0. -1.
    9900012    2    1    2    0    0  0.31777332066E+02  0.26278081056E+01  0.13994932054E+00  0.59301893394E+02  0.49999907657E+02 0.  0.
        -12    1    1    2    0    0 -0.31777332066E+02 -0.26278081056E+01 -0.13994932054E+00  0.31886106606E+02  0.00000000000E+00 0.  1.
         11    1    3    3    0    0 -0.23256875778E+01  0.25635403977E+01 -0.30502278303E+01  0.46135075765E+01  0.51100000000E-03 0. -1.
        -11    1    3    3    0    0 -0.49677324900E+01  0.12552557571E+02 -0.46473831087E+00  0.13507814391E+02  0.51100000000E-03 0.  1.
         12    1    3    3    0    0  0.39070752133E+02 -0.12488289863E+02  0.36549154618E+01  0.41180571427E+02  0.00000000000E+00 0. -1.
</event>
<event>
 7    1  0.7284210E-013  0.5930194E+02  0.7816164E-02  0.1266605E+00
        -11   -1    0    0    0    0  0.00000000000E+00  0.00000000000E+00  0.45593999997E+02  0.45594000000E+02  0.51100000000E-03 0. -1.
         11   -1    0    0    0    0 -0.00000000000E+00 -0.00000000000E+00 -0.45593999997E+02  0.45594000000E+02  0.51100000000E-03 0.  1.
    9900012    2    1    2    0    0  0.22176238498E+01  0.24469040625E+02  0.20324103648E+02  0.59301937312E+02  0.49999987752E+02 0.  0.
        -12    1    1    2    0    0 -0.22176238498E+01 -0.24469040625E+02 -0.20324103648E+02  0.31886062688E+02  0.00000000000E+00 0.  1.
         11    1    3    3    0    0  0.12967084300E+02  0.11662672564E+02  0.48254747671E+01  0.18095535736E+02  0.51100000000E-03 0. -1.
        -11    1    3    3    0    0 -0.61124558566E+01 -0.80317234571E+01  0.17038057664E+02  0.19803184277E+02  0.51100000000E-03 0.  1.
         12    1    3    3    0    0 -0.46370045938E+01  0.20838091519E+02 -0.15394287833E+01  0.21403217299E+02  0.00000000000E+00 0. -1.
</event>
<event>
 7    1  0.7284210E-013  0.5930219E+02  0.7816164E-02  0.1266604E+00
        -11   -1    0    0    0    0  0.00000000000E+00  0.00000000000E+00  0.45593999997E+02  0.45594000000E+02  0.51100000000E-03 0.  1.
         11   -1    0    0    0    0 -0.00000000000E+00 -0.00000000000E+00 -0.45593999997E+02  0.45594000000E+02  0.51100000000E-03 0. -1.
    9900012    2    1    2    0    0 -0.25743787236E+02 -0.35506891239E+01 -0.18475785592E+02  0.59302193945E+02  0.50000455788E+02 0.  0.
        -12    1    1    2    0    0  0.25743787236E+02  0.35506891239E+01  0.18475785592E+02  0.31885806055E+02  0.00000000000E+00 0.  1.
         11    1    3    3    0    0 -0.10076780036E+01  0.87907926331E+01 -0.20975013627E+02  0.22764987305E+02  0.51100000000E-03 0. -1.
        -11    1    3    3    0    0 -0.74733960512E+01 -0.14261989099E+02 -0.60215437372E+01  0.17190548881E+02  0.51100000000E-03 0.  1.
        -12    1    3    3    0    0 -0.17262713181E+02  0.19205073423E+01  0.85207717725E+01  0.19346657759E+02  0.00000000000E+00 0.  1.
</event>
<event>
 7    1  0.7284210E-013  0.5930194E+02  0.7816164E-02  0.1266605E+00
        -11   -1    0    0    0    0  0.00000000000E+00  0.00000000000E+00  0.45593999997E+02  0.45594000000E+02  0.51100000000E-03 0. -1.
         11   -1    0    0    0    0 -0.00000000000E+00 -0.00000000000E+00 -0.45593999997E+02  0.45594000000E+02  0.51100000000E-03 0.  1.
    9900012    2    1    2    0    0 -0.10587972452E+02 -0.24027879250E+02  0.18090794095E+02  0.59301937639E+02  0.49999988349E+02 0.  0.
        -12    1    1    2    0    0  0.10587972452E+02  0.24027879250E+02 -0.18090794095E+02  0.31886062361E+02  0.00000000000E+00 0.  1.
         11    1    3    3    0    0 -0.92099752337E+01 -0.20980727961E+02  0.84088858433E+01  0.24407456872E+02  0.51100000000E-03 0. -1.
        -11    1    3    3    0    0 -0.27074095883E+01 -0.11793790884E+02 -0.84230621587E+01  0.14743525578E+02  0.51100000000E-03 0.  1.
         12    1    3    3    0    0  0.13294123701E+01  0.87466395950E+01  0.18104970410E+02  0.20150955188E+02  0.00000000000E+00 0. -1.
</event>
<event>
 7    1  0.7284210E-013  0.5930196E+02  0.7816164E-02  0.1266605E+00
        -11   -1    0    0    0    0  0.00000000000E+00  0.00000000000E+00  0.45593999997E+02  0.45594000000E+02  0.51100000000E-03 0.  1.
         11   -1    0    0    0    0 -0.00000000000E+00 -0.00000000000E+00 -0.45593999997E+02  0.45594000000E+02  0.51100000000E-03 0. -1.
    9900012    2    1    2    0    0 -0.11690892609E+02 -0.29517508278E+02 -0.29596236158E+01  0.59301958589E+02  0.50000026556E+02 0.  0.
        -12    1    1    2    0    0  0.11690892609E+02  0.29517508278E+02  0.29596236158E+01  0.31886041411E+02  0.00000000000E+00 0.  1.
         11    1    3    3    0    0  0.72665396262E+00  0.12023788787E+02 -0.52950693373E+01  0.13158164094E+02  0.51100000000E-03 0. -1.
        -11    1    3    3    0    0  0.59454471231E+00 -0.66891374529E+00 -0.28039755405E+01  0.29433328229E+01  0.51100000000E-03 0.  1.
        -12    1    3    3    0    0 -0.13012091284E+02 -0.40872383319E+02  0.51394212620E+01  0.43200461672E+02  0.00000000000E+00 0.  1.
</event>
<event>
 7    1  0.7284210E-013  0.5930197E+02  0.7816164E-02  0.1266605E+00
        -11   -1    0    0    0    0  0.00000000000E+00  0.00000000000E+00  0.45593999997E+02  0.45594000000E+02  0.51100000000E-03 0. -1.
         11   -1    0    0    0    0 -0.00000000000E+00 -0.00000000000E+00 -0.45593999997E+02  0.45594000000E+02  0.51100000000E-03 0.  1.
    9900012    2    1    2    0    0  0.17891151461E+02  0.20759319726E+02 -0.16299578432E+02  0.59301969938E+02  0.50000047254E+02 0.  0.
        -12    1    1    2    0    0 -0.17891151461E+02 -0.20759319726E+02  0.16299578432E+02  0.31886030062E+02  0.00000000000E+00 0.  1.
         11    1    3    3    0    0  0.58845488614E-01 -0.64900603506E+01 -0.54622183120E+01  0.84829343564E+01  0.51100000000E-03 0. -1.
        -11    1    3    3    0    0  0.57903594580E+01 -0.88370847213E+01 -0.67964284467E+01  0.12562395031E+02  0.51100000000E-03 0.  1.
        -12    1    3    3    0    0  0.12041946514E+02  0.36086464798E+02 -0.40409316732E+01  0.38256640551E+02  0.00000000000E+00 0.  1.
</event>
<event>
 7    1  0.7284210E-013  0.5930199E+02  0.7816164E-02  0.1266605E+00
        -11   -1    0    0    0    0  0.00000000000E+00  0.00000000000E+00  0.45593999997E+02  0.45594000000E+02  0.51100000000E-03 0. -1.
         11   -1    0    0    0    0 -0.00000000000E+00 -0.00000000000E+00 -0.45593999997E+02  0.45594000000E+02  0.51100000000E-03 0.  1.
    9900012    2    1    2    0    0  0.12211548410E+02 -0.29444759814E+02 -0.77562672042E+00  0.59301993792E+02  0.50000090759E+02 0.  0.
        -12    1    1    2    0    0 -0.12211548410E+02  0.29444759814E+02  0.77562672042E+00  0.31886006208E+02  0.00000000000E+00 0.  1.
         11    1    3    3    0    0 -0.73036970931E+01 -0.79165470265E+01 -0.15148792032E+02  0.18587673559E+02  0.51100000000E-03 0. -1.
        -11    1    3    3    0    0  0.29258985739E+01  0.55855049135E+01  0.22559934926E+01  0.66968839398E+01  0.51100000000E-03 0.  1.
         12    1    3    3    0    0  0.16589346930E+02 -0.27113717701E+02  0.12117171819E+02  0.34017436294E+02  0.00000000000E+00 0. -1.
</event>
<event>
 7    1  0.7284210E-013  0.5930198E+02  0.7816164E-02  0.1266605E+00
        -11   -1    0    0    0    0  0.00000000000E+00  0.00000000000E+00  0.45593999997E+02  0.45594000000E+02  0.51100000000E-03 0.  1.
         11   -1    0    0    0    0 -0.00000000000E+00 -0.00000000000E+00 -0.45593999997E+02  0.45594000000E+02  0.51100000000E-03 0. -1.
    9900012    2    1    2    0    0  0.24247044044E+02  0.84020061999E+01 -0.18926313106E+02  0.59301981421E+02  0.50000068196E+02 0.  0.
        -12    1    1    2    0    0 -0.24247044044E+02 -0.84020061999E+01  0.18926313106E+02  0.31886018579E+02  0.00000000000E+00 0.  1.
         11    1    3    3    0    0  0.10105642952E+02 -0.17528755894E+01  0.40938366732E+01  0.11043373184E+02  0.51100000000E-03 0. -1.
        -11    1    3    3    0    0 -0.12398539438E+02 -0.18985320182E+01 -0.30001785078E+01  0.12896870759E+02  0.51100000000E-03 0.  1.
        -12    1    3    3    0    0  0.26539940530E+02  0.12053413808E+02 -0.20019971271E+02  0.35361737478E+02  0.00000000000E+00 0.  1.
</event>
<event>
 7    1  0.7284210E-013  0.5930194E+02  0.7816164E-02  0.1266605E+00
        -11   -1    0    0    0    0  0.00000000000E+00  0.00000000000E+00  0.45593999997E+02  0.45594000000E+02  0.51100000000E-03 0.  1.
         11   -1    0    0    0    0 -0.00000000000E+00 -0.00000000000E+00 -0.45593999997E+02  0.45594000000E+02  0.51100000000E-03 0. -1.
    9900012    2    1    2    0    0  0.25762447928E+02  0.92320277513E+00 -0.18766061513E+02  0.59301935782E+02  0.49999984962E+02 0.  0.
        -12    1    1    2    0    0 -0.25762447928E+02 -0.92320277513E+00  0.18766061513E+02  0.31886064218E+02  0.00000000000E+00 0.  1.
         11    1    3    3    0    0  0.76176822495E+01  0.33829540359E+01 -0.21213477895E+02  0.22792215898E+02  0.51100000000E-03 0. -1.
        -11    1    3    3    0    0  0.84941162394E+01  0.64608623871E+01 -0.12612596558E+02  0.16521814237E+02  0.51100000000E-03 0.  1.
        -12    1    3    3    0    0  0.96506494387E+01 -0.89206136478E+01  0.15060012940E+02  0.19987905648E+02  0.00000000000E+00 0.  1.
</event>
<event>
 7    1  0.7284210E-013  0.5930181E+02  0.7816164E-02  0.1266605E+00
        -11   -1    0    0    0    0  0.00000000000E+00  0.00000000000E+00  0.45593999997E+02  0.45594000000E+02  0.51100000000E-03 0.  1.
         11   -1    0    0    0    0 -0.00000000000E+00 -0.00000000000E+00 -0.45593999997E+02  0.45594000000E+02  0.51100000000E-03 0. -1.
    9900012    2    1    2    0    0 -0.19027386565E+02 -0.93655698782E+01 -0.23811215501E+02  0.59301806714E+02  0.49999749573E+02 0.  0.
        -12    1    1    2    0    0  0.19027386565E+02  0.93655698782E+01  0.23811215501E+02  0.31886193286E+02  0.00000000000E+00 0.  1.
         11    1    3    3    0    0 -0.12961142649E+02 -0.60644741275E+01 -0.25426797549E+02  0.29176893239E+02  0.51100000000E-03 0. -1.
        -11    1    3    3    0    0  0.30301465625E+01 -0.40099676394E+01 -0.12412057016E+02  0.13391071215E+02  0.51100000000E-03 0.  1.
        -12    1    3    3    0    0 -0.90963904781E+01  0.70887188870E+00  0.14027639064E+02  0.16733842260E+02  0.00000000000E+00 0.  1.
</event>
<event>
 7    1  0.7284210E-013  0.5930195E+02  0.7816164E-02  0.1266605E+00
        -11   -1    0    0    0    0  0.00000000000E+00  0.00000000000E+00  0.45593999997E+02  0.45594000000E+02  0.51100000000E-03 0.  1.
         11   -1    0    0    0    0 -0.00000000000E+00 -0.00000000000E+00 -0.45593999997E+02  0.45594000000E+02  0.51100000000E-03 0. -1.
    9900012    2    1    2    0    0 -0.31792059529E+02  0.33170204004E+00  0.24238437340E+01  0.59301951425E+02  0.50000013490E+02 0.  0.
        -12    1    1    2    0    0  0.31792059529E+02 -0.33170204004E+00 -0.24238437340E+01  0.31886048575E+02  0.00000000000E+00 0.  1.
         11    1    3    3    0    0 -0.15505378319E+02 -0.87783420885E+01  0.13195926232E+01  0.17866655300E+02  0.51100000000E-03 0.  1.
        -11    1    3    3    0    0 -0.24653334155E+02 -0.43470914606E+01 -0.25811721589E+01  0.25166377155E+02  0.51100000000E-03 0. -1.
        -12    1    3    3    0    0  0.83666529456E+01  0.13457135589E+02  0.36854232697E+01  0.16268918970E+02  0.00000000000E+00 0.  1.
</event>
<event>
 7    1  0.7284210E-013  0.5930195E+02  0.7816164E-02  0.1266605E+00
        -11   -1    0    0    0    0  0.00000000000E+00  0.00000000000E+00  0.45593999997E+02  0.45594000000E+02  0.51100000000E-03 0. -1.
         11   -1    0    0    0    0 -0.00000000000E+00 -0.00000000000E+00 -0.45593999997E+02  0.45594000000E+02  0.51100000000E-03 0.  1.
    9900012    2    1    2    0    0 -0.93252240376E+01 -0.29921362169E+02  0.58713473539E+01  0.59301946040E+02  0.50000003670E+02 0.  0.
        -12    1    1    2    0    0  0.93252240376E+01  0.29921362169E+02 -0.58713473539E+01  0.31886053960E+02  0.00000000000E+00 0.  1.
         11    1    3    3    0    0 -0.90227116127E+01 -0.78487537369E+01 -0.39081636719E+01  0.12581176559E+02  0.51100000000E-03 0. -1.
        -11    1    3    3    0    0 -0.69241622966E+01 -0.24739203457E+02 -0.85299013808E+01  0.27069012340E+02  0.51100000000E-03 0.  1.
         12    1    3    3    0    0  0.66216498717E+01  0.26665950256E+01  0.18309412407E+02  0.19651757141E+02  0.00000000000E+00 0. -1.
</event>
<event>
 7    1  0.7284210E-013  0.5930194E+02  0.7816164E-02  0.1266605E+00
        -11   -1    0    0    0    0  0.00000000000E+00  0.00000000000E+00  0.45593999997E+02  0.45594000000E+02  0.51100000000E-03 0.  1.
         11   -1    0    0    0    0 -0.00000000000E+00 -0.00000000000E+00 -0.45593999997E+02  0.45594000000E+02  0.51100000000E-03 0. -1.
    9900012    2    1    2    0    0  0.49207090720E+01  0.30955783460E+02 -0.58520987770E+01  0.59301937724E+02  0.49999988504E+02 0.  0.
        -12    1    1    2    0    0 -0.49207090720E+01 -0.30955783460E+02  0.58520987770E+01  0.31886062276E+02  0.00000000000E+00 0.  1.
         11    1    3    3    0    0 -0.30187943902E+00 -0.59903453704E+01  0.38696357380E+01  0.71378883333E+01  0.51100000000E-03 0. -1.
        -11    1    3    3    0    0 -0.89162693228E+01 -0.23463627536E+01 -0.38619721162E+01  0.99960044865E+01  0.51100000000E-03 0.  1.
         12    1    3    3    0    0  0.14138857834E+02  0.39292491584E+02 -0.58597623988E+01  0.42168044904E+02  0.00000000000E+00 0. -1.
</event>
<event>
 7    1  0.7284210E-013  0.5930193E+02  0.7816164E-02  0.1266605E+00
        -11   -1    0    0    0    0  0.00000000000E+00  0.00000000000E+00  0.45593999997E+02  0.45594000000E+02  0.51100000000E-03 0. -1.
         11   -1    0    0    0    0 -0.00000000000E+00 -0.00000000000E+00 -0.45593999997E+02  0.45594000000E+02  0.51100000000E-03 0.  1.
    9900012    2    1    2    0    0 -0.13929769658E+02 -0.24150174883E+02  0.15474240974E+02  0.59301928381E+02  0.49999971463E+02 0.  0.
        -12    1    1    2    0    0  0.13929769658E+02  0.24150174883E+02 -0.15474240974E+02  0.31886071619E+02  0.00000000000E+00 0.  1.
         11    1    3    3    0    0 -0.79013518517E+01 -0.13788176987E+02  0.70685090560E+01  0.17392786040E+02  0.51100000000E-03 0. -1.
        -11    1    3    3    0    0  0.79801763373E+01 -0.14592327714E+02 -0.92072851140E+01  0.19010348285E+02  0.51100000000E-03 0.  1.
        -12    1    3    3    0    0 -0.14008594144E+02  0.42303298174E+01  0.17613017032E+02  0.22898794056E+02  0.00000000000E+00 0.  1.
</event>
<event>
 7    1  0.7284210E-013  0.5930195E+02  0.7816164E-02  0.1266605E+00
        -11   -1    0    0    0    0  0.00000000000E+00  0.00000000000E+00  0.45593999997E+02  0.45594000000E+02  0.51100000000E-03 0.  1.
         11   -1    0    0    0    0 -0.00000000000E+00 -0.00000000000E+00 -0.45593999997E+02  0.45594000000E+02  0.51100000000E-03 0. -1.
    9900012    2    1    2    0    0  0.15227492703E+02  0.25250500386E+02  0.12134916260E+02  0.59301945111E+02  0.50000001975E+02 0.  0.
        -12    1    1    2    0    0 -0.15227492703E+02 -0.25250500386E+02 -0.12134916260E+02  0.31886054889E+02  0.00000000000E+00 0.  1.
         11    1    3    3    0    0 -0.19632900531E+01  0.11877751239E+02  0.86511739163E+01  0.14824921339E+02  0.51100000000E-03 0. -1.
        -11    1    3    3    0    0  0.18241251409E+02  0.94179108200E+00  0.17788678724E+02  0.25496417678E+02  0.51100000000E-03 0.  1.
         12    1    3    3    0    0 -0.10504686532E+01  0.12430958065E+02 -0.14304936381E+02  0.18980606093E+02  0.00000000000E+00 0. -1.
</event>
<event>
 7    1  0.7284210E-013  0.5930195E+02  0.7816164E-02  0.1266605E+00
        -11   -1    0    0    0    0  0.00000000000E+00  0.00000000000E+00  0.45593999997E+02  0.45594000000E+02  0.51100000000E-03 0.  1.
         11   -1    0    0    0    0 -0.00000000000E+00 -0.00000000000E+00 -0.45593999997E+02  0.45594000000E+02  0.51100000000E-03 0. -1.
    9900012    2    1    2    0    0 -0.23558057087E+02 -0.21357430995E+02 -0.23661141164E+01  0.59301946490E+02  0.50000004490E+02 0.  0.
        -12    1    1    2    0    0  0.23558057087E+02  0.21357430995E+02  0.23661141164E+01  0.31886053510E+02  0.00000000000E+00 0.  1.
         11    1    3    3    0    0 -0.87659175977E+01 -0.24855476653E+02 -0.48184103162E+01  0.26792780916E+02  0.51100000000E-03 0.  1.
        -11    1    3    3    0    0 -0.34609572062E+01  0.14853859231E+02 -0.30421793930E+01  0.15552177165E+02  0.51100000000E-03 0. -1.
         12    1    3    3    0    0 -0.11331182283E+02 -0.11355813574E+02  0.54944755927E+01  0.16956988409E+02  0.00000000000E+00 0. -1.
</event>
<event>
 7    1  0.7284210E-013  0.5930192E+02  0.7816164E-02  0.1266605E+00
        -11   -1    0    0    0    0  0.00000000000E+00  0.00000000000E+00  0.45593999997E+02  0.45594000000E+02  0.51100000000E-03 0.  1.
         11   -1    0    0    0    0 -0.00000000000E+00 -0.00000000000E+00 -0.45593999997E+02  0.45594000000E+02  0.51100000000E-03 0. -1.
    9900012    2    1    2    0    0 -0.21287172946E+02 -0.26854032335E+01 -0.23587438951E+02  0.59301915279E+02  0.49999947570E+02 0.  0.
        -12    1    1    2    0    0  0.21287172946E+02  0.26854032335E+01  0.23587438951E+02  0.31886084721E+02  0.00000000000E+00 0.  1.
         11    1    3    3    0    0 -0.67319732485E+01  0.25828834670E+01  0.21530525441E+01  0.75250505872E+01  0.51100000000E-03 0. -1.
        -11    1    3    3    0    0 -0.25505825045E+02  0.55527196813E+01 -0.60728759509E+01  0.26800366222E+02  0.51100000000E-03 0.  1.
         12    1    3    3    0    0  0.10950625347E+02 -0.10821006382E+02 -0.19667615544E+02  0.24976498470E+02  0.00000000000E+00 0. -1.
</event>
<event>
 7    1  0.7284210E-013  0.5930196E+02  0.7816164E-02  0.1266605E+00
        -11   -1    0    0    0    0  0.00000000000E+00  0.00000000000E+00  0.45593999997E+02  0.45594000000E+02  0.51100000000E-03 0. -1.
         11   -1    0    0    0    0 -0.00000000000E+00 -0.00000000000E+00 -0.45593999997E+02  0.45594000000E+02  0.51100000000E-03 0.  1.
    9900012    2    1    2    0    0 -0.92831123920E+01 -0.30437937927E+02  0.20187753205E+01  0.59301957681E+02  0.50000024901E+02 0.  0.
        -12    1    1    2    0    0  0.92831123920E+01  0.30437937927E+02 -0.20187753205E+01  0.31886042319E+02  0.00000000000E+00 0.  1.
         11    1    3    3    0    0 -0.64587076093E+00 -0.27729079795E+02 -0.49499532157E+01  0.28174830122E+02  0.51100000000E-03 0. -1.
        -11    1    3    3    0    0 -0.78951380790E+01 -0.58114228514E+01  0.17535241820E+02  0.20089563131E+02  0.51100000000E-03 0.  1.
        -12    1    3    3    0    0 -0.74210355215E+00  0.31025647191E+01 -0.10566513284E+02  0.11037564428E+02  0.00000000000E+00 0.  1.
</event>
<event>
 7    1  0.7284210E-013  0.5930202E+02  0.7816164E-02  0.1266604E+00
        -11   -1    0    0    0    0  0.00000000000E+00  0.00000000000E+00  0.45593999997E+02  0.45594000000E+02  0.51100000000E-03 0. -1.
         11   -1    0    0    0    0 -0.00000000000E+00 -0.00000000000E+00 -0.45593999997E+02  0.45594000000E+02  0.51100000000E-03 0.  1.
    9900012    2    1    2    0    0 -0.99028365192E+01 -0.28861075371E+02 -0.92567729245E+01  0.59302020516E+02  0.50000139496E+02 0.  0.
        -12    1    1    2    0    0  0.99028365192E+01  0.28861075371E+02  0.92567729245E+01  0.31885979484E+02  0.00000000000E+00 0.  1.
         11    1    3    3    0    0 -0.88587576608E+01 -0.56789971442E+01 -0.83057243901E+01  0.13405732123E+02  0.51100000000E-03 0. -1.
        -11    1    3    3    0    0  0.61632376713E+01 -0.41764188484E+01 -0.17928230746E+02  0.19412610101E+02  0.51100000000E-03 0.  1.
         12    1    3    3    0    0 -0.72073165297E+01 -0.19005659378E+02  0.16977182212E+02  0.26483678291E+02  0.00000000000E+00 0. -1.
</event>
<event>
 7    1  0.7284210E-013  0.5930195E+02  0.7816164E-02  0.1266605E+00
        -11   -1    0    0    0    0  0.00000000000E+00  0.00000000000E+00  0.45593999997E+02  0.45594000000E+02  0.51100000000E-03 0.  1.
         11   -1    0    0    0    0 -0.00000000000E+00 -0.00000000000E+00 -0.45593999997E+02  0.45594000000E+02  0.51100000000E-03 0. -1.
    9900012    2    1    2    0    0  0.27333182605E+02 -0.15471819371E+02  0.54991090557E+01  0.59301948718E+02  0.50000008554E+02 0.  0.
        -12    1    1    2    0    0 -0.27333182605E+02  0.15471819371E+02 -0.54991090557E+01  0.31886051282E+02  0.00000000000E+00 0.  1.
         11    1    3    3    0    0 -0.36639745356E+01  0.19363523259E+01  0.13672417883E+01  0.43638881856E+01  0.51100000000E-03 0. -1.
        -11    1    3    3    0    0  0.31262449313E+02  0.55063560060E+01  0.42117331668E+01  0.32021858004E+02  0.51100000000E-03 0.  1.
         12    1    3    3    0    0 -0.26529217195E+00 -0.22914527702E+02 -0.79865899394E-01  0.22916202528E+02  0.00000000000E+00 0. -1.
</event>
<event>
 7    1  0.7284210E-013  0.5930201E+02  0.7816164E-02  0.1266605E+00
        -11   -1    0    0    0    0  0.00000000000E+00  0.00000000000E+00  0.45593999997E+02  0.45594000000E+02  0.51100000000E-03 0.  1.
         11   -1    0    0    0    0 -0.00000000000E+00 -0.00000000000E+00 -0.45593999997E+02  0.45594000000E+02  0.51100000000E-03 0. -1.
    9900012    2    1    2    0    0 -0.42389794015E+01  0.11169185678E+02  0.29563435573E+02  0.59302009691E+02  0.50000119754E+02 0.  0.
        -12    1    1    2    0    0  0.42389794015E+01 -0.11169185678E+02 -0.29563435573E+02  0.31885990309E+02  0.00000000000E+00 0.  1.
         11    1    3    3    0    0 -0.10553174349E+02 -0.16735524246E+01  0.43609973379E+01  0.11540735012E+02  0.51100000000E-03 0. -1.
        -11    1    3    3    0    0 -0.61172581167E+01 -0.52214486806E+01  0.24538386977E+02  0.25822796302E+02  0.51100000000E-03 0.  1.
         12    1    3    3    0    0  0.12431453065E+02  0.18064186784E+02  0.66405125869E+00  0.21938478378E+02  0.00000000000E+00 0. -1.
</event>
<event>
 7    1  0.7284210E-013  0.5930193E+02  0.7816164E-02  0.1266605E+00
        -11   -1    0    0    0    0  0.00000000000E+00  0.00000000000E+00  0.45593999997E+02  0.45594000000E+02  0.51100000000E-03 0.  1.
         11   -1    0    0    0    0 -0.00000000000E+00 -0.00000000000E+00 -0.45593999997E+02  0.45594000000E+02  0.51100000000E-03 0. -1.
    9900012    2    1    2    0    0 -0.94491563484E+01  0.21831684369E+02 -0.21232344277E+02  0.59301930290E+02  0.49999974945E+02 0.  0.
        -12    1    1    2    0    0  0.94491563484E+01 -0.21831684369E+02  0.21232344277E+02  0.31886069710E+02  0.00000000000E+00 0.  1.
         11    1    3    3    0    0  0.92594600594E+01 -0.25775071753E+00 -0.16439540037E+02  0.18869618781E+02  0.51100000000E-03 0. -1.
        -11    1    3    3    0    0  0.47374661410E+01  0.64822360031E+01  0.62546104047E+01  0.10177579310E+02  0.51100000000E-03 0.  1.
         12    1    3    3    0    0 -0.23446082549E+02  0.15607199083E+02 -0.11047414645E+02  0.30254732199E+02  0.00000000000E+00 0. -1.
</event>
<event>
 7    1  0.7284210E-013  0.5930199E+02  0.7816164E-02  0.1266605E+00
        -11   -1    0    0    0    0  0.00000000000E+00  0.00000000000E+00  0.45593999997E+02  0.45594000000E+02  0.51100000000E-03 0. -1.
         11   -1    0    0    0    0 -0.00000000000E+00 -0.00000000000E+00 -0.45593999997E+02  0.45594000000E+02  0.51100000000E-03 0.  1.
    9900012    2    1    2    0    0 -0.25441582194E+02  0.15196906599E+02  0.11768491357E+02  0.59301992669E+02  0.50000088710E+02 0.  0.
        -12    1    1    2    0    0  0.25441582194E+02 -0.15196906599E+02 -0.11768491357E+02  0.31886007331E+02  0.00000000000E+00 0.  1.
         11    1    3    3    0    0 -0.94140007964E+01 -0.10415171422E+02 -0.10588293765E+02  0.17584401379E+02  0.51100000000E-03 0.  1.
        -11    1    3    3    0    0 -0.18694760915E+02  0.15630551764E+02  0.12288138253E+02  0.27291144646E+02  0.51100000000E-03 0. -1.
        -12    1    3    3    0    0  0.26671795172E+01  0.99815262564E+01  0.10068646870E+02  0.14426446644E+02  0.00000000000E+00 0.  1.
</event>
<event>
 7    1  0.7284210E-013  0.5930192E+02  0.7816164E-02  0.1266605E+00
        -11   -1    0    0    0    0  0.00000000000E+00  0.00000000000E+00  0.45593999997E+02  0.45594000000E+02  0.51100000000E-03 0. -1.
         11   -1    0    0    0    0 -0.00000000000E+00 -0.00000000000E+00 -0.45593999997E+02  0.45594000000E+02  0.51100000000E-03 0.  1.
    9900012    2    1    2    0    0  0.50669690375E+01  0.30658203687E+02  0.71500027407E+01  0.59301918903E+02  0.49999954178E+02 0.  0.
        -12    1    1    2    0    0 -0.50669690375E+01 -0.30658203687E+02 -0.71500027407E+01  0.31886081097E+02  0.00000000000E+00 0.  1.
         11    1    3    3    0    0  0.10710875801E+02  0.25850802716E+02 -0.98852438464E+01  0.29676672786E+02  0.51100000000E-03 0. -1.
        -11    1    3    3    0    0  0.84944171437E+01  0.43300703900E+01  0.38352306031E+01  0.10276849042E+02  0.51100000000E-03 0.  1.
        -12    1    3    3    0    0 -0.14138323907E+02  0.47733058108E+00  0.13200015984E+02  0.19348397075E+02  0.00000000000E+00 0.  1.
</event>
<event>
 7    1  0.7284210E-013  0.5930197E+02  0.7816164E-02  0.1266605E+00
        -11   -1    0    0    0    0  0.00000000000E+00  0.00000000000E+00  0.45593999997E+02  0.45594000000E+02  0.51100000000E-03 0.  1.
         11   -1    0    0    0    0 -0.00000000000E+00 -0.00000000000E+00 -0.45593999997E+02  0.45594000000E+02  0.51100000000E-03 0. -1.
    9900012    2    1    2    0    0 -0.18790409817E+01 -0.29427645959E+02 -0.12132678867E+02  0.59301967976E+02  0.50000043676E+02 0.  0.
        -12    1    1    2    0    0  0.18790409817E+01  0.29427645959E+02  0.12132678867E+02  0.31886032024E+02  0.00000000000E+00 0.  1.
         11    1    3    3    0    0 -0.13615225561E+01 -0.11511932332E+02 -0.83663515510E+01  0.14295949364E+02  0.51100000000E-03 0. -1.
        -11    1    3    3    0    0  0.27615626660E+01 -0.20634150261E+02  0.15066118038E+02  0.25697904552E+02  0.51100000000E-03 0.  1.
         12    1    3    3    0    0 -0.32790810916E+01  0.27184366342E+01 -0.18832445354E+02  0.19308114060E+02  0.00000000000E+00 0. -1.
</event>
<event>
 7    1  0.7284210E-013  0.5930191E+02  0.7816164E-02  0.1266605E+00
        -11   -1    0    0    0    0  0.00000000000E+00  0.00000000000E+00  0.45593999997E+02  0.45594000000E+02  0.51100000000E-03 0.  1.
         11   -1    0    0    0    0 -0.00000000000E+00 -0.00000000000E+00 -0.45593999997E+02  0.45594000000E+02  0.51100000000E-03 0. -1.
    9900012    2    1    2    0    0  0.18806042219E+02  0.18156191774E+02 -0.18259461941E+02  0.59301914099E+02  0.49999945418E+02 0.  0.
        -12    1    1    2    0    0 -0.18806042219E+02 -0.18156191774E+02  0.18259461941E+02  0.31886085901E+02  0.00000000000E+00 0.  1.
         11    1    3    3    0    0  0.77782614405E+01  0.12976344874E+02  0.91162973597E+01  0.17663344959E+02  0.51100000000E-03 0. -1.
        -11    1    3    3    0    0 -0.85903112943E+01  0.71454183277E+01 -0.13524312428E+02  0.17543017931E+02  0.51100000000E-03 0.  1.
        -12    1    3    3    0    0  0.19618092073E+02 -0.19655714278E+01 -0.13851446872E+02  0.24095551209E+02  0.00000000000E+00 0.  1.
</event>
<event>
 7    1  0.7284210E-013  0.5930193E+02  0.7816164E-02  0.1266605E+00
        -11   -1    0    0    0    0  0.00000000000E+00  0.00000000000E+00  0.45593999997E+02  0.45594000000E+02  0.51100000000E-03 0.  1.
         11   -1    0    0    0    0 -0.00000000000E+00 -0.00000000000E+00 -0.45593999997E+02  0.45594000000E+02  0.51100000000E-03 0. -1.
    9900012    2    1    2    0    0 -0.61789674102E+01 -0.26933496181E+02 -0.15910009037E+02  0.59301933414E+02  0.49999980643E+02 0.  0.
        -12    1    1    2    0    0  0.61789674102E+01  0.26933496181E+02  0.15910009037E+02  0.31886066586E+02  0.00000000000E+00 0.  1.
         11    1    3    3    0    0 -0.14481211573E+02 -0.72393570558E+01 -0.22430372135E+02  0.27662888019E+02  0.51100000000E-03 0. -1.
        -11    1    3    3    0    0 -0.49538567619E+01 -0.13214487617E+02 -0.25185807048E+01  0.14335502392E+02  0.51100000000E-03 0.  1.
        -12    1    3    3    0    0  0.13256100925E+02 -0.64796515075E+01  0.90389438021E+01  0.17303543003E+02  0.00000000000E+00 0.  1.
</event>
<event>
 7    1  0.7284210E-013  0.5930193E+02  0.7816164E-02  0.1266605E+00
        -11   -1    0    0    0    0  0.00000000000E+00  0.00000000000E+00  0.45593999997E+02  0.45594000000E+02  0.51100000000E-03 0.  1.
         11   -1    0    0    0    0 -0.00000000000E+00 -0.00000000000E+00 -0.45593999997E+02  0.45594000000E+02  0.51100000000E-03 0. -1.
    9900012    2    1    2    0    0  0.20517751523E+02 -0.22918658973E+02 -0.83951546500E+01  0.59301926578E+02  0.49999968176E+02 0.  0.
        -12    1    1    2    0    0 -0.20517751523E+02  0.22918658973E+02  0.83951546500E+01  0.31886073422E+02  0.00000000000E+00 0.  1.
         11    1    3    3    0    0  0.14678256466E+02 -0.58593639011E+01 -0.46420255160E+00  0.15811351697E+02  0.51100000000E-03 0. -1.
        -11    1    3    3    0    0 -0.65509311553E+01  0.10075587823E+02  0.17152006405E+01  0.12139772752E+02  0.51100000000E-03 0.  1.
         12    1    3    3    0    0  0.12390426213E+02 -0.27134882895E+02 -0.96461527389E+01  0.31350802129E+02  0.00000000000E+00 0. -1.
</event>
<event>
 7    1  0.7284210E-013  0.5930198E+02  0.7816164E-02  0.1266605E+00
        -11   -1    0    0    0    0  0.00000000000E+00  0.00000000000E+00  0.45593999997E+02  0.45594000000E+02  0.51100000000E-03 0.  1.
         11   -1    0    0    0    0 -0.00000000000E+00 -0.00000000000E+00 -0.45593999997E+02  0.45594000000E+02  0.51100000000E-03 0. -1.
    9900012    2    1    2    0    0  0.15504395253E+02  0.16233929701E+02 -0.22644900079E+02  0.59301980410E+02  0.50000066353E+02 0.  0.
        -12    1    1    2    0    0 -0.15504395253E+02 -0.16233929701E+02  0.22644900079E+02  0.31886019590E+02  0.00000000000E+00 0.  1.
         11    1    3    3    0    0 -0.85325088121E+01  0.56030686407E+01 -0.28483917636E+01  0.10597708277E+02  0.51100000000E-03 0. -1.
        -11    1    3    3    0    0  0.15302909447E+02  0.16781266233E+02  0.35905586243E+01  0.22993086905E+02  0.51100000000E-03 0.  1.
        -12    1    3    3    0    0  0.87339946175E+01 -0.61504051729E+01 -0.23387066940E+02  0.25711185228E+02  0.00000000000E+00 0.  1.
</event>
<event>
 7    1  0.7284210E-013  0.5930192E+02  0.7816164E-02  0.1266605E+00
        -11   -1    0    0    0    0  0.00000000000E+00  0.00000000000E+00  0.45593999997E+02  0.45594000000E+02  0.51100000000E-03 0.  1.
         11   -1    0    0    0    0 -0.00000000000E+00 -0.00000000000E+00 -0.45593999997E+02  0.45594000000E+02  0.51100000000E-03 0. -1.
    9900012    2    1    2    0    0  0.55904430927E+01 -0.20642338074E+01 -0.31324236656E+02  0.59301922830E+02  0.49999961341E+02 0.  0.
        -12    1    1    2    0    0 -0.55904430927E+01  0.20642338074E+01  0.31324236656E+02  0.31886077170E+02  0.00000000000E+00 0.  1.
         11    1    3    3    0    0  0.26810515992E+01 -0.37250326573E+01 -0.10237882276E+02  0.11219542760E+02  0.51100000000E-03 0. -1.
        -11    1    3    3    0    0  0.15139119500E+02 -0.82664863060E-01 -0.29484859180E+02  0.33144482102E+02  0.51100000000E-03 0.  1.
        -12    1    3    3    0    0 -0.12229728006E+02  0.17434637129E+01  0.83985048004E+01  0.14937897968E+02  0.00000000000E+00 0.  1.
</event>
<event>
 7    1  0.7284210E-013  0.5930195E+02  0.7816164E-02  0.1266605E+00
        -11   -1    0    0    0    0  0.00000000000E+00  0.00000000000E+00  0.45593999997E+02  0.45594000000E+02  0.51100000000E-03 0. -1.
         11   -1    0    0    0    0 -0.00000000000E+00 -0.00000000000E+00 -0.45593999997E+02  0.45594000000E+02  0.51100000000E-03 0.  1.
    9900012    2    1    2    0    0 -0.17099823315E+02  0.63236320702E+01  0.26159667079E+02  0.59301945656E+02  0.50000002969E+02 0.  0.
        -12    1    1    2    0    0  0.17099823315E+02 -0.63236320702E+01 -0.26159667079E+02  0.31886054344E+02  0.00000000000E+00 0.  1.
         11    1    3    3    0    0  0.33436694199E+01  0.16392229639E+02  0.19799676391E+02  0.25921275107E+02  0.51100000000E-03 0. -1.
        -11    1    3    3    0    0 -0.14973164099E+02 -0.57169026587E+01  0.15214956078E+02  0.22099174370E+02  0.51100000000E-03 0.  1.
        -12    1    3    3    0    0 -0.54703286355E+01 -0.43516949105E+01 -0.88549653890E+01  0.11281496178E+02  0.00000000000E+00 0.  1.
</event>
<event>
 7    1  0.7284210E-013  0.5930195E+02  0.7816164E-02  0.1266605E+00
        -11   -1    0    0    0    0  0.00000000000E+00  0.00000000000E+00  0.45593999997E+02  0.45594000000E+02  0.51100000000E-03 0. -1.
         11   -1    0    0    0    0 -0.00000000000E+00 -0.00000000000E+00 -0.45593999997E+02  0.45594000000E+02  0.51100000000E-03 0.  1.
    9900012    2    1    2    0    0  0.29563575022E+02 -0.11941741997E+02 -0.33213925018E+00  0.59301945266E+02  0.50000002258E+02 0.  0.
        -12    1    1    2    0    0 -0.29563575022E+02  0.11941741997E+02  0.33213925018E+00  0.31886054734E+02  0.00000000000E+00 0.  1.
         11    1    3    3    0    0  0.17796967513E+02 -0.10001845927E+02  0.21857052819E+02  0.29908188390E+02  0.51100000000E-03 0. -1.
        -11    1    3    3    0    0  0.14062102470E+02 -0.37560100052E+00 -0.10978615042E+02  0.17844152837E+02  0.51100000000E-03 0.  1.
        -12    1    3    3    0    0 -0.22954949605E+01 -0.15642950699E+01 -0.11210577027E+02  0.11549604039E+02  0.00000000000E+00 0.  1.
</event>
<event>
 7    1  0.7284210E-013  0.5930195E+02  0.7816164E-02  0.1266605E+00
        -11   -1    0    0    0    0  0.00000000000E+00  0.00000000000E+00  0.45593999997E+02  0.45594000000E+02  0.51100000000E-03 0. -1.
         11   -1    0    0    0    0 -0.00000000000E+00 -0.00000000000E+00 -0.45593999997E+02  0.45594000000E+02  0.51100000000E-03 0.  1.
    9900012    2    1    2    0    0  0.37118880897E+01  0.31613800340E+02  0.18733994216E+01  0.59301951162E+02  0.50000013011E+02 0.  0.
        -12    1    1    2    0    0 -0.37118880897E+01 -0.31613800340E+02 -0.18733994216E+01  0.31886048838E+02  0.00000000000E+00 0.  1.
         11    1    3    3    0    0  0.15283159424E+02  0.67927359663E+01  0.62661512064E+01  0.17860035697E+02  0.51100000000E-03 0. -1.
        -11    1    3    3    0    0 -0.75306388277E+01  0.12865162820E+02  0.13118111110E+02  0.19857184465E+02  0.51100000000E-03 0.  1.
        -12    1    3    3    0    0 -0.40406325067E+01  0.11955901553E+02 -0.17510862895E+02  0.21584730999E+02  0.00000000000E+00 0.  1.
</event>
<event>
 7    1  0.7284210E-013  0.5930195E+02  0.7816164E-02  0.1266605E+00
        -11   -1    0    0    0    0  0.00000000000E+00  0.00000000000E+00  0.45593999997E+02  0.45594000000E+02  0.51100000000E-03 0.  1.
         11   -1    0    0    0    0 -0.00000000000E+00 -0.00000000000E+00 -0.45593999997E+02  0.45594000000E+02  0.51100000000E-03 0. -1.
    9900012    2    1    2    0    0  0.16158868165E+02 -0.92264941346E+01 -0.25893690083E+02  0.59301946615E+02  0.50000004718E+02 0.  0.
        -12    1    1    2    0    0 -0.16158868165E+02  0.92264941346E+01  0.25893690083E+02  0.31886053385E+02  0.00000000000E+00 0.  1.
         11    1    3    3    0    0  0.89052347121E+01 -0.26884148599E+01  0.15609768063E+01  0.94322546927E+01  0.51100000000E-03 0. -1.
        -11    1    3    3    0    0 -0.21777350879E+01 -0.34983731884E+01  0.10164128077E+02  0.10967709192E+02  0.51100000000E-03 0.  1.
         12    1    3    3    0    0  0.94313685406E+01 -0.30397060863E+01 -0.37618794966E+02  0.38901982730E+02  0.00000000000E+00 0. -1.
</event>
<event>
 7    1  0.7284210E-013  0.5930184E+02  0.7816164E-02  0.1266605E+00
        -11   -1    0    0    0    0  0.00000000000E+00  0.00000000000E+00  0.45593999997E+02  0.45594000000E+02  0.51100000000E-03 0.  1.
         11   -1    0    0    0    0 -0.00000000000E+00 -0.00000000000E+00 -0.45593999997E+02  0.45594000000E+02  0.51100000000E-03 0. -1.
    9900012    2    1    2    0    0 -0.15418866094E+02 -0.10593764988E+02 -0.25821661229E+02  0.59301835652E+02  0.49999802347E+02 0.  0.
        -12    1    1    2    0    0  0.15418866094E+02  0.10593764988E+02  0.25821661229E+02  0.31886164348E+02  0.00000000000E+00 0.  1.
         11    1    3    3    0    0 -0.13922051889E+02  0.45094643115E+01 -0.41904064500E+01  0.15222296268E+02  0.51100000000E-03 0. -1.
        -11    1    3    3    0    0 -0.11323393959E+02 -0.23098366244E+02 -0.13928199523E+02  0.29253179590E+02  0.51100000000E-03 0.  1.
         12    1    3    3    0    0  0.98265797550E+01  0.79951369453E+01 -0.77030552557E+01  0.14826359794E+02  0.00000000000E+00 0. -1.
</event>
<event>
 7    1  0.7284210E-013  0.5930204E+02  0.7816164E-02  0.1266604E+00
        -11   -1    0    0    0    0  0.00000000000E+00  0.00000000000E+00  0.45593999997E+02  0.45594000000E+02  0.51100000000E-03 0. -1.
         11   -1    0    0    0    0 -0.00000000000E+00 -0.00000000000E+00 -0.45593999997E+02  0.45594000000E+02  0.51100000000E-03 0.  1.
    9900012    2    1    2    0    0  0.15118714853E+02  0.95508071787E+01  0.26399257374E+02  0.59302043115E+02  0.50000180711E+02 0.  0.
        -12    1    1    2    0    0 -0.15118714853E+02 -0.95508071787E+01 -0.26399257374E+02  0.31885956885E+02  0.00000000000E+00 0.  1.
         11    1    3    3    0    0 -0.61981440373E+01  0.13617918578E+02  0.22494864325E+02  0.27016358326E+02  0.51100000000E-03 0. -1.
        -11    1    3    3    0    0  0.19209329522E+01  0.85512723160E+01  0.24518778692E+01  0.91008761653E+01  0.51100000000E-03 0.  1.
        -12    1    3    3    0    0  0.19395925938E+02 -0.12618383715E+02  0.14525151799E+01  0.23184808624E+02  0.00000000000E+00 0.  1.
</event>
<event>
 7    1  0.7284210E-013  0.5930194E+02  0.7816164E-02  0.1266605E+00
        -11   -1    0    0    0    0  0.00000000000E+00  0.00000000000E+00  0.45593999997E+02  0.45594000000E+02  0.51100000000E-03 0. -1.
         11   -1    0    0    0    0 -0.00000000000E+00 -0.00000000000E+00 -0.45593999997E+02  0.45594000000E+02  0.51100000000E-03 0.  1.
    9900012    2    1    2    0    0 -0.18359059184E+02  0.60774181405E+01  0.25352133139E+02  0.59301941603E+02  0.49999995578E+02 0.  0.
        -12    1    1    2    0    0  0.18359059184E+02 -0.60774181405E+01 -0.25352133139E+02  0.31886058397E+02  0.00000000000E+00 0.  1.
         11    1    3    3    0    0  0.13721685565E+02  0.28939291177E+01  0.80158222335E+01  0.16152798111E+02  0.51100000000E-03 0. -1.
        -11    1    3    3    0    0  0.30435156784E+01 -0.15447609379E+01 -0.53892611500E+00  0.34553893642E+01  0.51100000000E-03 0.  1.
        -12    1    3    3    0    0 -0.35124260427E+02  0.47282499607E+01  0.17875237021E+02  0.39693754128E+02  0.00000000000E+00 0.  1.
</event>
<event>
 7    1  0.7284210E-013  0.5930197E+02  0.7816164E-02  0.1266605E+00
        -11   -1    0    0    0    0  0.00000000000E+00  0.00000000000E+00  0.45593999997E+02  0.45594000000E+02  0.51100000000E-03 0. -1.
         11   -1    0    0    0    0 -0.00000000000E+00 -0.00000000000E+00 -0.45593999997E+02  0.45594000000E+02  0.51100000000E-03 0.  1.
    9900012    2    1    2    0    0 -0.31447190561E+02 -0.18494734938E+01  0.49368628281E+01  0.59301969188E+02  0.50000045886E+02 0.  0.
        -12    1    1    2    0    0  0.31447190561E+02  0.18494734938E+01 -0.49368628281E+01  0.31886030812E+02  0.00000000000E+00 0.  1.
         11    1    3    3    0    0 -0.23347886095E+02  0.63098384853E+01  0.49717431848E+01  0.24691214579E+02  0.51100000000E-03 0. -1.
        -11    1    3    3    0    0 -0.11560404275E+02  0.83853477218E+01  0.74697047660E+01  0.16116869826E+02  0.51100000000E-03 0.  1.
         12    1    3    3    0    0  0.34610998096E+01 -0.16544659701E+02 -0.75045851228E+01  0.18493884783E+02  0.00000000000E+00 0. -1.
</event>
<event>
 7    1  0.7284210E-013  0.5930193E+02  0.7816164E-02  0.1266605E+00
        -11   -1    0    0    0    0  0.00000000000E+00  0.00000000000E+00  0.45593999997E+02  0.45594000000E+02  0.51100000000E-03 0. -1.
         11   -1    0    0    0    0 -0.00000000000E+00 -0.00000000000E+00 -0.45593999997E+02  0.45594000000E+02  0.51100000000E-03 0.  1.
    9900012    2    1    2    0    0  0.61296045198E+01 -0.11958928265E+02  0.28915972758E+02  0.59301929415E+02  0.49999973349E+02 0.  0.
        -12    1    1    2    0    0 -0.61296045198E+01  0.11958928265E+02 -0.28915972758E+02  0.31886070585E+02  0.00000000000E+00 0.  1.
         11    1    3    3    0    0  0.83409933158E+01 -0.93406663241E+01  0.13784394083E+02  0.18623365361E+02  0.51100000000E-03 0. -1.
        -11    1    3    3    0    0 -0.15869955620E+02 -0.11696880891E+02  0.14114574948E+02  0.24246520166E+02  0.51100000000E-03 0.  1.
        -12    1    3    3    0    0  0.13658566824E+02  0.90786189507E+01  0.10170037270E+01  0.16432043887E+02  0.00000000000E+00 0.  1.
</event>
<event>
 7    1  0.7284210E-013  0.5930195E+02  0.7816164E-02  0.1266605E+00
        -11   -1    0    0    0    0  0.00000000000E+00  0.00000000000E+00  0.45593999997E+02  0.45594000000E+02  0.51100000000E-03 0. -1.
         11   -1    0    0    0    0 -0.00000000000E+00 -0.00000000000E+00 -0.45593999997E+02  0.45594000000E+02  0.51100000000E-03 0.  1.
    9900012    2    1    2    0    0 -0.19864030204E+02  0.21705427376E+02  0.12288823317E+02  0.59301945806E+02  0.50000003243E+02 0.  0.
        -12    1    1    2    0    0  0.19864030204E+02 -0.21705427376E+02 -0.12288823317E+02  0.31886054194E+02  0.00000000000E+00 0.  1.
         11    1    3    3    0    0  0.70881755936E+01  0.17190634281E+02  0.23975303421E+01  0.18748554403E+02  0.51100000000E-03 0. -1.
        -11    1    3    3    0    0 -0.60751754816E-01  0.81219566202E+01 -0.50648570101E+01  0.95719719447E+01  0.51100000000E-03 0.  1.
        -12    1    3    3    0    0 -0.26891454043E+02 -0.36071635246E+01  0.14956149985E+02  0.30981419458E+02  0.00000000000E+00 0.  1.
</event>
<event>
 7    1  0.7284210E-013  0.5930196E+02  0.7816164E-02  0.1266605E+00
        -11   -1    0    0    0    0  0.00000000000E+00  0.00000000000E+00  0.45593999997E+02  0.45594000000E+02  0.51100000000E-03 0.  1.
         11   -1    0    0    0    0 -0.00000000000E+00 -0.00000000000E+00 -0.45593999997E+02  0.45594000000E+02  0.51100000000E-03 0. -1.
    9900012    2    1    2    0    0 -0.22620896848E+02 -0.23437494228E+01 -0.22349977374E+02  0.59301958788E+02  0.50000026920E+02 0.  0.
        -12    1    1    2    0    0  0.22620896848E+02  0.23437494228E+01  0.22349977374E+02  0.31886041212E+02  0.00000000000E+00 0.  1.
         11    1    3    3    0    0 -0.13396768102E+02  0.39437235043E+01 -0.17722200419E+02  0.22563305135E+02  0.51100000000E-03 0. -1.
        -11    1    3    3    0    0  0.71016123636E+00 -0.14723919459E+02 -0.14277613625E+02  0.20521900115E+02  0.51100000000E-03 0.  1.
        -12    1    3    3    0    0 -0.99342899819E+01  0.84364465323E+01  0.96498366710E+01  0.16216753538E+02  0.00000000000E+00 0.  1.
</event>
<event>
 7    1  0.7284210E-013  0.5930190E+02  0.7816164E-02  0.1266605E+00
        -11   -1    0    0    0    0  0.00000000000E+00  0.00000000000E+00  0.45593999997E+02  0.45594000000E+02  0.51100000000E-03 0.  1.
         11   -1    0    0    0    0 -0.00000000000E+00 -0.00000000000E+00 -0.45593999997E+02  0.45594000000E+02  0.51100000000E-03 0. -1.
    9900012    2    1    2    0    0 -0.25691717044E+02  0.88579920976E+01 -0.16679171916E+02  0.59301903900E+02  0.49999926817E+02 0.  0.
        -12    1    1    2    0    0  0.25691717044E+02 -0.88579920976E+01  0.16679171916E+02  0.31886096100E+02  0.00000000000E+00 0.  1.
         11    1    3    3    0    0 -0.10843773920E+02  0.17040347953E+02  0.76105169630E+01  0.21584273439E+02  0.51100000000E-03 0. -1.
        -11    1    3    3    0    0 -0.25753033663E+01 -0.41274866865E+01  0.42037979368E+01  0.64296384915E+01  0.51100000000E-03 0.  1.
        -12    1    3    3    0    0 -0.12272639758E+02 -0.40548691684E+01 -0.28493486816E+02  0.31287991970E+02  0.00000000000E+00 0.  1.
</event>
<event>
 7    1  0.7284210E-013  0.5930191E+02  0.7816164E-02  0.1266605E+00
        -11   -1    0    0    0    0  0.00000000000E+00  0.00000000000E+00  0.45593999997E+02  0.45594000000E+02  0.51100000000E-03 0.  1.
         11   -1    0    0    0    0 -0.00000000000E+00 -0.00000000000E+00 -0.45593999997E+02  0.45594000000E+02  0.51100000000E-03 0. -1.
    9900012    2    1    2    0    0  0.16021993319E+01 -0.20961538590E+02 -0.23974346379E+02  0.59301914837E+02  0.49999946763E+02 0.  0.
        -12    1    1    2    0    0 -0.16021993319E+01  0.20961538590E+02  0.23974346379E+02  0.31886085163E+02  0.00000000000E+00 0.  1.
         11    1    3    3    0    0 -0.54149737597E+01 -0.84484123078E+01 -0.32994281573E+01  0.10563325128E+02  0.51100000000E-03 0. -1.
        -11    1    3    3    0    0 -0.47864124991E+01 -0.56258928369E+01  0.11564586020E+02  0.13722247079E+02  0.51100000000E-03 0.  1.
         12    1    3    3    0    0  0.11803585591E+02 -0.68872334449E+01 -0.32239504242E+02  0.35016342629E+02  0.00000000000E+00 0. -1.
</event>
<event>
 7    1  0.7284210E-013  0.5930201E+02  0.7816164E-02  0.1266605E+00
        -11   -1    0    0    0    0  0.00000000000E+00  0.00000000000E+00  0.45593999997E+02  0.45594000000E+02  0.51100000000E-03 0.  1.
         11   -1    0    0    0    0 -0.00000000000E+00 -0.00000000000E+00 -0.45593999997E+02  0.45594000000E+02  0.51100000000E-03 0. -1.
    9900012    2    1    2    0    0  0.10159061885E+02  0.13238574416E+02 -0.27170760536E+02  0.59302005911E+02  0.50000112860E+02 0.  0.
        -12    1    1    2    0    0 -0.10159061885E+02 -0.13238574416E+02  0.27170760536E+02  0.31885994089E+02  0.00000000000E+00 0.  1.
         11    1    3    3    0    0  0.40548510607E+01  0.59257707064E+01 -0.37625149226E+02  0.38304156825E+02  0.51100000000E-03 0. -1.
        -11    1    3    3    0    0 -0.45801388724E+01  0.32130187271E+01  0.71649796395E+01  0.90905497593E+01  0.51100000000E-03 0.  1.
        -12    1    3    3    0    0  0.10684349696E+02  0.40997849828E+01  0.32894090503E+01  0.11907299326E+02  0.00000000000E+00 0.  1.
</event>
<event>
 7    1  0.7284210E-013  0.5930194E+02  0.7816164E-02  0.1266605E+00
        -11   -1    0    0    0    0  0.00000000000E+00  0.00000000000E+00  0.45593999997E+02  0.45594000000E+02  0.51100000000E-03 0.  1.
         11   -1    0    0    0    0 -0.00000000000E+00 -0.00000000000E+00 -0.45593999997E+02  0.45594000000E+02  0.51100000000E-03 0. -1.
    9900012    2    1    2    0    0  0.30976386136E+02 -0.29926841941E+01 -0.69446318115E+01  0.59301943993E+02  0.49999999936E+02 0.  0.
        -12    1    1    2    0    0 -0.30976386136E+02  0.29926841941E+01  0.69446318115E+01  0.31886056007E+02  0.00000000000E+00 0.  1.
         11    1    3    3    0    0  0.86371336045E-01 -0.15843273594E+02 -0.51567073610E+01  0.16661584836E+02  0.51100000000E-03 0. -1.
        -11    1    3    3    0    0 -0.43206751507E+01  0.34925815623E+01  0.22297192528E+01  0.59864854409E+01  0.51100000000E-03 0.  1.
         12    1    3    3    0    0  0.35210689950E+02  0.93580078375E+01 -0.40176437032E+01  0.36653873716E+02  0.00000000000E+00 0. -1.
</event>
<event>
 7    1  0.7284210E-013  0.5930203E+02  0.7816164E-02  0.1266604E+00
        -11   -1    0    0    0    0  0.00000000000E+00  0.00000000000E+00  0.45593999997E+02  0.45594000000E+02  0.51100000000E-03 0.  1.
         11   -1    0    0    0    0 -0.00000000000E+00 -0.00000000000E+00 -0.45593999997E+02  0.45594000000E+02  0.51100000000E-03 0. -1.
    9900012    2    1    2    0    0  0.26354778753E+02  0.19815405150E+01 -0.17838559893E+02  0.59302029967E+02  0.50000156732E+02 0.  0.
        -12    1    1    2    0    0 -0.26354778753E+02 -0.19815405150E+01  0.17838559893E+02  0.31885970033E+02  0.00000000000E+00 0.  1.
         11    1    3    3    0    0  0.29848879765E+02 -0.51158994922E+01 -0.17301198811E+02  0.34877779909E+02  0.51100000000E-03 0. -1.
        -11    1    3    3    0    0  0.52500774168E+01 -0.59336071945E+01  0.27578068429E+01  0.83890706317E+01  0.51100000000E-03 0.  1.
         12    1    3    3    0    0 -0.87441784291E+01  0.13031047202E+02 -0.32951679241E+01  0.16035179426E+02  0.00000000000E+00 0. -1.
</event>
<event>
 7    1  0.7284210E-013  0.5930195E+02  0.7816164E-02  0.1266605E+00
        -11   -1    0    0    0    0  0.00000000000E+00  0.00000000000E+00  0.45593999997E+02  0.45594000000E+02  0.51100000000E-03 0.  1.
         11   -1    0    0    0    0 -0.00000000000E+00 -0.00000000000E+00 -0.45593999997E+02  0.45594000000E+02  0.51100000000E-03 0. -1.
    9900012    2    1    2    0    0 -0.23984561709E+02  0.20467564692E+02 -0.47475897863E+01  0.59301952682E+02  0.50000015784E+02 0.  0.
        -12    1    1    2    0    0  0.23984561709E+02 -0.20467564692E+02  0.47475897863E+01  0.31886047318E+02  0.00000000000E+00 0.  1.
         11    1    3    3    0    0 -0.13422387075E+02 -0.11998039955E+01 -0.11645611521E+02  0.17810678605E+02  0.51100000000E-03 0. -1.
        -11    1    3    3    0    0 -0.15441895351E+02  0.10758418737E+02  0.17363186238E+02  0.25606170006E+02  0.51100000000E-03 0.  1.
         12    1    3    3    0    0  0.48797207167E+01  0.10908949950E+02 -0.10465164504E+02  0.15885104072E+02  0.00000000000E+00 0. -1.
</event>
<event>
 7    1  0.7284210E-013  0.5930193E+02  0.7816164E-02  0.1266605E+00
        -11   -1    0    0    0    0  0.00000000000E+00  0.00000000000E+00  0.45593999997E+02  0.45594000000E+02  0.51100000000E-03 0. -1.
         11   -1    0    0    0    0 -0.00000000000E+00 -0.00000000000E+00 -0.45593999997E+02  0.45594000000E+02  0.51100000000E-03 0.  1.
    9900012    2    1    2    0    0 -0.30761780762E+02 -0.20983126740E+01 -0.81259505772E+01  0.59301934948E+02  0.49999983440E+02 0.  0.
        -12    1    1    2    0    0  0.30761780762E+02  0.20983126740E+01  0.81259505772E+01  0.31886065052E+02  0.00000000000E+00 0.  1.
         11    1    3    3    0    0 -0.36996166180E+01  0.71213619957E+00 -0.28783831107E+01  0.47412435795E+01  0.51100000000E-03 0. -1.
        -11    1    3    3    0    0  0.26258113008E+01 -0.30146091578E+01 -0.20706131125E+02  0.21088542381E+02  0.51100000000E-03 0.  1.
        -12    1    3    3    0    0 -0.29687975445E+02  0.20416028429E+00  0.15458563658E+02  0.33472148987E+02  0.00000000000E+00 0.  1.
</event>
<event>
 7    1  0.7284210E-013  0.5930196E+02  0.7816164E-02  0.1266605E+00
        -11   -1    0    0    0    0  0.00000000000E+00  0.00000000000E+00  0.45593999997E+02  0.45594000000E+02  0.51100000000E-03 0.  1.
         11   -1    0    0    0    0 -0.00000000000E+00 -0.00000000000E+00 -0.45593999997E+02  0.45594000000E+02  0.51100000000E-03 0. -1.
    9900012    2    1    2    0    0  0.15448950221E+02 -0.92550340743E+01 -0.26313372029E+02  0.59301964401E+02  0.50000037156E+02 0.  0.
        -12    1    1    2    0    0 -0.15448950221E+02  0.92550340743E+01  0.26313372029E+02  0.31886035599E+02  0.00000000000E+00 0.  1.
         11    1    3    3    0    0  0.39150653120E+01  0.82919844103E+01 -0.81690113912E+01  0.12280777224E+02  0.51100000000E-03 0. -1.
        -11    1    3    3    0    0  0.39981269674E+01  0.10812704517E+02  0.16206555268E+01  0.11641568744E+02  0.51100000000E-03 0.  1.
         12    1    3    3    0    0  0.75357579416E+01 -0.28359723002E+02 -0.19765016165E+02  0.35379618433E+02  0.00000000000E+00 0. -1.
</event>
<event>
 7    1  0.9850255E-013  0.5930201E+02  0.7816164E-02  0.1266605E+00
        -11   -1    0    0    0    0  0.00000000000E+00  0.00000000000E+00  0.45593999997E+02  0.45594000000E+02  0.51100000000E-03 0. -1.
         11   -1    0    0    0    0 -0.00000000000E+00 -0.00000000000E+00 -0.45593999997E+02  0.45594000000E+02  0.51100000000E-03 0.  1.
    9900012    2    1    2    0    0 -0.43700482505E+01  0.25746195554E+02  0.18296247978E+02  0.59302006252E+02  0.50000113482E+02 0.  0.
        -12    1    1    2    0    0  0.43700482505E+01 -0.25746195554E+02 -0.18296247978E+02  0.31885993748E+02  0.00000000000E+00 0.  1.
         11    1    3    3    0    0  0.64620802307E+01  0.87613258317E+01  0.21085234355E+02  0.23729863449E+02  0.51100000000E-03 0. -1.
        -11    1    3    3    0    0 -0.69203197969E+01  0.24727179177E+02  0.18339899947E+01  0.25742721995E+02  0.51100000000E-03 0.  1.
        -12    1    3    3    0    0 -0.39118086843E+01 -0.77423094549E+01 -0.46229763723E+01  0.98294208077E+01  0.00000000000E+00 0.  1.
</event>
<event>
 7    1  0.7284210E-013  0.5930196E+02  0.7816164E-02  0.1266605E+00
        -11   -1    0    0    0    0  0.00000000000E+00  0.00000000000E+00  0.45593999997E+02  0.45594000000E+02  0.51100000000E-03 0. -1.
         11   -1    0    0    0    0 -0.00000000000E+00 -0.00000000000E+00 -0.45593999997E+02  0.45594000000E+02  0.51100000000E-03 0.  1.
    9900012    2    1    2    0    0 -0.27535383969E+02  0.15876449438E+01  0.16000050293E+02  0.59301959228E+02  0.50000027721E+02 0.  0.
        -12    1    1    2    0    0  0.27535383969E+02 -0.15876449438E+01 -0.16000050293E+02  0.31886040772E+02  0.00000000000E+00 0.  1.
         11    1    3    3    0    0 -0.29959703892E+02 -0.24975630804E-01 -0.68387530072E+00  0.29967518528E+02  0.51100000000E-03 0.  1.
        -11    1    3    3    0    0 -0.62865779257E+01  0.91043016148E+01  0.13415553748E+02  0.17389262565E+02  0.51100000000E-03 0. -1.
        -12    1    3    3    0    0  0.87108978489E+01 -0.74916810403E+01  0.32683718453E+01  0.11945178134E+02  0.00000000000E+00 0.  1.
</event>
<event>
 7    1  0.7284210E-013  0.5930196E+02  0.7816164E-02  0.1266605E+00
        -11   -1    0    0    0    0  0.00000000000E+00  0.00000000000E+00  0.45593999997E+02  0.45594000000E+02  0.51100000000E-03 0.  1.
         11   -1    0    0    0    0 -0.00000000000E+00 -0.00000000000E+00 -0.45593999997E+02  0.45594000000E+02  0.51100000000E-03 0. -1.
    9900012    2    1    2    0    0 -0.17980492112E+02 -0.23358334226E+02 -0.12157696046E+02  0.59301961557E+02  0.50000031970E+02 0.  0.
        -12    1    1    2    0    0  0.17980492112E+02  0.23358334226E+02  0.12157696046E+02  0.31886038443E+02  0.00000000000E+00 0.  1.
         11    1    3    3    0    0 -0.21506597164E+01 -0.11666695588E+02 -0.17007243167E+02  0.20736042138E+02  0.51100000000E-03 0. -1.
        -11    1    3    3    0    0  0.53862787414E+00 -0.19857243800E+02  0.39374618507E+01  0.20251021145E+02  0.51100000000E-03 0.  1.
         12    1    3    3    0    0 -0.16368460270E+02  0.81656051614E+01  0.91208527050E+00  0.18314898274E+02  0.00000000000E+00 0. -1.
</event>
<event>
 7    1  0.7284210E-013  0.5930204E+02  0.7816164E-02  0.1266604E+00
        -11   -1    0    0    0    0  0.00000000000E+00  0.00000000000E+00  0.45593999997E+02  0.45594000000E+02  0.51100000000E-03 0.  1.
         11   -1    0    0    0    0 -0.00000000000E+00 -0.00000000000E+00 -0.45593999997E+02  0.45594000000E+02  0.51100000000E-03 0. -1.
    9900012    2    1    2    0    0  0.85322075206E+01 -0.20424251339E+02 -0.22951381501E+02  0.59302038814E+02  0.50000172867E+02 0.  0.
        -12    1    1    2    0    0 -0.85322075206E+01  0.20424251339E+02  0.22951381501E+02  0.31885961186E+02  0.00000000000E+00 0.  1.
         11    1    3    3    0    0 -0.14012779469E+00 -0.37109067091E+01  0.23252117794E+01  0.43814466199E+01  0.51100000000E-03 0. -1.
        -11    1    3    3    0    0 -0.11228423439E+01  0.11517660258E+02  0.47953930999E+01  0.12526494641E+02  0.51100000000E-03 0.  1.
         12    1    3    3    0    0  0.97951776592E+01 -0.28231004889E+02 -0.30071986381E+02  0.42394097552E+02  0.00000000000E+00 0. -1.
</event>
<event>
 7    1  0.7284210E-013  0.5930195E+02  0.7816164E-02  0.1266605E+00
        -11   -1    0    0    0    0  0.00000000000E+00  0.00000000000E+00  0.45593999997E+02  0.45594000000E+02  0.51100000000E-03 0. -1.
         11   -1    0    0    0    0 -0.00000000000E+00 -0.00000000000E+00 -0.45593999997E+02  0.45594000000E+02  0.51100000000E-03 0.  1.
    9900012    2    1    2    0    0 -0.10751577875E+02  0.25664805612E+02  0.15570530590E+02  0.59301951378E+02  0.50000013405E+02 0.  0.
        -12    1    1    2    0    0  0.10751577875E+02 -0.25664805612E+02 -0.15570530590E+02  0.31886048622E+02  0.00000000000E+00 0.  1.
         11    1    3    3    0    0  0.10558624798E+02  0.94776425958E+01  0.12468726722E+02  0.18888605378E+02  0.51100000000E-03 0. -1.
        -11    1    3    3    0    0  0.39810556399E+01 -0.15064771401E+00 -0.74996691545E+01  0.84921455728E+01  0.51100000000E-03 0.  1.
        -12    1    3    3    0    0 -0.25291258313E+02  0.16337810730E+02  0.10601473023E+02  0.31921200427E+02  0.00000000000E+00 0.  1.
</event>
<event>
 7    1  0.7284210E-013  0.5930195E+02  0.7816164E-02  0.1266605E+00
        -11   -1    0    0    0    0  0.00000000000E+00  0.00000000000E+00  0.45593999997E+02  0.45594000000E+02  0.51100000000E-03 0. -1.
         11   -1    0    0    0    0 -0.00000000000E+00 -0.00000000000E+00 -0.45593999997E+02  0.45594000000E+02  0.51100000000E-03 0.  1.
    9900012    2    1    2    0    0 -0.30613580032E+02 -0.83192524315E+01  0.32123600438E+01  0.59301945048E+02  0.50000001860E+02 0.  0.
        -12    1    1    2    0    0  0.30613580032E+02  0.83192524315E+01 -0.32123600438E+01  0.31886054952E+02  0.00000000000E+00 0.  1.
         11    1    3    3    0    0  0.60405012009E+01  0.39309532359E+01  0.25771290422E+01  0.76538645443E+01  0.51100000000E-03 0. -1.
        -11    1    3    3    0    0 -0.22059893452E+02  0.62244763215E+01  0.11585116180E+02  0.25682638528E+02  0.51100000000E-03 0.  1.
         12    1    3    3    0    0 -0.14594187780E+02 -0.18474681989E+02 -0.10949885178E+02  0.25965441975E+02  0.00000000000E+00 0. -1.
</event>
<event>
 7    1  0.7284210E-013  0.5930193E+02  0.7816164E-02  0.1266605E+00
        -11   -1    0    0    0    0  0.00000000000E+00  0.00000000000E+00  0.45593999997E+02  0.45594000000E+02  0.51100000000E-03 0. -1.
         11   -1    0    0    0    0 -0.00000000000E+00 -0.00000000000E+00 -0.45593999997E+02  0.45594000000E+02  0.51100000000E-03 0.  1.
    9900012    2    1    2    0    0  0.15173553633E+02 -0.21143688181E+01  0.27964515752E+02  0.59301930525E+02  0.49999975374E+02 0.  0.
        -12    1    1    2    0    0 -0.15173553633E+02  0.21143688181E+01 -0.27964515752E+02  0.31886069475E+02  0.00000000000E+00 0.  1.
         11    1    3    3    0    0  0.15052941599E+02 -0.14346506464E+02  0.79830209148E+01  0.22274243459E+02  0.51100000000E-03 0. -1.
        -11    1    3    3    0    0  0.50725549319E+01 -0.83453651545E+01  0.85112189523E+01  0.12954411658E+02  0.51100000000E-03 0.  1.
        -12    1    3    3    0    0 -0.49519428986E+01  0.20577502800E+02  0.11470275885E+02  0.24073275407E+02  0.00000000000E+00 0.  1.
</event>
<event>
 7    1  0.7284210E-013  0.5930203E+02  0.7816164E-02  0.1266604E+00
        -11   -1    0    0    0    0  0.00000000000E+00  0.00000000000E+00  0.45593999997E+02  0.45594000000E+02  0.51100000000E-03 0.  1.
         11   -1    0    0    0    0 -0.00000000000E+00 -0.00000000000E+00 -0.45593999997E+02  0.45594000000E+02  0.51100000000E-03 0. -1.
    9900012    2    1    2    0    0  0.36523925842E+01 -0.31567089757E+02 -0.26256091909E+01  0.59302032069E+02  0.50000160565E+02 0.  0.
        -12    1    1    2    0    0 -0.36523925842E+01  0.31567089757E+02  0.26256091909E+01  0.31885967931E+02  0.00000000000E+00 0.  1.
         11    1    3    3    0    0  0.12242175657E+01 -0.67857771864E+01 -0.96956791601E+01  0.11897549130E+02  0.51100000000E-03 0. -1.
        -11    1    3    3    0    0  0.61973121977E+01 -0.11132318572E+02 -0.15927921839E+02  0.20396908825E+02  0.51100000000E-03 0.  1.
        -12    1    3    3    0    0 -0.37691371792E+01 -0.13648993999E+02  0.22997991808E+02  0.27007574113E+02  0.00000000000E+00 0.  1.
</event>
<event>
 7    1  0.7284210E-013  0.5930201E+02  0.7816164E-02  0.1266605E+00
        -11   -1    0    0    0    0  0.00000000000E+00  0.00000000000E+00  0.45593999997E+02  0.45594000000E+02  0.51100000000E-03 0. -1.
         11   -1    0    0    0    0 -0.00000000000E+00 -0.00000000000E+00 -0.45593999997E+02  0.45594000000E+02  0.51100000000E-03 0.  1.
    9900012    2    1    2    0    0 -0.18421834783E+02 -0.11395082770E+01  0.26001034266E+02  0.59302011560E+02  0.50000123163E+02 0.  0.
        -12    1    1    2    0    0  0.18421834783E+02  0.11395082770E+01 -0.26001034266E+02  0.31885988440E+02  0.00000000000E+00 0.  1.
         11    1    3    3    0    0  0.13947866654E+02 -0.55983616118E+01  0.73911226481E+01  0.16748532210E+02  0.51100000000E-03 0. -1.
        -11    1    3    3    0    0 -0.14877344162E+02 -0.69273846205E+01  0.34833311388E+01  0.16776698813E+02  0.51100000000E-03 0.  1.
        -12    1    3    3    0    0 -0.17492357276E+02  0.11386237955E+02  0.15126580479E+02  0.25776780536E+02  0.00000000000E+00 0.  1.
</event>
<event>
 7    1  0.7284210E-013  0.5930194E+02  0.7816164E-02  0.1266605E+00
        -11   -1    0    0    0    0  0.00000000000E+00  0.00000000000E+00  0.45593999997E+02  0.45594000000E+02  0.51100000000E-03 0. -1.
         11   -1    0    0    0    0 -0.00000000000E+00 -0.00000000000E+00 -0.45593999997E+02  0.45594000000E+02  0.51100000000E-03 0.  1.
    9900012    2    1    2    0    0  0.27801298804E+02 -0.15613049777E+02 -0.20283263885E+00  0.59301942238E+02  0.49999996735E+02 0.  0.
        -12    1    1    2    0    0 -0.27801298804E+02  0.15613049777E+02  0.20283263885E+00  0.31886057762E+02  0.00000000000E+00 0.  1.
         11    1    3    3    0    0  0.97899059294E+01 -0.14290014981E+02  0.81954877314E+01  0.19162797439E+02  0.51100000000E-03 0. -1.
        -11    1    3    3    0    0  0.87723288112E+00 -0.72301590567E+01  0.11254247138E+02  0.13405327911E+02  0.51100000000E-03 0.  1.
        -12    1    3    3    0    0  0.17134159994E+02  0.59071242609E+01 -0.19652567508E+02  0.26733816888E+02  0.00000000000E+00 0.  1.
</event>
<event>
 7    1  0.7284210E-013  0.5930190E+02  0.7816164E-02  0.1266605E+00
        -11   -1    0    0    0    0  0.00000000000E+00  0.00000000000E+00  0.45593999997E+02  0.45594000000E+02  0.51100000000E-03 0.  1.
         11   -1    0    0    0    0 -0.00000000000E+00 -0.00000000000E+00 -0.45593999997E+02  0.45594000000E+02  0.51100000000E-03 0. -1.
    9900012    2    1    2    0    0 -0.25747245266E+02  0.17775947630E+02 -0.61496517952E+01  0.59301903185E+02  0.49999925512E+02 0.  0.
        -12    1    1    2    0    0  0.25747245266E+02 -0.17775947630E+02  0.61496517952E+01  0.31886096815E+02  0.00000000000E+00 0.  1.
         11    1    3    3    0    0 -0.32492414982E+01 -0.85210042073E+01 -0.45949794450E+01  0.10211705018E+02  0.51100000000E-03 0. -1.
        -11    1    3    3    0    0 -0.18622206423E+02 -0.16376375025E+01  0.64475197856E+01  0.19774704557E+02  0.51100000000E-03 0.  1.
        -12    1    3    3    0    0 -0.38757973446E+01  0.27934589340E+02 -0.80021921357E+01  0.29315493610E+02  0.00000000000E+00 0.  1.
</event>
<event>
 7    1  0.7658866E-013  0.5930195E+02  0.7816164E-02  0.1266605E+00
        -11   -1    0    0    0    0  0.00000000000E+00  0.00000000000E+00  0.45593999997E+02  0.45594000000E+02  0.51100000000E-03 0. -1.
         11   -1    0    0    0    0 -0.00000000000E+00 -0.00000000000E+00 -0.45593999997E+02  0.45594000000E+02  0.51100000000E-03 0.  1.
    9900012    2    1    2    0    0 -0.16751303121E+01  0.20185183997E+02  0.24626666936E+02  0.59301946012E+02  0.50000003618E+02 0.  0.
        -12    1    1    2    0    0  0.16751303121E+01 -0.20185183997E+02 -0.24626666936E+02  0.31886053988E+02  0.00000000000E+00 0.  1.
         11    1    3    3    0    0  0.18890859017E+01  0.11601865386E+02  0.24969177631E+02  0.27597676674E+02  0.51100000000E-03 0. -1.
        -11    1    3    3    0    0 -0.68029676846E+01  0.15356275307E+02  0.95225890516E+01  0.19307388822E+02  0.51100000000E-03 0.  1.
        -12    1    3    3    0    0  0.32387514708E+01 -0.67729566965E+01 -0.98650997463E+01  0.12396880515E+02  0.00000000000E+00 0.  1.
</event>
<event>
 7    1  0.7284210E-013  0.5930193E+02  0.7816164E-02  0.1266605E+00
        -11   -1    0    0    0    0  0.00000000000E+00  0.00000000000E+00  0.45593999997E+02  0.45594000000E+02  0.51100000000E-03 0.  1.
         11   -1    0    0    0    0 -0.00000000000E+00 -0.00000000000E+00 -0.45593999997E+02  0.45594000000E+02  0.51100000000E-03 0. -1.
    9900012    2    1    2    0    0 -0.39617753665E+01 -0.29941800447E+02 -0.10223226762E+02  0.59301930260E+02  0.49999974891E+02 0.  0.
        -12    1    1    2    0    0  0.39617753665E+01  0.29941800447E+02  0.10223226762E+02  0.31886069740E+02  0.00000000000E+00 0.  1.
         11    1    3    3    0    0  0.49886714242E+01 -0.12176447687E+02 -0.39525224443E+01  0.13739547110E+02  0.51100000000E-03 0. -1.
        -11    1    3    3    0    0 -0.13881120436E+02 -0.24450873631E+02 -0.16331424112E+02  0.32515321614E+02  0.51100000000E-03 0.  1.
        -12    1    3    3    0    0  0.49306736454E+01  0.66855208717E+01  0.10060719795E+02  0.13047061536E+02  0.00000000000E+00 0.  1.
</event>
<event>
 7    1  0.7284210E-013  0.5930194E+02  0.7816164E-02  0.1266605E+00
        -11   -1    0    0    0    0  0.00000000000E+00  0.00000000000E+00  0.45593999997E+02  0.45594000000E+02  0.51100000000E-03 0.  1.
         11   -1    0    0    0    0 -0.00000000000E+00 -0.00000000000E+00 -0.45593999997E+02  0.45594000000E+02  0.51100000000E-03 0. -1.
    9900012    2    1    2    0    0  0.29757873582E+02 -0.11409094683E+02  0.10110102868E+01  0.59301943119E+02  0.49999998342E+02 0.  0.
        -12    1    1    2    0    0 -0.29757873582E+02  0.11409094683E+02 -0.10110102868E+01  0.31886056881E+02  0.00000000000E+00 0.  1.
         11    1    3    3    0    0  0.70932961086E+01 -0.81143776139E+01 -0.16592398807E+02  0.19785491456E+02  0.51100000000E-03 0. -1.
        -11    1    3    3    0    0 -0.35464376176E+01 -0.64614919074E+01  0.92443921112E+01  0.11823150308E+02  0.51100000000E-03 0.  1.
         12    1    3    3    0    0  0.26211015091E+02  0.31667748379E+01  0.83590169822E+01  0.27693301354E+02  0.00000000000E+00 0. -1.
</event>
<event>
 7    1  0.7284210E-013  0.5930193E+02  0.7816164E-02  0.1266605E+00
        -11   -1    0    0    0    0  0.00000000000E+00  0.00000000000E+00  0.45593999997E+02  0.45594000000E+02  0.51100000000E-03 0.  1.
         11   -1    0    0    0    0 -0.00000000000E+00 -0.00000000000E+00 -0.45593999997E+02  0.45594000000E+02  0.51100000000E-03 0. -1.
    9900012    2    1    2    0    0  0.28560833796E+02  0.97330122938E+01 -0.10308670666E+02  0.59301930215E+02  0.49999974808E+02 0.  0.
        -12    1    1    2    0    0 -0.28560833796E+02 -0.97330122938E+01  0.10308670666E+02  0.31886069785E+02  0.00000000000E+00 0.  1.
         11    1    3    3    0    0 -0.31723440346E+01  0.15848202855E+02 -0.31645670389E+01  0.16469480418E+02  0.51100000000E-03 0. -1.
        -11    1    3    3    0    0 -0.49208522927E+01  0.52445546112E+00 -0.13889934220E+01  0.51399556229E+01  0.51100000000E-03 0.  1.
        -12    1    3    3    0    0  0.36654030124E+02 -0.66396460227E+01 -0.57551102051E+01  0.37692494174E+02  0.00000000000E+00 0.  1.
</event>
<event>
 7    1  0.7284210E-013  0.5930195E+02  0.7816164E-02  0.1266605E+00
        -11   -1    0    0    0    0  0.00000000000E+00  0.00000000000E+00  0.45593999997E+02  0.45594000000E+02  0.51100000000E-03 0.  1.
         11   -1    0    0    0    0 -0.00000000000E+00 -0.00000000000E+00 -0.45593999997E+02  0.45594000000E+02  0.51100000000E-03 0. -1.
    9900012    2    1    2    0    0  0.12943355754E+02 -0.28448075333E+02 -0.63164096554E+01  0.59301945380E+02  0.50000002466E+02 0.  0.
        -12    1    1    2    0    0 -0.12943355754E+02  0.28448075333E+02  0.63164096554E+01  0.31886054620E+02  0.00000000000E+00 0.  1.
         11    1    3    3    0    0  0.11274975935E+02 -0.51424959747E+01  0.11842418896E+02  0.17140981091E+02  0.51100000000E-03 0. -1.
        -11    1    3    3    0    0 -0.11625893052E+02 -0.55257107876E+01  0.89735771014E+00  0.12903492554E+02  0.51100000000E-03 0.  1.
         12    1    3    3    0    0  0.13294272870E+02 -0.17779868570E+02 -0.19056186261E+02  0.29257471736E+02  0.00000000000E+00 0. -1.
</event>
<event>
 7    1  0.7284210E-013  0.5930193E+02  0.7816164E-02  0.1266605E+00
        -11   -1    0    0    0    0  0.00000000000E+00  0.00000000000E+00  0.45593999997E+02  0.45594000000E+02  0.51100000000E-03 0. -1.
         11   -1    0    0    0    0 -0.00000000000E+00 -0.00000000000E+00 -0.45593999997E+02  0.45594000000E+02  0.51100000000E-03 0.  1.
    9900012    2    1    2    0    0 -0.26688874913E+02 -0.46998121166E+01  0.16802894629E+02  0.59301928653E+02  0.49999971960E+02 0.  0.
        -12    1    1    2    0    0  0.26688874913E+02  0.46998121166E+01 -0.16802894629E+02  0.31886071347E+02  0.00000000000E+00 0.  1.
         11    1    3    3    0    0  0.29735882578E+01 -0.58513553737E+01  0.23573334033E+02  0.24470036054E+02  0.51100000000E-03 0. -1.
        -11    1    3    3    0    0 -0.53852104327E+01  0.96597847372E+00 -0.89143970590E+01  0.10459449364E+02  0.51100000000E-03 0.  1.
        -12    1    3    3    0    0 -0.24277252738E+02  0.18556478338E+00  0.21439576557E+01  0.24372443234E+02  0.00000000000E+00 0.  1.
</event>
<event>
 7    1  0.7284210E-013  0.5930193E+02  0.7816164E-02  0.1266605E+00
        -11   -1    0    0    0    0  0.00000000000E+00  0.00000000000E+00  0.45593999997E+02  0.45594000000E+02  0.51100000000E-03 0.  1.
         11   -1    0    0    0    0 -0.00000000000E+00 -0.00000000000E+00 -0.45593999997E+02  0.45594000000E+02  0.51100000000E-03 0. -1.
    9900012    2    1    2    0    0  0.71137187286E+01  0.35342498596E+00 -0.31080402546E+02  0.59301932106E+02  0.49999978257E+02 0.  0.
        -12    1    1    2    0    0 -0.71137187286E+01 -0.35342498596E+00  0.31080402546E+02  0.31886067894E+02  0.00000000000E+00 0.  1.
         11    1    3    3    0    0  0.18414128204E+01  0.93964006780E+01 -0.97040482635E+01  0.13632743665E+02  0.51100000000E-03 0. -1.
        -11    1    3    3    0    0 -0.99755733928E+01 -0.29797912147E+01 -0.26505672034E+02  0.28477041111E+02  0.51100000000E-03 0.  1.
        -12    1    3    3    0    0  0.15247879301E+02 -0.60631844773E+01  0.51293177522E+01  0.17192147329E+02  0.00000000000E+00 0.  1.
</event>
<event>
 7    1  0.7284210E-013  0.5930187E+02  0.7816164E-02  0.1266605E+00
        -11   -1    0    0    0    0  0.00000000000E+00  0.00000000000E+00  0.45593999997E+02  0.45594000000E+02  0.51100000000E-03 0. -1.
         11   -1    0    0    0    0 -0.00000000000E+00 -0.00000000000E+00 -0.45593999997E+02  0.45594000000E+02  0.51100000000E-03 0.  1.
    9900012    2    1    2    0    0  0.24732932220E+02 -0.14860385582E+02 -0.13571162217E+02  0.59301867595E+02  0.49999860604E+02 0.  0.
        -12    1    1    2    0    0 -0.24732932220E+02  0.14860385582E+02  0.13571162217E+02  0.31886132405E+02  0.00000000000E+00 0.  1.
         11    1    3    3    0    0 -0.82641482174E-01 -0.19086356257E+02 -0.10885400766E+01  0.19117550694E+02  0.51100000000E-03 0. -1.
        -11    1    3    3    0    0  0.52554527349E+01  0.10462173380E+01 -0.18670134981E+02  0.19423910385E+02  0.51100000000E-03 0.  1.
         12    1    3    3    0    0  0.19560120968E+02  0.31797533369E+01  0.61875128406E+01  0.20760406516E+02  0.00000000000E+00 0. -1.
</event>
<event>
 7    1  0.7284210E-013  0.5930194E+02  0.7816164E-02  0.1266605E+00
        -11   -1    0    0    0    0  0.00000000000E+00  0.00000000000E+00  0.45593999997E+02  0.45594000000E+02  0.51100000000E-03 0. -1.
         11   -1    0    0    0    0 -0.00000000000E+00 -0.00000000000E+00 -0.45593999997E+02  0.45594000000E+02  0.51100000000E-03 0.  1.
    9900012    2    1    2    0    0  0.10387425213E+02  0.28178293440E+02 -0.10714762711E+02  0.59301937783E+02  0.49999988612E+02 0.  0.
        -12    1    1    2    0    0 -0.10387425213E+02 -0.28178293440E+02  0.10714762711E+02  0.31886062217E+02  0.00000000000E+00 0.  1.
         11    1    3    3    0    0 -0.29522187418E+01 -0.50996611968E+01  0.19662285161E+01  0.62119396859E+01  0.51100000000E-03 0. -1.
        -11    1    3    3    0    0  0.21439460678E+02  0.48839934680E+01 -0.64206779005E+01  0.22906963380E+02  0.51100000000E-03 0.  1.
        -12    1    3    3    0    0 -0.80998167225E+01  0.28393961168E+02 -0.62603133269E+01  0.30183034717E+02  0.00000000000E+00 0.  1.
</event>
<event>
 7    1  0.7284210E-013  0.5930186E+02  0.7816164E-02  0.1266605E+00
        -11   -1    0    0    0    0  0.00000000000E+00  0.00000000000E+00  0.45593999997E+02  0.45594000000E+02  0.51100000000E-03 0.  1.
         11   -1    0    0    0    0 -0.00000000000E+00 -0.00000000000E+00 -0.45593999997E+02  0.45594000000E+02  0.51100000000E-03 0. -1.
    9900012    2    1    2    0    0 -0.89227446066E+01 -0.29403694171E+01 -0.30470718720E+02  0.59301861273E+02  0.49999849075E+02 0.  0.
        -12    1    1    2    0    0  0.89227446066E+01  0.29403694171E+01  0.30470718720E+02  0.31886138727E+02  0.00000000000E+00 0.  1.
         11    1    3    3    0    0  0.26105469372E+01  0.43413847784E+01  0.62178253667E+00  0.51038407978E+01  0.51100000000E-03 0. -1.
        -11    1    3    3    0    0  0.15849429189E+02 -0.68842681273E+00 -0.14595116729E+02  0.21556803327E+02  0.51100000000E-03 0.  1.
         12    1    3    3    0    0 -0.27382720732E+02 -0.65933273828E+01 -0.16497384528E+02  0.32641217149E+02  0.00000000000E+00 0. -1.
</event>
<event>
 7    1  0.7284210E-013  0.5930194E+02  0.7816164E-02  0.1266605E+00
        -11   -1    0    0    0    0  0.00000000000E+00  0.00000000000E+00  0.45593999997E+02  0.45594000000E+02  0.51100000000E-03 0. -1.
         11   -1    0    0    0    0 -0.00000000000E+00 -0.00000000000E+00 -0.45593999997E+02  0.45594000000E+02  0.51100000000E-03 0.  1.
    9900012    2    1    2    0    0 -0.22399931468E+02  0.22692714562E+02  0.66462546761E-01  0.59301942839E+02  0.49999997832E+02 0.  0.
        -12    1    1    2    0    0  0.22399931468E+02 -0.22692714562E+02 -0.66462546761E-01  0.31886057161E+02  0.00000000000E+00 0.  1.
         11    1    3    3    0    0  0.18282772083E+01  0.61747731944E+01  0.36990540063E+01  0.74265350168E+01  0.51100000000E-03 0. -1.
        -11    1    3    3    0    0 -0.15475585277E+02  0.25507039293E+02 -0.16341470269E+02  0.34016855292E+02  0.51100000000E-03 0.  1.
         12    1    3    3    0    0 -0.87526233996E+01 -0.89890979250E+01  0.12708878809E+02  0.17858552530E+02  0.00000000000E+00 0. -1.
</event>
<event>
 7    1  0.7284210E-013  0.5930195E+02  0.7816164E-02  0.1266605E+00
        -11   -1    0    0    0    0  0.00000000000E+00  0.00000000000E+00  0.45593999997E+02  0.45594000000E+02  0.51100000000E-03 0. -1.
         11   -1    0    0    0    0 -0.00000000000E+00 -0.00000000000E+00 -0.45593999997E+02  0.45594000000E+02  0.51100000000E-03 0.  1.
    9900012    2    1    2    0    0 -0.75409339499E+01 -0.15363322639E+02  0.26903960719E+02  0.59301945529E+02  0.50000002737E+02 0.  0.
        -12    1    1    2    0    0  0.75409339499E+01  0.15363322639E+02 -0.26903960719E+02  0.31886054471E+02  0.00000000000E+00 0.  1.
         11    1    3    3    0    0  0.11852008012E+02  0.11160084229E+00  0.16704488275E+01  0.11969667840E+02  0.51100000000E-03 0. -1.
        -11    1    3    3    0    0 -0.59511899622E+01 -0.23596765066E+02  0.15684645597E+02  0.28952238106E+02  0.51100000000E-03 0.  1.
         12    1    3    3    0    0 -0.13441752000E+02  0.81218415846E+01  0.95488662947E+01  0.18380039583E+02  0.00000000000E+00 0. -1.
</event>
<event>
 7    1  0.7284210E-013  0.5930208E+02  0.7816164E-02  0.1266604E+00
        -11   -1    0    0    0    0  0.00000000000E+00  0.00000000000E+00  0.45593999997E+02  0.45594000000E+02  0.51100000000E-03 0. -1.
         11   -1    0    0    0    0 -0.00000000000E+00 -0.00000000000E+00 -0.45593999997E+02  0.45594000000E+02  0.51100000000E-03 0.  1.
    9900012    2    1    2    0    0  0.31169480200E+02 -0.66189966316E+01 -0.11679570021E+01  0.59302082483E+02  0.50000252509E+02 0.  0.
        -12    1    1    2    0    0 -0.31169480200E+02  0.66189966316E+01  0.11679570021E+01  0.31885917517E+02  0.00000000000E+00 0.  1.
         11    1    3    3    0    0  0.10231642113E+02 -0.73875351497E+01  0.93818046835E+01  0.15725152950E+02  0.51100000000E-03 0. -1.
        -11    1    3    3    0    0  0.15316350999E+02 -0.13856575180E+02  0.52651425647E+01  0.21314713466E+02  0.51100000000E-03 0.  1.
         12    1    3    3    0    0  0.56214870879E+01  0.14625113698E+02 -0.15814904250E+02  0.22262216067E+02  0.00000000000E+00 0. -1.
</event>
<event>
 7    1  0.7284210E-013  0.5930196E+02  0.7816164E-02  0.1266605E+00
        -11   -1    0    0    0    0  0.00000000000E+00  0.00000000000E+00  0.45593999997E+02  0.45594000000E+02  0.51100000000E-03 0.  1.
         11   -1    0    0    0    0 -0.00000000000E+00 -0.00000000000E+00 -0.45593999997E+02  0.45594000000E+02  0.51100000000E-03 0. -1.
    9900012    2    1    2    0    0 -0.84695990914E+01  0.24773219145E+02 -0.18200913689E+02  0.59301956741E+02  0.50000023186E+02 0.  0.
        -12    1    1    2    0    0  0.84695990914E+01 -0.24773219145E+02  0.18200913689E+02  0.31886043259E+02  0.00000000000E+00 0.  1.
         11    1    3    3    0    0  0.68386262970E+01  0.85725469866E+01 -0.92463581115E+01  0.14344006067E+02  0.51100000000E-03 0. -1.
        -11    1    3    3    0    0  0.12528926607E+02  0.27523372910E+01 -0.50951695770E+01  0.13802540193E+02  0.51100000000E-03 0.  1.
         12    1    3    3    0    0 -0.27837151996E+02  0.13448334867E+02 -0.38593860007E+01  0.31155410481E+02  0.00000000000E+00 0. -1.
</event>
<event>
 7    1  0.7284210E-013  0.5930195E+02  0.7816164E-02  0.1266605E+00
        -11   -1    0    0    0    0  0.00000000000E+00  0.00000000000E+00  0.45593999997E+02  0.45594000000E+02  0.51100000000E-03 0.  1.
         11   -1    0    0    0    0 -0.00000000000E+00 -0.00000000000E+00 -0.45593999997E+02  0.45594000000E+02  0.51100000000E-03 0. -1.
    9900012    2    1    2    0    0 -0.15369237261E+02 -0.27286463687E+02  0.59963063867E+01  0.59301949056E+02  0.50000009170E+02 0.  0.
        -12    1    1    2    0    0  0.15369237261E+02  0.27286463687E+02 -0.59963063867E+01  0.31886050944E+02  0.00000000000E+00 0.  1.
         11    1    3    3    0    0  0.57351694174E+01 -0.13361462696E+00  0.29499347654E+01  0.64507469719E+01  0.51100000000E-03 0. -1.
        -11    1    3    3    0    0  0.96852161566E+01 -0.15888214121E+02  0.68877540318E+01  0.19841368799E+02  0.51100000000E-03 0.  1.
         12    1    3    3    0    0 -0.30789622835E+02 -0.11264634939E+02 -0.38413824105E+01  0.33009833285E+02  0.00000000000E+00 0. -1.
</event>
<event>
 7    1  0.7284210E-013  0.5930221E+02  0.7816164E-02  0.1266604E+00
        -11   -1    0    0    0    0  0.00000000000E+00  0.00000000000E+00  0.45593999997E+02  0.45594000000E+02  0.51100000000E-03 0. -1.
         11   -1    0    0    0    0 -0.00000000000E+00 -0.00000000000E+00 -0.45593999997E+02  0.45594000000E+02  0.51100000000E-03 0.  1.
    9900012    2    1    2    0    0  0.18649366654E+02  0.11066729758E+02  0.23375893703E+02  0.59302207073E+02  0.50000479730E+02 0.  0.
        -12    1    1    2    0    0 -0.18649366654E+02 -0.11066729758E+02 -0.23375893703E+02  0.31885792927E+02  0.00000000000E+00 0.  1.
         11    1    3    3    0    0  0.13723291472E+02 -0.69153035621E+01 -0.35518380309E+01  0.15772308196E+02  0.51100000000E-03 0. -1.
        -11    1    3    3    0    0  0.52799200257E+01  0.18597700225E+02  0.29674349738E+01  0.19559081771E+02  0.51100000000E-03 0.  1.
        -12    1    3    3    0    0 -0.35384484352E+00 -0.61566690455E+00  0.23960296760E+02  0.23970817106E+02  0.00000000000E+00 0.  1.
</event>
<event>
 7    1  0.7284210E-013  0.5930196E+02  0.7816164E-02  0.1266605E+00
        -11   -1    0    0    0    0  0.00000000000E+00  0.00000000000E+00  0.45593999997E+02  0.45594000000E+02  0.51100000000E-03 0. -1.
         11   -1    0    0    0    0 -0.00000000000E+00 -0.00000000000E+00 -0.45593999997E+02  0.45594000000E+02  0.51100000000E-03 0.  1.
    9900012    2    1    2    0    0 -0.11875390618E+02 -0.29361511278E+02 -0.36873185485E+01  0.59301959717E+02  0.50000028613E+02 0.  0.
        -12    1    1    2    0    0  0.11875390618E+02  0.29361511278E+02  0.36873185485E+01  0.31886040283E+02  0.00000000000E+00 0.  1.
         11    1    3    3    0    0 -0.69052856921E+01 -0.27355338922E+02  0.92628069844E+01  0.29695069145E+02  0.51100000000E-03 0. -1.
        -11    1    3    3    0    0 -0.47978340330E+01 -0.13548338298E+02 -0.10517362770E+02  0.17809873721E+02  0.51100000000E-03 0.  1.
        -12    1    3    3    0    0 -0.17227089303E+00  0.11542165943E+02 -0.24327627630E+01  0.11797016851E+02  0.00000000000E+00 0.  1.
</event>
<event>
 7    1  0.7284210E-013  0.5930194E+02  0.7816164E-02  0.1266605E+00
        -11   -1    0    0    0    0  0.00000000000E+00  0.00000000000E+00  0.45593999997E+02  0.45594000000E+02  0.51100000000E-03 0. -1.
         11   -1    0    0    0    0 -0.00000000000E+00 -0.00000000000E+00 -0.45593999997E+02  0.45594000000E+02  0.51100000000E-03 0.  1.
    9900012    2    1    2    0    0 -0.18718294149E+02  0.25794194024E+02 -0.10028608401E+01  0.59301941745E+02  0.49999995837E+02 0.  0.
        -12    1    1    2    0    0  0.18718294149E+02 -0.25794194024E+02  0.10028608401E+01  0.31886058255E+02  0.00000000000E+00 0.  1.
         11    1    3    3    0    0 -0.14740620028E+02  0.22154802082E+02  0.54404795764E+01  0.27161000577E+02  0.51100000000E-03 0. -1.
        -11    1    3    3    0    0 -0.17548495821E+02  0.31035595102E+01 -0.24764473972E+01  0.17992069897E+02  0.51100000000E-03 0.  1.
         12    1    3    3    0    0  0.13570821700E+02  0.53583243180E+00 -0.39668930193E+01  0.14148871270E+02  0.00000000000E+00 0. -1.
</event>
<event>
 7    1  0.7284210E-013  0.5930194E+02  0.7816164E-02  0.1266605E+00
        -11   -1    0    0    0    0  0.00000000000E+00  0.00000000000E+00  0.45593999997E+02  0.45594000000E+02  0.51100000000E-03 0.  1.
         11   -1    0    0    0    0 -0.00000000000E+00 -0.00000000000E+00 -0.45593999997E+02  0.45594000000E+02  0.51100000000E-03 0. -1.
    9900012    2    1    2    0    0  0.11674764057E+02 -0.29509409637E+02 -0.31009202597E+01  0.59301935969E+02  0.49999985303E+02 0.  0.
        -12    1    1    2    0    0 -0.11674764057E+02  0.29509409637E+02  0.31009202597E+01  0.31886064031E+02  0.00000000000E+00 0.  1.
         11    1    3    3    0    0 -0.13627176901E+02 -0.81120956072E+01  0.36312439576E+01  0.16269357037E+02  0.51100000000E-03 0. -1.
        -11    1    3    3    0    0 -0.50404336508E+01 -0.65600329693E+01 -0.38771860347E+01  0.91363327301E+01  0.51100000000E-03 0.  1.
         12    1    3    3    0    0  0.30342374609E+02 -0.14837281061E+02 -0.28549781826E+01  0.33896246202E+02  0.00000000000E+00 0. -1.
</event>
<event>
 7    1  0.7284210E-013  0.5930188E+02  0.7816164E-02  0.1266605E+00
        -11   -1    0    0    0    0  0.00000000000E+00  0.00000000000E+00  0.45593999997E+02  0.45594000000E+02  0.51100000000E-03 0.  1.
         11   -1    0    0    0    0 -0.00000000000E+00 -0.00000000000E+00 -0.45593999997E+02  0.45594000000E+02  0.51100000000E-03 0. -1.
    9900012    2    1    2    0    0 -0.31084453899E+02  0.58925384174E+01 -0.39697705754E+01  0.59301884501E+02  0.49999891437E+02 0.  0.
        -12    1    1    2    0    0  0.31084453899E+02 -0.58925384174E+01  0.39697705754E+01  0.31886115499E+02  0.00000000000E+00 0.  1.
         11    1    3    3    0    0 -0.56362215060E+01 -0.16240407913E+01 -0.14895276829E+02  0.16008553133E+02  0.51100000000E-03 0. -1.
        -11    1    3    3    0    0 -0.31475386536E+02  0.11852678292E+02  0.54591506285E+01  0.34073277889E+02  0.51100000000E-03 0.  1.
         12    1    3    3    0    0  0.60271541424E+01 -0.43360990833E+01  0.54663556250E+01  0.92200534779E+01  0.00000000000E+00 0. -1.
</event>
<event>
 7    1  0.7284210E-013  0.5930198E+02  0.7816164E-02  0.1266605E+00
        -11   -1    0    0    0    0  0.00000000000E+00  0.00000000000E+00  0.45593999997E+02  0.45594000000E+02  0.51100000000E-03 0.  1.
         11   -1    0    0    0    0 -0.00000000000E+00 -0.00000000000E+00 -0.45593999997E+02  0.45594000000E+02  0.51100000000E-03 0. -1.
    9900012    2    1    2    0    0  0.13424040888E+02  0.21643575084E+02 -0.19185131429E+02  0.59301976665E+02  0.50000059522E+02 0.  0.
        -12    1    1    2    0    0 -0.13424040888E+02 -0.21643575084E+02  0.19185131429E+02  0.31886023335E+02  0.00000000000E+00 0.  1.
         11    1    3    3    0    0  0.24743970511E+02  0.23770482697E+02 -0.20027024669E+02  0.39728851501E+02  0.51100000000E-03 0. -1.
        -11    1    3    3    0    0  0.26475314226E+01  0.35901699504E+01  0.30945040991E+00  0.44715212986E+01  0.51100000000E-03 0.  1.
         12    1    3    3    0    0 -0.13967461046E+02 -0.57170775631E+01  0.53244283006E+00  0.15101603865E+02  0.00000000000E+00 0. -1.
</event>
<event>
 7    1  0.7284210E-013  0.5930196E+02  0.7816164E-02  0.1266605E+00
        -11   -1    0    0    0    0  0.00000000000E+00  0.00000000000E+00  0.45593999997E+02  0.45594000000E+02  0.51100000000E-03 0.  1.
         11   -1    0    0    0    0 -0.00000000000E+00 -0.00000000000E+00 -0.45593999997E+02  0.45594000000E+02  0.51100000000E-03 0. -1.
    9900012    2    1    2    0    0  0.30055950892E+02  0.97486034460E+01 -0.42806418185E+01  0.59301963126E+02  0.50000034830E+02 0.  0.
        -12    1    1    2    0    0 -0.30055950892E+02 -0.97486034460E+01  0.42806418185E+01  0.31886036874E+02  0.00000000000E+00 0.  1.
         11    1    3    3    0    0 -0.51288133449E+01 -0.45561139217E+01 -0.97385221946E+01  0.11912250635E+02  0.51100000000E-03 0. -1.
        -11    1    3    3    0    0  0.86523622307E+01 -0.80674660539E+00  0.13279280831E+02  0.15869893254E+02  0.51100000000E-03 0.  1.
        -12    1    3    3    0    0  0.26532402006E+02  0.15111463973E+02 -0.78214004546E+01  0.31519819237E+02  0.00000000000E+00 0.  1.
</event>
<event>
 7    1  0.7284210E-013  0.5930202E+02  0.7816164E-02  0.1266604E+00
        -11   -1    0    0    0    0  0.00000000000E+00  0.00000000000E+00  0.45593999997E+02  0.45594000000E+02  0.51100000000E-03 0. -1.
         11   -1    0    0    0    0 -0.00000000000E+00 -0.00000000000E+00 -0.45593999997E+02  0.45594000000E+02  0.51100000000E-03 0.  1.
    9900012    2    1    2    0    0 -0.12844549065E+02  0.28550503921E+02  0.60499435518E+01  0.59302022960E+02  0.50000143953E+02 0.  0.
        -12    1    1    2    0    0  0.12844549065E+02 -0.28550503921E+02 -0.60499435518E+01  0.31885977040E+02  0.00000000000E+00 0.  1.
         11    1    3    3    0    0 -0.12864945470E+02  0.67660690689E+01  0.83123765303E+01  0.16744614550E+02  0.51100000000E-03 0. -1.
        -11    1    3    3    0    0 -0.17153271918E+02  0.43605539476E+01 -0.35794751095E+01  0.18057181688E+02  0.51100000000E-03 0.  1.
        -12    1    3    3    0    0  0.17173668322E+02  0.17423880905E+02  0.13170421310E+01  0.24500226721E+02  0.00000000000E+00 0.  1.
</event>
<event>
 7    1  0.7284210E-013  0.5930194E+02  0.7816164E-02  0.1266605E+00
        -11   -1    0    0    0    0  0.00000000000E+00  0.00000000000E+00  0.45593999997E+02  0.45594000000E+02  0.51100000000E-03 0.  1.
         11   -1    0    0    0    0 -0.00000000000E+00 -0.00000000000E+00 -0.45593999997E+02  0.45594000000E+02  0.51100000000E-03 0. -1.
    9900012    2    1    2    0    0 -0.87312171205E+01 -0.27520350133E+02 -0.13532081040E+02  0.59301936569E+02  0.49999986397E+02 0.  0.
        -12    1    1    2    0    0  0.87312171205E+01  0.27520350133E+02  0.13532081040E+02  0.31886063431E+02  0.00000000000E+00 0.  1.
         11    1    3    3    0    0 -0.64547807954E+01 -0.17461884589E+02 -0.30115734405E+01  0.18858716376E+02  0.51100000000E-03 0. -1.
        -11    1    3    3    0    0 -0.11974784107E+02 -0.20565455148E+02 -0.21986878116E+01  0.23899113544E+02  0.51100000000E-03 0.  1.
        -12    1    3    3    0    0  0.96983477820E+01  0.10506989603E+02 -0.83218197875E+01  0.16544106649E+02  0.00000000000E+00 0.  1.
</event>
<event>
 7    1  0.7284210E-013  0.5930194E+02  0.7816164E-02  0.1266605E+00
        -11   -1    0    0    0    0  0.00000000000E+00  0.00000000000E+00  0.45593999997E+02  0.45594000000E+02  0.51100000000E-03 0.  1.
         11   -1    0    0    0    0 -0.00000000000E+00 -0.00000000000E+00 -0.45593999997E+02  0.45594000000E+02  0.51100000000E-03 0. -1.
    9900012    2    1    2    0    0 -0.11445951172E+02  0.17691637081E+02 -0.23931508093E+02  0.59301938775E+02  0.49999990421E+02 0.  0.
        -12    1    1    2    0    0  0.11445951172E+02 -0.17691637081E+02  0.23931508093E+02  0.31886061225E+02  0.00000000000E+00 0.  1.
         11    1    3    3    0    0 -0.10358560356E+02  0.21316968595E+02 -0.27177062271E+02  0.36059750923E+02  0.51100000000E-03 0. -1.
        -11    1    3    3    0    0  0.44212731797E+01  0.43567969533E+01 -0.68492388150E+01  0.92434522137E+01  0.51100000000E-03 0.  1.
        -12    1    3    3    0    0 -0.55086639958E+01 -0.79821284673E+01  0.10094792994E+02  0.13998735638E+02  0.00000000000E+00 0.  1.
</event>
<event>
 7    1  0.7284210E-013  0.5930211E+02  0.7816164E-02  0.1266604E+00
        -11   -1    0    0    0    0  0.00000000000E+00  0.00000000000E+00  0.45593999997E+02  0.45594000000E+02  0.51100000000E-03 0. -1.
         11   -1    0    0    0    0 -0.00000000000E+00 -0.00000000000E+00 -0.45593999997E+02  0.45594000000E+02  0.51100000000E-03 0.  1.
    9900012    2    1    2    0    0  0.69394153958E+01  0.28738826225E+02  0.11942960188E+02  0.59302111006E+02  0.50000304528E+02 0.  0.
        -12    1    1    2    0    0 -0.69394153958E+01 -0.28738826225E+02 -0.11942960188E+02  0.31885888994E+02  0.00000000000E+00 0.  1.
         11    1    3    3    0    0 -0.75223035733E+01  0.25262568031E+02  0.80093283726E+01  0.27548715683E+02  0.51100000000E-03 0. -1.
        -11    1    3    3    0    0  0.10210569591E+02 -0.32257927200E+00  0.15669840247E+02  0.18705712560E+02  0.51100000000E-03 0.  1.
        -12    1    3    3    0    0  0.42511493779E+01  0.37988374669E+01 -0.11736208431E+02  0.13047682763E+02  0.00000000000E+00 0.  1.
</event>
<event>
 7    1  0.7284210E-013  0.5930196E+02  0.7816164E-02  0.1266605E+00
        -11   -1    0    0    0    0  0.00000000000E+00  0.00000000000E+00  0.45593999997E+02  0.45594000000E+02  0.51100000000E-03 0.  1.
         11   -1    0    0    0    0 -0.00000000000E+00 -0.00000000000E+00 -0.45593999997E+02  0.45594000000E+02  0.51100000000E-03 0. -1.
    9900012    2    1    2    0    0 -0.19429041907E+02  0.25279120780E+02 -0.44511298691E+00  0.59301956934E+02  0.50000023538E+02 0.  0.
        -12    1    1    2    0    0  0.19429041907E+02 -0.25279120780E+02  0.44511298691E+00  0.31886043066E+02  0.00000000000E+00 0.  1.
         11    1    3    3    0    0 -0.15165045396E+02  0.22860934168E+02 -0.77021152041E+01  0.28494271209E+02  0.51100000000E-03 0. -1.
        -11    1    3    3    0    0  0.99481137797E+01  0.63780747181E+01  0.10378492584E+02  0.15727616267E+02  0.51100000000E-03 0.  1.
         12    1    3    3    0    0 -0.14212110291E+02 -0.39598881056E+01 -0.31214903665E+01  0.15080069457E+02  0.00000000000E+00 0. -1.
</event>
<event>
 7    1  0.7284210E-013  0.5930194E+02  0.7816164E-02  0.1266605E+00
        -11   -1    0    0    0    0  0.00000000000E+00  0.00000000000E+00  0.45593999997E+02  0.45594000000E+02  0.51100000000E-03 0. -1.
         11   -1    0    0    0    0 -0.00000000000E+00 -0.00000000000E+00 -0.45593999997E+02  0.45594000000E+02  0.51100000000E-03 0.  1.
    9900012    2    1    2    0    0  0.21226797320E+02 -0.11653716478E+02  0.20744510557E+02  0.59301941127E+02  0.49999994710E+02 0.  0.
        -12    1    1    2    0    0 -0.21226797320E+02  0.11653716478E+02 -0.20744510557E+02  0.31886058873E+02  0.00000000000E+00 0.  1.
         11    1    3    3    0    0  0.84160924321E+01  0.31608352514E+01 -0.79541581130E+01  0.12003754532E+02  0.51100000000E-03 0. -1.
        -11    1    3    3    0    0 -0.88665752733E+01  0.20354042855E+01  0.27083162282E+01  0.94917861721E+01  0.51100000000E-03 0.  1.
         12    1    3    3    0    0  0.21677280161E+02 -0.16849956015E+02  0.25990352442E+02  0.37806400423E+02  0.00000000000E+00 0. -1.
</event>
<event>
 7    1  0.7284210E-013  0.5930169E+02  0.7816164E-02  0.1266606E+00
        -11   -1    0    0    0    0  0.00000000000E+00  0.00000000000E+00  0.45593999997E+02  0.45594000000E+02  0.51100000000E-03 0.  1.
         11   -1    0    0    0    0 -0.00000000000E+00 -0.00000000000E+00 -0.45593999997E+02  0.45594000000E+02  0.51100000000E-03 0. -1.
    9900012    2    1    2    0    0 -0.23793520953E+02  0.12970775793E+02 -0.16803701204E+02  0.59301685723E+02  0.49999528912E+02 0.  0.
        -12    1    1    2    0    0  0.23793520953E+02 -0.12970775793E+02  0.16803701204E+02  0.31886314277E+02  0.00000000000E+00 0.  1.
         11    1    3    3    0    0 -0.29626574519E+01  0.17497229758E+02 -0.15732184349E+02  0.23715649117E+02  0.51100000000E-03 0.  1.
        -11    1    3    3    0    0 -0.11505839334E+02 -0.38200222294E+00 -0.14630119875E+02  0.18616408684E+02  0.51100000000E-03 0. -1.
        -12    1    3    3    0    0 -0.93250241671E+01 -0.41444517417E+01  0.13558603020E+02  0.16969627922E+02  0.00000000000E+00 0.  1.
</event>
<event>
 7    1  0.7284210E-013  0.5930194E+02  0.7816164E-02  0.1266605E+00
        -11   -1    0    0    0    0  0.00000000000E+00  0.00000000000E+00  0.45593999997E+02  0.45594000000E+02  0.51100000000E-03 0. -1.
         11   -1    0    0    0    0 -0.00000000000E+00 -0.00000000000E+00 -0.45593999997E+02  0.45594000000E+02  0.51100000000E-03 0.  1.
    9900012    2    1    2    0    0 -0.27527940596E+01  0.80351789789E+00  0.31756844559E+02  0.59301942035E+02  0.49999996367E+02 0.  0.
        -12    1    1    2    0    0  0.27527940596E+01 -0.80351789789E+00 -0.31756844559E+02  0.31886057965E+02  0.00000000000E+00 0.  1.
         11    1    3    3    0    0  0.12031476640E+01  0.53298595451E+01  0.24562953368E+02  0.25163339315E+02  0.51100000000E-03 0. -1.
        -11    1    3    3    0    0 -0.79235136397E+01  0.12701381547E+02 -0.21111882983E+00  0.14971697734E+02  0.51100000000E-03 0.  1.
         12    1    3    3    0    0  0.39675719161E+01 -0.17227723194E+02  0.74050100217E+01  0.19166904987E+02  0.00000000000E+00 0. -1.
</event>
<event>
 7    1  0.7284210E-013  0.5930185E+02  0.7816164E-02  0.1266605E+00
        -11   -1    0    0    0    0  0.00000000000E+00  0.00000000000E+00  0.45593999997E+02  0.45594000000E+02  0.51100000000E-03 0.  1.
         11   -1    0    0    0    0 -0.00000000000E+00 -0.00000000000E+00 -0.45593999997E+02  0.45594000000E+02  0.51100000000E-03 0. -1.
    9900012    2    1    2    0    0 -0.25488493282E+01  0.13509830978E+01 -0.31755391478E+02  0.59301848207E+02  0.49999825246E+02 0.  0.
        -12    1    1    2    0    0  0.25488493282E+01 -0.13509830978E+01  0.31755391478E+02  0.31886151793E+02  0.00000000000E+00 0.  1.
         11    1    3    3    0    0 -0.80378508462E+01 -0.17046074110E+02 -0.22047511654E+01  0.18974630872E+02  0.51100000000E-03 0. -1.
        -11    1    3    3    0    0  0.12932270488E+01  0.76867858133E+00 -0.19593029350E+02  0.19650702337E+02  0.51100000000E-03 0.  1.
        -12    1    3    3    0    0  0.41957744693E+01  0.17628378626E+02 -0.99576109624E+01  0.20676514998E+02  0.00000000000E+00 0.  1.
</event>
<event>
 7    1  0.7284210E-013  0.5930191E+02  0.7816164E-02  0.1266605E+00
        -11   -1    0    0    0    0  0.00000000000E+00  0.00000000000E+00  0.45593999997E+02  0.45594000000E+02  0.51100000000E-03 0.  1.
         11   -1    0    0    0    0 -0.00000000000E+00 -0.00000000000E+00 -0.45593999997E+02  0.45594000000E+02  0.51100000000E-03 0. -1.
    9900012    2    1    2    0    0 -0.23211893790E+02  0.62238963143E+01 -0.20956946473E+02  0.59301913628E+02  0.49999944558E+02 0.  0.
        -12    1    1    2    0    0  0.23211893790E+02 -0.62238963143E+01  0.20956946473E+02  0.31886086372E+02  0.00000000000E+00 0.  1.
         11    1    3    3    0    0 -0.25138642229E+01  0.12096445496E+02 -0.20292901599E+01  0.12520444313E+02  0.51100000000E-03 0. -1.
        -11    1    3    3    0    0 -0.48264572042E+01  0.15009588418E+02 -0.11518699766E+02  0.19525953963E+02  0.51100000000E-03 0.  1.
         12    1    3    3    0    0 -0.15871572363E+02 -0.20882137599E+02 -0.74089565473E+01  0.27255515352E+02  0.00000000000E+00 0. -1.
</event>
<event>
 7    1  0.7284210E-013  0.5930195E+02  0.7816164E-02  0.1266605E+00
        -11   -1    0    0    0    0  0.00000000000E+00  0.00000000000E+00  0.45593999997E+02  0.45594000000E+02  0.51100000000E-03 0. -1.
         11   -1    0    0    0    0 -0.00000000000E+00 -0.00000000000E+00 -0.45593999997E+02  0.45594000000E+02  0.51100000000E-03 0.  1.
    9900012    2    1    2    0    0 -0.20956529608E+01  0.31751734246E+02 -0.20385788147E+01  0.59301949875E+02  0.50000010665E+02 0.  0.
        -12    1    1    2    0    0  0.20956529608E+01 -0.31751734246E+02  0.20385788147E+01  0.31886050125E+02  0.00000000000E+00 0.  1.
         11    1    3    3    0    0  0.89639153381E+01  0.10410103003E+01  0.58755183832E+01  0.10768342359E+02  0.51100000000E-03 0. -1.
        -11    1    3    3    0    0  0.26840402608E+01  0.20443371936E+01  0.11024550535E+02  0.11529271505E+02  0.51100000000E-03 0.  1.
        -12    1    3    3    0    0 -0.13743608560E+02  0.28666386752E+02 -0.18938647733E+02  0.37004336011E+02  0.00000000000E+00 0.  1.
</event>
<event>
 7    1  0.7284210E-013  0.5930194E+02  0.7816164E-02  0.1266605E+00
        -11   -1    0    0    0    0  0.00000000000E+00  0.00000000000E+00  0.45593999997E+02  0.45594000000E+02  0.51100000000E-03 0.  1.
         11   -1    0    0    0    0 -0.00000000000E+00 -0.00000000000E+00 -0.45593999997E+02  0.45594000000E+02  0.51100000000E-03 0. -1.
    9900012    2    1    2    0    0  0.30798990631E+02  0.21560991774E-01 -0.82548332606E+01  0.59301944099E+02  0.50000000131E+02 0.  0.
        -12    1    1    2    0    0 -0.30798990631E+02 -0.21560991774E-01  0.82548332606E+01  0.31886055901E+02  0.00000000000E+00 0.  1.
         11    1    3    3    0    0  0.21519664901E+02  0.13008234900E+02  0.26472395732E+01  0.25284739079E+02  0.51100000000E-03 0. -1.
        -11    1    3    3    0    0  0.97864336976E-01  0.59699695541E+01  0.48687704781E+01  0.77042222278E+01  0.51100000000E-03 0.  1.
         12    1    3    3    0    0  0.91814613925E+01 -0.18956643463E+02 -0.15770843312E+02  0.26312982792E+02  0.00000000000E+00 0. -1.
</event>
<event>
 7    1  0.7284210E-013  0.5930191E+02  0.7816164E-02  0.1266605E+00
        -11   -1    0    0    0    0  0.00000000000E+00  0.00000000000E+00  0.45593999997E+02  0.45594000000E+02  0.51100000000E-03 0. -1.
         11   -1    0    0    0    0 -0.00000000000E+00 -0.00000000000E+00 -0.45593999997E+02  0.45594000000E+02  0.51100000000E-03 0.  1.
    9900012    2    1    2    0    0 -0.81756509007E+01 -0.28596539865E+02  0.11494305811E+02  0.59301914853E+02  0.49999946792E+02 0.  0.
        -12    1    1    2    0    0  0.81756509007E+01  0.28596539865E+02 -0.11494305811E+02  0.31886085147E+02  0.00000000000E+00 0.  1.
         11    1    3    3    0    0  0.20154785559E+01 -0.30808579645E+02 -0.30375777123E+01  0.31023500966E+02  0.51100000000E-03 0. -1.
        -11    1    3    3    0    0  0.34943381625E+01 -0.68705543382E+01  0.60096208941E+01  0.97739684704E+01  0.51100000000E-03 0.  1.
        -12    1    3    3    0    0 -0.13685467619E+02  0.90825941176E+01  0.85222626296E+01  0.18504445417E+02  0.00000000000E+00 0.  1.
</event>
<event>
 7    1  0.7284210E-013  0.5930184E+02  0.7816164E-02  0.1266605E+00
        -11   -1    0    0    0    0  0.00000000000E+00  0.00000000000E+00  0.45593999997E+02  0.45594000000E+02  0.51100000000E-03 0.  1.
         11   -1    0    0    0    0 -0.00000000000E+00 -0.00000000000E+00 -0.45593999997E+02  0.45594000000E+02  0.51100000000E-03 0. -1.
    9900012    2    1    2    0    0 -0.25057377269E+01  0.14897228979E+02 -0.28080611889E+02  0.59301844433E+02  0.49999818363E+02 0.  0.
        -12    1    1    2    0    0  0.25057377269E+01 -0.14897228979E+02  0.28080611889E+02  0.31886155567E+02  0.00000000000E+00 0.  1.
         11    1    3    3    0    0 -0.39104876796E+01  0.14093209049E+02 -0.12220559689E+02  0.19059185045E+02  0.51100000000E-03 0. -1.
        -11    1    3    3    0    0  0.50102643305E+01  0.69003045327E+01  0.10166666656E+02  0.13269440925E+02  0.51100000000E-03 0.  1.
         12    1    3    3    0    0 -0.36055143778E+01 -0.60962846034E+01 -0.26026718855E+02  0.26973218463E+02  0.00000000000E+00 0. -1.
</event>
<event>
 7    1  0.7284210E-013  0.5930195E+02  0.7816164E-02  0.1266605E+00
        -11   -1    0    0    0    0  0.00000000000E+00  0.00000000000E+00  0.45593999997E+02  0.45594000000E+02  0.51100000000E-03 0.  1.
         11   -1    0    0    0    0 -0.00000000000E+00 -0.00000000000E+00 -0.45593999997E+02  0.45594000000E+02  0.51100000000E-03 0. -1.
    9900012    2    1    2    0    0 -0.20466646879E+02 -0.14127322576E+02 -0.19956339942E+02  0.59301946912E+02  0.50000005260E+02 0.  0.
        -12    1    1    2    0    0  0.20466646879E+02  0.14127322576E+02  0.19956339942E+02  0.31886053088E+02  0.00000000000E+00 0.  1.
         11    1    3    3    0    0 -0.87544911144E+00 -0.94729451300E+01  0.14269595359E+02  0.17150056926E+02  0.51100000000E-03 0.  1.
        -11    1    3    3    0    0 -0.74480398885E+01  0.45723460498E+01 -0.17208630012E+02  0.19300688944E+02  0.51100000000E-03 0. -1.
        -12    1    3    3    0    0 -0.12143157879E+02 -0.92267234963E+01 -0.17017305289E+02  0.22851201042E+02  0.00000000000E+00 0.  1.
</event>
<event>
 7    1  0.7284210E-013  0.5930193E+02  0.7816164E-02  0.1266605E+00
        -11   -1    0    0    0    0  0.00000000000E+00  0.00000000000E+00  0.45593999997E+02  0.45594000000E+02  0.51100000000E-03 0.  1.
         11   -1    0    0    0    0 -0.00000000000E+00 -0.00000000000E+00 -0.45593999997E+02  0.45594000000E+02  0.51100000000E-03 0. -1.
    9900012    2    1    2    0    0 -0.15309807248E+02  0.27694820599E+02 -0.39151289443E+01  0.59301929050E+02  0.49999972684E+02 0.  0.
        -12    1    1    2    0    0  0.15309807248E+02 -0.27694820599E+02  0.39151289443E+01  0.31886070950E+02  0.00000000000E+00 0.  1.
         11    1    3    3    0    0  0.38872219464E+01  0.52012798444E+00  0.73450804320E+01  0.83265379597E+01  0.51100000000E-03 0.  1.
        -11    1    3    3    0    0 -0.60541009129E+01  0.32588824567E+02 -0.14840538187E+02  0.36317009767E+02  0.51100000000E-03 0. -1.
         12    1    3    3    0    0 -0.13142928282E+02 -0.54141319520E+01  0.35803288103E+01  0.14658381323E+02  0.00000000000E+00 0. -1.
</event>
<event>
 7    1  0.7284210E-013  0.5930202E+02  0.7816164E-02  0.1266605E+00
        -11   -1    0    0    0    0  0.00000000000E+00  0.00000000000E+00  0.45593999997E+02  0.45594000000E+02  0.51100000000E-03 0.  1.
         11   -1    0    0    0    0 -0.00000000000E+00 -0.00000000000E+00 -0.45593999997E+02  0.45594000000E+02  0.51100000000E-03 0. -1.
    9900012    2    1    2    0    0  0.17052641525E+02 -0.24433704823E+02 -0.11354173740E+02  0.59302019136E+02  0.50000136980E+02 0.  0.
        -12    1    1    2    0    0 -0.17052641525E+02  0.24433704823E+02  0.11354173740E+02  0.31885980864E+02  0.00000000000E+00 0.  1.
         11    1    3    3    0    0  0.43235737006E+01  0.79959982008E+01  0.43516143277E+01  0.10077987115E+02  0.51100000000E-03 0. -1.
        -11    1    3    3    0    0  0.88664840549E+01  0.47161131712E+00  0.49686778192E+01  0.10174709640E+02  0.51100000000E-03 0.  1.
        -12    1    3    3    0    0  0.38625837692E+01 -0.32901314341E+02 -0.20674465887E+02  0.39049322381E+02  0.00000000000E+00 0.  1.
</event>
<event>
 7    1  0.7284210E-013  0.5930195E+02  0.7816164E-02  0.1266605E+00
        -11   -1    0    0    0    0  0.00000000000E+00  0.00000000000E+00  0.45593999997E+02  0.45594000000E+02  0.51100000000E-03 0. -1.
         11   -1    0    0    0    0 -0.00000000000E+00 -0.00000000000E+00 -0.45593999997E+02  0.45594000000E+02  0.51100000000E-03 0.  1.
    9900012    2    1    2    0    0  0.16216782381E+02 -0.27355349088E+02 -0.23283411400E+01  0.59301947768E+02  0.50000006821E+02 0.  0.
        -12    1    1    2    0    0 -0.16216782381E+02  0.27355349088E+02  0.23283411400E+01  0.31886052232E+02  0.00000000000E+00 0.  1.
         11    1    3    3    0    0  0.46614049047E+01 -0.15488665343E+02 -0.57816583987E+01  0.17177165770E+02  0.51100000000E-03 0.  1.
        -11    1    3    3    0    0  0.33216050585E+01  0.13600413610E+02 -0.35808305965E+01  0.14450835912E+02  0.51100000000E-03 0. -1.
         12    1    3    3    0    0  0.82337724177E+01 -0.25467097355E+02  0.70341478552E+01  0.27673946086E+02  0.00000000000E+00 0. -1.
</event>
<event>
 7    1  0.7284210E-013  0.5930193E+02  0.7816164E-02  0.1266605E+00
        -11   -1    0    0    0    0  0.00000000000E+00  0.00000000000E+00  0.45593999997E+02  0.45594000000E+02  0.51100000000E-03 0.  1.
         11   -1    0    0    0    0 -0.00000000000E+00 -0.00000000000E+00 -0.45593999997E+02  0.45594000000E+02  0.51100000000E-03 0. -1.
    9900012    2    1    2    0    0 -0.11405322055E+02  0.17823366082E+02 -0.23853045271E+02  0.59301929086E+02  0.49999972749E+02 0.  0.
        -12    1    1    2    0    0  0.11405322055E+02 -0.17823366082E+02  0.23853045271E+02  0.31886070914E+02  0.00000000000E+00 0.  1.
         11    1    3    3    0    0 -0.91681785556E+01  0.82804081385E+01 -0.45954781849E+01  0.13181011986E+02  0.51100000000E-03 0. -1.
        -11    1    3    3    0    0 -0.17228938655E+02  0.14729120878E+02 -0.21160210572E+01  0.22765343713E+02  0.51100000000E-03 0.  1.
         12    1    3    3    0    0  0.14991795155E+02 -0.51861629346E+01 -0.17141546028E+02  0.23355573386E+02  0.00000000000E+00 0. -1.
</event>
<event>
 7    1  0.7284210E-013  0.5930195E+02  0.7816164E-02  0.1266605E+00
        -11   -1    0    0    0    0  0.00000000000E+00  0.00000000000E+00  0.45593999997E+02  0.45594000000E+02  0.51100000000E-03 0. -1.
         11   -1    0    0    0    0 -0.00000000000E+00 -0.00000000000E+00 -0.45593999997E+02  0.45594000000E+02  0.51100000000E-03 0.  1.
    9900012    2    1    2    0    0 -0.74173692823E-01  0.90382529501E+01  0.30578173985E+02  0.59301949094E+02  0.50000009240E+02 0.  0.
        -12    1    1    2    0    0  0.74173692823E-01 -0.90382529501E+01 -0.30578173985E+02  0.31886050906E+02  0.00000000000E+00 0.  1.
         11    1    3    3    0    0 -0.11093555268E+02  0.71447200048E+01  0.82557164444E+01  0.15565052095E+02  0.51100000000E-03 0. -1.
        -11    1    3    3    0    0 -0.83395059587E+01  0.21148353637E+01 -0.52257133525E+01  0.10066179442E+02  0.51100000000E-03 0.  1.
         12    1    3    3    0    0  0.19358887534E+02 -0.22130241839E+00  0.27548170893E+02  0.33670717558E+02  0.00000000000E+00 0. -1.
</event>
<event>
 7    1  0.7284210E-013  0.5930194E+02  0.7816164E-02  0.1266605E+00
        -11   -1    0    0    0    0  0.00000000000E+00  0.00000000000E+00  0.45593999997E+02  0.45594000000E+02  0.51100000000E-03 0. -1.
         11   -1    0    0    0    0 -0.00000000000E+00 -0.00000000000E+00 -0.45593999997E+02  0.45594000000E+02  0.51100000000E-03 0.  1.
    9900012    2    1    2    0    0  0.76606385610E+01  0.12467309697E+02  0.28330221550E+02  0.59301942744E+02  0.49999997659E+02 0.  0.
        -12    1    1    2    0    0 -0.76606385610E+01 -0.12467309697E+02 -0.28330221550E+02  0.31886057256E+02  0.00000000000E+00 0.  1.
         11    1    3    3    0    0 -0.13019239213E+02  0.50572731350E+01  0.29965096671E+02  0.33060302782E+02  0.51100000000E-03 0. -1.
        -11    1    3    3    0    0 -0.14201609226E+01  0.29334991707E+01 -0.17357080636E+01  0.36925542886E+01  0.51100000000E-03 0.  1.
         12    1    3    3    0    0  0.22100038697E+02  0.44765373911E+01  0.10083294264E+00  0.22549085673E+02  0.00000000000E+00 0. -1.
</event>
<event>
 7    1  0.7284210E-013  0.5930194E+02  0.7816164E-02  0.1266605E+00
        -11   -1    0    0    0    0  0.00000000000E+00  0.00000000000E+00  0.45593999997E+02  0.45594000000E+02  0.51100000000E-03 0.  1.
         11   -1    0    0    0    0 -0.00000000000E+00 -0.00000000000E+00 -0.45593999997E+02  0.45594000000E+02  0.51100000000E-03 0. -1.
    9900012    2    1    2    0    0 -0.16445205375E+02  0.74776625490E+01 -0.26274715248E+02  0.59301939121E+02  0.49999991050E+02 0.  0.
        -12    1    1    2    0    0  0.16445205375E+02 -0.74776625490E+01  0.26274715248E+02  0.31886060879E+02  0.00000000000E+00 0.  1.
         11    1    3    3    0    0 -0.21550902611E+02  0.15015592461E+02 -0.19889313823E+02  0.32946839376E+02  0.51100000000E-03 0. -1.
        -11    1    3    3    0    0  0.16123967651E+00  0.57142255243E+01 -0.10211096898E+02  0.11702344709E+02  0.51100000000E-03 0.  1.
        -12    1    3    3    0    0  0.49444575592E+01 -0.13252155436E+02  0.38256954728E+01  0.14652755035E+02  0.00000000000E+00 0.  1.
</event>
<event>
 7    1  0.7284210E-013  0.5930193E+02  0.7816164E-02  0.1266605E+00
        -11   -1    0    0    0    0  0.00000000000E+00  0.00000000000E+00  0.45593999997E+02  0.45594000000E+02  0.51100000000E-03 0. -1.
         11   -1    0    0    0    0 -0.00000000000E+00 -0.00000000000E+00 -0.45593999997E+02  0.45594000000E+02  0.51100000000E-03 0.  1.
    9900012    2    1    2    0    0  0.29733249634E+02  0.11431897279E+02 -0.14025255670E+01  0.59301929575E+02  0.49999973642E+02 0.  0.
        -12    1    1    2    0    0 -0.29733249634E+02 -0.11431897279E+02  0.14025255670E+01  0.31886070425E+02  0.00000000000E+00 0.  1.
         11    1    3    3    0    0  0.14822110305E+02  0.14408639438E+02 -0.61537138309E+01  0.21567847331E+02  0.51100000000E-03 0. -1.
        -11    1    3    3    0    0 -0.11058442062E+02 -0.27722897849E+01  0.44675639898E+00  0.11409396261E+02  0.51100000000E-03 0.  1.
         12    1    3    3    0    0  0.25969581391E+02 -0.20445237408E+00  0.43044318650E+01  0.26324685983E+02  0.00000000000E+00 0. -1.
</event>
<event>
 7    1  0.7284210E-013  0.5930190E+02  0.7816164E-02  0.1266605E+00
        -11   -1    0    0    0    0  0.00000000000E+00  0.00000000000E+00  0.45593999997E+02  0.45594000000E+02  0.51100000000E-03 0. -1.
         11   -1    0    0    0    0 -0.00000000000E+00 -0.00000000000E+00 -0.45593999997E+02  0.45594000000E+02  0.51100000000E-03 0.  1.
    9900012    2    1    2    0    0  0.29337941123E+02  0.11549998725E+02 -0.47545722377E+01  0.59301902449E+02  0.49999924171E+02 0.  0.
        -12    1    1    2    0    0 -0.29337941123E+02 -0.11549998725E+02  0.47545722377E+01  0.31886097551E+02  0.00000000000E+00 0.  1.
         11    1    3    3    0    0 -0.35719602973E+01  0.33200976320E+01 -0.54060808577E+01  0.72806359030E+01  0.51100000000E-03 0. -1.
        -11    1    3    3    0    0 -0.19745763871E+01  0.15974299621E+02 -0.18401986687E+01  0.16200726271E+02  0.51100000000E-03 0.  1.
         12    1    3    3    0    0  0.34884477807E+02 -0.77443985283E+01  0.24917072887E+01  0.35820540276E+02  0.00000000000E+00 0. -1.
</event>
<event>
 7    1  0.7284210E-013  0.5930200E+02  0.7816164E-02  0.1266605E+00
        -11   -1    0    0    0    0  0.00000000000E+00  0.00000000000E+00  0.45593999997E+02  0.45594000000E+02  0.51100000000E-03 0. -1.
         11   -1    0    0    0    0 -0.00000000000E+00 -0.00000000000E+00 -0.45593999997E+02  0.45594000000E+02  0.51100000000E-03 0.  1.
    9900012    2    1    2    0    0 -0.21257383988E+02  0.17216892379E+02  0.16383505355E+02  0.59301999860E+02  0.50000101825E+02 0.  0.
        -12    1    1    2    0    0  0.21257383988E+02 -0.17216892379E+02 -0.16383505355E+02  0.31886000140E+02  0.00000000000E+00 0.  1.
         11    1    3    3    0    0 -0.11963998642E+02  0.18633091719E+02  0.46213682871E+01  0.22620486635E+02  0.51100000000E-03 0. -1.
        -11    1    3    3    0    0  0.74332397381E+01  0.86469424530E+01 -0.34725654417E+01  0.11919789335E+02  0.51100000000E-03 0.  1.
        -12    1    3    3    0    0 -0.16726625084E+02 -0.10063141793E+02  0.15234702509E+02  0.24761723890E+02  0.00000000000E+00 0.  1.
</event>
<event>
 7    1  0.7284210E-013  0.5930194E+02  0.7816164E-02  0.1266605E+00
        -11   -1    0    0    0    0  0.00000000000E+00  0.00000000000E+00  0.45593999997E+02  0.45594000000E+02  0.51100000000E-03 0. -1.
         11   -1    0    0    0    0 -0.00000000000E+00 -0.00000000000E+00 -0.45593999997E+02  0.45594000000E+02  0.51100000000E-03 0.  1.
    9900012    2    1    2    0    0  0.27969257481E+02  0.11787638355E+02  0.97720699894E+01  0.59301935114E+02  0.49999983744E+02 0.  0.
        -12    1    1    2    0    0 -0.27969257481E+02 -0.11787638355E+02 -0.97720699894E+01  0.31886064886E+02  0.00000000000E+00 0.  1.
         11    1    3    3    0    0  0.34281764818E+01  0.91141981450E+01 -0.68816770056E+01  0.11923861811E+02  0.51100000000E-03 0. -1.
        -11    1    3    3    0    0 -0.52217303257E+01  0.78958108333E+01  0.14193397153E+02  0.17060563276E+02  0.51100000000E-03 0.  1.
         12    1    3    3    0    0  0.29762811325E+02 -0.52223706238E+01  0.24603498424E+01  0.30317510027E+02  0.00000000000E+00 0. -1.
</event>
<event>
 7    1  0.7284210E-013  0.5930197E+02  0.7816164E-02  0.1266605E+00
        -11   -1    0    0    0    0  0.00000000000E+00  0.00000000000E+00  0.45593999997E+02  0.45594000000E+02  0.51100000000E-03 0. -1.
         11   -1    0    0    0    0 -0.00000000000E+00 -0.00000000000E+00 -0.45593999997E+02  0.45594000000E+02  0.51100000000E-03 0.  1.
    9900012    2    1    2    0    0  0.36099089090E+00  0.29093246297E+02 -0.13044981830E+02  0.59301970999E+02  0.50000049189E+02 0.  0.
        -12    1    1    2    0    0 -0.36099089090E+00 -0.29093246297E+02  0.13044981830E+02  0.31886029001E+02  0.00000000000E+00 0.  1.
         11    1    3    3    0    0 -0.14907222758E+02 -0.43611721987E+01 -0.32902968510E+01  0.15876749256E+02  0.51100000000E-03 0. -1.
        -11    1    3    3    0    0  0.69282604999E+01  0.49482837118E+01 -0.10743115607E+02  0.13707692674E+02  0.51100000000E-03 0.  1.
        -12    1    3    3    0    0  0.83399531493E+01  0.28506134784E+02  0.98843062777E+00  0.29717529069E+02  0.00000000000E+00 0.  1.
</event>
<event>
 7    1  0.7284210E-013  0.5930194E+02  0.7816164E-02  0.1266605E+00
        -11   -1    0    0    0    0  0.00000000000E+00  0.00000000000E+00  0.45593999997E+02  0.45594000000E+02  0.51100000000E-03 0.  1.
         11   -1    0    0    0    0 -0.00000000000E+00 -0.00000000000E+00 -0.45593999997E+02  0.45594000000E+02  0.51100000000E-03 0. -1.
    9900012    2    1    2    0    0 -0.17405863713E+02 -0.24833921268E+02 -0.98505529317E+01  0.59301935173E+02  0.49999983850E+02 0.  0.
        -12    1    1    2    0    0  0.17405863713E+02  0.24833921268E+02  0.98505529317E+01  0.31886064827E+02  0.00000000000E+00 0.  1.
         11    1    3    3    0    0 -0.20342566869E+02 -0.35802469570E+01 -0.21696965001E+02  0.29956576667E+02  0.51100000000E-03 0. -1.
        -11    1    3    3    0    0  0.69778983650E+00 -0.16990773495E+02  0.49205583823E+00  0.17012213667E+02  0.51100000000E-03 0.  1.
        -12    1    3    3    0    0  0.22389133194E+01 -0.42629008153E+01  0.11354356231E+02  0.12333144839E+02  0.00000000000E+00 0.  1.
</event>
<event>
 7    1  0.7284210E-013  0.5930195E+02  0.7816164E-02  0.1266605E+00
        -11   -1    0    0    0    0  0.00000000000E+00  0.00000000000E+00  0.45593999997E+02  0.45594000000E+02  0.51100000000E-03 0.  1.
         11   -1    0    0    0    0 -0.00000000000E+00 -0.00000000000E+00 -0.45593999997E+02  0.45594000000E+02  0.51100000000E-03 0. -1.
    9900012    2    1    2    0    0  0.18138991504E+02 -0.46824031986E+01 -0.25802564925E+02  0.59301948673E+02  0.50000008473E+02 0.  0.
        -12    1    1    2    0    0 -0.18138991504E+02  0.46824031986E+01  0.25802564925E+02  0.31886051327E+02  0.00000000000E+00 0.  1.
         11    1    3    3    0    0  0.12154671820E+02 -0.16600302960E+02 -0.14361823761E+02  0.25091195416E+02  0.51100000000E-03 0. -1.
        -11    1    3    3    0    0  0.21673336561E+01 -0.98405210904E+01 -0.46684384307E+01  0.11105291898E+02  0.51100000000E-03 0.  1.
        -12    1    3    3    0    0  0.38169860274E+01  0.21758420851E+02 -0.67723027335E+01  0.23105461359E+02  0.00000000000E+00 0.  1.
</event>
<event>
 7    1  0.7284210E-013  0.5930193E+02  0.7816164E-02  0.1266605E+00
        -11   -1    0    0    0    0  0.00000000000E+00  0.00000000000E+00  0.45593999997E+02  0.45594000000E+02  0.51100000000E-03 0. -1.
         11   -1    0    0    0    0 -0.00000000000E+00 -0.00000000000E+00 -0.45593999997E+02  0.45594000000E+02  0.51100000000E-03 0.  1.
    9900012    2    1    2    0    0  0.18665337520E+02 -0.25717619384E+02  0.26326282766E+01  0.59301929324E+02  0.49999973184E+02 0.  0.
        -12    1    1    2    0    0 -0.18665337520E+02  0.25717619384E+02 -0.26326282766E+01  0.31886070676E+02  0.00000000000E+00 0.  1.
         11    1    3    3    0    0 -0.28062903089E+01 -0.43184268465E+01 -0.35640982821E+01  0.62631359998E+01  0.51100000000E-03 0. -1.
        -11    1    3    3    0    0  0.25407364528E+02  0.47343281573E+00 -0.80311351832E+01  0.26650655592E+02  0.51100000000E-03 0.  1.
         12    1    3    3    0    0 -0.39357366992E+01 -0.21872625353E+02  0.14227861742E+02  0.26388137732E+02  0.00000000000E+00 0. -1.
</event>
<event>
 7    1  0.7284210E-013  0.5930195E+02  0.7816164E-02  0.1266605E+00
        -11   -1    0    0    0    0  0.00000000000E+00  0.00000000000E+00  0.45593999997E+02  0.45594000000E+02  0.51100000000E-03 0.  1.
         11   -1    0    0    0    0 -0.00000000000E+00 -0.00000000000E+00 -0.45593999997E+02  0.45594000000E+02  0.51100000000E-03 0. -1.
    9900012    2    1    2    0    0 -0.69120155131E+01 -0.11636047339E+02 -0.28871211009E+02  0.59301946916E+02  0.50000005268E+02 0.  0.
        -12    1    1    2    0    0  0.69120155131E+01  0.11636047339E+02  0.28871211009E+02  0.31886053084E+02  0.00000000000E+00 0.  1.
         11    1    3    3    0    0 -0.12053250945E+02 -0.83272120613E+01 -0.78195937931E+01  0.16606305020E+02  0.51100000000E-03 0. -1.
        -11    1    3    3    0    0 -0.14555693750E+02 -0.28723584905E+00 -0.12648851823E+01  0.14613372635E+02  0.51100000000E-03 0.  1.
         12    1    3    3    0    0  0.19696929182E+02 -0.30215994284E+01 -0.19786732034E+02  0.28082269262E+02  0.00000000000E+00 0. -1.
</event>
<event>
 7    1  0.7284210E-013  0.5930196E+02  0.7816164E-02  0.1266605E+00
        -11   -1    0    0    0    0  0.00000000000E+00  0.00000000000E+00  0.45593999997E+02  0.45594000000E+02  0.51100000000E-03 0. -1.
         11   -1    0    0    0    0 -0.00000000000E+00 -0.00000000000E+00 -0.45593999997E+02  0.45594000000E+02  0.51100000000E-03 0.  1.
    9900012    2    1    2    0    0  0.17775108532E+02  0.21001852675E+02  0.16114805197E+02  0.59301964724E+02  0.50000037745E+02 0.  0.
        -12    1    1    2    0    0 -0.17775108532E+02 -0.21001852675E+02 -0.16114805197E+02  0.31886035276E+02  0.00000000000E+00 0.  1.
         11    1    3    3    0    0  0.42535757176E+01 -0.30685876492E+01 -0.88861024445E+00  0.53196583512E+01  0.51100000000E-03 0. -1.
        -11    1    3    3    0    0 -0.11929655304E+02  0.22564093288E+02  0.60353324069E+01  0.26227470696E+02  0.51100000000E-03 0.  1.
         12    1    3    3    0    0  0.25451188118E+02  0.15063470359E+01  0.10968083034E+02  0.27754835677E+02  0.00000000000E+00 0. -1.
</event>
<event>
 7    1  0.7284210E-013  0.5930195E+02  0.7816164E-02  0.1266605E+00
        -11   -1    0    0    0    0  0.00000000000E+00  0.00000000000E+00  0.45593999997E+02  0.45594000000E+02  0.51100000000E-03 0.  1.
         11   -1    0    0    0    0 -0.00000000000E+00 -0.00000000000E+00 -0.45593999997E+02  0.45594000000E+02  0.51100000000E-03 0. -1.
    9900012    2    1    2    0    0  0.47234641839E+01  0.43543435170E+01 -0.31232173849E+02  0.59301951253E+02  0.50000013177E+02 0.  0.
        -12    1    1    2    0    0 -0.47234641839E+01 -0.43543435170E+01  0.31232173849E+02  0.31886048747E+02  0.00000000000E+00 0.  1.
         11    1    3    3    0    0 -0.55299275011E+01 -0.16277863945E+02  0.13607655350E+01  0.17245307648E+02  0.51100000000E-03 0.  1.
        -11    1    3    3    0    0  0.10362845486E+02  0.60677176147E+01 -0.14289470584E+02  0.18665335075E+02  0.51100000000E-03 0. -1.
        -12    1    3    3    0    0 -0.10945380142E+00  0.14564489847E+02 -0.18303468800E+02  0.23391308530E+02  0.00000000000E+00 0.  1.
</event>
<event>
 7    1  0.7284210E-013  0.5930194E+02  0.7816164E-02  0.1266605E+00
        -11   -1    0    0    0    0  0.00000000000E+00  0.00000000000E+00  0.45593999997E+02  0.45594000000E+02  0.51100000000E-03 0.  1.
         11   -1    0    0    0    0 -0.00000000000E+00 -0.00000000000E+00 -0.45593999997E+02  0.45594000000E+02  0.51100000000E-03 0. -1.
    9900012    2    1    2    0    0  0.10172321484E+01  0.28626403491E+02 -0.14007681378E+02  0.59301939163E+02  0.49999991129E+02 0.  0.
        -12    1    1    2    0    0 -0.10172321484E+01 -0.28626403491E+02  0.14007681378E+02  0.31886060837E+02  0.00000000000E+00 0.  1.
         11    1    3    3    0    0  0.78377216256E+01  0.23970714484E+01  0.48880625896E+01  0.95430072802E+01  0.51100000000E-03 0. -1.
        -11    1    3    3    0    0  0.75576669330E+01  0.73947625547E+01  0.84789252777E+01  0.13553339693E+02  0.51100000000E-03 0.  1.
         12    1    3    3    0    0 -0.14378156410E+02  0.18834569488E+02 -0.27374669245E+02  0.36205592190E+02  0.00000000000E+00 0. -1.
</event>
<event>
 7    1  0.7284210E-013  0.5930183E+02  0.7816164E-02  0.1266605E+00
        -11   -1    0    0    0    0  0.00000000000E+00  0.00000000000E+00  0.45593999997E+02  0.45594000000E+02  0.51100000000E-03 0. -1.
         11   -1    0    0    0    0 -0.00000000000E+00 -0.00000000000E+00 -0.45593999997E+02  0.45594000000E+02  0.51100000000E-03 0.  1.
    9900012    2    1    2    0    0  0.20777699252E+02  0.22998371182E+02  0.74893356459E+01  0.59301827265E+02  0.49999787053E+02 0.  0.
        -12    1    1    2    0    0 -0.20777699252E+02 -0.22998371182E+02 -0.74893356459E+01  0.31886172735E+02  0.00000000000E+00 0.  1.
         11    1    3    3    0    0  0.10752133061E+02  0.69266338054E+01  0.26342290253E+01  0.13058552142E+02  0.51100000000E-03 0. -1.
        -11    1    3    3    0    0  0.24241568719E+02  0.11957120196E+02  0.12276385408E+02  0.29687303957E+02  0.51100000000E-03 0.  1.
         12    1    3    3    0    0 -0.14216002527E+02  0.41146171810E+01 -0.74212787870E+01  0.16555971166E+02  0.00000000000E+00 0. -1.
</event>
<event>
 7    1  0.7284210E-013  0.5930196E+02  0.7816164E-02  0.1266605E+00
        -11   -1    0    0    0    0  0.00000000000E+00  0.00000000000E+00  0.45593999997E+02  0.45594000000E+02  0.51100000000E-03 0.  1.
         11   -1    0    0    0    0 -0.00000000000E+00 -0.00000000000E+00 -0.45593999997E+02  0.45594000000E+02  0.51100000000E-03 0. -1.
    9900012    2    1    2    0    0 -0.13037808193E+02  0.25189944337E+02 -0.14567149509E+02  0.59301959434E+02  0.50000028097E+02 0.  0.
        -12    1    1    2    0    0  0.13037808193E+02 -0.25189944337E+02  0.14567149509E+02  0.31886040566E+02  0.00000000000E+00 0.  1.
         11    1    3    3    0    0  0.11944153151E+02  0.24305556964E+02  0.36222972364E+01  0.27322956124E+02  0.51100000000E-03 0. -1.
        -11    1    3    3    0    0 -0.27153278025E+01 -0.14508694177E+01 -0.53428913483E+01  0.61664021409E+01  0.51100000000E-03 0.  1.
        -12    1    3    3    0    0 -0.22266633541E+02  0.23352567910E+01 -0.12846555397E+02  0.25812601169E+02  0.00000000000E+00 0.  1.
</event>
<event>
 7    1  0.7284210E-013  0.5930193E+02  0.7816164E-02  0.1266605E+00
        -11   -1    0    0    0    0  0.00000000000E+00  0.00000000000E+00  0.45593999997E+02  0.45594000000E+02  0.51100000000E-03 0.  1.
         11   -1    0    0    0    0 -0.00000000000E+00 -0.00000000000E+00 -0.45593999997E+02  0.45594000000E+02  0.51100000000E-03 0. -1.
    9900012    2    1    2    0    0  0.23802752073E+02  0.21216210351E+02  0.15087822132E+00  0.59301931692E+02  0.49999977503E+02 0.  0.
        -12    1    1    2    0    0 -0.23802752073E+02 -0.21216210351E+02 -0.15087822132E+00  0.31886068308E+02  0.00000000000E+00 0.  1.
         11    1    3    3    0    0  0.13283968653E+02 -0.39833034793E+00 -0.87828019974E+01  0.15929849385E+02  0.51100000000E-03 0. -1.
        -11    1    3    3    0    0  0.96851483132E+01  0.59215768837E+00 -0.10805628610E+02  0.14522890845E+02  0.51100000000E-03 0.  1.
         12    1    3    3    0    0  0.83363510625E+00  0.21022383011E+02  0.19739308829E+02  0.28849191462E+02  0.00000000000E+00 0. -1.
</event>
<event>
 7    1  0.7284210E-013  0.5930163E+02  0.7816164E-02  0.1266606E+00
        -11   -1    0    0    0    0  0.00000000000E+00  0.00000000000E+00  0.45593999997E+02  0.45594000000E+02  0.51100000000E-03 0.  1.
         11   -1    0    0    0    0 -0.00000000000E+00 -0.00000000000E+00 -0.45593999997E+02  0.45594000000E+02  0.51100000000E-03 0. -1.
    9900012    2    1    2    0    0 -0.85523239636E+01 -0.14550044266E+02 -0.27053550734E+02  0.59301629234E+02  0.49999425888E+02 0.  0.
        -12    1    1    2    0    0  0.85523239636E+01  0.14550044266E+02  0.27053550734E+02  0.31886370766E+02  0.00000000000E+00 0.  1.
         11    1    3    3    0    0 -0.15113552065E+02  0.75635465240E+01 -0.16940308852E+02  0.23929077632E+02  0.51100000000E-03 0. -1.
        -11    1    3    3    0    0  0.74368720517E+01 -0.58122035543E+01 -0.15529259496E+02  0.18172690412E+02  0.51100000000E-03 0.  1.
        -12    1    3    3    0    0 -0.87564394978E+00 -0.16301387236E+02  0.54160176144E+01  0.17199861189E+02  0.00000000000E+00 0.  1.
</event>
<event>
 7    1  0.7284210E-013  0.5930194E+02  0.7816164E-02  0.1266605E+00
        -11   -1    0    0    0    0  0.00000000000E+00  0.00000000000E+00  0.45593999997E+02  0.45594000000E+02  0.51100000000E-03 0.  1.
         11   -1    0    0    0    0 -0.00000000000E+00 -0.00000000000E+00 -0.45593999997E+02  0.45594000000E+02  0.51100000000E-03 0. -1.
    9900012    2    1    2    0    0 -0.22328657698E+02  0.10240829080E+01 -0.22739895624E+02  0.59301944217E+02  0.50000000345E+02 0.  0.
        -12    1    1    2    0    0  0.22328657698E+02 -0.10240829080E+01  0.22739895624E+02  0.31886055783E+02  0.00000000000E+00 0.  1.
         11    1    3    3    0    0  0.10792242948E+02 -0.44236462519E+01  0.37554516129E+00  0.11669712440E+02  0.51100000000E-03 0. -1.
        -11    1    3    3    0    0  0.32551579953E+01 -0.15931612589E+01  0.55361105302E+00  0.36661562747E+01  0.51100000000E-03 0.  1.
         12    1    3    3    0    0 -0.36376058641E+02  0.70408904187E+01 -0.23669051839E+02  0.43966075502E+02  0.00000000000E+00 0. -1.
</event>
<event>
 7    1  0.7284210E-013  0.5930193E+02  0.7816164E-02  0.1266605E+00
        -11   -1    0    0    0    0  0.00000000000E+00  0.00000000000E+00  0.45593999997E+02  0.45594000000E+02  0.51100000000E-03 0.  1.
         11   -1    0    0    0    0 -0.00000000000E+00 -0.00000000000E+00 -0.45593999997E+02  0.45594000000E+02  0.51100000000E-03 0. -1.
    9900012    2    1    2    0    0 -0.31801545860E+02  0.22816491464E+01  0.42120913821E+00  0.59301926879E+02  0.49999968726E+02 0.  0.
        -12    1    1    2    0    0  0.31801545860E+02 -0.22816491464E+01 -0.42120913821E+00  0.31886073121E+02  0.00000000000E+00 0.  1.
         11    1    3    3    0    0  0.64329543639E+01 -0.79935176175E+01 -0.17368241735E+01  0.10406526040E+02  0.51100000000E-03 0. -1.
        -11    1    3    3    0    0 -0.28512487848E+02 -0.49144528580E+01  0.78590251320E+01  0.29981295610E+02  0.51100000000E-03 0.  1.
        -12    1    3    3    0    0 -0.97220123764E+01  0.15189619622E+02 -0.57009918203E+01  0.18914105230E+02  0.00000000000E+00 0.  1.
</event>
<event>
 7    1  0.7284210E-013  0.5930192E+02  0.7816164E-02  0.1266605E+00
        -11   -1    0    0    0    0  0.00000000000E+00  0.00000000000E+00  0.45593999997E+02  0.45594000000E+02  0.51100000000E-03 0.  1.
         11   -1    0    0    0    0 -0.00000000000E+00 -0.00000000000E+00 -0.45593999997E+02  0.45594000000E+02  0.51100000000E-03 0. -1.
    9900012    2    1    2    0    0 -0.67523251081E+01  0.30080236886E+02 -0.81429518885E+01  0.59301918225E+02  0.49999952942E+02 0.  0.
        -12    1    1    2    0    0  0.67523251081E+01 -0.30080236886E+02  0.81429518885E+01  0.31886081775E+02  0.00000000000E+00 0.  1.
         11    1    3    3    0    0 -0.21941488202E+02  0.80551471003E+01  0.12297790694E+01  0.23405697087E+02  0.51100000000E-03 0. -1.
        -11    1    3    3    0    0  0.62112054510E+01 -0.16762534287E+01 -0.83365368872E+01  0.10530277596E+02  0.51100000000E-03 0.  1.
        -12    1    3    3    0    0  0.89779576426E+01  0.23701343215E+02 -0.10361940707E+01  0.25365943542E+02  0.00000000000E+00 0.  1.
</event>
<event>
 7    1  0.7284210E-013  0.5930195E+02  0.7816164E-02  0.1266605E+00
        -11   -1    0    0    0    0  0.00000000000E+00  0.00000000000E+00  0.45593999997E+02  0.45594000000E+02  0.51100000000E-03 0.  1.
         11   -1    0    0    0    0 -0.00000000000E+00 -0.00000000000E+00 -0.45593999997E+02  0.45594000000E+02  0.51100000000E-03 0. -1.
    9900012    2    1    2    0    0 -0.27142275969E+02  0.17031079266E+01  0.16646818551E+02  0.59301948358E+02  0.50000007898E+02 0.  0.
        -12    1    1    2    0    0  0.27142275969E+02 -0.17031079266E+01 -0.16646818551E+02  0.31886051642E+02  0.00000000000E+00 0.  1.
         11    1    3    3    0    0  0.49506493822E+01  0.26492559278E+01 -0.87917050429E+01  0.10431757479E+02  0.51100000000E-03 0. -1.
        -11    1    3    3    0    0 -0.39543597494E+00  0.29508907589E+01 -0.43012077160E+01  0.52311102033E+01  0.51100000000E-03 0.  1.
        -12    1    3    3    0    0 -0.31697489377E+02 -0.38970387601E+01  0.29739731310E+02  0.43639080676E+02  0.00000000000E+00 0.  1.
</event>
<event>
 7    1  0.7284210E-013  0.5930197E+02  0.7816164E-02  0.1266605E+00
        -11   -1    0    0    0    0  0.00000000000E+00  0.00000000000E+00  0.45593999997E+02  0.45594000000E+02  0.51100000000E-03 0.  1.
         11   -1    0    0    0    0 -0.00000000000E+00 -0.00000000000E+00 -0.45593999997E+02  0.45594000000E+02  0.51100000000E-03 0. -1.
    9900012    2    1    2    0    0  0.66882927363E+01  0.27263720971E+02 -0.15122013337E+02  0.59301968132E+02  0.50000043961E+02 0.  0.
        -12    1    1    2    0    0 -0.66882927363E+01 -0.27263720971E+02  0.15122013337E+02  0.31886031868E+02  0.00000000000E+00 0.  1.
         11    1    3    3    0    0  0.33588852427E+00  0.68628869143E+01 -0.24449919766E+02  0.25397059175E+02  0.51100000000E-03 0. -1.
        -11    1    3    3    0    0 -0.71566497905E+01  0.92497612957E+01 -0.34836206033E+01  0.12202923134E+02  0.51100000000E-03 0.  1.
        -12    1    3    3    0    0  0.13509054003E+02  0.11151072761E+02  0.12811527032E+02  0.21701985823E+02  0.00000000000E+00 0.  1.
</event>
<event>
 7    1  0.7284210E-013  0.5930195E+02  0.7816164E-02  0.1266605E+00
        -11   -1    0    0    0    0  0.00000000000E+00  0.00000000000E+00  0.45593999997E+02  0.45594000000E+02  0.51100000000E-03 0. -1.
         11   -1    0    0    0    0 -0.00000000000E+00 -0.00000000000E+00 -0.45593999997E+02  0.45594000000E+02  0.51100000000E-03 0.  1.
    9900012    2    1    2    0    0  0.58807405997E+01  0.21241489253E+02  0.23042055482E+02  0.59301948245E+02  0.50000007692E+02 0.  0.
        -12    1    1    2    0    0 -0.58807405997E+01 -0.21241489253E+02 -0.23042055482E+02  0.31886051755E+02  0.00000000000E+00 0.  1.
         11    1    3    3    0    0 -0.77140055488E+00  0.25787579589E+02 -0.51061739672E+01  0.26299569060E+02  0.51100000000E-03 0. -1.
        -11    1    3    3    0    0 -0.41474843261E+01  0.71787146111E+00  0.13022412360E+02  0.13685765949E+02  0.51100000000E-03 0.  1.
        -12    1    3    3    0    0  0.10799625481E+02 -0.52639617973E+01  0.15125817089E+02  0.19316613237E+02  0.00000000000E+00 0.  1.
</event>
<event>
 7    1  0.7284210E-013  0.5930193E+02  0.7816164E-02  0.1266605E+00
        -11   -1    0    0    0    0  0.00000000000E+00  0.00000000000E+00  0.45593999997E+02  0.45594000000E+02  0.51100000000E-03 0.  1.
         11   -1    0    0    0    0 -0.00000000000E+00 -0.00000000000E+00 -0.45593999997E+02  0.45594000000E+02  0.51100000000E-03 0. -1.
    9900012    2    1    2    0    0 -0.29317921914E+02  0.38516902699E+01 -0.11930860921E+02  0.59301929286E+02  0.49999973114E+02 0.  0.
        -12    1    1    2    0    0  0.29317921914E+02 -0.38516902699E+01  0.11930860921E+02  0.31886070714E+02  0.00000000000E+00 0.  1.
         11    1    3    3    0    0 -0.57699356905E+01  0.12532976695E+01  0.81702246240E+01  0.10080450565E+02  0.51100000000E-03 0. -1.
        -11    1    3    3    0    0 -0.28206267961E+01 -0.16226214536E+02 -0.41005350575E+01  0.16972341080E+02  0.51100000000E-03 0.  1.
         12    1    3    3    0    0 -0.20727359427E+02  0.18824607137E+02 -0.16000550488E+02  0.32249137641E+02  0.00000000000E+00 0. -1.
</event>
<event>
 7    1  0.7284210E-013  0.5930194E+02  0.7816164E-02  0.1266605E+00
        -11   -1    0    0    0    0  0.00000000000E+00  0.00000000000E+00  0.45593999997E+02  0.45594000000E+02  0.51100000000E-03 0.  1.
         11   -1    0    0    0    0 -0.00000000000E+00 -0.00000000000E+00 -0.45593999997E+02  0.45594000000E+02  0.51100000000E-03 0. -1.
    9900012    2    1    2    0    0 -0.19687267363E+02  0.21779332449E+02  0.12441588607E+02  0.59301938073E+02  0.49999989140E+02 0.  0.
        -12    1    1    2    0    0  0.19687267363E+02 -0.21779332449E+02 -0.12441588607E+02  0.31886061927E+02  0.00000000000E+00 0.  1.
         11    1    3    3    0    0  0.93075741629E+01 -0.75045892995E+01  0.11046336370E+02  0.16277940435E+02  0.51100000000E-03 0. -1.
        -11    1    3    3    0    0 -0.13502359553E+02  0.10078453866E+02 -0.49215011526E+01  0.17553065820E+02  0.51100000000E-03 0.  1.
        -12    1    3    3    0    0 -0.15492481973E+02  0.19205467883E+02  0.63167533894E+01  0.25470931817E+02  0.00000000000E+00 0.  1.
</event>
<event>
 7    1  0.7284210E-013  0.5930210E+02  0.7816164E-02  0.1266604E+00
        -11   -1    0    0    0    0  0.00000000000E+00  0.00000000000E+00  0.45593999997E+02  0.45594000000E+02  0.51100000000E-03 0.  1.
         11   -1    0    0    0    0 -0.00000000000E+00 -0.00000000000E+00 -0.45593999997E+02  0.45594000000E+02  0.51100000000E-03 0. -1.
    9900012    2    1    2    0    0 -0.31585171600E+02  0.35745185830E+01  0.25120588429E+01  0.59302098919E+02  0.50000282484E+02 0.  0.
        -12    1    1    2    0    0  0.31585171600E+02 -0.35745185830E+01 -0.25120588429E+01  0.31885901081E+02  0.00000000000E+00 0.  1.
         11    1    3    3    0    0 -0.11596642686E+01 -0.80609221002E+01  0.14405252778E+01  0.82703324998E+01  0.51100000000E-03 0. -1.
        -11    1    3    3    0    0 -0.57366097692E+01  0.95477112390E+01  0.17898259851E+02  0.21081157167E+02  0.51100000000E-03 0.  1.
         12    1    3    3    0    0 -0.24688897562E+02  0.20877294443E+01 -0.16826726286E+02  0.29950609252E+02  0.00000000000E+00 0. -1.
</event>
<event>
 7    1  0.7284210E-013  0.5930193E+02  0.7816164E-02  0.1266605E+00
        -11   -1    0    0    0    0  0.00000000000E+00  0.00000000000E+00  0.45593999997E+02  0.45594000000E+02  0.51100000000E-03 0. -1.
         11   -1    0    0    0    0 -0.00000000000E+00 -0.00000000000E+00 -0.45593999997E+02  0.45594000000E+02  0.51100000000E-03 0.  1.
    9900012    2    1    2    0    0  0.21955587244E+02 -0.14515318637E+01  0.23077401663E+02  0.59301933710E+02  0.49999981182E+02 0.  0.
        -12    1    1    2    0    0 -0.21955587244E+02  0.14515318637E+01 -0.23077401663E+02  0.31886066290E+02  0.00000000000E+00 0.  1.
         11    1    3    3    0    0 -0.14568613815E+01  0.76380943161E+01  0.17567640500E+02  0.19211583039E+02  0.51100000000E-03 0. -1.
        -11    1    3    3    0    0  0.55335180726E+00 -0.67551006949E+01 -0.10206339233E+02  0.12251813923E+02  0.51100000000E-03 0.  1.
        -12    1    3    3    0    0  0.22859096818E+02 -0.23345254849E+01  0.15716100395E+02  0.27838536747E+02  0.00000000000E+00 0.  1.
</event>
<event>
 7    1  0.7284210E-013  0.5930199E+02  0.7816164E-02  0.1266605E+00
        -11   -1    0    0    0    0  0.00000000000E+00  0.00000000000E+00  0.45593999997E+02  0.45594000000E+02  0.51100000000E-03 0.  1.
         11   -1    0    0    0    0 -0.00000000000E+00 -0.00000000000E+00 -0.45593999997E+02  0.45594000000E+02  0.51100000000E-03 0. -1.
    9900012    2    1    2    0    0 -0.23475630568E+01  0.31239692250E+02  0.59403785473E+01  0.59301991760E+02  0.50000087053E+02 0.  0.
        -12    1    1    2    0    0  0.23475630568E+01 -0.31239692250E+02 -0.59403785473E+01  0.31886008240E+02  0.00000000000E+00 0.  1.
         11    1    3    3    0    0  0.19820795069E+02  0.84058376051E+01 -0.69683203603E+01  0.22629173912E+02  0.51100000000E-03 0. -1.
        -11    1    3    3    0    0 -0.10665402768E+02  0.19637226006E+02  0.92557581422E+01  0.24187610888E+02  0.51100000000E-03 0.  1.
        -12    1    3    3    0    0 -0.11502955358E+02  0.31966286386E+01  0.36529407655E+01  0.12485206961E+02  0.00000000000E+00 0.  1.
</event>
<event>
 7    1  0.7284210E-013  0.5930196E+02  0.7816164E-02  0.1266605E+00
        -11   -1    0    0    0    0  0.00000000000E+00  0.00000000000E+00  0.45593999997E+02  0.45594000000E+02  0.51100000000E-03 0.  1.
         11   -1    0    0    0    0 -0.00000000000E+00 -0.00000000000E+00 -0.45593999997E+02  0.45594000000E+02  0.51100000000E-03 0. -1.
    9900012    2    1    2    0    0  0.11793238157E+02  0.29584029878E+02 -0.15569278100E+01  0.59301963647E+02  0.50000035781E+02 0.  0.
        -12    1    1    2    0    0 -0.11793238157E+02 -0.29584029878E+02  0.15569278100E+01  0.31886036353E+02  0.00000000000E+00 0.  1.
         11    1    3    3    0    0 -0.34791339465E+01  0.93361727063E+01  0.77285326664E+01  0.12609469111E+02  0.51100000000E-03 0. -1.
        -11    1    3    3    0    0  0.12524644665E+02 -0.79505175458E+01 -0.10753534065E+02  0.18322552998E+02  0.51100000000E-03 0.  1.
         12    1    3    3    0    0  0.27477274388E+01  0.28198374718E+02  0.14680735883E+01  0.28369941538E+02  0.00000000000E+00 0. -1.
</event>
<event>
 7    1  0.7284210E-013  0.5930198E+02  0.7816164E-02  0.1266605E+00
        -11   -1    0    0    0    0  0.00000000000E+00  0.00000000000E+00  0.45593999997E+02  0.45594000000E+02  0.51100000000E-03 0.  1.
         11   -1    0    0    0    0 -0.00000000000E+00 -0.00000000000E+00 -0.45593999997E+02  0.45594000000E+02  0.51100000000E-03 0. -1.
    9900012    2    1    2    0    0 -0.29746841117E+02 -0.19411574566E+01 -0.11317061070E+02  0.59301976102E+02  0.50000058496E+02 0.  0.
        -12    1    1    2    0    0  0.29746841117E+02  0.19411574566E+01  0.11317061070E+02  0.31886023898E+02  0.00000000000E+00 0.  1.
         11    1    3    3    0    0 -0.38404661586E+01 -0.57537481167E+01  0.10851779566E+02  0.12869184811E+02  0.51100000000E-03 0. -1.
        -11    1    3    3    0    0 -0.19365295078E+02  0.11232713988E+02 -0.25365236511E+00  0.22388676977E+02  0.51100000000E-03 0.  1.
         12    1    3    3    0    0 -0.65410798804E+01 -0.74201233278E+01 -0.21915188271E+02  0.24044114314E+02  0.00000000000E+00 0. -1.
</event>
<event>
 7    1  0.7284210E-013  0.5930195E+02  0.7816164E-02  0.1266605E+00
        -11   -1    0    0    0    0  0.00000000000E+00  0.00000000000E+00  0.45593999997E+02  0.45594000000E+02  0.51100000000E-03 0.  1.
         11   -1    0    0    0    0 -0.00000000000E+00 -0.00000000000E+00 -0.45593999997E+02  0.45594000000E+02  0.51100000000E-03 0. -1.
    9900012    2    1    2    0    0  0.20504689786E+02 -0.57852062756E+01 -0.23723602768E+02  0.59301949082E+02  0.50000009218E+02 0.  0.
        -12    1    1    2    0    0 -0.20504689786E+02  0.57852062756E+01  0.23723602768E+02  0.31886050918E+02  0.00000000000E+00 0.  1.
         11    1    3    3    0    0  0.14114297911E+02 -0.66483307135E+01 -0.18857309424E+02  0.24474718094E+02  0.51100000000E-03 0. -1.
        -11    1    3    3    0    0  0.18428873548E+02  0.24985053150E+01  0.49082310435E+01  0.19234256973E+02  0.51100000000E-03 0.  1.
         12    1    3    3    0    0 -0.12038481674E+02 -0.16353808771E+01 -0.97745243878E+01  0.15592974015E+02  0.00000000000E+00 0. -1.
</event>
<event>
 7    1  0.7284210E-013  0.5930192E+02  0.7816164E-02  0.1266605E+00
        -11   -1    0    0    0    0  0.00000000000E+00  0.00000000000E+00  0.45593999997E+02  0.45594000000E+02  0.51100000000E-03 0.  1.
         11   -1    0    0    0    0 -0.00000000000E+00 -0.00000000000E+00 -0.45593999997E+02  0.45594000000E+02  0.51100000000E-03 0. -1.
    9900012    2    1    2    0    0 -0.17715193885E+02  0.10426922734E+02 -0.24375669668E+02  0.59301920218E+02  0.49999956576E+02 0.  0.
        -12    1    1    2    0    0  0.17715193885E+02 -0.10426922734E+02  0.24375669668E+02  0.31886079782E+02  0.00000000000E+00 0.  1.
         11    1    3    3    0    0 -0.18035287367E+02  0.68441971158E+01 -0.24286095289E+01  0.19442550478E+02  0.51100000000E-03 0. -1.
        -11    1    3    3    0    0 -0.86331085754E+01 -0.11471363741E+02 -0.15671756739E+02  0.21253863397E+02  0.51100000000E-03 0.  1.
         12    1    3    3    0    0  0.89532020569E+01  0.15054089360E+02 -0.62753034001E+01  0.18605506343E+02  0.00000000000E+00 0. -1.
</event>
<event>
 7    1  0.7284210E-013  0.5930195E+02  0.7816164E-02  0.1266605E+00
        -11   -1    0    0    0    0  0.00000000000E+00  0.00000000000E+00  0.45593999997E+02  0.45594000000E+02  0.51100000000E-03 0. -1.
         11   -1    0    0    0    0 -0.00000000000E+00 -0.00000000000E+00 -0.45593999997E+02  0.45594000000E+02  0.51100000000E-03 0.  1.
    9900012    2    1    2    0    0  0.20611134650E+02  0.82600327490E+01 -0.22883902674E+02  0.59301952673E+02  0.50000015766E+02 0.  0.
        -12    1    1    2    0    0 -0.20611134650E+02 -0.82600327490E+01  0.22883902674E+02  0.31886047327E+02  0.00000000000E+00 0.  1.
         11    1    3    3    0    0  0.12415562383E+02  0.15806216183E+02 -0.20903947757E+02  0.28999270532E+02  0.51100000000E-03 0. -1.
        -11    1    3    3    0    0  0.23798817892E+01  0.98708266453E+01 -0.55872297747E+01  0.11589400019E+02  0.51100000000E-03 0.  1.
         12    1    3    3    0    0  0.58156904769E+01 -0.17417010080E+02  0.36072748570E+01  0.18713282121E+02  0.00000000000E+00 0. -1.
</event>
<event>
 7    1  0.7284210E-013  0.5930195E+02  0.7816164E-02  0.1266605E+00
        -11   -1    0    0    0    0  0.00000000000E+00  0.00000000000E+00  0.45593999997E+02  0.45594000000E+02  0.51100000000E-03 0. -1.
         11   -1    0    0    0    0 -0.00000000000E+00 -0.00000000000E+00 -0.45593999997E+02  0.45594000000E+02  0.51100000000E-03 0.  1.
    9900012    2    1    2    0    0 -0.13680333469E+02 -0.10691960373E+02  0.26744173672E+02  0.59301947158E+02  0.50000005709E+02 0.  0.
        -12    1    1    2    0    0  0.13680333469E+02  0.10691960373E+02 -0.26744173672E+02  0.31886052842E+02  0.00000000000E+00 0.  1.
         11    1    3    3    0    0 -0.16430191335E+02 -0.30939957274E+01 -0.34175624816E+01  0.17064692509E+02  0.51100000000E-03 0. -1.
        -11    1    3    3    0    0  0.43472565562E+01 -0.73589235676E+00 -0.48320081848E+01  0.65412904297E+01  0.51100000000E-03 0.  1.
         12    1    3    3    0    0 -0.15973986899E+01 -0.68620722887E+01  0.34993744339E+02  0.35695964219E+02  0.00000000000E+00 0. -1.
</event>
<event>
 7    1  0.7284210E-013  0.5930198E+02  0.7816164E-02  0.1266605E+00
        -11   -1    0    0    0    0  0.00000000000E+00  0.00000000000E+00  0.45593999997E+02  0.45594000000E+02  0.51100000000E-03 0.  1.
         11   -1    0    0    0    0 -0.00000000000E+00 -0.00000000000E+00 -0.45593999997E+02  0.45594000000E+02  0.51100000000E-03 0. -1.
    9900012    2    1    2    0    0 -0.52828157963E+01  0.28135377409E+02 -0.14043173381E+02  0.59301979187E+02  0.50000064122E+02 0.  0.
        -12    1    1    2    0    0  0.52828157963E+01 -0.28135377409E+02  0.14043173381E+02  0.31886020813E+02  0.00000000000E+00 0.  1.
         11    1    3    3    0    0 -0.13813742263E+01  0.13842825035E+01  0.35264141502E+01  0.40323727286E+01  0.51100000000E-03 0. -1.
        -11    1    3    3    0    0 -0.24042660867E+02  0.13004725784E+02 -0.13713380736E+02  0.30581518042E+02  0.51100000000E-03 0.  1.
         12    1    3    3    0    0  0.20141219297E+02  0.13746369121E+02 -0.38562067956E+01  0.24688088416E+02  0.00000000000E+00 0. -1.
</event>
<event>
 7    1  0.7284210E-013  0.5930193E+02  0.7816164E-02  0.1266605E+00
        -11   -1    0    0    0    0  0.00000000000E+00  0.00000000000E+00  0.45593999997E+02  0.45594000000E+02  0.51100000000E-03 0. -1.
         11   -1    0    0    0    0 -0.00000000000E+00 -0.00000000000E+00 -0.45593999997E+02  0.45594000000E+02  0.51100000000E-03 0.  1.
    9900012    2    1    2    0    0  0.98564355512E+01 -0.30070278741E+02  0.39179378066E+01  0.59301933733E+02  0.49999981224E+02 0.  0.
        -12    1    1    2    0    0 -0.98564355512E+01  0.30070278741E+02 -0.39179378066E+01  0.31886066267E+02  0.00000000000E+00 0.  1.
         11    1    3    3    0    0  0.39542630455E+01 -0.24495235895E+02 -0.51849946359E+01  0.25348312516E+02  0.51100000000E-03 0. -1.
        -11    1    3    3    0    0  0.49246515184E+01 -0.12893956111E+02 -0.75533514941E+01  0.15734020968E+02  0.51100000000E-03 0.  1.
         12    1    3    3    0    0  0.97752098736E+00  0.73189132642E+01  0.16656283936E+02  0.18219600249E+02  0.00000000000E+00 0. -1.
</event>
<event>
 7    1  0.7284210E-013  0.5930194E+02  0.7816164E-02  0.1266605E+00
        -11   -1    0    0    0    0  0.00000000000E+00  0.00000000000E+00  0.45593999997E+02  0.45594000000E+02  0.51100000000E-03 0. -1.
         11   -1    0    0    0    0 -0.00000000000E+00 -0.00000000000E+00 -0.45593999997E+02  0.45594000000E+02  0.51100000000E-03 0.  1.
    9900012    2    1    2    0    0  0.18192745150E+02 -0.20759095016E+02  0.15962604807E+02  0.59301941068E+02  0.49999994603E+02 0.  0.
        -12    1    1    2    0    0 -0.18192745150E+02  0.20759095016E+02 -0.15962604807E+02  0.31886058932E+02  0.00000000000E+00 0.  1.
         11    1    3    3    0    0  0.87410845157E+01 -0.53243408799E+01  0.23000116763E+01  0.10490243958E+02  0.51100000000E-03 0. -1.
        -11    1    3    3    0    0  0.12272025222E+02  0.10441299561E+02  0.15962563362E+02  0.22680978130E+02  0.51100000000E-03 0.  1.
         12    1    3    3    0    0 -0.28203645882E+01 -0.25876053698E+02 -0.22999702318E+01  0.26130718980E+02  0.00000000000E+00 0. -1.
</event>
<event>
 7    1  0.7284210E-013  0.5930195E+02  0.7816164E-02  0.1266605E+00
        -11   -1    0    0    0    0  0.00000000000E+00  0.00000000000E+00  0.45593999997E+02  0.45594000000E+02  0.51100000000E-03 0.  1.
         11   -1    0    0    0    0 -0.00000000000E+00 -0.00000000000E+00 -0.45593999997E+02  0.45594000000E+02  0.51100000000E-03 0. -1.
    9900012    2    1    2    0    0 -0.20454362184E+02 -0.24351813799E+02  0.23082889560E+01  0.59301953435E+02  0.50000017157E+02 0.  0.
        -12    1    1    2    0    0  0.20454362184E+02  0.24351813799E+02 -0.23082889560E+01  0.31886046565E+02  0.00000000000E+00 0.  1.
         11    1    3    3    0    0 -0.34558230258E+02 -0.18038953234E+02  0.37992001600E+01  0.39167703972E+02  0.51100000000E-03 0. -1.
        -11    1    3    3    0    0  0.75561911232E+01 -0.62450228588E+01 -0.66095664634E+01  0.11822973564E+02  0.51100000000E-03 0.  1.
        -12    1    3    3    0    0  0.65476769509E+01 -0.67837706522E-01  0.51186552594E+01  0.83112758992E+01  0.00000000000E+00 0.  1.
</event>
<event>
 7    1  0.7284210E-013  0.5930194E+02  0.7816164E-02  0.1266605E+00
        -11   -1    0    0    0    0  0.00000000000E+00  0.00000000000E+00  0.45593999997E+02  0.45594000000E+02  0.51100000000E-03 0. -1.
         11   -1    0    0    0    0 -0.00000000000E+00 -0.00000000000E+00 -0.45593999997E+02  0.45594000000E+02  0.51100000000E-03 0.  1.
    9900012    2    1    2    0    0 -0.19419078171E+02  0.18243930143E+01  0.25224827802E+02  0.59301938084E+02  0.49999989159E+02 0.  0.
        -12    1    1    2    0    0  0.19419078171E+02 -0.18243930143E+01 -0.25224827802E+02  0.31886061916E+02  0.00000000000E+00 0.  1.
         11    1    3    3    0    0  0.23979512995E+01  0.17520067827E-01 -0.41556860383E+01  0.47979374837E+01  0.51100000000E-03 0. -1.
        -11    1    3    3    0    0  0.62764856236E+01 -0.76295456259E+01 -0.32725141834E+01  0.10407381399E+02  0.51100000000E-03 0.  1.
         12    1    3    3    0    0 -0.28093515094E+02  0.94364185724E+01  0.32653028024E+02  0.44096619201E+02  0.00000000000E+00 0. -1.
</event>
<event>
 7    1  0.7284210E-013  0.5930195E+02  0.7816164E-02  0.1266605E+00
        -11   -1    0    0    0    0  0.00000000000E+00  0.00000000000E+00  0.45593999997E+02  0.45594000000E+02  0.51100000000E-03 0.  1.
         11   -1    0    0    0    0 -0.00000000000E+00 -0.00000000000E+00 -0.45593999997E+02  0.45594000000E+02  0.51100000000E-03 0. -1.
    9900012    2    1    2    0    0  0.13400363141E+02 -0.21907041818E+02  0.18900579702E+02  0.59301950910E+02  0.50000012551E+02 0.  0.
        -12    1    1    2    0    0 -0.13400363141E+02  0.21907041818E+02 -0.18900579702E+02  0.31886049090E+02  0.00000000000E+00 0.  1.
         11    1    3    3    0    0  0.48847348223E+01  0.69865598038E+01  0.26909717852E+01  0.89394620412E+01  0.51100000000E-03 0. -1.
        -11    1    3    3    0    0 -0.14100357307E+02 -0.55129782088E+01  0.57138999719E+01  0.16182140095E+02  0.51100000000E-03 0.  1.
        -12    1    3    3    0    0  0.22615985626E+02 -0.23380623413E+02  0.10495707945E+02  0.34180348773E+02  0.00000000000E+00 0.  1.
</event>
<event>
 7    1  0.7284210E-013  0.5930198E+02  0.7816164E-02  0.1266605E+00
        -11   -1    0    0    0    0  0.00000000000E+00  0.00000000000E+00  0.45593999997E+02  0.45594000000E+02  0.51100000000E-03 0.  1.
         11   -1    0    0    0    0 -0.00000000000E+00 -0.00000000000E+00 -0.45593999997E+02  0.45594000000E+02  0.51100000000E-03 0. -1.
    9900012    2    1    2    0    0  0.16933297728E+02 -0.21318485020E+02 -0.16598312670E+02  0.59301978627E+02  0.50000063100E+02 0.  0.
        -12    1    1    2    0    0 -0.16933297728E+02  0.21318485020E+02  0.16598312670E+02  0.31886021373E+02  0.00000000000E+00 0.  1.
         11    1    3    3    0    0 -0.27819897102E+00  0.10744455089E+02 -0.47860100375E+01  0.11765483507E+02  0.51100000000E-03 0. -1.
        -11    1    3    3    0    0 -0.13978629454E+01 -0.72820619650E+01  0.78789118224E+01  0.10819413064E+02  0.51100000000E-03 0.  1.
         12    1    3    3    0    0  0.18609359645E+02 -0.24780878144E+02 -0.19691214455E+02  0.36717082056E+02  0.00000000000E+00 0. -1.
</event>
<event>
 7    1  0.7284210E-013  0.5930194E+02  0.7816164E-02  0.1266605E+00
        -11   -1    0    0    0    0  0.00000000000E+00  0.00000000000E+00  0.45593999997E+02  0.45594000000E+02  0.51100000000E-03 0.  1.
         11   -1    0    0    0    0 -0.00000000000E+00 -0.00000000000E+00 -0.45593999997E+02  0.45594000000E+02  0.51100000000E-03 0. -1.
    9900012    2    1    2    0    0 -0.15142384421E+02 -0.52801182625E+01 -0.27559927783E+02  0.59301936050E+02  0.49999985451E+02 0.  0.
        -12    1    1    2    0    0  0.15142384421E+02  0.52801182625E+01  0.27559927783E+02  0.31886063950E+02  0.00000000000E+00 0.  1.
         11    1    3    3    0    0  0.28834840439E+01  0.53304996910E+01 -0.26008471306E+02  0.26705229584E+02  0.51100000000E-03 0. -1.
        -11    1    3    3    0    0  0.31940668875E+01 -0.30649524084E+01 -0.80234609095E+01  0.91636194691E+01  0.51100000000E-03 0.  1.
        -12    1    3    3    0    0 -0.21219935352E+02 -0.75456655451E+01  0.64720044326E+01  0.23433086998E+02  0.00000000000E+00 0.  1.
</event>
<event>
 7    1  0.7284210E-013  0.5930191E+02  0.7816164E-02  0.1266605E+00
        -11   -1    0    0    0    0  0.00000000000E+00  0.00000000000E+00  0.45593999997E+02  0.45594000000E+02  0.51100000000E-03 0.  1.
         11   -1    0    0    0    0 -0.00000000000E+00 -0.00000000000E+00 -0.45593999997E+02  0.45594000000E+02  0.51100000000E-03 0. -1.
    9900012    2    1    2    0    0  0.78277376785E+01 -0.40296311712E+01 -0.30646553936E+02  0.59301910985E+02  0.49999939738E+02 0.  0.
        -12    1    1    2    0    0 -0.78277376785E+01  0.40296311712E+01  0.30646553936E+02  0.31886089015E+02  0.00000000000E+00 0.  1.
         11    1    3    3    0    0  0.10472447654E+02 -0.96957980214E+01 -0.72207503302E+01  0.15994370720E+02  0.51100000000E-03 0. -1.
        -11    1    3    3    0    0 -0.61390871978E+01 -0.12453149928E+02 -0.20296339732E+02  0.24590867034E+02  0.51100000000E-03 0.  1.
        -12    1    3    3    0    0  0.34943772219E+01  0.18119316778E+02 -0.31294638739E+01  0.18716673230E+02  0.00000000000E+00 0.  1.
</event>
<event>
 7    1  0.7284210E-013  0.5930195E+02  0.7816164E-02  0.1266605E+00
        -11   -1    0    0    0    0  0.00000000000E+00  0.00000000000E+00  0.45593999997E+02  0.45594000000E+02  0.51100000000E-03 0. -1.
         11   -1    0    0    0    0 -0.00000000000E+00 -0.00000000000E+00 -0.45593999997E+02  0.45594000000E+02  0.51100000000E-03 0.  1.
    9900012    2    1    2    0    0  0.19593088949E+02  0.25011029765E+02  0.26980941839E+01  0.59301945733E+02  0.50000003111E+02 0.  0.
        -12    1    1    2    0    0 -0.19593088949E+02 -0.25011029765E+02 -0.26980941839E+01  0.31886054267E+02  0.00000000000E+00 0.  1.
         11    1    3    3    0    0  0.87213433165E+01  0.20437310582E+02  0.95941977039E+01  0.24203184149E+02  0.51100000000E-03 0. -1.
        -11    1    3    3    0    0 -0.48694248343E+01 -0.46612305562E+01  0.87600108418E+01  0.11053332471E+02  0.51100000000E-03 0.  1.
        -12    1    3    3    0    0  0.15741170466E+02  0.92349497391E+01 -0.15656114362E+02  0.24045429113E+02  0.00000000000E+00 0.  1.
</event>
<event>
 7    1  0.7284210E-013  0.5930197E+02  0.7816164E-02  0.1266605E+00
        -11   -1    0    0    0    0  0.00000000000E+00  0.00000000000E+00  0.45593999997E+02  0.45594000000E+02  0.51100000000E-03 0. -1.
         11   -1    0    0    0    0 -0.00000000000E+00 -0.00000000000E+00 -0.45593999997E+02  0.45594000000E+02  0.51100000000E-03 0.  1.
    9900012    2    1    2    0    0 -0.16658928011E+02 -0.26585602895E+02 -0.56925375827E+01  0.59301966257E+02  0.50000040540E+02 0.  0.
        -12    1    1    2    0    0  0.16658928011E+02  0.26585602895E+02  0.56925375827E+01  0.31886033743E+02  0.00000000000E+00 0.  1.
         11    1    3    3    0    0 -0.58454582456E+01 -0.46736602864E+01 -0.11578643268E+02  0.13786858335E+02  0.51100000000E-03 0. -1.
        -11    1    3    3    0    0  0.11841474919E+02 -0.11150813964E+02 -0.65325376999E+01  0.17528126807E+02  0.51100000000E-03 0.  1.
         12    1    3    3    0    0 -0.22654944684E+02 -0.10761128645E+02  0.12418643385E+02  0.27986981114E+02  0.00000000000E+00 0. -1.
</event>
<event>
 7    1  0.7284210E-013  0.5930194E+02  0.7816164E-02  0.1266605E+00
        -11   -1    0    0    0    0  0.00000000000E+00  0.00000000000E+00  0.45593999997E+02  0.45594000000E+02  0.51100000000E-03 0.  1.
         11   -1    0    0    0    0 -0.00000000000E+00 -0.00000000000E+00 -0.45593999997E+02  0.45594000000E+02  0.51100000000E-03 0. -1.
    9900012    2    1    2    0    0 -0.17620040925E+02  0.14308151327E+02 -0.22394907564E+02  0.59301938447E+02  0.49999989821E+02 0.  0.
        -12    1    1    2    0    0  0.17620040925E+02 -0.14308151327E+02  0.22394907564E+02  0.31886061553E+02  0.00000000000E+00 0.  1.
         11    1    3    3    0    0  0.27161470661E+00  0.18678354006E+02 -0.28867430094E+02  0.34384345325E+02  0.51100000000E-03 0. -1.
        -11    1    3    3    0    0 -0.24394637411E+01  0.25719564370E+00  0.83273367334E+01  0.86811099680E+01  0.51100000000E-03 0.  1.
        -12    1    3    3    0    0 -0.15452191890E+02 -0.46273983232E+01 -0.18548142033E+01  0.16236483153E+02  0.00000000000E+00 0.  1.
</event>
<event>
 7    1  0.7284210E-013  0.5930157E+02  0.7816164E-02  0.1266606E+00
        -11   -1    0    0    0    0  0.00000000000E+00  0.00000000000E+00  0.45593999997E+02  0.45594000000E+02  0.51100000000E-03 0. -1.
         11   -1    0    0    0    0 -0.00000000000E+00 -0.00000000000E+00 -0.45593999997E+02  0.45594000000E+02  0.51100000000E-03 0.  1.
    9900012    2    1    2    0    0  0.24730237411E+02  0.16713866156E+02  0.11216351958E+02  0.59301568473E+02  0.49999315074E+02 0.  0.
        -12    1    1    2    0    0 -0.24730237411E+02 -0.16713866156E+02 -0.11216351958E+02  0.31886431527E+02  0.00000000000E+00 0.  1.
         11    1    3    3    0    0  0.13121894856E+02 -0.50913253914E+01  0.96313824393E+01  0.17054889234E+02  0.51100000000E-03 0. -1.
        -11    1    3    3    0    0  0.89181366777E+01  0.27187065912E+02  0.11346280010E+02  0.30779990011E+02  0.51100000000E-03 0.  1.
        -12    1    3    3    0    0  0.26902058776E+01 -0.53818743654E+01 -0.97613104910E+01  0.11466689228E+02  0.00000000000E+00 0.  1.
</event>
<event>
 7    1  0.7284210E-013  0.5930193E+02  0.7816164E-02  0.1266605E+00
        -11   -1    0    0    0    0  0.00000000000E+00  0.00000000000E+00  0.45593999997E+02  0.45594000000E+02  0.51100000000E-03 0.  1.
         11   -1    0    0    0    0 -0.00000000000E+00 -0.00000000000E+00 -0.45593999997E+02  0.45594000000E+02  0.51100000000E-03 0. -1.
    9900012    2    1    2    0    0 -0.17864517334E+02  0.11711747188E+02  0.23673096692E+02  0.59301929236E+02  0.49999973023E+02 0.  0.
        -12    1    1    2    0    0  0.17864517334E+02 -0.11711747188E+02 -0.23673096692E+02  0.31886070764E+02  0.00000000000E+00 0.  1.
         11    1    3    3    0    0 -0.16218320079E+02  0.35440426631E+01  0.91353408792E+01  0.18948577726E+02  0.51100000000E-03 0. -1.
        -11    1    3    3    0    0 -0.40747649710E+01 -0.10766727599E+01  0.25478982405E+02  0.25825210133E+02  0.51100000000E-03 0.  1.
         12    1    3    3    0    0  0.24285677158E+01  0.92443772850E+01 -0.10941226592E+02  0.14528141377E+02  0.00000000000E+00 0. -1.
</event>
<event>
 7    1  0.7284210E-013  0.5930195E+02  0.7816164E-02  0.1266605E+00
        -11   -1    0    0    0    0  0.00000000000E+00  0.00000000000E+00  0.45593999997E+02  0.45594000000E+02  0.51100000000E-03 0.  1.
         11   -1    0    0    0    0 -0.00000000000E+00 -0.00000000000E+00 -0.45593999997E+02  0.45594000000E+02  0.51100000000E-03 0. -1.
    9900012    2    1    2    0    0 -0.26549654133E+02  0.65627087883E+01 -0.16394104547E+02  0.59301953755E+02  0.50000017741E+02 0.  0.
        -12    1    1    2    0    0  0.26549654133E+02 -0.65627087883E+01  0.16394104547E+02  0.31886046245E+02  0.00000000000E+00 0.  1.
         11    1    3    3    0    0  0.61802383669E+01 -0.56490263462E+01 -0.92143380783E+01  0.12450336197E+02  0.51100000000E-03 0. -1.
        -11    1    3    3    0    0  0.32072474355E+01  0.85684239224E+01 -0.55346370007E+01  0.10692826175E+02  0.51100000000E-03 0.  1.
        -12    1    3    3    0    0 -0.35937139935E+02  0.36433112121E+01 -0.16451294681E+01  0.36158791383E+02  0.00000000000E+00 0.  1.
</event>
<event>
 7    1  0.7284210E-013  0.5930195E+02  0.7816164E-02  0.1266605E+00
        -11   -1    0    0    0    0  0.00000000000E+00  0.00000000000E+00  0.45593999997E+02  0.45594000000E+02  0.51100000000E-03 0.  1.
         11   -1    0    0    0    0 -0.00000000000E+00 -0.00000000000E+00 -0.45593999997E+02  0.45594000000E+02  0.51100000000E-03 0. -1.
    9900012    2    1    2    0    0 -0.30386244672E+02  0.96525332756E+01 -0.47421870245E+00  0.59301950585E+02  0.50000011960E+02 0.  0.
        -12    1    1    2    0    0  0.30386244672E+02 -0.96525332756E+01  0.47421870245E+00  0.31886049415E+02  0.00000000000E+00 0.  1.
         11    1    3    3    0    0 -0.31132217470E+02 -0.89529538983E+01  0.98284929870E+01  0.33852173088E+02  0.51100000000E-03 0. -1.
        -11    1    3    3    0    0 -0.45625340007E+00 -0.14033770732E+00  0.26112776549E+01  0.26545495077E+01  0.51100000000E-03 0.  1.
         12    1    3    3    0    0  0.12022261986E+01  0.18745824881E+02 -0.12913989344E+02  0.22795227990E+02  0.00000000000E+00 0. -1.
</event>
<event>
 7    1  0.7284210E-013  0.5930195E+02  0.7816164E-02  0.1266605E+00
        -11   -1    0    0    0    0  0.00000000000E+00  0.00000000000E+00  0.45593999997E+02  0.45594000000E+02  0.51100000000E-03 0. -1.
         11   -1    0    0    0    0 -0.00000000000E+00 -0.00000000000E+00 -0.45593999997E+02  0.45594000000E+02  0.51100000000E-03 0.  1.
    9900012    2    1    2    0    0  0.18008623383E+01 -0.17614455271E+02  0.26518073057E+02  0.59301947589E+02  0.50000006495E+02 0.  0.
        -12    1    1    2    0    0 -0.18008623383E+01  0.17614455271E+02 -0.26518073057E+02  0.31886052411E+02  0.00000000000E+00 0.  1.
         11    1    3    3    0    0  0.52946819137E+01 -0.25759865775E+01 -0.31134286525E+01  0.66605406424E+01  0.51100000000E-03 0. -1.
        -11    1    3    3    0    0  0.22606158226E+01  0.13696472948E+02  0.12593341965E+02  0.18742892445E+02  0.51100000000E-03 0.  1.
        -12    1    3    3    0    0 -0.57544353980E+01 -0.28734941642E+02  0.17038159745E+02  0.33898514502E+02  0.00000000000E+00 0.  1.
</event>
<event>
 7    1  0.7284210E-013  0.5930193E+02  0.7816164E-02  0.1266605E+00
        -11   -1    0    0    0    0  0.00000000000E+00  0.00000000000E+00  0.45593999997E+02  0.45594000000E+02  0.51100000000E-03 0. -1.
         11   -1    0    0    0    0 -0.00000000000E+00 -0.00000000000E+00 -0.45593999997E+02  0.45594000000E+02  0.51100000000E-03 0.  1.
    9900012    2    1    2    0    0 -0.27403964230E+02 -0.46385370746E+01  0.15627795376E+02  0.59301932980E+02  0.49999979851E+02 0.  0.
        -12    1    1    2    0    0  0.27403964230E+02  0.46385370746E+01 -0.15627795376E+02  0.31886067020E+02  0.00000000000E+00 0.  1.
         11    1    3    3    0    0  0.73786117402E+01 -0.50228373468E+01  0.97471572323E+01  0.13216651641E+02  0.51100000000E-03 0.  1.
        -11    1    3    3    0    0  0.31589206610E+01  0.11409149098E+01  0.73782227605E+01  0.81067032719E+01  0.51100000000E-03 0. -1.
        -12    1    3    3    0    0 -0.37941496631E+02 -0.75661463761E+00 -0.14975846165E+01  0.37978578067E+02  0.00000000000E+00 0.  1.
</event>
<event>
 7    1  0.7284210E-013  0.5930196E+02  0.7816164E-02  0.1266605E+00
        -11   -1    0    0    0    0  0.00000000000E+00  0.00000000000E+00  0.45593999997E+02  0.45594000000E+02  0.51100000000E-03 0.  1.
         11   -1    0    0    0    0 -0.00000000000E+00 -0.00000000000E+00 -0.45593999997E+02  0.45594000000E+02  0.51100000000E-03 0. -1.
    9900012    2    1    2    0    0  0.57871833436E+00  0.26491383331E+02 -0.17736722526E+02  0.59301958670E+02  0.50000026704E+02 0.  0.
        -12    1    1    2    0    0 -0.57871833436E+00 -0.26491383331E+02  0.17736722526E+02  0.31886041330E+02  0.00000000000E+00 0.  1.
         11    1    3    3    0    0  0.13490060179E+02  0.30996239674E+01 -0.10951337869E+02  0.17649962996E+02  0.51100000000E-03 0. -1.
        -11    1    3    3    0    0  0.98416208305E+01  0.94954012141E+01 -0.61207105751E+01  0.14982764865E+02  0.51100000000E-03 0.  1.
        -12    1    3    3    0    0 -0.22752962675E+02  0.13896358150E+02 -0.66467408178E+00  0.26669230810E+02  0.00000000000E+00 0.  1.
</event>
<event>
 7    1  0.7284210E-013  0.5930196E+02  0.7816164E-02  0.1266605E+00
        -11   -1    0    0    0    0  0.00000000000E+00  0.00000000000E+00  0.45593999997E+02  0.45594000000E+02  0.51100000000E-03 0.  1.
         11   -1    0    0    0    0 -0.00000000000E+00 -0.00000000000E+00 -0.45593999997E+02  0.45594000000E+02  0.51100000000E-03 0. -1.
    9900012    2    1    2    0    0 -0.11850495665E+02  0.65977635301E+00 -0.29594767537E+02  0.59301955750E+02  0.50000021378E+02 0.  0.
        -12    1    1    2    0    0  0.11850495665E+02 -0.65977635301E+00  0.29594767537E+02  0.31886044250E+02  0.00000000000E+00 0.  1.
         11    1    3    3    0    0  0.70830091090E+01 -0.10359402945E+02 -0.10699596226E+01  0.12594882344E+02  0.51100000000E-03 0. -1.
        -11    1    3    3    0    0 -0.74648789819E+01 -0.21351104940E+01  0.47723572547E+01  0.91136441155E+01  0.51100000000E-03 0.  1.
         12    1    3    3    0    0 -0.11468625792E+02  0.13154289792E+02 -0.33297165169E+02  0.37593429290E+02  0.00000000000E+00 0. -1.
</event>
<event>
 7    1  0.7284210E-013  0.5930202E+02  0.7816164E-02  0.1266604E+00
        -11   -1    0    0    0    0  0.00000000000E+00  0.00000000000E+00  0.45593999997E+02  0.45594000000E+02  0.51100000000E-03 0. -1.
         11   -1    0    0    0    0 -0.00000000000E+00 -0.00000000000E+00 -0.45593999997E+02  0.45594000000E+02  0.51100000000E-03 0.  1.
    9900012    2    1    2    0    0 -0.19257816096E+02  0.25409412213E+02  0.46249677749E+00  0.59302021685E+02  0.50000141629E+02 0.  0.
        -12    1    1    2    0    0  0.19257816096E+02 -0.25409412213E+02 -0.46249677749E+00  0.31885978315E+02  0.00000000000E+00 0.  1.
         11    1    3    3    0    0 -0.38992408581E+01  0.11907639872E+02 -0.14064033802E+01  0.12608486718E+02  0.51100000000E-03 0. -1.
        -11    1    3    3    0    0  0.84873350542E+01  0.10061690082E+02 -0.12903161208E+02  0.18432689251E+02  0.51100000000E-03 0.  1.
         12    1    3    3    0    0 -0.23845910292E+02  0.34400822595E+01  0.14772061365E+02  0.28260845716E+02  0.00000000000E+00 0. -1.
</event>
<event>
 7    1  0.7284210E-013  0.5930193E+02  0.7816164E-02  0.1266605E+00
        -11   -1    0    0    0    0  0.00000000000E+00  0.00000000000E+00  0.45593999997E+02  0.45594000000E+02  0.51100000000E-03 0.  1.
         11   -1    0    0    0    0 -0.00000000000E+00 -0.00000000000E+00 -0.45593999997E+02  0.45594000000E+02  0.51100000000E-03 0. -1.
    9900012    2    1    2    0    0  0.10081896919E+02  0.19873799696E+01 -0.30184886013E+02  0.59301926735E+02  0.49999968463E+02 0.  0.
        -12    1    1    2    0    0 -0.10081896919E+02 -0.19873799696E+01  0.30184886013E+02  0.31886073265E+02  0.00000000000E+00 0.  1.
         11    1    3    3    0    0  0.22146911066E+01 -0.19257944645E+01  0.18365033115E+00  0.29406238662E+01  0.51100000000E-03 0. -1.
        -11    1    3    3    0    0  0.17784528536E+02 -0.78648306450E+01  0.29392629559E+01  0.19666832061E+02  0.51100000000E-03 0.  1.
         12    1    3    3    0    0 -0.99173227241E+01  0.11778005079E+02 -0.33307799300E+02  0.36694470808E+02  0.00000000000E+00 0. -1.
</event>
<event>
 7    1  0.7284210E-013  0.5930194E+02  0.7816164E-02  0.1266605E+00
        -11   -1    0    0    0    0  0.00000000000E+00  0.00000000000E+00  0.45593999997E+02  0.45594000000E+02  0.51100000000E-03 0. -1.
         11   -1    0    0    0    0 -0.00000000000E+00 -0.00000000000E+00 -0.45593999997E+02  0.45594000000E+02  0.51100000000E-03 0.  1.
    9900012    2    1    2    0    0 -0.14639995685E+02 -0.17629370456E+02  0.22171978153E+02  0.59301940483E+02  0.49999993535E+02 0.  0.
        -12    1    1    2    0    0  0.14639995685E+02  0.17629370456E+02 -0.22171978153E+02  0.31886059517E+02  0.00000000000E+00 0.  1.
         11    1    3    3    0    0 -0.60756721252E+00 -0.74438851555E+01  0.13502336731E+02  0.15430283911E+02  0.51100000000E-03 0.  1.
        -11    1    3    3    0    0  0.13834408321E+02 -0.44433949092E+01  0.36220880132E+01  0.14975117153E+02  0.51100000000E-03 0. -1.
        -12    1    3    3    0    0 -0.27866836794E+02 -0.57420903908E+01  0.50475534089E+01  0.28896539418E+02  0.00000000000E+00 0.  1.
</event>
<event>
 7    1  0.1148498E-012  0.5930194E+02  0.7816164E-02  0.1266605E+00
        -11   -1    0    0    0    0  0.00000000000E+00  0.00000000000E+00  0.45593999997E+02  0.45594000000E+02  0.51100000000E-03 0. -1.
         11   -1    0    0    0    0 -0.00000000000E+00 -0.00000000000E+00 -0.45593999997E+02  0.45594000000E+02  0.51100000000E-03 0.  1.
    9900012    2    1    2    0    0  0.13540757547E+02  0.18782671708E+00  0.28867516259E+02  0.59301938958E+02  0.49999990754E+02 0.  0.
        -12    1    1    2    0    0 -0.13540757547E+02 -0.18782671708E+00 -0.28867516259E+02  0.31886061042E+02  0.00000000000E+00 0.  1.
         11    1    3    3    0    0  0.25612781898E+02  0.10506400200E+02  0.13694229035E+02  0.30885772628E+02  0.51100000000E-03 0. -1.
        -11    1    3    3    0    0 -0.61424493354E+01 -0.28656775983E+01  0.17367023907E+02  0.18642835395E+02  0.51100000000E-03 0.  1.
        -12    1    3    3    0    0 -0.59295750154E+01 -0.74528958844E+01 -0.21937366833E+01  0.97733309348E+01  0.00000000000E+00 0.  1.
</event>
<event>
 7    1  0.7284210E-013  0.5930193E+02  0.7816164E-02  0.1266605E+00
        -11   -1    0    0    0    0  0.00000000000E+00  0.00000000000E+00  0.45593999997E+02  0.45594000000E+02  0.51100000000E-03 0. -1.
         11   -1    0    0    0    0 -0.00000000000E+00 -0.00000000000E+00 -0.45593999997E+02  0.45594000000E+02  0.51100000000E-03 0.  1.
    9900012    2    1    2    0    0  0.23325053491E+02  0.21577476445E+02  0.26600292781E+01  0.59301931477E+02  0.49999977110E+02 0.  0.
        -12    1    1    2    0    0 -0.23325053491E+02 -0.21577476445E+02 -0.26600292781E+01  0.31886068523E+02  0.00000000000E+00 0.  1.
         11    1    3    3    0    0  0.14480314623E+02 -0.13070082757E+01  0.54884554502E+01  0.15540621793E+02  0.51100000000E-03 0. -1.
        -11    1    3    3    0    0  0.20650309906E+02  0.15116683532E+02 -0.10522352337E+02  0.27670730370E+02  0.51100000000E-03 0.  1.
        -12    1    3    3    0    0 -0.11805571038E+02  0.77678011885E+01  0.76939261652E+01  0.16090579314E+02  0.00000000000E+00 0.  1.
</event>
<event>
 7    1  0.7284210E-013  0.5930195E+02  0.7816164E-02  0.1266605E+00
        -11   -1    0    0    0    0  0.00000000000E+00  0.00000000000E+00  0.45593999997E+02  0.45594000000E+02  0.51100000000E-03 0.  1.
         11   -1    0    0    0    0 -0.00000000000E+00 -0.00000000000E+00 -0.45593999997E+02  0.45594000000E+02  0.51100000000E-03 0. -1.
    9900012    2    1    2    0    0  0.57975452208E+01 -0.30319900552E+02 -0.79882758566E+01  0.59301945819E+02  0.50000003266E+02 0.  0.
        -12    1    1    2    0    0 -0.57975452208E+01  0.30319900552E+02  0.79882758566E+01  0.31886054181E+02  0.00000000000E+00 0.  1.
         11    1    3    3    0    0 -0.93098210602E+00 -0.46103199740E+01  0.10922346784E+01  0.48285354714E+01  0.51100000000E-03 0. -1.
        -11    1    3    3    0    0  0.51009707850E+01 -0.38629625890E+02 -0.66875406048E+00  0.38970695806E+02  0.51100000000E-03 0.  1.
        -12    1    3    3    0    0  0.16275565418E+01  0.12920045312E+02 -0.84117564745E+01  0.15502714541E+02  0.00000000000E+00 0.  1.
</event>
<event>
 7    1  0.7284210E-013  0.5930194E+02  0.7816164E-02  0.1266605E+00
        -11   -1    0    0    0    0  0.00000000000E+00  0.00000000000E+00  0.45593999997E+02  0.45594000000E+02  0.51100000000E-03 0.  1.
         11   -1    0    0    0    0 -0.00000000000E+00 -0.00000000000E+00 -0.45593999997E+02  0.45594000000E+02  0.51100000000E-03 0. -1.
    9900012    2    1    2    0    0  0.23528724375E+02 -0.82105488069E+01 -0.19892381701E+02  0.59301939846E+02  0.49999992373E+02 0.  0.
        -12    1    1    2    0    0 -0.23528724375E+02  0.82105488069E+01  0.19892381701E+02  0.31886060154E+02  0.00000000000E+00 0.  1.
         11    1    3    3    0    0 -0.84800135344E+01 -0.11839700000E+02 -0.11728745566E+02  0.18698999932E+02  0.51100000000E-03 0. -1.
        -11    1    3    3    0    0  0.25450288401E+01  0.69214531427E+01 -0.81022075515E+01  0.10955795401E+02  0.51100000000E-03 0.  1.
         12    1    3    3    0    0  0.29463709070E+02 -0.32923019493E+01 -0.61428583129E-01  0.29647144512E+02  0.00000000000E+00 0. -1.
</event>
<event>
 7    1  0.7284210E-013  0.5930195E+02  0.7816164E-02  0.1266605E+00
        -11   -1    0    0    0    0  0.00000000000E+00  0.00000000000E+00  0.45593999997E+02  0.45594000000E+02  0.51100000000E-03 0.  1.
         11   -1    0    0    0    0 -0.00000000000E+00 -0.00000000000E+00 -0.45593999997E+02  0.45594000000E+02  0.51100000000E-03 0. -1.
    9900012    2    1    2    0    0 -0.30177124219E+02  0.34078453663E+01 -0.97184326349E+01  0.59301950243E+02  0.50000011336E+02 0.  0.
        -12    1    1    2    0    0  0.30177124219E+02 -0.34078453663E+01  0.97184326349E+01  0.31886049757E+02  0.00000000000E+00 0.  1.
         11    1    3    3    0    0 -0.20498560501E+02  0.22585609256E+01  0.18503207529E+01  0.20705452596E+02  0.51100000000E-03 0. -1.
        -11    1    3    3    0    0 -0.21151434808E+02 -0.26011646037E+01  0.78456848467E+00  0.21325215115E+02  0.51100000000E-03 0.  1.
        -12    1    3    3    0    0  0.11472871089E+02  0.37504490444E+01 -0.12353321872E+02  0.17271282533E+02  0.00000000000E+00 0.  1.
</event>
<event>
 7    1  0.7284210E-013  0.5930183E+02  0.7816164E-02  0.1266605E+00
        -11   -1    0    0    0    0  0.00000000000E+00  0.00000000000E+00  0.45593999997E+02  0.45594000000E+02  0.51100000000E-03 0. -1.
         11   -1    0    0    0    0 -0.00000000000E+00 -0.00000000000E+00 -0.45593999997E+02  0.45594000000E+02  0.51100000000E-03 0.  1.
    9900012    2    1    2    0    0  0.16150615996E+02 -0.17478974282E+02 -0.21221948117E+02  0.59301827120E+02  0.49999786789E+02 0.  0.
        -12    1    1    2    0    0 -0.16150615996E+02  0.17478974282E+02  0.21221948117E+02  0.31886172880E+02  0.00000000000E+00 0.  1.
         11    1    3    3    0    0  0.14785802575E+02 -0.91874874065E+01 -0.52907566140E+01  0.18194009685E+02  0.51100000000E-03 0. -1.
        -11    1    3    3    0    0  0.10971888484E+02  0.74194897921E+01 -0.18246894140E+02  0.22547290562E+02  0.51100000000E-03 0.  1.
         12    1    3    3    0    0 -0.96070750620E+01 -0.15710976667E+02  0.23157026369E+01  0.18560526873E+02  0.00000000000E+00 0. -1.
</event>
<event>
 7    1  0.7284210E-013  0.5930195E+02  0.7816164E-02  0.1266605E+00
        -11   -1    0    0    0    0  0.00000000000E+00  0.00000000000E+00  0.45593999997E+02  0.45594000000E+02  0.51100000000E-03 0.  1.
         11   -1    0    0    0    0 -0.00000000000E+00 -0.00000000000E+00 -0.45593999997E+02  0.45594000000E+02  0.51100000000E-03 0. -1.
    9900012    2    1    2    0    0  0.20202195791E+02 -0.15248476360E+01 -0.24622472308E+02  0.59301952619E+02  0.50000015668E+02 0.  0.
        -12    1    1    2    0    0 -0.20202195791E+02  0.15248476360E+01  0.24622472308E+02  0.31886047381E+02  0.00000000000E+00 0.  1.
         11    1    3    3    0    0  0.10618150005E+02 -0.82001322015E+01 -0.14133009086E+02  0.19486642188E+02  0.51100000000E-03 0. -1.
        -11    1    3    3    0    0  0.16570731343E+02 -0.89276547240E+01 -0.12509752566E+02  0.22600576666E+02  0.51100000000E-03 0.  1.
        -12    1    3    3    0    0 -0.69866855579E+01  0.15602939290E+02  0.20202893444E+01  0.17214733765E+02  0.00000000000E+00 0.  1.
</event>
<event>
 7    1  0.7284210E-013  0.5930192E+02  0.7816164E-02  0.1266605E+00
        -11   -1    0    0    0    0  0.00000000000E+00  0.00000000000E+00  0.45593999997E+02  0.45594000000E+02  0.51100000000E-03 0.  1.
         11   -1    0    0    0    0 -0.00000000000E+00 -0.00000000000E+00 -0.45593999997E+02  0.45594000000E+02  0.51100000000E-03 0. -1.
    9900012    2    1    2    0    0  0.28889928365E+02  0.54731145707E+01 -0.12334458629E+02  0.59301924454E+02  0.49999964303E+02 0.  0.
        -12    1    1    2    0    0 -0.28889928365E+02 -0.54731145707E+01  0.12334458629E+02  0.31886075546E+02  0.00000000000E+00 0.  1.
         11    1    3    3    0    0 -0.47039690090E+00  0.40994974170E+01 -0.11663556763E+02  0.12371972719E+02  0.51100000000E-03 0. -1.
        -11    1    3    3    0    0  0.94429776070E+01  0.90138265260E+01 -0.16008203695E+02  0.20656269763E+02  0.51100000000E-03 0.  1.
        -12    1    3    3    0    0  0.19917347659E+02 -0.76402093723E+01  0.15337301829E+02  0.26273681973E+02  0.00000000000E+00 0.  1.
</event>
<event>
 7    1  0.7284210E-013  0.5930192E+02  0.7816164E-02  0.1266605E+00
        -11   -1    0    0    0    0  0.00000000000E+00  0.00000000000E+00  0.45593999997E+02  0.45594000000E+02  0.51100000000E-03 0.  1.
         11   -1    0    0    0    0 -0.00000000000E+00 -0.00000000000E+00 -0.45593999997E+02  0.45594000000E+02  0.51100000000E-03 0. -1.
    9900012    2    1    2    0    0  0.72797819024E+01 -0.10648851495E+02 -0.29160397525E+02  0.59301920804E+02  0.49999957645E+02 0.  0.
        -12    1    1    2    0    0 -0.72797819024E+01  0.10648851495E+02  0.29160397525E+02  0.31886079196E+02  0.00000000000E+00 0.  1.
         11    1    3    3    0    0 -0.14554131268E+02 -0.45996025250E+01 -0.17564964064E+02  0.23270303892E+02  0.51100000000E-03 0. -1.
        -11    1    3    3    0    0  0.44225947298E+01  0.92922408924E+01 -0.68019265353E+01  0.12335772769E+02  0.51100000000E-03 0.  1.
         12    1    3    3    0    0  0.17411318441E+02 -0.15341489862E+02 -0.47935069254E+01  0.23695844144E+02  0.00000000000E+00 0. -1.
</event>
<event>
 7    1  0.7284210E-013  0.5930195E+02  0.7816164E-02  0.1266605E+00
        -11   -1    0    0    0    0  0.00000000000E+00  0.00000000000E+00  0.45593999997E+02  0.45594000000E+02  0.51100000000E-03 0.  1.
         11   -1    0    0    0    0 -0.00000000000E+00 -0.00000000000E+00 -0.45593999997E+02  0.45594000000E+02  0.51100000000E-03 0. -1.
    9900012    2    1    2    0    0 -0.24182212612E+02 -0.17758340778E+02 -0.10797326227E+02  0.59301947757E+02  0.50000006801E+02 0.  0.
        -12    1    1    2    0    0  0.24182212612E+02  0.17758340778E+02  0.10797326227E+02  0.31886052243E+02  0.00000000000E+00 0.  1.
         11    1    3    3    0    0 -0.11166614791E+02 -0.13679776709E+02 -0.16638679297E+02  0.24262630230E+02  0.51100000000E-03 0. -1.
        -11    1    3    3    0    0  0.35202668720E+01  0.70240414690E+01 -0.76633352112E+01  0.10975251443E+02  0.51100000000E-03 0.  1.
         12    1    3    3    0    0 -0.16535864693E+02 -0.11102605539E+02  0.13504688281E+02  0.24064066084E+02  0.00000000000E+00 0. -1.
</event>
<event>
 7    1  0.7284210E-013  0.5930194E+02  0.7816164E-02  0.1266605E+00
        -11   -1    0    0    0    0  0.00000000000E+00  0.00000000000E+00  0.45593999997E+02  0.45594000000E+02  0.51100000000E-03 0. -1.
         11   -1    0    0    0    0 -0.00000000000E+00 -0.00000000000E+00 -0.45593999997E+02  0.45594000000E+02  0.51100000000E-03 0.  1.
    9900012    2    1    2    0    0 -0.29118372585E+02 -0.12982419587E+02 -0.54603620157E+00  0.59301937279E+02  0.49999987691E+02 0.  0.
        -12    1    1    2    0    0  0.29118372585E+02  0.12982419587E+02  0.54603620157E+00  0.31886062721E+02  0.00000000000E+00 0.  1.
         11    1    3    3    0    0 -0.11157139517E+01 -0.17695635729E+01 -0.74772266274E+01  0.77643474393E+01  0.51100000000E-03 0. -1.
        -11    1    3    3    0    0  0.92029957234E+01 -0.14483545949E+01 -0.58539969443E+01  0.11002824265E+02  0.51100000000E-03 0.  1.
         12    1    3    3    0    0 -0.37205654357E+02 -0.97645014190E+01  0.12785187370E+02  0.40534765574E+02  0.00000000000E+00 0. -1.
</event>
<event>
 7    1  0.7284210E-013  0.5930194E+02  0.7816164E-02  0.1266605E+00
        -11   -1    0    0    0    0  0.00000000000E+00  0.00000000000E+00  0.45593999997E+02  0.45594000000E+02  0.51100000000E-03 0.  1.
         11   -1    0    0    0    0 -0.00000000000E+00 -0.00000000000E+00 -0.45593999997E+02  0.45594000000E+02  0.51100000000E-03 0. -1.
    9900012    2    1    2    0    0  0.25889315141E+01  0.23826865445E+02 -0.21030900834E+02  0.59301939202E+02  0.49999991199E+02 0.  0.
        -12    1    1    2    0    0 -0.25889315141E+01 -0.23826865445E+02  0.21030900834E+02  0.31886060798E+02  0.00000000000E+00 0.  1.
         11    1    3    3    0    0 -0.25496758713E+01  0.19437236335E+02 -0.35437571119E-01  0.19603781765E+02  0.51100000000E-03 0. -1.
        -11    1    3    3    0    0 -0.35320233274E+01  0.15506823455E+02 -0.19807712987E+01  0.16026859257E+02  0.51100000000E-03 0.  1.
        -12    1    3    3    0    0  0.86706307128E+01 -0.11117194345E+02 -0.19014691964E+02  0.23671298180E+02  0.00000000000E+00 0.  1.
</event>
<event>
 7    1  0.7284210E-013  0.5930196E+02  0.7816164E-02  0.1266605E+00
        -11   -1    0    0    0    0  0.00000000000E+00  0.00000000000E+00  0.45593999997E+02  0.45594000000E+02  0.51100000000E-03 0.  1.
         11   -1    0    0    0    0 -0.00000000000E+00 -0.00000000000E+00 -0.45593999997E+02  0.45594000000E+02  0.51100000000E-03 0. -1.
    9900012    2    1    2    0    0 -0.28497938248E+02 -0.24953074013E+01 -0.14084050129E+02  0.59301960556E+02  0.50000030143E+02 0.  0.
        -12    1    1    2    0    0  0.28497938248E+02  0.24953074013E+01  0.14084050129E+02  0.31886039444E+02  0.00000000000E+00 0.  1.
         11    1    3    3    0    0 -0.15559233839E+01 -0.10731222249E+02 -0.18926399032E+02  0.21812579149E+02  0.51100000000E-03 0. -1.
        -11    1    3    3    0    0 -0.16401032129E+01 -0.70365910353E+01  0.31645704292E+01  0.78878424306E+01  0.51100000000E-03 0.  1.
        -12    1    3    3    0    0 -0.25301911651E+02  0.15272505883E+02  0.16777784740E+01  0.29601538976E+02  0.00000000000E+00 0.  1.
</event>
<event>
 7    1  0.7284210E-013  0.5930193E+02  0.7816164E-02  0.1266605E+00
        -11   -1    0    0    0    0  0.00000000000E+00  0.00000000000E+00  0.45593999997E+02  0.45594000000E+02  0.51100000000E-03 0.  1.
         11   -1    0    0    0    0 -0.00000000000E+00 -0.00000000000E+00 -0.45593999997E+02  0.45594000000E+02  0.51100000000E-03 0. -1.
    9900012    2    1    2    0    0 -0.13618121717E+02  0.15971962395E+02 -0.24003423619E+02  0.59301934590E+02  0.49999982789E+02 0.  0.
        -12    1    1    2    0    0  0.13618121717E+02 -0.15971962395E+02  0.24003423619E+02  0.31886065410E+02  0.00000000000E+00 0.  1.
         11    1    3    3    0    0  0.63043113008E+01  0.18184105758E+02 -0.68167262083E+01  0.20417487594E+02  0.51100000000E-03 0. -1.
        -11    1    3    3    0    0  0.25487782013E+01 -0.69150209591E+01 -0.13845194982E+02  0.15684489458E+02  0.51100000000E-03 0.  1.
        -12    1    3    3    0    0 -0.22471211219E+02  0.47028775970E+01 -0.33415024284E+01  0.23199957539E+02  0.00000000000E+00 0.  1.
</event>
<event>
 7    1  0.7284210E-013  0.5930192E+02  0.7816164E-02  0.1266605E+00
        -11   -1    0    0    0    0  0.00000000000E+00  0.00000000000E+00  0.45593999997E+02  0.45594000000E+02  0.51100000000E-03 0.  1.
         11   -1    0    0    0    0 -0.00000000000E+00 -0.00000000000E+00 -0.45593999997E+02  0.45594000000E+02  0.51100000000E-03 0. -1.
    9900012    2    1    2    0    0 -0.10392498475E+01 -0.29921195566E+02  0.10971064553E+02  0.59301917742E+02  0.49999952061E+02 0.  0.
        -12    1    1    2    0    0  0.10392498475E+01  0.29921195566E+02 -0.10971064553E+02  0.31886082258E+02  0.00000000000E+00 0.  1.
         11    1    3    3    0    0 -0.17994513036E+02 -0.21892367927E+01  0.13903593812E+01  0.18180438845E+02  0.51100000000E-03 0. -1.
        -11    1    3    3    0    0  0.24802792201E+01 -0.25167373833E+02  0.61057662821E+01  0.26015934979E+02  0.51100000000E-03 0.  1.
        -12    1    3    3    0    0  0.14474983968E+02 -0.25645849401E+01  0.34749388901E+01  0.15105543919E+02  0.00000000000E+00 0.  1.
</event>
<event>
 7    1  0.7284210E-013  0.5930193E+02  0.7816164E-02  0.1266605E+00
        -11   -1    0    0    0    0  0.00000000000E+00  0.00000000000E+00  0.45593999997E+02  0.45594000000E+02  0.51100000000E-03 0.  1.
         11   -1    0    0    0    0 -0.00000000000E+00 -0.00000000000E+00 -0.45593999997E+02  0.45594000000E+02  0.51100000000E-03 0. -1.
    9900012    2    1    2    0    0 -0.22905346917E+02 -0.17438279459E+02  0.13710317288E+02  0.59301932384E+02  0.49999978765E+02 0.  0.
        -12    1    1    2    0    0  0.22905346917E+02  0.17438279459E+02 -0.13710317288E+02  0.31886067616E+02  0.00000000000E+00 0.  1.
         11    1    3    3    0    0 -0.14334136008E+02  0.88936033744E+01  0.30246401346E+01  0.17138030350E+02  0.51100000000E-03 0. -1.
        -11    1    3    3    0    0  0.93422437314E+01 -0.93312237713E+00  0.29750138563E+00  0.93934414696E+01  0.51100000000E-03 0.  1.
         12    1    3    3    0    0 -0.17913454640E+02 -0.25398760456E+02  0.10388175768E+02  0.32770460565E+02  0.00000000000E+00 0. -1.
</event>
<event>
 7    1  0.7284210E-013  0.5930194E+02  0.7816164E-02  0.1266605E+00
        -11   -1    0    0    0    0  0.00000000000E+00  0.00000000000E+00  0.45593999997E+02  0.45594000000E+02  0.51100000000E-03 0. -1.
         11   -1    0    0    0    0 -0.00000000000E+00 -0.00000000000E+00 -0.45593999997E+02  0.45594000000E+02  0.51100000000E-03 0.  1.
    9900012    2    1    2    0    0 -0.67595049499E+01 -0.18836671621E+02  0.24823570423E+02  0.59301941080E+02  0.49999994624E+02 0.  0.
        -12    1    1    2    0    0  0.67595049499E+01  0.18836671621E+02 -0.24823570423E+02  0.31886058920E+02  0.00000000000E+00 0.  1.
         11    1    3    3    0    0  0.49848810584E+01  0.24221593238E+00  0.94939275538E+01  0.10725780549E+02  0.51100000000E-03 0. -1.
        -11    1    3    3    0    0  0.88351823454E+01 -0.21565615418E+02  0.90659856416E+00  0.23322910124E+02  0.51100000000E-03 0.  1.
        -12    1    3    3    0    0 -0.20579568354E+02  0.24867278643E+01  0.14423044305E+02  0.25253250407E+02  0.00000000000E+00 0.  1.
</event>
<event>
 7    1  0.7284210E-013  0.5930195E+02  0.7816164E-02  0.1266605E+00
        -11   -1    0    0    0    0  0.00000000000E+00  0.00000000000E+00  0.45593999997E+02  0.45594000000E+02  0.51100000000E-03 0. -1.
         11   -1    0    0    0    0 -0.00000000000E+00 -0.00000000000E+00 -0.45593999997E+02  0.45594000000E+02  0.51100000000E-03 0.  1.
    9900012    2    1    2    0    0  0.28200048310E+02  0.58834189695E+01  0.13669778466E+02  0.59301949966E+02  0.50000010830E+02 0.  0.
        -12    1    1    2    0    0 -0.28200048310E+02 -0.58834189695E+01 -0.13669778466E+02  0.31886050034E+02  0.00000000000E+00 0.  1.
         11    1    3    3    0    0  0.28925961741E+02  0.15460835167E+02  0.32596510054E+00  0.32800227746E+02  0.51100000000E-03 0. -1.
        -11    1    3    3    0    0  0.56024072513E+01 -0.89171904980E+01 -0.12269834902E+01  0.10602298908E+02  0.51100000000E-03 0.  1.
         12    1    3    3    0    0 -0.63283206821E+01 -0.66022569922E+00  0.14570796856E+02  0.15899423311E+02  0.00000000000E+00 0. -1.
</event>
<event>
 7    1  0.7284210E-013  0.5930197E+02  0.7816164E-02  0.1266605E+00
        -11   -1    0    0    0    0  0.00000000000E+00  0.00000000000E+00  0.45593999997E+02  0.45594000000E+02  0.51100000000E-03 0.  1.
         11   -1    0    0    0    0 -0.00000000000E+00 -0.00000000000E+00 -0.45593999997E+02  0.45594000000E+02  0.51100000000E-03 0. -1.
    9900012    2    1    2    0    0 -0.93114825271E+01  0.19899576764E+02  0.23108923702E+02  0.59301965174E+02  0.50000038566E+02 0.  0.
        -12    1    1    2    0    0  0.93114825271E+01 -0.19899576764E+02 -0.23108923702E+02  0.31886034826E+02  0.00000000000E+00 0.  1.
         11    1    3    3    0    0  0.55691293044E+01  0.64671071034E+01  0.18496986502E+02  0.20370988818E+02  0.51100000000E-03 0.  1.
        -11    1    3    3    0    0  0.49512107807E+01 -0.49587876702E+01  0.91300592023E+01  0.11509215640E+02  0.51100000000E-03 0. -1.
         12    1    3    3    0    0 -0.19831822612E+02  0.18391257331E+02 -0.45181220025E+01  0.27421760716E+02  0.00000000000E+00 0. -1.
</event>
<event>
 7    1  0.7284210E-013  0.5930192E+02  0.7816164E-02  0.1266605E+00
        -11   -1    0    0    0    0  0.00000000000E+00  0.00000000000E+00  0.45593999997E+02  0.45594000000E+02  0.51100000000E-03 0.  1.
         11   -1    0    0    0    0 -0.00000000000E+00 -0.00000000000E+00 -0.45593999997E+02  0.45594000000E+02  0.51100000000E-03 0. -1.
    9900012    2    1    2    0    0  0.14397743898E+02  0.28448678406E+02  0.31626347271E+00  0.59301915967E+02  0.49999948823E+02 0.  0.
        -12    1    1    2    0    0 -0.14397743898E+02 -0.28448678406E+02 -0.31626347271E+00  0.31886084033E+02  0.00000000000E+00 0.  1.
         11    1    3    3    0    0 -0.61381793290E+01 -0.54605787277E+01  0.83714258832E+01  0.11729276921E+02  0.51100000000E-03 0. -1.
        -11    1    3    3    0    0  0.76402855273E+00  0.24319067187E+01  0.70136611675E+01  0.74625299431E+01  0.51100000000E-03 0.  1.
         12    1    3    3    0    0  0.19771894674E+02  0.31477350415E+02 -0.15068823578E+02  0.40110109102E+02  0.00000000000E+00 0. -1.
</event>
<event>
 7    1  0.7284210E-013  0.5930193E+02  0.7816164E-02  0.1266605E+00
        -11   -1    0    0    0    0  0.00000000000E+00  0.00000000000E+00  0.45593999997E+02  0.45594000000E+02  0.51100000000E-03 0.  1.
         11   -1    0    0    0    0 -0.00000000000E+00 -0.00000000000E+00 -0.45593999997E+02  0.45594000000E+02  0.51100000000E-03 0. -1.
    9900012    2    1    2    0    0 -0.24993621395E+02 -0.19799672090E+02  0.11448661274E+00  0.59301933568E+02  0.49999980924E+02 0.  0.
        -12    1    1    2    0    0  0.24993621395E+02  0.19799672090E+02 -0.11448661274E+00  0.31886066432E+02  0.00000000000E+00 0.  1.
         11    1    3    3    0    0 -0.10272126696E+02  0.68340379747E+01  0.66784850582E+01  0.14029355824E+02  0.51100000000E-03 0. -1.
        -11    1    3    3    0    0 -0.23273231592E+02 -0.11690191854E+02  0.18485805731E+01  0.26109790208E+02  0.51100000000E-03 0.  1.
         12    1    3    3    0    0  0.85517368931E+01 -0.14943518211E+02 -0.84125790185E+01  0.19162787536E+02  0.00000000000E+00 0. -1.
</event>
<event>
 7    1  0.7284210E-013  0.5930193E+02  0.7816164E-02  0.1266605E+00
        -11   -1    0    0    0    0  0.00000000000E+00  0.00000000000E+00  0.45593999997E+02  0.45594000000E+02  0.51100000000E-03 0.  1.
         11   -1    0    0    0    0 -0.00000000000E+00 -0.00000000000E+00 -0.45593999997E+02  0.45594000000E+02  0.51100000000E-03 0. -1.
    9900012    2    1    2    0    0 -0.58105688632E+01 -0.24590705773E+02 -0.19448805780E+02  0.59301928320E+02  0.49999971352E+02 0.  0.
        -12    1    1    2    0    0  0.58105688632E+01  0.24590705773E+02  0.19448805780E+02  0.31886071680E+02  0.00000000000E+00 0.  1.
         11    1    3    3    0    0  0.19879899806E+01 -0.14280538084E+02 -0.28099606573E+02  0.31582808013E+02  0.51100000000E-03 0. -1.
        -11    1    3    3    0    0  0.32296295601E+01  0.51220612439E+01 -0.14544532954E+01  0.62274756629E+01  0.51100000000E-03 0.  1.
         12    1    3    3    0    0 -0.11028188404E+02 -0.15432228933E+02  0.10105254089E+02  0.21491644644E+02  0.00000000000E+00 0. -1.
</event>
<event>
 7    1  0.7284210E-013  0.5930194E+02  0.7816164E-02  0.1266605E+00
        -11   -1    0    0    0    0  0.00000000000E+00  0.00000000000E+00  0.45593999997E+02  0.45594000000E+02  0.51100000000E-03 0. -1.
         11   -1    0    0    0    0 -0.00000000000E+00 -0.00000000000E+00 -0.45593999997E+02  0.45594000000E+02  0.51100000000E-03 0.  1.
    9900012    2    1    2    0    0 -0.12304111512E+02  0.15285810536E+02  0.25133112997E+02  0.59301944541E+02  0.50000000936E+02 0.  0.
        -12    1    1    2    0    0  0.12304111512E+02 -0.15285810536E+02 -0.25133112997E+02  0.31886055459E+02  0.00000000000E+00 0.  1.
         11    1    3    3    0    0  0.78139587232E+01  0.53931135257E+01 -0.80496618876E+01  0.12447517069E+02  0.51100000000E-03 0. -1.
        -11    1    3    3    0    0  0.98733020526E+00  0.11671115126E+02  0.94905554115E+01  0.15075158092E+02  0.51100000000E-03 0.  1.
         12    1    3    3    0    0 -0.21105400440E+02 -0.17784181158E+01  0.23692219473E+02  0.31779269379E+02  0.00000000000E+00 0. -1.
</event>
<event>
 7    1  0.7284210E-013  0.5930192E+02  0.7816164E-02  0.1266605E+00
        -11   -1    0    0    0    0  0.00000000000E+00  0.00000000000E+00  0.45593999997E+02  0.45594000000E+02  0.51100000000E-03 0.  1.
         11   -1    0    0    0    0 -0.00000000000E+00 -0.00000000000E+00 -0.45593999997E+02  0.45594000000E+02  0.51100000000E-03 0. -1.
    9900012    2    1    2    0    0  0.15013052265E+02  0.12268343266E+02 -0.25314383904E+02  0.59301921263E+02  0.49999958482E+02 0.  0.
        -12    1    1    2    0    0 -0.15013052265E+02 -0.12268343266E+02  0.25314383904E+02  0.31886078737E+02  0.00000000000E+00 0.  1.
         11    1    3    3    0    0 -0.58577112329E+01  0.64749710061E-01 -0.49864704619E+01  0.76929748044E+01  0.51100000000E-03 0. -1.
        -11    1    3    3    0    0 -0.38699696396E+00  0.20916387578E+02  0.19266493168E-01  0.20919976277E+02  0.51100000000E-03 0.  1.
         12    1    3    3    0    0  0.21257760462E+02 -0.87127940215E+01 -0.20347179935E+02  0.30688970182E+02  0.00000000000E+00 0. -1.
</event>
<event>
 7    1  0.7284210E-013  0.5930195E+02  0.7816164E-02  0.1266605E+00
        -11   -1    0    0    0    0  0.00000000000E+00  0.00000000000E+00  0.45593999997E+02  0.45594000000E+02  0.51100000000E-03 0.  1.
         11   -1    0    0    0    0 -0.00000000000E+00 -0.00000000000E+00 -0.45593999997E+02  0.45594000000E+02  0.51100000000E-03 0. -1.
    9900012    2    1    2    0    0 -0.12485011490E+02 -0.36079208239E+01 -0.29117483887E+02  0.59301945486E+02  0.50000002659E+02 0.  0.
        -12    1    1    2    0    0  0.12485011490E+02  0.36079208239E+01  0.29117483887E+02  0.31886054514E+02  0.00000000000E+00 0.  1.
         11    1    3    3    0    0  0.12793328782E+02 -0.75789384828E+01 -0.90672089124E+01  0.17416194980E+02  0.51100000000E-03 0.  1.
        -11    1    3    3    0    0 -0.30239145179E+01  0.73578058880E+01  0.40340320835E+01  0.89193487211E+01  0.51100000000E-03 0. -1.
         12    1    3    3    0    0 -0.22254425754E+02 -0.33867882290E+01 -0.24084307058E+02  0.32966401785E+02  0.00000000000E+00 0. -1.
</event>
<event>
 7    1  0.7284210E-013  0.5930193E+02  0.7816164E-02  0.1266605E+00
        -11   -1    0    0    0    0  0.00000000000E+00  0.00000000000E+00  0.45593999997E+02  0.45594000000E+02  0.51100000000E-03 0.  1.
         11   -1    0    0    0    0 -0.00000000000E+00 -0.00000000000E+00 -0.45593999997E+02  0.45594000000E+02  0.51100000000E-03 0. -1.
    9900012    2    1    2    0    0  0.58895634620E+00 -0.26946628356E+02 -0.17036830252E+02  0.59301933539E+02  0.49999980870E+02 0.  0.
        -12    1    1    2    0    0 -0.58895634620E+00  0.26946628356E+02  0.17036830252E+02  0.31886066461E+02  0.00000000000E+00 0.  1.
         11    1    3    3    0    0 -0.19582180573E+00 -0.78033521913E+01 -0.23604091922E+02  0.24861291345E+02  0.51100000000E-03 0. -1.
        -11    1    3    3    0    0 -0.55932408085E+01 -0.49988194936E+01 -0.94999239806E+01  0.12104589831E+02  0.51100000000E-03 0.  1.
        -12    1    3    3    0    0  0.63780189605E+01 -0.14144456672E+02  0.16067185651E+02  0.22336052363E+02  0.00000000000E+00 0.  1.
</event>
<event>
 7    1  0.7284210E-013  0.5930196E+02  0.7816164E-02  0.1266605E+00
        -11   -1    0    0    0    0  0.00000000000E+00  0.00000000000E+00  0.45593999997E+02  0.45594000000E+02  0.51100000000E-03 0.  1.
         11   -1    0    0    0    0 -0.00000000000E+00 -0.00000000000E+00 -0.45593999997E+02  0.45594000000E+02  0.51100000000E-03 0. -1.
    9900012    2    1    2    0    0 -0.12746981991E+02  0.13209545486E+02 -0.26071865780E+02  0.59301955606E+02  0.50000021117E+02 0.  0.
        -12    1    1    2    0    0  0.12746981991E+02 -0.13209545486E+02  0.26071865780E+02  0.31886044394E+02  0.00000000000E+00 0.  1.
         11    1    3    3    0    0 -0.46262277962E+00 -0.94261663439E+01 -0.75737832765E+01  0.12100777874E+02  0.51100000000E-03 0. -1.
        -11    1    3    3    0    0  0.18020368646E+01 -0.48991569434E+01  0.58485817372E+01  0.78393229436E+01  0.51100000000E-03 0.  1.
        -12    1    3    3    0    0 -0.14086396076E+02  0.27534868773E+02 -0.24346664241E+02  0.39361854789E+02  0.00000000000E+00 0.  1.
</event>
<event>
 7    1  0.7284210E-013  0.5930194E+02  0.7816164E-02  0.1266605E+00
        -11   -1    0    0    0    0  0.00000000000E+00  0.00000000000E+00  0.45593999997E+02  0.45594000000E+02  0.51100000000E-03 0.  1.
         11   -1    0    0    0    0 -0.00000000000E+00 -0.00000000000E+00 -0.45593999997E+02  0.45594000000E+02  0.51100000000E-03 0. -1.
    9900012    2    1    2    0    0 -0.19652116440E+01  0.26081403628E+02 -0.18237843577E+02  0.59301943324E+02  0.49999998716E+02 0.  0.
        -12    1    1    2    0    0  0.19652116440E+01 -0.26081403628E+02  0.18237843577E+02  0.31886056676E+02  0.00000000000E+00 0.  1.
         11    1    3    3    0    0  0.67433296009E+01  0.26495918372E+02 -0.14144394891E+02  0.30782626457E+02  0.51100000000E-03 0. -1.
        -11    1    3    3    0    0 -0.13187187257E+01  0.48366936045E+01 -0.14130980780E+02  0.14993906835E+02  0.51100000000E-03 0.  1.
        -12    1    3    3    0    0 -0.73898225191E+01 -0.52512083488E+01  0.10037532094E+02  0.13525410032E+02  0.00000000000E+00 0.  1.
</event>
<event>
 7    1  0.7284210E-013  0.5930195E+02  0.7816164E-02  0.1266605E+00
        -11   -1    0    0    0    0  0.00000000000E+00  0.00000000000E+00  0.45593999997E+02  0.45594000000E+02  0.51100000000E-03 0.  1.
         11   -1    0    0    0    0 -0.00000000000E+00 -0.00000000000E+00 -0.45593999997E+02  0.45594000000E+02  0.51100000000E-03 0. -1.
    9900012    2    1    2    0    0  0.45720634963E+01  0.97984259268E+01 -0.29996784494E+02  0.59301952969E+02  0.50000016307E+02 0.  0.
        -12    1    1    2    0    0 -0.45720634963E+01 -0.97984259268E+01  0.29996784494E+02  0.31886047031E+02  0.00000000000E+00 0.  1.
         11    1    3    3    0    0 -0.74422927666E+00 -0.22692392290E+01 -0.62767866548E+00  0.24692720917E+01  0.51100000000E-03 0. -1.
        -11    1    3    3    0    0  0.32975473793E+01 -0.17834339657E+02 -0.15283597970E+02  0.23717627557E+02  0.51100000000E-03 0.  1.
         12    1    3    3    0    0  0.20187453937E+01  0.29902004813E+02 -0.14085507858E+02  0.33115053321E+02  0.00000000000E+00 0. -1.
</event>
<event>
 7    1  0.7284210E-013  0.5930196E+02  0.7816164E-02  0.1266605E+00
        -11   -1    0    0    0    0  0.00000000000E+00  0.00000000000E+00  0.45593999997E+02  0.45594000000E+02  0.51100000000E-03 0.  1.
         11   -1    0    0    0    0 -0.00000000000E+00 -0.00000000000E+00 -0.45593999997E+02  0.45594000000E+02  0.51100000000E-03 0. -1.
    9900012    2    1    2    0    0  0.14533001728E+02 -0.54896324161E+01 -0.27845564924E+02  0.59301957767E+02  0.50000025058E+02 0.  0.
        -12    1    1    2    0    0 -0.14533001728E+02  0.54896324161E+01  0.27845564924E+02  0.31886042233E+02  0.00000000000E+00 0.  1.
         11    1    3    3    0    0  0.15845583188E+02 -0.49296798984E+01 -0.97952463967E+01  0.19269953365E+02  0.51100000000E-03 0. -1.
        -11    1    3    3    0    0  0.16816520195E+02  0.27356133770E+01 -0.11121292472E+02  0.20346058059E+02  0.51100000000E-03 0.  1.
        -12    1    3    3    0    0 -0.18129101654E+02 -0.32955658947E+01 -0.69290260552E+01  0.19685946343E+02  0.00000000000E+00 0.  1.
</event>
<event>
 7    1  0.7284210E-013  0.5930197E+02  0.7816164E-02  0.1266605E+00
        -11   -1    0    0    0    0  0.00000000000E+00  0.00000000000E+00  0.45593999997E+02  0.45594000000E+02  0.51100000000E-03 0. -1.
         11   -1    0    0    0    0 -0.00000000000E+00 -0.00000000000E+00 -0.45593999997E+02  0.45594000000E+02  0.51100000000E-03 0.  1.
    9900012    2    1    2    0    0 -0.28530611895E+02  0.93700916297E+01  0.10720292877E+02  0.59301966825E+02  0.50000041578E+02 0.  0.
        -12    1    1    2    0    0  0.28530611895E+02 -0.93700916297E+01 -0.10720292877E+02  0.31886033175E+02  0.00000000000E+00 0.  1.
         11    1    3    3    0    0  0.33513899964E+01 -0.73819207444E+01  0.89089115150E+01  0.12045466924E+02  0.51100000000E-03 0. -1.
        -11    1    3    3    0    0  0.31469547872E+01  0.26035598127E+01 -0.73270650302E+01  0.83885475709E+01  0.51100000000E-03 0.  1.
         12    1    3    3    0    0 -0.35028956679E+02  0.14148452561E+02  0.91384463918E+01  0.38867952330E+02  0.00000000000E+00 0. -1.
</event>
<event>
 7    1  0.7284210E-013  0.5930195E+02  0.7816164E-02  0.1266605E+00
        -11   -1    0    0    0    0  0.00000000000E+00  0.00000000000E+00  0.45593999997E+02  0.45594000000E+02  0.51100000000E-03 0.  1.
         11   -1    0    0    0    0 -0.00000000000E+00 -0.00000000000E+00 -0.45593999997E+02  0.45594000000E+02  0.51100000000E-03 0. -1.
    9900012    2    1    2    0    0 -0.24562731008E+02 -0.37155386388E+01 -0.19989679200E+02  0.59301948874E+02  0.50000008838E+02 0.  0.
        -12    1    1    2    0    0  0.24562731008E+02  0.37155386388E+01  0.19989679200E+02  0.31886051126E+02  0.00000000000E+00 0.  1.
         11    1    3    3    0    0 -0.28312675593E+02  0.11873916346E+02 -0.56949195972E+01  0.31225463937E+02  0.51100000000E-03 0.  1.
        -11    1    3    3    0    0  0.83117752151E+01 -0.49904639713E+00 -0.39135840873E+01  0.92005866770E+01  0.51100000000E-03 0. -1.
        -12    1    3    3    0    0 -0.45618306300E+01 -0.15090408588E+02 -0.10381175515E+02  0.18875898260E+02  0.00000000000E+00 0.  1.
</event>
<event>
 7    1  0.7284210E-013  0.5930194E+02  0.7816164E-02  0.1266605E+00
        -11   -1    0    0    0    0  0.00000000000E+00  0.00000000000E+00  0.45593999997E+02  0.45594000000E+02  0.51100000000E-03 0.  1.
         11   -1    0    0    0    0 -0.00000000000E+00 -0.00000000000E+00 -0.45593999997E+02  0.45594000000E+02  0.51100000000E-03 0. -1.
    9900012    2    1    2    0    0 -0.28738113053E+02 -0.66587740093E+01 -0.12103814766E+02  0.59301941211E+02  0.49999994864E+02 0.  0.
        -12    1    1    2    0    0  0.28738113053E+02  0.66587740093E+01  0.12103814766E+02  0.31886058789E+02  0.00000000000E+00 0.  1.
         11    1    3    3    0    0 -0.25779622139E+02  0.80574685714E+00 -0.20634115072E+02  0.33030362557E+02  0.51100000000E-03 0. -1.
        -11    1    3    3    0    0  0.45023321119E+01  0.32235162756E+01 -0.50168639025E+01  0.74720128013E+01  0.51100000000E-03 0.  1.
        -12    1    3    3    0    0 -0.74608230269E+01 -0.10688037142E+02  0.13547164208E+02  0.18799565853E+02  0.00000000000E+00 0.  1.
</event>
<event>
 7    1  0.7284210E-013  0.5930193E+02  0.7816164E-02  0.1266605E+00
        -11   -1    0    0    0    0  0.00000000000E+00  0.00000000000E+00  0.45593999997E+02  0.45594000000E+02  0.51100000000E-03 0.  1.
         11   -1    0    0    0    0 -0.00000000000E+00 -0.00000000000E+00 -0.45593999997E+02  0.45594000000E+02  0.51100000000E-03 0. -1.
    9900012    2    1    2    0    0  0.87725478190E+00  0.50238541761E+01 -0.31475585285E+02  0.59301934771E+02  0.49999983118E+02 0.  0.
        -12    1    1    2    0    0 -0.87725478190E+00 -0.50238541761E+01  0.31475585285E+02  0.31886065229E+02  0.00000000000E+00 0.  1.
         11    1    3    3    0    0 -0.52881618703E+01  0.41239423428E+01 -0.19040853774E+02  0.20187265024E+02  0.51100000000E-03 0. -1.
        -11    1    3    3    0    0 -0.99740816007E+01  0.12402367829E+02 -0.38488618467E+00  0.15920086971E+02  0.51100000000E-03 0.  1.
        -12    1    3    3    0    0  0.16139498253E+02 -0.11502455995E+02 -0.12049845326E+02  0.23194582776E+02  0.00000000000E+00 0.  1.
</event>
<event>
 7    1  0.7284210E-013  0.5930191E+02  0.7816164E-02  0.1266605E+00
        -11   -1    0    0    0    0  0.00000000000E+00  0.00000000000E+00  0.45593999997E+02  0.45594000000E+02  0.51100000000E-03 0.  1.
         11   -1    0    0    0    0 -0.00000000000E+00 -0.00000000000E+00 -0.45593999997E+02  0.45594000000E+02  0.51100000000E-03 0. -1.
    9900012    2    1    2    0    0  0.18987564549E+02 -0.17442539267E+02 -0.18760411401E+02  0.59301908682E+02  0.49999935538E+02 0.  0.
        -12    1    1    2    0    0 -0.18987564549E+02  0.17442539267E+02  0.18760411401E+02  0.31886091318E+02  0.00000000000E+00 0.  1.
         11    1    3    3    0    0  0.22371541474E+02 -0.71537597570E+00 -0.23314331275E+02  0.32319586534E+02  0.51100000000E-03 0. -1.
        -11    1    3    3    0    0 -0.52027612481E+01  0.35015204815E+01  0.14427846404E+01  0.64351377659E+01  0.51100000000E-03 0.  1.
        -12    1    3    3    0    0  0.18187843235E+01 -0.20228683772E+02  0.31111352330E+01  0.20547184382E+02  0.00000000000E+00 0.  1.
</event>
<event>
 7    1  0.7284210E-013  0.5930191E+02  0.7816164E-02  0.1266605E+00
        -11   -1    0    0    0    0  0.00000000000E+00  0.00000000000E+00  0.45593999997E+02  0.45594000000E+02  0.51100000000E-03 0.  1.
         11   -1    0    0    0    0 -0.00000000000E+00 -0.00000000000E+00 -0.45593999997E+02  0.45594000000E+02  0.51100000000E-03 0. -1.
    9900012    2    1    2    0    0  0.44021984992E+01 -0.67139611472E+01 -0.30858808474E+02  0.59301910771E+02  0.49999939347E+02 0.  0.
        -12    1    1    2    0    0 -0.44021984992E+01  0.67139611472E+01  0.30858808474E+02  0.31886089229E+02  0.00000000000E+00 0.  1.
         11    1    3    3    0    0  0.81516533687E+01 -0.56057749211E+00 -0.12996433187E+02  0.15351578929E+02  0.51100000000E-03 0. -1.
        -11    1    3    3    0    0  0.16512811156E+02 -0.85222197812E+01 -0.32687834526E+01  0.18867594118E+02  0.51100000000E-03 0.  1.
        -12    1    3    3    0    0 -0.20262266026E+02  0.23688361261E+01 -0.14593591834E+02  0.25082737723E+02  0.00000000000E+00 0.  1.
</event>
<event>
 7    1  0.7284210E-013  0.5930194E+02  0.7816164E-02  0.1266605E+00
        -11   -1    0    0    0    0  0.00000000000E+00  0.00000000000E+00  0.45593999997E+02  0.45594000000E+02  0.51100000000E-03 0.  1.
         11   -1    0    0    0    0 -0.00000000000E+00 -0.00000000000E+00 -0.45593999997E+02  0.45594000000E+02  0.51100000000E-03 0. -1.
    9900012    2    1    2    0    0  0.26680598018E+02  0.16210403429E+02 -0.64876423425E+01  0.59301937322E+02  0.49999987770E+02 0.  0.
        -12    1    1    2    0    0 -0.26680598018E+02 -0.16210403429E+02  0.64876423425E+01  0.31886062678E+02  0.00000000000E+00 0.  1.
         11    1    3    3    0    0 -0.27287245013E+01 -0.26010473270E+01 -0.16520581746E+02  0.16945235498E+02  0.51100000000E-03 0. -1.
        -11    1    3    3    0    0 -0.99038642655E+00  0.91770841210E+01  0.29432165701E+01  0.96882538301E+01  0.51100000000E-03 0.  1.
        -12    1    3    3    0    0  0.30399708946E+02  0.96343666351E+01  0.70897228330E+01  0.32668447994E+02  0.00000000000E+00 0.  1.
</event>
<event>
 7    1  0.7284210E-013  0.5930199E+02  0.7816164E-02  0.1266605E+00
        -11   -1    0    0    0    0  0.00000000000E+00  0.00000000000E+00  0.45593999997E+02  0.45594000000E+02  0.51100000000E-03 0.  1.
         11   -1    0    0    0    0 -0.00000000000E+00 -0.00000000000E+00 -0.45593999997E+02  0.45594000000E+02  0.51100000000E-03 0. -1.
    9900012    2    1    2    0    0 -0.27643689838E+02 -0.12972555138E+02 -0.91791657606E+01  0.59301986472E+02  0.50000077407E+02 0.  0.
        -12    1    1    2    0    0  0.27643689838E+02  0.12972555138E+02  0.91791657606E+01  0.31886013528E+02  0.00000000000E+00 0.  1.
         11    1    3    3    0    0  0.36010191929E+01 -0.95858446905E+00  0.74864997548E+00  0.38008815371E+01  0.51100000000E-03 0.  1.
        -11    1    3    3    0    0 -0.11641045995E+01 -0.96904727179E+01 -0.21164293026E+02  0.23306387549E+02  0.51100000000E-03 0. -1.
         12    1    3    3    0    0 -0.30080604431E+02 -0.23234979515E+01  0.11236477290E+02  0.32194717386E+02  0.00000000000E+00 0. -1.
</event>
<event>
 7    1  0.7284210E-013  0.5930194E+02  0.7816164E-02  0.1266605E+00
        -11   -1    0    0    0    0  0.00000000000E+00  0.00000000000E+00  0.45593999997E+02  0.45594000000E+02  0.51100000000E-03 0.  1.
         11   -1    0    0    0    0 -0.00000000000E+00 -0.00000000000E+00 -0.45593999997E+02  0.45594000000E+02  0.51100000000E-03 0. -1.
    9900012    2    1    2    0    0  0.12376564698E+02  0.29914328476E+01 -0.29233418642E+02  0.59301940511E+02  0.49999993587E+02 0.  0.
        -12    1    1    2    0    0 -0.12376564698E+02 -0.29914328476E+01  0.29233418642E+02  0.31886059489E+02  0.00000000000E+00 0.  1.
         11    1    3    3    0    0 -0.36601928255E+01 -0.26421607643E+01  0.10556004001E+02  0.11480733677E+02  0.51100000000E-03 0. -1.
        -11    1    3    3    0    0  0.12386403361E+01 -0.33922363599E+01  0.78832597060E+00  0.36963435312E+01  0.51100000000E-03 0.  1.
         12    1    3    3    0    0  0.14798117187E+02  0.90258299719E+01 -0.40577748614E+02  0.44124863303E+02  0.00000000000E+00 0. -1.
</event>
<event>
 7    1  0.7284210E-013  0.5930194E+02  0.7816164E-02  0.1266605E+00
        -11   -1    0    0    0    0  0.00000000000E+00  0.00000000000E+00  0.45593999997E+02  0.45594000000E+02  0.51100000000E-03 0.  1.
         11   -1    0    0    0    0 -0.00000000000E+00 -0.00000000000E+00 -0.45593999997E+02  0.45594000000E+02  0.51100000000E-03 0. -1.
    9900012    2    1    2    0    0  0.17761765790E+02  0.15774232842E+02 -0.21270024879E+02  0.59301941854E+02  0.49999996036E+02 0.  0.
        -12    1    1    2    0    0 -0.17761765790E+02 -0.15774232842E+02  0.21270024879E+02  0.31886058146E+02  0.00000000000E+00 0.  1.
         11    1    3    3    0    0  0.41823934505E+01 -0.41889250753E+01  0.85940499385E+01  0.10435382258E+02  0.51100000000E-03 0. -1.
        -11    1    3    3    0    0 -0.35387616607E+01  0.14856197781E+02 -0.14992048685E+01  0.15345261878E+02  0.51100000000E-03 0.  1.
         12    1    3    3    0    0  0.17118134000E+02  0.51069601361E+01 -0.28364869949E+02  0.33521297718E+02  0.00000000000E+00 0. -1.
</event>
<event>
 7    1  0.7284210E-013  0.5930192E+02  0.7816164E-02  0.1266605E+00
        -11   -1    0    0    0    0  0.00000000000E+00  0.00000000000E+00  0.45593999997E+02  0.45594000000E+02  0.51100000000E-03 0.  1.
         11   -1    0    0    0    0 -0.00000000000E+00 -0.00000000000E+00 -0.45593999997E+02  0.45594000000E+02  0.51100000000E-03 0. -1.
    9900012    2    1    2    0    0  0.27419333704E+02 -0.15912558158E+02 -0.34194828651E+01  0.59301917912E+02  0.49999952370E+02 0.  0.
        -12    1    1    2    0    0 -0.27419333704E+02  0.15912558158E+02  0.34194828651E+01  0.31886082088E+02  0.00000000000E+00 0.  1.
         11    1    3    3    0    0  0.17149656063E+02 -0.28706148714E+02 -0.35586170216E+01  0.33627629004E+02  0.51100000000E-03 0. -1.
        -11    1    3    3    0    0  0.21295809506E+01 -0.48131539171E+01  0.30138321485E+01  0.60650432921E+01  0.51100000000E-03 0.  1.
        -12    1    3    3    0    0  0.81400966897E+01  0.17606744473E+02 -0.28746979919E+01  0.19609245615E+02  0.00000000000E+00 0.  1.
</event>
<event>
 7    1  0.7284210E-013  0.5930196E+02  0.7816164E-02  0.1266605E+00
        -11   -1    0    0    0    0  0.00000000000E+00  0.00000000000E+00  0.45593999997E+02  0.45594000000E+02  0.51100000000E-03 0. -1.
         11   -1    0    0    0    0 -0.00000000000E+00 -0.00000000000E+00 -0.45593999997E+02  0.45594000000E+02  0.51100000000E-03 0.  1.
    9900012    2    1    2    0    0 -0.13305714625E+02  0.27218819637E+02  0.99405055852E+01  0.59301955475E+02  0.50000020878E+02 0.  0.
        -12    1    1    2    0    0  0.13305714625E+02 -0.27218819637E+02 -0.99405055852E+01  0.31886044525E+02  0.00000000000E+00 0.  1.
         11    1    3    3    0    0 -0.43656921703E+01 -0.18997162374E+01  0.16101078897E+02  0.16790263006E+02  0.51100000000E-03 0. -1.
        -11    1    3    3    0    0  0.96007122028E+00  0.23592937517E+02  0.74851846078E+01  0.24770474890E+02  0.51100000000E-03 0.  1.
        -12    1    3    3    0    0 -0.99000936753E+01  0.55255983583E+01 -0.13645757919E+02  0.17741217579E+02  0.00000000000E+00 0.  1.
</event>
<event>
 7    1  0.7284210E-013  0.5930193E+02  0.7816164E-02  0.1266605E+00
        -11   -1    0    0    0    0  0.00000000000E+00  0.00000000000E+00  0.45593999997E+02  0.45594000000E+02  0.51100000000E-03 0.  1.
         11   -1    0    0    0    0 -0.00000000000E+00 -0.00000000000E+00 -0.45593999997E+02  0.45594000000E+02  0.51100000000E-03 0. -1.
    9900012    2    1    2    0    0 -0.14689539521E+02  0.28300607022E+02  0.11977740598E+00  0.59301932889E+02  0.49999979686E+02 0.  0.
        -12    1    1    2    0    0  0.14689539521E+02 -0.28300607022E+02 -0.11977740598E+00  0.31886067111E+02  0.00000000000E+00 0.  1.
         11    1    3    3    0    0 -0.53711842547E+01  0.16700452730E+02 -0.20269319975E+02  0.26806716961E+02  0.51100000000E-03 0. -1.
        -11    1    3    3    0    0 -0.40844078635E+01 -0.25797531451E+01 -0.22059022127E+01  0.53106985151E+01  0.51100000000E-03 0.  1.
        -12    1    3    3    0    0 -0.52339474026E+01  0.14179907438E+02  0.22594999594E+02  0.27184517414E+02  0.00000000000E+00 0.  1.
</event>
<event>
 7    1  0.7284210E-013  0.5930201E+02  0.7816164E-02  0.1266605E+00
        -11   -1    0    0    0    0  0.00000000000E+00  0.00000000000E+00  0.45593999997E+02  0.45594000000E+02  0.51100000000E-03 0.  1.
         11   -1    0    0    0    0 -0.00000000000E+00 -0.00000000000E+00 -0.45593999997E+02  0.45594000000E+02  0.51100000000E-03 0. -1.
    9900012    2    1    2    0    0  0.22763324294E+01 -0.27953533568E+02 -0.15170194830E+02  0.59302007159E+02  0.50000115136E+02 0.  0.
        -12    1    1    2    0    0 -0.22763324294E+01  0.27953533568E+02  0.15170194830E+02  0.31885992841E+02  0.00000000000E+00 0.  1.
         11    1    3    3    0    0  0.91131402972E+01 -0.11839902075E+01  0.61230525022E+00  0.92101073212E+01  0.51100000000E-03 0. -1.
        -11    1    3    3    0    0 -0.14049685563E+02 -0.12202767936E+02  0.88287806619E+01  0.20597295404E+02  0.51100000000E-03 0.  1.
         12    1    3    3    0    0  0.72128776952E+01 -0.14566775425E+02 -0.24611280742E+02  0.29494604434E+02  0.00000000000E+00 0. -1.
</event>
<event>
 7    1  0.7284210E-013  0.5930177E+02  0.7816164E-02  0.1266605E+00
        -11   -1    0    0    0    0  0.00000000000E+00  0.00000000000E+00  0.45593999997E+02  0.45594000000E+02  0.51100000000E-03 0.  1.
         11   -1    0    0    0    0 -0.00000000000E+00 -0.00000000000E+00 -0.45593999997E+02  0.45594000000E+02  0.51100000000E-03 0. -1.
    9900012    2    1    2    0    0  0.10889334264E+02 -0.55237110156E+00 -0.29964125233E+02  0.59301772322E+02  0.49999686849E+02 0.  0.
        -12    1    1    2    0    0 -0.10889334264E+02  0.55237110156E+00  0.29964125233E+02  0.31886227678E+02  0.00000000000E+00 0.  1.
         11    1    3    3    0    0  0.20985752137E+01 -0.51086374678E+01  0.30282427336E+01  0.62986069111E+01  0.51100000000E-03 0. -1.
        -11    1    3    3    0    0  0.45024665401E+01  0.12369702208E+02  0.49231503324E+01  0.14054150530E+02  0.51100000000E-03 0.  1.
         12    1    3    3    0    0  0.42882925102E+01 -0.78134358414E+01 -0.37915518299E+02  0.38949014881E+02  0.00000000000E+00 0. -1.
</event>
<event>
 7    1  0.7284210E-013  0.5930194E+02  0.7816164E-02  0.1266605E+00
        -11   -1    0    0    0    0  0.00000000000E+00  0.00000000000E+00  0.45593999997E+02  0.45594000000E+02  0.51100000000E-03 0.  1.
         11   -1    0    0    0    0 -0.00000000000E+00 -0.00000000000E+00 -0.45593999997E+02  0.45594000000E+02  0.51100000000E-03 0. -1.
    9900012    2    1    2    0    0  0.66557598516E+01  0.98281458553E+01 -0.29594414456E+02  0.59301937886E+02  0.49999988799E+02 0.  0.
        -12    1    1    2    0    0 -0.66557598516E+01 -0.98281458553E+01  0.29594414456E+02  0.31886062114E+02  0.00000000000E+00 0.  1.
         11    1    3    3    0    0 -0.84253511842E+01 -0.36323913313E+01 -0.18796113152E+01  0.93655618261E+01  0.51100000000E-03 0. -1.
        -11    1    3    3    0    0 -0.69471924495E+01 -0.73303966865E+01 -0.12406285533E+02  0.15997316010E+02  0.51100000000E-03 0.  1.
        -12    1    3    3    0    0  0.22028303485E+02  0.20790933873E+02 -0.15308517607E+02  0.33939060050E+02  0.00000000000E+00 0.  1.
</event>
<event>
 7    1  0.7284210E-013  0.5930195E+02  0.7816164E-02  0.1266605E+00
        -11   -1    0    0    0    0  0.00000000000E+00  0.00000000000E+00  0.45593999997E+02  0.45594000000E+02  0.51100000000E-03 0.  1.
         11   -1    0    0    0    0 -0.00000000000E+00 -0.00000000000E+00 -0.45593999997E+02  0.45594000000E+02  0.51100000000E-03 0. -1.
    9900012    2    1    2    0    0  0.23262619061E+02 -0.11315917501E+02 -0.18641903618E+02  0.59301952817E+02  0.50000016029E+02 0.  0.
        -12    1    1    2    0    0 -0.23262619061E+02  0.11315917501E+02  0.18641903618E+02  0.31886047183E+02  0.00000000000E+00 0.  1.
         11    1    3    3    0    0  0.14930983915E+02  0.43989890006E+01 -0.38880199788E+01  0.16043755312E+02  0.51100000000E-03 0.  1.
        -11    1    3    3    0    0 -0.32235968540E+01 -0.76382451457E+01  0.11073725574E+02  0.13833356929E+02  0.51100000000E-03 0. -1.
         12    1    3    3    0    0  0.11555232001E+02 -0.80766613556E+01 -0.25827609213E+02  0.29424840576E+02  0.00000000000E+00 0. -1.
</event>
<event>
 7    1  0.7284210E-013  0.5930195E+02  0.7816164E-02  0.1266605E+00
        -11   -1    0    0    0    0  0.00000000000E+00  0.00000000000E+00  0.45593999997E+02  0.45594000000E+02  0.51100000000E-03 0.  1.
         11   -1    0    0    0    0 -0.00000000000E+00 -0.00000000000E+00 -0.45593999997E+02  0.45594000000E+02  0.51100000000E-03 0. -1.
    9900012    2    1    2    0    0  0.83606841686E+01  0.27834231836E+02 -0.13117728535E+02  0.59301948134E+02  0.50000007490E+02 0.  0.
        -12    1    1    2    0    0 -0.83606841686E+01 -0.27834231836E+02  0.13117728535E+02  0.31886051866E+02  0.00000000000E+00 0.  1.
         11    1    3    3    0    0 -0.10142767499E+00  0.12045036017E+02 -0.12678375419E+02  0.17488121218E+02  0.51100000000E-03 0. -1.
        -11    1    3    3    0    0 -0.18140022821E+01  0.24380381719E+02  0.83026725885E+01  0.25819139982E+02  0.51100000000E-03 0.  1.
         12    1    3    3    0    0  0.10276114126E+02 -0.85911859002E+01 -0.87420257045E+01  0.15994686934E+02  0.00000000000E+00 0. -1.
</event>
<event>
 7    1  0.7284210E-013  0.5930195E+02  0.7816164E-02  0.1266605E+00
        -11   -1    0    0    0    0  0.00000000000E+00  0.00000000000E+00  0.45593999997E+02  0.45594000000E+02  0.51100000000E-03 0.  1.
         11   -1    0    0    0    0 -0.00000000000E+00 -0.00000000000E+00 -0.45593999997E+02  0.45594000000E+02  0.51100000000E-03 0. -1.
    9900012    2    1    2    0    0  0.15090711500E+02  0.26499143055E+02  0.93159094984E+01  0.59301947783E+02  0.50000006849E+02 0.  0.
        -12    1    1    2    0    0 -0.15090711500E+02 -0.26499143055E+02 -0.93159094984E+01  0.31886052217E+02  0.00000000000E+00 0.  1.
         11    1    3    3    0    0  0.40360298401E+01 -0.41951154723E+01 -0.44132214334E+01  0.73051389020E+01  0.51100000000E-03 0. -1.
        -11    1    3    3    0    0  0.12173883366E+02  0.12013738716E+02 -0.11481172340E+02  0.20599773608E+02  0.51100000000E-03 0.  1.
        -12    1    3    3    0    0 -0.11192017058E+01  0.18680519811E+02  0.25210303272E+02  0.31397035273E+02  0.00000000000E+00 0.  1.
</event>
<event>
 7    1  0.7284210E-013  0.5930191E+02  0.7816164E-02  0.1266605E+00
        -11   -1    0    0    0    0  0.00000000000E+00  0.00000000000E+00  0.45593999997E+02  0.45594000000E+02  0.51100000000E-03 0. -1.
         11   -1    0    0    0    0 -0.00000000000E+00 -0.00000000000E+00 -0.45593999997E+02  0.45594000000E+02  0.51100000000E-03 0.  1.
    9900012    2    1    2    0    0 -0.30448887552E+02  0.67608293307E+01 -0.66241138106E+01  0.59301914474E+02  0.49999946101E+02 0.  0.
        -12    1    1    2    0    0  0.30448887552E+02 -0.67608293307E+01  0.66241138106E+01  0.31886085526E+02  0.00000000000E+00 0.  1.
         11    1    3    3    0    0  0.54407349360E+01 -0.19559210590E+00 -0.44005953440E+01  0.70003637447E+01  0.51100000000E-03 0. -1.
        -11    1    3    3    0    0  0.68439665883E+01  0.13351985651E+01 -0.57748033715E+01  0.90537830828E+01  0.51100000000E-03 0.  1.
         12    1    3    3    0    0 -0.42733589076E+02  0.56212228715E+01  0.35512849048E+01  0.43247767646E+02  0.00000000000E+00 0. -1.
</event>
<event>
 7    1  0.7284210E-013  0.5930194E+02  0.7816164E-02  0.1266605E+00
        -11   -1    0    0    0    0  0.00000000000E+00  0.00000000000E+00  0.45593999997E+02  0.45594000000E+02  0.51100000000E-03 0.  1.
         11   -1    0    0    0    0 -0.00000000000E+00 -0.00000000000E+00 -0.45593999997E+02  0.45594000000E+02  0.51100000000E-03 0. -1.
    9900012    2    1    2    0    0 -0.21222082226E+02 -0.19285925760E+02 -0.13942645661E+02  0.59301936046E+02  0.49999985444E+02 0.  0.
        -12    1    1    2    0    0  0.21222082226E+02  0.19285925760E+02  0.13942645661E+02  0.31886063954E+02  0.00000000000E+00 0.  1.
         11    1    3    3    0    0 -0.60585114430E+01  0.29065760634E+01 -0.21699108526E+02  0.22715744681E+02  0.51100000000E-03 0. -1.
        -11    1    3    3    0    0  0.20378707380E+01 -0.17198497241E+02  0.69491698405E+00  0.17332747456E+02  0.51100000000E-03 0.  1.
        -12    1    3    3    0    0 -0.17201441521E+02 -0.49940045823E+01  0.70615458807E+01  0.19253443910E+02  0.00000000000E+00 0.  1.
</event>
<event>
 7    1  0.7284210E-013  0.5930189E+02  0.7816164E-02  0.1266605E+00
        -11   -1    0    0    0    0  0.00000000000E+00  0.00000000000E+00  0.45593999997E+02  0.45594000000E+02  0.51100000000E-03 0. -1.
         11   -1    0    0    0    0 -0.00000000000E+00 -0.00000000000E+00 -0.45593999997E+02  0.45594000000E+02  0.51100000000E-03 0.  1.
    9900012    2    1    2    0    0  0.21365972558E+01  0.16990698673E+02  0.26897495929E+02  0.59301887404E+02  0.49999896732E+02 0.  0.
        -12    1    1    2    0    0 -0.21365972558E+01 -0.16990698673E+02 -0.26897495929E+02  0.31886112596E+02  0.00000000000E+00 0.  1.
         11    1    3    3    0    0 -0.11012357116E+02  0.12043604961E+02  0.22116597800E+02  0.27485711346E+02  0.51100000000E-03 0. -1.
        -11    1    3    3    0    0 -0.57042611960E+01 -0.70017760918E+01  0.21877947553E+00  0.90338988788E+01  0.51100000000E-03 0.  1.
         12    1    3    3    0    0  0.18853215568E+02  0.11948869805E+02  0.45621186533E+01  0.22782277179E+02  0.00000000000E+00 0. -1.
</event>
<event>
 7    1  0.7284210E-013  0.5930192E+02  0.7816164E-02  0.1266605E+00
        -11   -1    0    0    0    0  0.00000000000E+00  0.00000000000E+00  0.45593999997E+02  0.45594000000E+02  0.51100000000E-03 0. -1.
         11   -1    0    0    0    0 -0.00000000000E+00 -0.00000000000E+00 -0.45593999997E+02  0.45594000000E+02  0.51100000000E-03 0.  1.
    9900012    2    1    2    0    0 -0.23304951994E+02 -0.51917797681E+01  0.21134010873E+02  0.59301924980E+02  0.49999965262E+02 0.  0.
        -12    1    1    2    0    0  0.23304951994E+02  0.51917797681E+01 -0.21134010873E+02  0.31886075020E+02  0.00000000000E+00 0.  1.
         11    1    3    3    0    0 -0.10493919354E+02  0.15016009582E+02  0.13365753523E+02  0.22676998361E+02  0.51100000000E-03 0. -1.
        -11    1    3    3    0    0  0.26177200023E+01  0.14128334769E+00 -0.67558775147E+01  0.72466751169E+01  0.51100000000E-03 0.  1.
        -12    1    3    3    0    0 -0.15428752642E+02 -0.20349072698E+02  0.14524134865E+02  0.29378251502E+02  0.00000000000E+00 0.  1.
</event>
<event>
 7    1  0.7284210E-013  0.5930192E+02  0.7816164E-02  0.1266605E+00
        -11   -1    0    0    0    0  0.00000000000E+00  0.00000000000E+00  0.45593999997E+02  0.45594000000E+02  0.51100000000E-03 0.  1.
         11   -1    0    0    0    0 -0.00000000000E+00 -0.00000000000E+00 -0.45593999997E+02  0.45594000000E+02  0.51100000000E-03 0. -1.
    9900012    2    1    2    0    0 -0.33944851672E+01 -0.26914522277E+02 -0.16757337813E+02  0.59301915111E+02  0.49999947263E+02 0.  0.
        -12    1    1    2    0    0  0.33944851672E+01  0.26914522277E+02  0.16757337813E+02  0.31886084889E+02  0.00000000000E+00 0.  1.
         11    1    3    3    0    0  0.30268186813E+00 -0.92454271445E+01 -0.24278077481E+02  0.25980657917E+02  0.51100000000E-03 0. -1.
        -11    1    3    3    0    0 -0.29705972423E+01 -0.65519513798E+01 -0.10144483711E+02  0.12436360596E+02  0.51100000000E-03 0.  1.
        -12    1    3    3    0    0 -0.72656979300E+00 -0.11117143753E+02  0.17665223378E+02  0.20884896598E+02  0.00000000000E+00 0.  1.
</event>
<event>
 7    1  0.7284210E-013  0.5930179E+02  0.7816164E-02  0.1266605E+00
        -11   -1    0    0    0    0  0.00000000000E+00  0.00000000000E+00  0.45593999997E+02  0.45594000000E+02  0.51100000000E-03 0.  1.
         11   -1    0    0    0    0 -0.00000000000E+00 -0.00000000000E+00 -0.45593999997E+02  0.45594000000E+02  0.51100000000E-03 0. -1.
    9900012    2    1    2    0    0 -0.28830330626E+02 -0.10117085542E+02 -0.91206856780E+01  0.59301791522E+02  0.49999721865E+02 0.  0.
        -12    1    1    2    0    0  0.28830330626E+02  0.10117085542E+02  0.91206856780E+01  0.31886208478E+02  0.00000000000E+00 0.  1.
         11    1    3    3    0    0 -0.12224626562E+02 -0.17702172766E+02  0.13255285562E+01  0.21553780212E+02  0.51100000000E-03 0. -1.
        -11    1    3    3    0    0 -0.20889545693E+02 -0.12846331555E+01 -0.16086920742E+02  0.26397204792E+02  0.51100000000E-03 0.  1.
        -12    1    3    3    0    0  0.42838416289E+01  0.88697203790E+01  0.56407065074E+01  0.11350806518E+02  0.00000000000E+00 0.  1.
</event>
<event>
 7    1  0.7284210E-013  0.5930194E+02  0.7816164E-02  0.1266605E+00
        -11   -1    0    0    0    0  0.00000000000E+00  0.00000000000E+00  0.45593999997E+02  0.45594000000E+02  0.51100000000E-03 0.  1.
         11   -1    0    0    0    0 -0.00000000000E+00 -0.00000000000E+00 -0.45593999997E+02  0.45594000000E+02  0.51100000000E-03 0. -1.
    9900012    2    1    2    0    0 -0.16118492160E+00  0.13467667617E+02 -0.28901851369E+02  0.59301936208E+02  0.49999985739E+02 0.  0.
        -12    1    1    2    0    0  0.16118492160E+00 -0.13467667617E+02  0.28901851369E+02  0.31886063792E+02  0.00000000000E+00 0.  1.
         11    1    3    3    0    0 -0.46675579454E+01  0.20948884783E+02 -0.38094456162E+02  0.43724472110E+02  0.51100000000E-03 0. -1.
        -11    1    3    3    0    0  0.35332174414E+01  0.65173800030E+00  0.55537792203E+01  0.66145938498E+01  0.51100000000E-03 0.  1.
        -12    1    3    3    0    0  0.97315558248E+00 -0.81329551667E+01  0.36388255728E+01  0.89628702479E+01  0.00000000000E+00 0.  1.
</event>
<event>
 7    1  0.7284210E-013  0.5930191E+02  0.7816164E-02  0.1266605E+00
        -11   -1    0    0    0    0  0.00000000000E+00  0.00000000000E+00  0.45593999997E+02  0.45594000000E+02  0.51100000000E-03 0.  1.
         11   -1    0    0    0    0 -0.00000000000E+00 -0.00000000000E+00 -0.45593999997E+02  0.45594000000E+02  0.51100000000E-03 0. -1.
    9900012    2    1    2    0    0  0.10733084640E+02 -0.40520990858E-01 -0.30025357669E+02  0.59301908189E+02  0.49999934639E+02 0.  0.
        -12    1    1    2    0    0 -0.10733084640E+02  0.40520990858E-01  0.30025357669E+02  0.31886091811E+02  0.00000000000E+00 0.  1.
         11    1    3    3    0    0  0.53493009670E+01  0.17014264017E+02 -0.15317136931E+02  0.23509889087E+02  0.51100000000E-03 0. -1.
        -11    1    3    3    0    0  0.10000766009E+02 -0.21956702459E+01 -0.17216684462E+02  0.20031238422E+02  0.51100000000E-03 0.  1.
        -12    1    3    3    0    0 -0.46169823363E+01 -0.14859114762E+02  0.25084637233E+01  0.15760780680E+02  0.00000000000E+00 0.  1.
</event>
<event>
 7    1  0.7284210E-013  0.5930193E+02  0.7816164E-02  0.1266605E+00
        -11   -1    0    0    0    0  0.00000000000E+00  0.00000000000E+00  0.45593999997E+02  0.45594000000E+02  0.51100000000E-03 0.  1.
         11   -1    0    0    0    0 -0.00000000000E+00 -0.00000000000E+00 -0.45593999997E+02  0.45594000000E+02  0.51100000000E-03 0. -1.
    9900012    2    1    2    0    0 -0.13424561059E+02  0.52416691676E+01 -0.28443411223E+02  0.59301928162E+02  0.49999971064E+02 0.  0.
        -12    1    1    2    0    0  0.13424561059E+02 -0.52416691676E+01  0.28443411223E+02  0.31886071838E+02  0.00000000000E+00 0.  1.
         11    1    3    3    0    0  0.61077102770E+00  0.40845261278E+01  0.45880382550E+01  0.61730454580E+01  0.51100000000E-03 0. -1.
        -11    1    3    3    0    0  0.71060442138E+00  0.18274536160E+01  0.86715835239E+01  0.88904952863E+01  0.51100000000E-03 0.  1.
         12    1    3    3    0    0 -0.14745936508E+02 -0.67031057616E+00 -0.41703033002E+02  0.44238387417E+02  0.00000000000E+00 0. -1.
</event>
<event>
 7    1  0.7284210E-013  0.5930184E+02  0.7816164E-02  0.1266605E+00
        -11   -1    0    0    0    0  0.00000000000E+00  0.00000000000E+00  0.45593999997E+02  0.45594000000E+02  0.51100000000E-03 0.  1.
         11   -1    0    0    0    0 -0.00000000000E+00 -0.00000000000E+00 -0.45593999997E+02  0.45594000000E+02  0.51100000000E-03 0. -1.
    9900012    2    1    2    0    0 -0.86049312364E+01 -0.16248568569E+02 -0.26051230602E+02  0.59301836260E+02  0.49999803458E+02 0.  0.
        -12    1    1    2    0    0  0.86049312364E+01  0.16248568569E+02  0.26051230602E+02  0.31886163740E+02  0.00000000000E+00 0.  1.
         11    1    3    3    0    0 -0.56390277999E+01 -0.21828472781E+02 -0.79372299970E+01  0.23901474405E+02  0.51100000000E-03 0. -1.
        -11    1    3    3    0    0  0.16030488222E+01 -0.12051360501E+02 -0.81866104012E+01  0.14656931657E+02  0.51100000000E-03 0.  1.
        -12    1    3    3    0    0 -0.45689522587E+01  0.17631264713E+02 -0.99273902043E+01  0.20743430198E+02  0.00000000000E+00 0.  1.
</event>
<event>
 7    1  0.7284210E-013  0.5930195E+02  0.7816164E-02  0.1266605E+00
        -11   -1    0    0    0    0  0.00000000000E+00  0.00000000000E+00  0.45593999997E+02  0.45594000000E+02  0.51100000000E-03 0. -1.
         11   -1    0    0    0    0 -0.00000000000E+00 -0.00000000000E+00 -0.45593999997E+02  0.45594000000E+02  0.51100000000E-03 0.  1.
    9900012    2    1    2    0    0 -0.26334135688E+02 -0.52659277553E+01 -0.17190216977E+02  0.59301948860E+02  0.50000008813E+02 0.  0.
        -12    1    1    2    0    0  0.26334135688E+02  0.52659277553E+01  0.17190216977E+02  0.31886051140E+02  0.00000000000E+00 0.  1.
         11    1    3    3    0    0 -0.80824205887E+01 -0.55806253411E+01  0.11364856229E+02  0.15020947345E+02  0.51100000000E-03 0. -1.
        -11    1    3    3    0    0 -0.10307027942E+02 -0.13588300489E+02 -0.19418955669E+02  0.25845165403E+02  0.51100000000E-03 0.  1.
        -12    1    3    3    0    0 -0.79446871570E+01  0.13902998075E+02 -0.91361175372E+01  0.18435836112E+02  0.00000000000E+00 0.  1.
</event>
<event>
 7    1  0.7284210E-013  0.5930194E+02  0.7816164E-02  0.1266605E+00
        -11   -1    0    0    0    0  0.00000000000E+00  0.00000000000E+00  0.45593999997E+02  0.45594000000E+02  0.51100000000E-03 0. -1.
         11   -1    0    0    0    0 -0.00000000000E+00 -0.00000000000E+00 -0.45593999997E+02  0.45594000000E+02  0.51100000000E-03 0.  1.
    9900012    2    1    2    0    0 -0.22141566654E+02 -0.17617535775E+01  0.22877238800E+02  0.59301940277E+02  0.49999993160E+02 0.  0.
        -12    1    1    2    0    0  0.22141566654E+02  0.17617535775E+01 -0.22877238800E+02  0.31886059723E+02  0.00000000000E+00 0.  1.
         11    1    3    3    0    0 -0.15744852040E+02  0.10448873543E+02 -0.69032255401E+00  0.18909147775E+02  0.51100000000E-03 0. -1.
        -11    1    3    3    0    0  0.24513996699E+01  0.92250219729E+01  0.56977891299E+01  0.11116437917E+02  0.51100000000E-03 0.  1.
         12    1    3    3    0    0 -0.88481142835E+01 -0.21435649093E+02  0.17869772224E+02  0.29276354585E+02  0.00000000000E+00 0. -1.
</event>
<event>
 7    1  0.7284210E-013  0.5930194E+02  0.7816164E-02  0.1266605E+00
        -11   -1    0    0    0    0  0.00000000000E+00  0.00000000000E+00  0.45593999997E+02  0.45594000000E+02  0.51100000000E-03 0.  1.
         11   -1    0    0    0    0 -0.00000000000E+00 -0.00000000000E+00 -0.45593999997E+02  0.45594000000E+02  0.51100000000E-03 0. -1.
    9900012    2    1    2    0    0 -0.23849203487E+02  0.10243139256E+01 -0.21139704509E+02  0.59301939837E+02  0.49999992357E+02 0.  0.
        -12    1    1    2    0    0  0.23849203487E+02 -0.10243139256E+01  0.21139704509E+02  0.31886060163E+02  0.00000000000E+00 0.  1.
         11    1    3    3    0    0 -0.20129650441E+02  0.49055310839E+01  0.15663528142E+01  0.20777885443E+02  0.51100000000E-03 0. -1.
        -11    1    3    3    0    0  0.13443983811E+02 -0.13845688534E+01 -0.74923937245E+01  0.15452951032E+02  0.51100000000E-03 0.  1.
         12    1    3    3    0    0 -0.17163536857E+02 -0.24966483049E+01 -0.15213663599E+02  0.23071103361E+02  0.00000000000E+00 0. -1.
</event>
<event>
 7    1  0.7284210E-013  0.5930194E+02  0.7816164E-02  0.1266605E+00
        -11   -1    0    0    0    0  0.00000000000E+00  0.00000000000E+00  0.45593999997E+02  0.45594000000E+02  0.51100000000E-03 0.  1.
         11   -1    0    0    0    0 -0.00000000000E+00 -0.00000000000E+00 -0.45593999997E+02  0.45594000000E+02  0.51100000000E-03 0. -1.
    9900012    2    1    2    0    0 -0.20915896371E+02  0.17251393784E+02 -0.16781991646E+02  0.59301944237E+02  0.50000000381E+02 0.  0.
        -12    1    1    2    0    0  0.20915896371E+02 -0.17251393784E+02  0.16781991646E+02  0.31886055763E+02  0.00000000000E+00 0.  1.
         11    1    3    3    0    0 -0.53588821364E+01  0.30129874250E+02 -0.22510923575E+02  0.37990375367E+02  0.51100000000E-03 0. -1.
        -11    1    3    3    0    0 -0.23200912910E+01 -0.90679509907E+00 -0.21483059708E+00  0.25002506668E+01  0.51100000000E-03 0.  1.
        -12    1    3    3    0    0 -0.13236922944E+02 -0.11971685367E+02  0.59437625262E+01  0.18811318203E+02  0.00000000000E+00 0.  1.
</event>
<event>
 7    1  0.7284210E-013  0.5930190E+02  0.7816164E-02  0.1266605E+00
        -11   -1    0    0    0    0  0.00000000000E+00  0.00000000000E+00  0.45593999997E+02  0.45594000000E+02  0.51100000000E-03 0.  1.
         11   -1    0    0    0    0 -0.00000000000E+00 -0.00000000000E+00 -0.45593999997E+02  0.45594000000E+02  0.51100000000E-03 0. -1.
    9900012    2    1    2    0    0 -0.11108554449E+02 -0.19024008046E+01 -0.29827914438E+02  0.59301896593E+02  0.49999913490E+02 0.  0.
        -12    1    1    2    0    0  0.11108554449E+02  0.19024008046E+01  0.29827914438E+02  0.31886103407E+02  0.00000000000E+00 0.  1.
         11    1    3    3    0    0 -0.14469394288E+02 -0.22652715776E+02 -0.18336576794E+02  0.32538269036E+02  0.51100000000E-03 0. -1.
        -11    1    3    3    0    0 -0.24608729428E+01  0.90785287248E+01 -0.98464466624E+01  0.13617198375E+02  0.51100000000E-03 0.  1.
        -12    1    3    3    0    0  0.58217127817E+01  0.11671786246E+02 -0.16448909820E+01  0.13146429182E+02  0.00000000000E+00 0.  1.
</event>
<event>
 7    1  0.7284210E-013  0.5930195E+02  0.7816164E-02  0.1266605E+00
        -11   -1    0    0    0    0  0.00000000000E+00  0.00000000000E+00  0.45593999997E+02  0.45594000000E+02  0.51100000000E-03 0.  1.
         11   -1    0    0    0    0 -0.00000000000E+00 -0.00000000000E+00 -0.45593999997E+02  0.45594000000E+02  0.51100000000E-03 0. -1.
    9900012    2    1    2    0    0  0.24808248093E+02 -0.19671322416E+02 -0.37828483243E+01  0.59301952260E+02  0.50000015014E+02 0.  0.
        -12    1    1    2    0    0 -0.24808248093E+02  0.19671322416E+02  0.37828483243E+01  0.31886047740E+02  0.00000000000E+00 0.  1.
         11    1    3    3    0    0  0.28955762483E+02  0.98523310033E+00  0.64896776399E+01  0.29690449329E+02  0.51100000000E-03 0. -1.
        -11    1    3    3    0    0  0.53672805305E+01 -0.31317524894E+01  0.15825867617E+01  0.64124999078E+01  0.51100000000E-03 0.  1.
        -12    1    3    3    0    0 -0.95147949207E+01 -0.17524803027E+02 -0.11855112726E+02  0.23199003023E+02  0.00000000000E+00 0.  1.
</event>
<event>
 7    1  0.7284210E-013  0.5930197E+02  0.7816164E-02  0.1266605E+00
        -11   -1    0    0    0    0  0.00000000000E+00  0.00000000000E+00  0.45593999997E+02  0.45594000000E+02  0.51100000000E-03 0.  1.
         11   -1    0    0    0    0 -0.00000000000E+00 -0.00000000000E+00 -0.45593999997E+02  0.45594000000E+02  0.51100000000E-03 0. -1.
    9900012    2    1    2    0    0 -0.17476694186E+02 -0.26660214351E+02 -0.71904906442E+00  0.59301970137E+02  0.50000047617E+02 0.  0.
        -12    1    1    2    0    0  0.17476694186E+02  0.26660214351E+02  0.71904906442E+00  0.31886029863E+02  0.00000000000E+00 0.  1.
         11    1    3    3    0    0 -0.67733335338E+01  0.66334825520E+01 -0.52255153565E+00  0.94949564662E+01  0.51100000000E-03 0. -1.
        -11    1    3    3    0    0 -0.16261240562E+02 -0.10389418235E+01 -0.42161189089E+01  0.16831013150E+02  0.51100000000E-03 0.  1.
        -12    1    3    3    0    0  0.55578799102E+01 -0.32254755079E+02  0.40196213802E+01  0.32976000521E+02  0.00000000000E+00 0.  1.
</event>
<event>
 7    1  0.7284210E-013  0.5930194E+02  0.7816164E-02  0.1266605E+00
        -11   -1    0    0    0    0  0.00000000000E+00  0.00000000000E+00  0.45593999997E+02  0.45594000000E+02  0.51100000000E-03 0. -1.
         11   -1    0    0    0    0 -0.00000000000E+00 -0.00000000000E+00 -0.45593999997E+02  0.45594000000E+02  0.51100000000E-03 0.  1.
    9900012    2    1    2    0    0  0.19219065203E+02  0.15333945368E+02  0.20303160956E+02  0.59301942034E+02  0.49999996363E+02 0.  0.
        -12    1    1    2    0    0 -0.19219065203E+02 -0.15333945368E+02 -0.20303160956E+02  0.31886057966E+02  0.00000000000E+00 0.  1.
         11    1    3    3    0    0  0.14365873145E+02  0.20687344546E+02  0.25577156342E+01  0.25315735128E+02  0.51100000000E-03 0. -1.
        -11    1    3    3    0    0  0.27638071031E+01  0.57603457690E+01  0.21216040856E+02  0.22157179490E+02  0.51100000000E-03 0.  1.
        -12    1    3    3    0    0  0.20893849555E+01 -0.11113744947E+02 -0.34705955347E+01  0.11829027415E+02  0.00000000000E+00 0.  1.
</event>
<event>
 7    1  0.7284210E-013  0.5930187E+02  0.7816164E-02  0.1266605E+00
        -11   -1    0    0    0    0  0.00000000000E+00  0.00000000000E+00  0.45593999997E+02  0.45594000000E+02  0.51100000000E-03 0.  1.
         11   -1    0    0    0    0 -0.00000000000E+00 -0.00000000000E+00 -0.45593999997E+02  0.45594000000E+02  0.51100000000E-03 0. -1.
    9900012    2    1    2    0    0 -0.19642606499E+02  0.16565166421E+02 -0.18880912867E+02  0.59301865093E+02  0.49999856042E+02 0.  0.
        -12    1    1    2    0    0  0.19642606499E+02 -0.16565166421E+02  0.18880912867E+02  0.31886134907E+02  0.00000000000E+00 0.  1.
         11    1    3    3    0    0 -0.24254603576E+02  0.72047336128E+01 -0.62542879153E+01  0.26063578009E+02  0.51100000000E-03 0. -1.
        -11    1    3    3    0    0 -0.10876955112E+02  0.10241335280E+02 -0.39082339642E+01  0.15442389510E+02  0.51100000000E-03 0.  1.
        -12    1    3    3    0    0  0.15488952188E+02 -0.88090247174E+00 -0.87183909871E+01  0.17795897574E+02  0.00000000000E+00 0.  1.
</event>
<event>
 7    1  0.7284210E-013  0.5930203E+02  0.7816164E-02  0.1266604E+00
        -11   -1    0    0    0    0  0.00000000000E+00  0.00000000000E+00  0.45593999997E+02  0.45594000000E+02  0.51100000000E-03 0.  1.
         11   -1    0    0    0    0 -0.00000000000E+00 -0.00000000000E+00 -0.45593999997E+02  0.45594000000E+02  0.51100000000E-03 0. -1.
    9900012    2    1    2    0    0 -0.29440226534E+02 -0.11868677515E+02  0.30203583401E+01  0.59302031160E+02  0.50000158908E+02 0.  0.
        -12    1    1    2    0    0  0.29440226534E+02  0.11868677515E+02 -0.30203583401E+01  0.31885968840E+02  0.00000000000E+00 0.  1.
         11    1    3    3    0    0  0.51233996868E+00 -0.33296076123E+01 -0.43241108388E+01  0.54814882927E+01  0.51100000000E-03 0. -1.
        -11    1    3    3    0    0 -0.30514950843E+01  0.82200658476E+00  0.21696703198E+02  0.21925652715E+02  0.51100000000E-03 0.  1.
         12    1    3    3    0    0 -0.26901071419E+02 -0.93610764880E+01 -0.14352234019E+02  0.31894890152E+02  0.00000000000E+00 0. -1.
</event>
<event>
 7    1  0.7284210E-013  0.5930186E+02  0.7816164E-02  0.1266605E+00
        -11   -1    0    0    0    0  0.00000000000E+00  0.00000000000E+00  0.45593999997E+02  0.45594000000E+02  0.51100000000E-03 0. -1.
         11   -1    0    0    0    0 -0.00000000000E+00 -0.00000000000E+00 -0.45593999997E+02  0.45594000000E+02  0.51100000000E-03 0.  1.
    9900012    2    1    2    0    0  0.28652692540E+01  0.16378624914E+02  0.27207656038E+02  0.59301863999E+02  0.49999854047E+02 0.  0.
        -12    1    1    2    0    0 -0.28652692540E+01 -0.16378624914E+02 -0.27207656038E+02  0.31886136001E+02  0.00000000000E+00 0.  1.
         11    1    3    3    0    0  0.42440601088E+01  0.10338895603E+02  0.88046010323E+01  0.14227642394E+02  0.51100000000E-03 0. -1.
        -11    1    3    3    0    0  0.13541155466E+02  0.16881743302E+02  0.14968913587E+02  0.26313960602E+02  0.51100000000E-03 0.  1.
        -12    1    3    3    0    0 -0.14919946321E+02 -0.10842013992E+02  0.34341414186E+01  0.18760261003E+02  0.00000000000E+00 0.  1.
</event>
<event>
 7    1  0.7284210E-013  0.5930195E+02  0.7816164E-02  0.1266605E+00
        -11   -1    0    0    0    0  0.00000000000E+00  0.00000000000E+00  0.45593999997E+02  0.45594000000E+02  0.51100000000E-03 0.  1.
         11   -1    0    0    0    0 -0.00000000000E+00 -0.00000000000E+00 -0.45593999997E+02  0.45594000000E+02  0.51100000000E-03 0. -1.
    9900012    2    1    2    0    0  0.16275639420E+02  0.13232253770E+02 -0.24015230520E+02  0.59301948578E+02  0.50000008298E+02 0.  0.
        -12    1    1    2    0    0 -0.16275639420E+02 -0.13232253770E+02  0.24015230520E+02  0.31886051422E+02  0.00000000000E+00 0.  1.
         11    1    3    3    0    0 -0.42510614958E+01  0.61075860415E+00 -0.19871371150E+02  0.20330173181E+02  0.51100000000E-03 0. -1.
        -11    1    3    3    0    0 -0.10990778032E+01 -0.83979041964E+01  0.37260449475E+00  0.84777120310E+01  0.51100000000E-03 0.  1.
        -12    1    3    3    0    0  0.21625778719E+02  0.21019399362E+02 -0.45164638651E+01  0.30494063366E+02  0.00000000000E+00 0.  1.
</event>
<event>
 7    1  0.7284210E-013  0.5930198E+02  0.7816164E-02  0.1266605E+00
        -11   -1    0    0    0    0  0.00000000000E+00  0.00000000000E+00  0.45593999997E+02  0.45594000000E+02  0.51100000000E-03 0. -1.
         11   -1    0    0    0    0 -0.00000000000E+00 -0.00000000000E+00 -0.45593999997E+02  0.45594000000E+02  0.51100000000E-03 0.  1.
    9900012    2    1    2    0    0  0.24945736269E+02 -0.15253756102E+02  0.12718159421E+02  0.59301977791E+02  0.50000061577E+02 0.  0.
        -12    1    1    2    0    0 -0.24945736269E+02  0.15253756102E+02 -0.12718159421E+02  0.31886022209E+02  0.00000000000E+00 0.  1.
         11    1    3    3    0    0 -0.51621645493E+01 -0.16346514155E+01  0.18074701836E+01  0.57085003994E+01  0.51100000000E-03 0. -1.
        -11    1    3    3    0    0 -0.97924425015E+01  0.11935221972E+01  0.11905363166E+01  0.99364884321E+01  0.51100000000E-03 0.  1.
         12    1    3    3    0    0  0.39900343320E+02 -0.14812626884E+02  0.97201529212E+01  0.43656988960E+02  0.00000000000E+00 0. -1.
</event>
<event>
 7    1  0.7284210E-013  0.5930195E+02  0.7816164E-02  0.1266605E+00
        -11   -1    0    0    0    0  0.00000000000E+00  0.00000000000E+00  0.45593999997E+02  0.45594000000E+02  0.51100000000E-03 0. -1.
         11   -1    0    0    0    0 -0.00000000000E+00 -0.00000000000E+00 -0.45593999997E+02  0.45594000000E+02  0.51100000000E-03 0.  1.
    9900012    2    1    2    0    0 -0.13108711617E+02  0.14173743171E+02  0.25376890711E+02  0.59301954496E+02  0.50000019092E+02 0.  0.
        -12    1    1    2    0    0  0.13108711617E+02 -0.14173743171E+02 -0.25376890711E+02  0.31886045504E+02  0.00000000000E+00 0.  1.
         11    1    3    3    0    0 -0.32750929589E+01  0.17023995610E+02  0.33787084339E+02  0.37975119866E+02  0.51100000000E-03 0. -1.
        -11    1    3    3    0    0  0.41271429975E-01  0.61270967398E+01 -0.37870397626E+01  0.72031026797E+01  0.51100000000E-03 0.  1.
        -12    1    3    3    0    0 -0.98748900884E+01 -0.89773491794E+01 -0.46231538657E+01  0.14123731951E+02  0.00000000000E+00 0.  1.
</event>
<event>
 7    1  0.7284210E-013  0.5930189E+02  0.7816164E-02  0.1266605E+00
        -11   -1    0    0    0    0  0.00000000000E+00  0.00000000000E+00  0.45593999997E+02  0.45594000000E+02  0.51100000000E-03 0. -1.
         11   -1    0    0    0    0 -0.00000000000E+00 -0.00000000000E+00 -0.45593999997E+02  0.45594000000E+02  0.51100000000E-03 0.  1.
    9900012    2    1    2    0    0  0.17106741369E+02 -0.14374871653E+02  0.22747445185E+02  0.59301893342E+02  0.49999907562E+02 0.  0.
        -12    1    1    2    0    0 -0.17106741369E+02  0.14374871653E+02 -0.22747445185E+02  0.31886106658E+02  0.00000000000E+00 0.  1.
         11    1    3    3    0    0  0.15710236803E+02  0.11656419641E+02 -0.19313396014E+01  0.19657409091E+02  0.51100000000E-03 0.  1.
        -11    1    3    3    0    0 -0.38818796570E+01  0.30066110301E+00  0.15108031839E+01  0.41763516724E+01  0.51100000000E-03 0. -1.
         12    1    3    3    0    0  0.52783842233E+01 -0.26331952398E+02  0.23167981603E+02  0.35468132579E+02  0.00000000000E+00 0. -1.
</event>
<event>
 7    1  0.7284210E-013  0.5930178E+02  0.7816164E-02  0.1266605E+00
        -11   -1    0    0    0    0  0.00000000000E+00  0.00000000000E+00  0.45593999997E+02  0.45594000000E+02  0.51100000000E-03 0.  1.
         11   -1    0    0    0    0 -0.00000000000E+00 -0.00000000000E+00 -0.45593999997E+02  0.45594000000E+02  0.51100000000E-03 0. -1.
    9900012    2    1    2    0    0  0.45376475196E+00  0.28920389982E+02  0.13421492272E+02  0.59301775483E+02  0.49999692614E+02 0.  0.
        -12    1    1    2    0    0 -0.45376475196E+00 -0.28920389982E+02 -0.13421492272E+02  0.31886224517E+02  0.00000000000E+00 0.  1.
         11    1    3    3    0    0 -0.13465924009E+01  0.67177029501E+00 -0.79678601021E+01  0.81087225438E+01  0.51100000000E-03 0. -1.
        -11    1    3    3    0    0 -0.96534321134E+01 -0.12108546972E+01 -0.41299448322E+01  0.10569359737E+02  0.51100000000E-03 0.  1.
        -12    1    3    3    0    0  0.11453789266E+02  0.29459474384E+02  0.25519297206E+02  0.40623693203E+02  0.00000000000E+00 0.  1.
</event>
<event>
 7    1  0.7284210E-013  0.5930197E+02  0.7816164E-02  0.1266605E+00
        -11   -1    0    0    0    0  0.00000000000E+00  0.00000000000E+00  0.45593999997E+02  0.45594000000E+02  0.51100000000E-03 0.  1.
         11   -1    0    0    0    0 -0.00000000000E+00 -0.00000000000E+00 -0.45593999997E+02  0.45594000000E+02  0.51100000000E-03 0. -1.
    9900012    2    1    2    0    0  0.27121716821E+01 -0.78464680404E+01 -0.30786293968E+02  0.59301971206E+02  0.50000049567E+02 0.  0.
        -12    1    1    2    0    0 -0.27121716821E+01  0.78464680404E+01  0.30786293968E+02  0.31886028794E+02  0.00000000000E+00 0.  1.
         11    1    3    3    0    0 -0.30004851423E+01  0.25067911838E+01 -0.12866096740E+02  0.13447057623E+02  0.51100000000E-03 0. -1.
        -11    1    3    3    0    0 -0.80277620870E+01  0.11949324410E+02 -0.12586312910E+02  0.19121887744E+02  0.51100000000E-03 0.  1.
        -12    1    3    3    0    0  0.13740418911E+02 -0.22302583634E+02 -0.53338843184E+01  0.26733025839E+02  0.00000000000E+00 0.  1.
</event>
<event>
 7    1  0.7284210E-013  0.5930200E+02  0.7816164E-02  0.1266605E+00
        -11   -1    0    0    0    0  0.00000000000E+00  0.00000000000E+00  0.45593999997E+02  0.45594000000E+02  0.51100000000E-03 0. -1.
         11   -1    0    0    0    0 -0.00000000000E+00 -0.00000000000E+00 -0.45593999997E+02  0.45594000000E+02  0.51100000000E-03 0.  1.
    9900012    2    1    2    0    0 -0.19199526008E+02 -0.11967400071E+02  0.22469463235E+02  0.59301996151E+02  0.50000095060E+02 0.  0.
        -12    1    1    2    0    0  0.19199526008E+02  0.11967400071E+02 -0.22469463235E+02  0.31886003849E+02  0.00000000000E+00 0.  1.
         11    1    3    3    0    0 -0.47642514541E+01  0.51447555302E+01 -0.38921968042E+01  0.80197130627E+01  0.51100000000E-03 0. -1.
        -11    1    3    3    0    0  0.23800811254E+00  0.10208513641E+02 -0.54397734918E+00  0.10225766975E+02  0.51100000000E-03 0.  1.
         12    1    3    3    0    0 -0.14673282666E+02 -0.27320669243E+02  0.26905637388E+02  0.41056516113E+02  0.00000000000E+00 0. -1.
</event>
<event>
 7    1  0.7926109E-013  0.5930194E+02  0.7816164E-02  0.1266605E+00
        -11   -1    0    0    0    0  0.00000000000E+00  0.00000000000E+00  0.45593999997E+02  0.45594000000E+02  0.51100000000E-03 0. -1.
         11   -1    0    0    0    0 -0.00000000000E+00 -0.00000000000E+00 -0.45593999997E+02  0.45594000000E+02  0.51100000000E-03 0.  1.
    9900012    2    1    2    0    0  0.29228597453E+02  0.91677978397E+01  0.88522105435E+01  0.59301936307E+02  0.49999985919E+02 0.  0.
        -12    1    1    2    0    0 -0.29228597453E+02 -0.91677978397E+01 -0.88522105435E+01  0.31886063693E+02  0.00000000000E+00 0.  1.
         11    1    3    3    0    0  0.28046688699E+01  0.31417065939E+01  0.10679862538E+02  0.11480241804E+02  0.51100000000E-03 0. -1.
        -11    1    3    3    0    0 -0.58176144201E+01 -0.91476524632E+01 -0.52100552785E+01  0.12027836854E+02  0.51100000000E-03 0.  1.
         12    1    3    3    0    0  0.32241543004E+02  0.15173743709E+02  0.33824032844E+01  0.35793857649E+02  0.00000000000E+00 0. -1.
</event>
<event>
 7    1  0.7284210E-013  0.5930196E+02  0.7816164E-02  0.1266605E+00
        -11   -1    0    0    0    0  0.00000000000E+00  0.00000000000E+00  0.45593999997E+02  0.45594000000E+02  0.51100000000E-03 0.  1.
         11   -1    0    0    0    0 -0.00000000000E+00 -0.00000000000E+00 -0.45593999997E+02  0.45594000000E+02  0.51100000000E-03 0. -1.
    9900012    2    1    2    0    0 -0.38655100316E+00 -0.23675067798E+02 -0.21355591343E+02  0.59301960131E+02  0.50000029369E+02 0.  0.
        -12    1    1    2    0    0  0.38655100316E+00  0.23675067798E+02  0.21355591343E+02  0.31886039869E+02  0.00000000000E+00 0.  1.
         11    1    3    3    0    0 -0.70723085918E+01  0.35466910940E+01  0.38439746353E+01  0.87961757482E+01  0.51100000000E-03 0.  1.
        -11    1    3    3    0    0 -0.85916234948E+01 -0.11667675028E+02 -0.24773302345E+02  0.28699601812E+02  0.51100000000E-03 0. -1.
         12    1    3    3    0    0  0.15277381084E+02 -0.15554083864E+02 -0.42626363286E+00  0.21806182571E+02  0.00000000000E+00 0. -1.
</event>
<event>
 7    1  0.7284210E-013  0.5930195E+02  0.7816164E-02  0.1266605E+00
        -11   -1    0    0    0    0  0.00000000000E+00  0.00000000000E+00  0.45593999997E+02  0.45594000000E+02  0.51100000000E-03 0.  1.
         11   -1    0    0    0    0 -0.00000000000E+00 -0.00000000000E+00 -0.45593999997E+02  0.45594000000E+02  0.51100000000E-03 0. -1.
    9900012    2    1    2    0    0 -0.24876467758E+02 -0.75074590879E+01 -0.18480256172E+02  0.59301945709E+02  0.50000003066E+02 0.  0.
        -12    1    1    2    0    0  0.24876467758E+02  0.75074590879E+01  0.18480256172E+02  0.31886054291E+02  0.00000000000E+00 0.  1.
         11    1    3    3    0    0 -0.34462158542E+01 -0.44761358704E+01  0.97779472700E+01  0.11292495257E+02  0.51100000000E-03 0. -1.
        -11    1    3    3    0    0 -0.12841742218E+01 -0.13837128989E+02 -0.35404256873E+01  0.14340497076E+02  0.51100000000E-03 0.  1.
         12    1    3    3    0    0 -0.20146077682E+02  0.10805805771E+02 -0.24717777755E+02  0.33668953376E+02  0.00000000000E+00 0. -1.
</event>
<event>
 7    1  0.7284210E-013  0.5930187E+02  0.7816164E-02  0.1266605E+00
        -11   -1    0    0    0    0  0.00000000000E+00  0.00000000000E+00  0.45593999997E+02  0.45594000000E+02  0.51100000000E-03 0. -1.
         11   -1    0    0    0    0 -0.00000000000E+00 -0.00000000000E+00 -0.45593999997E+02  0.45594000000E+02  0.51100000000E-03 0.  1.
    9900012    2    1    2    0    0  0.45894749156E+01 -0.23751452774E+02  0.20773314680E+02  0.59301868348E+02  0.49999861979E+02 0.  0.
        -12    1    1    2    0    0 -0.45894749156E+01  0.23751452774E+02 -0.20773314680E+02  0.31886131652E+02  0.00000000000E+00 0.  1.
         11    1    3    3    0    0  0.14468024684E+02  0.45656894878E+01  0.80156336976E+01  0.17158660862E+02  0.51100000000E-03 0. -1.
        -11    1    3    3    0    0 -0.55474810286E+01 -0.11258607280E+02 -0.80343668886E+01  0.14902410382E+02  0.51100000000E-03 0.  1.
        -12    1    3    3    0    0 -0.43310687395E+01 -0.17058534982E+02  0.20792047872E+02  0.27240797104E+02  0.00000000000E+00 0.  1.
</event>
<event>
 7    1  0.7284210E-013  0.5930195E+02  0.7816164E-02  0.1266605E+00
        -11   -1    0    0    0    0  0.00000000000E+00  0.00000000000E+00  0.45593999997E+02  0.45594000000E+02  0.51100000000E-03 0.  1.
         11   -1    0    0    0    0 -0.00000000000E+00 -0.00000000000E+00 -0.45593999997E+02  0.45594000000E+02  0.51100000000E-03 0. -1.
    9900012    2    1    2    0    0  0.19882429480E+02  0.11219028518E+02 -0.22260789594E+02  0.59301947308E+02  0.50000005983E+02 0.  0.
        -12    1    1    2    0    0 -0.19882429480E+02 -0.11219028518E+02  0.22260789594E+02  0.31886052692E+02  0.00000000000E+00 0.  1.
         11    1    3    3    0    0  0.13218100929E+02  0.19102529099E+02 -0.23589857825E+02  0.33107494659E+02  0.51100000000E-03 0. -1.
        -11    1    3    3    0    0  0.26092533754E+01  0.56554187924E+01 -0.73306481198E+01  0.96192706070E+01  0.51100000000E-03 0.  1.
        -12    1    3    3    0    0  0.40550751751E+01 -0.13538919373E+02  0.86597163510E+01  0.16575182042E+02  0.00000000000E+00 0.  1.
</event>
<event>
 7    1  0.7284210E-013  0.5930195E+02  0.7816164E-02  0.1266605E+00
        -11   -1    0    0    0    0  0.00000000000E+00  0.00000000000E+00  0.45593999997E+02  0.45594000000E+02  0.51100000000E-03 0. -1.
         11   -1    0    0    0    0 -0.00000000000E+00 -0.00000000000E+00 -0.45593999997E+02  0.45594000000E+02  0.51100000000E-03 0.  1.
    9900012    2    1    2    0    0 -0.24701459479E+02  0.34996054286E+01  0.19857254986E+02  0.59301954242E+02  0.50000018628E+02 0.  0.
        -12    1    1    2    0    0  0.24701459479E+02 -0.34996054286E+01 -0.19857254986E+02  0.31886045758E+02  0.00000000000E+00 0.  1.
         11    1    3    3    0    0 -0.61409313932E+01  0.13922702014E+02  0.54991803035E-01  0.15216954166E+02  0.51100000000E-03 0. -1.
        -11    1    3    3    0    0  0.19302137726E+01  0.81286654092E+01 -0.23315478108E+01  0.86739288675E+01  0.51100000000E-03 0.  1.
         12    1    3    3    0    0 -0.20490741858E+02 -0.18551761994E+02  0.22133810993E+02  0.35411071208E+02  0.00000000000E+00 0. -1.
</event>
<event>
 7    1  0.7284210E-013  0.5930197E+02  0.7816164E-02  0.1266605E+00
        -11   -1    0    0    0    0  0.00000000000E+00  0.00000000000E+00  0.45593999997E+02  0.45594000000E+02  0.51100000000E-03 0. -1.
         11   -1    0    0    0    0 -0.00000000000E+00 -0.00000000000E+00 -0.45593999997E+02  0.45594000000E+02  0.51100000000E-03 0.  1.
    9900012    2    1    2    0    0  0.30551438327E+02  0.90486255838E+01 -0.12046503315E+01  0.59301965577E+02  0.50000039301E+02 0.  0.
        -12    1    1    2    0    0 -0.30551438327E+02 -0.90486255838E+01  0.12046503315E+01  0.31886034423E+02  0.00000000000E+00 0.  1.
         11    1    3    3    0    0  0.26004852270E+02  0.20341317597E+01  0.20309266712E+01  0.26163231777E+02  0.51100000000E-03 0. -1.
        -11    1    3    3    0    0  0.17347152939E+02  0.22218951929E+01  0.36013708757E+01  0.17855822742E+02  0.51100000000E-03 0.  1.
        -12    1    3    3    0    0 -0.12800566882E+02  0.47925986313E+01 -0.68369478784E+01  0.15282911059E+02  0.00000000000E+00 0.  1.
</event>
<event>
 7    1  0.7284210E-013  0.5930188E+02  0.7816164E-02  0.1266605E+00
        -11   -1    0    0    0    0  0.00000000000E+00  0.00000000000E+00  0.45593999997E+02  0.45594000000E+02  0.51100000000E-03 0.  1.
         11   -1    0    0    0    0 -0.00000000000E+00 -0.00000000000E+00 -0.45593999997E+02  0.45594000000E+02  0.51100000000E-03 0. -1.
    9900012    2    1    2    0    0  0.13225683674E+02  0.95492514884E+01 -0.27397402553E+02  0.59301881088E+02  0.49999885213E+02 0.  0.
        -12    1    1    2    0    0 -0.13225683674E+02 -0.95492514884E+01  0.27397402553E+02  0.31886118912E+02  0.00000000000E+00 0.  1.
         11    1    3    3    0    0  0.17292084782E+02  0.17552830074E+02 -0.33495289994E+02  0.41581876963E+02  0.51100000000E-03 0. -1.
        -11    1    3    3    0    0 -0.51092194078E+00 -0.89180742458E+01 -0.17074327271E+01  0.90944167631E+01  0.51100000000E-03 0.  1.
        -12    1    3    3    0    0 -0.35554791669E+01  0.91449566020E+00  0.78053201682E+01  0.86255873624E+01  0.00000000000E+00 0.  1.
</event>
<event>
 7    1  0.7284210E-013  0.5930189E+02  0.7816164E-02  0.1266605E+00
        -11   -1    0    0    0    0  0.00000000000E+00  0.00000000000E+00  0.45593999997E+02  0.45594000000E+02  0.51100000000E-03 0.  1.
         11   -1    0    0    0    0 -0.00000000000E+00 -0.00000000000E+00 -0.45593999997E+02  0.45594000000E+02  0.51100000000E-03 0. -1.
    9900012    2    1    2    0    0 -0.18215804035E+02  0.18621860486E+02 -0.18388443766E+02  0.59301889094E+02  0.49999899814E+02 0.  0.
        -12    1    1    2    0    0  0.18215804035E+02 -0.18621860486E+02  0.18388443766E+02  0.31886110906E+02  0.00000000000E+00 0.  1.
         11    1    3    3    0    0 -0.30784110534E+02  0.12078697963E+02 -0.12775178876E+01  0.33093631684E+02  0.51100000000E-03 0. -1.
        -11    1    3    3    0    0  0.42343457080E+00  0.17576064348E+01  0.22322279776E+01  0.28725109610E+01  0.51100000000E-03 0.  1.
        -12    1    3    3    0    0  0.12144871929E+02  0.47855560880E+01 -0.19343153856E+02  0.23335746449E+02  0.00000000000E+00 0.  1.
</event>
<event>
 7    1  0.7284210E-013  0.5930192E+02  0.7816164E-02  0.1266605E+00
        -11   -1    0    0    0    0  0.00000000000E+00  0.00000000000E+00  0.45593999997E+02  0.45594000000E+02  0.51100000000E-03 0.  1.
         11   -1    0    0    0    0 -0.00000000000E+00 -0.00000000000E+00 -0.45593999997E+02  0.45594000000E+02  0.51100000000E-03 0. -1.
    9900012    2    1    2    0    0  0.13474015964E+02 -0.28122083160E+02 -0.66574314770E+01  0.59301920572E+02  0.49999957222E+02 0.  0.
        -12    1    1    2    0    0 -0.13474015964E+02  0.28122083160E+02  0.66574314770E+01  0.31886079428E+02  0.00000000000E+00 0.  1.
         11    1    3    3    0    0 -0.11504328960E+02 -0.19489155141E+01 -0.51960237181E+01  0.12772882182E+02  0.51100000000E-03 0. -1.
        -11    1    3    3    0    0  0.24472026370E+01 -0.89537259846E+01 -0.12949563062E+02  0.15932645527E+02  0.51100000000E-03 0.  1.
        -12    1    3    3    0    0  0.22531142287E+02 -0.17219441661E+02  0.11488155303E+02  0.30596392862E+02  0.00000000000E+00 0.  1.
</event>
<event>
 7    1  0.7284210E-013  0.5930206E+02  0.7816164E-02  0.1266604E+00
        -11   -1    0    0    0    0  0.00000000000E+00  0.00000000000E+00  0.45593999997E+02  0.45594000000E+02  0.51100000000E-03 0. -1.
         11   -1    0    0    0    0 -0.00000000000E+00 -0.00000000000E+00 -0.45593999997E+02  0.45594000000E+02  0.51100000000E-03 0.  1.
    9900012    2    1    2    0    0 -0.23266069515E+02 -0.72096942676E+01  0.20577252266E+02  0.59302062771E+02  0.50000216559E+02 0.  0.
        -12    1    1    2    0    0  0.23266069515E+02  0.72096942676E+01 -0.20577252266E+02  0.31885937229E+02  0.00000000000E+00 0.  1.
         11    1    3    3    0    0 -0.15866474587E+02  0.23332869540E+01 -0.30069879815E+01  0.16316593420E+02  0.51100000000E-03 0. -1.
        -11    1    3    3    0    0  0.81117691095E+01 -0.14994000167E+02  0.41803354191E+01  0.17552664857E+02  0.51100000000E-03 0.  1.
         12    1    3    3    0    0 -0.15511364038E+02  0.54510189456E+01  0.19403904829E+02  0.25432804495E+02  0.00000000000E+00 0. -1.
</event>
<event>
 7    1  0.7284210E-013  0.5930197E+02  0.7816164E-02  0.1266605E+00
        -11   -1    0    0    0    0  0.00000000000E+00  0.00000000000E+00  0.45593999997E+02  0.45594000000E+02  0.51100000000E-03 0.  1.
         11   -1    0    0    0    0 -0.00000000000E+00 -0.00000000000E+00 -0.45593999997E+02  0.45594000000E+02  0.51100000000E-03 0. -1.
    9900012    2    1    2    0    0  0.31355468745E+02  0.46760499898E+01  0.34188029710E+01  0.59301967360E+02  0.50000042553E+02 0.  0.
        -12    1    1    2    0    0 -0.31355468745E+02 -0.46760499898E+01 -0.34188029710E+01  0.31886032640E+02  0.00000000000E+00 0.  1.
         11    1    3    3    0    0  0.30314719556E+01 -0.13711157466E+02  0.33561292818E+01  0.14437772172E+02  0.51100000000E-03 0. -1.
        -11    1    3    3    0    0 -0.40770774336E+01  0.66063672015E+01  0.60876041814E+01  0.98653724172E+01  0.51100000000E-03 0.  1.
         12    1    3    3    0    0  0.32401074223E+02  0.11780840254E+02 -0.60249304922E+01  0.34998822771E+02  0.00000000000E+00 0. -1.
</event>
<event>
 7    1  0.7284210E-013  0.5930194E+02  0.7816164E-02  0.1266605E+00
        -11   -1    0    0    0    0  0.00000000000E+00  0.00000000000E+00  0.45593999997E+02  0.45594000000E+02  0.51100000000E-03 0. -1.
         11   -1    0    0    0    0 -0.00000000000E+00 -0.00000000000E+00 -0.45593999997E+02  0.45594000000E+02  0.51100000000E-03 0.  1.
    9900012    2    1    2    0    0 -0.15270508557E+02  0.14326472818E+02  0.24047552496E+02  0.59301936648E+02  0.49999986542E+02 0.  0.
        -12    1    1    2    0    0  0.15270508557E+02 -0.14326472818E+02 -0.24047552496E+02  0.31886063352E+02  0.00000000000E+00 0.  1.
         11    1    3    3    0    0 -0.60812014502E+01  0.27318074252E+02  0.10457118410E+02  0.29876571383E+02  0.51100000000E-03 0. -1.
        -11    1    3    3    0    0 -0.13888343652E+02 -0.18588424035E+01  0.75145511040E+01  0.15899995693E+02  0.51100000000E-03 0.  1.
        -12    1    3    3    0    0  0.46990365446E+01 -0.11132759030E+02  0.60758829825E+01  0.13525369573E+02  0.00000000000E+00 0.  1.
</event>
<event>
 7    1  0.7284210E-013  0.5930196E+02  0.7816164E-02  0.1266605E+00
        -11   -1    0    0    0    0  0.00000000000E+00  0.00000000000E+00  0.45593999997E+02  0.45594000000E+02  0.51100000000E-03 0. -1.
         11   -1    0    0    0    0 -0.00000000000E+00 -0.00000000000E+00 -0.45593999997E+02  0.45594000000E+02  0.51100000000E-03 0.  1.
    9900012    2    1    2    0    0 -0.27080943708E+02 -0.78960651393E+01 -0.14865875767E+02  0.59301958867E+02  0.50000027064E+02 0.  0.
        -12    1    1    2    0    0  0.27080943708E+02  0.78960651393E+01  0.14865875767E+02  0.31886041133E+02  0.00000000000E+00 0.  1.
         11    1    3    3    0    0 -0.44610641467E+01  0.12464426570E+01  0.93004431147E+01  0.10390041146E+02  0.51100000000E-03 0. -1.
        -11    1    3    3    0    0  0.14205218987E+01 -0.54556474474E+01  0.72483632557E+01  0.91826326118E+01  0.51100000000E-03 0.  1.
         12    1    3    3    0    0 -0.24040401460E+02 -0.36868603489E+01 -0.31414682137E+02  0.39729285110E+02  0.00000000000E+00 0. -1.
</event>
<event>
 7    1  0.7284210E-013  0.5930204E+02  0.7816164E-02  0.1266604E+00
        -11   -1    0    0    0    0  0.00000000000E+00  0.00000000000E+00  0.45593999997E+02  0.45594000000E+02  0.51100000000E-03 0.  1.
         11   -1    0    0    0    0 -0.00000000000E+00 -0.00000000000E+00 -0.45593999997E+02  0.45594000000E+02  0.51100000000E-03 0. -1.
    9900012    2    1    2    0    0 -0.44011503642E+01 -0.30687749929E+02  0.74569606948E+01  0.59302040974E+02  0.50000176806E+02 0.  0.
        -12    1    1    2    0    0  0.44011503642E+01  0.30687749929E+02 -0.74569606948E+01  0.31885959026E+02  0.00000000000E+00 0.  1.
         11    1    3    3    0    0 -0.82109024301E+01 -0.26397175001E+01 -0.23456474705E+01  0.89380696749E+01  0.51100000000E-03 0. -1.
        -11    1    3    3    0    0 -0.73365463583E+01 -0.23658332547E+02  0.22100331956E+02  0.33195877519E+02  0.51100000000E-03 0.  1.
         12    1    3    3    0    0  0.11146298424E+02 -0.43896998813E+01 -0.12297723791E+02  0.17168093780E+02  0.00000000000E+00 0. -1.
</event>
<event>
 7    1  0.7284210E-013  0.5930194E+02  0.7816164E-02  0.1266605E+00
        -11   -1    0    0    0    0  0.00000000000E+00  0.00000000000E+00  0.45593999997E+02  0.45594000000E+02  0.51100000000E-03 0.  1.
         11   -1    0    0    0    0 -0.00000000000E+00 -0.00000000000E+00 -0.45593999997E+02  0.45594000000E+02  0.51100000000E-03 0. -1.
    9900012    2    1    2    0    0  0.20947613920E+00 -0.47765541245E+01 -0.31525568432E+02  0.59301940122E+02  0.49999992877E+02 0.  0.
        -12    1    1    2    0    0 -0.20947613920E+00  0.47765541245E+01  0.31525568432E+02  0.31886059878E+02  0.00000000000E+00 0.  1.
         11    1    3    3    0    0 -0.97302575105E-01  0.74185438630E+01 -0.16759534278E+01  0.76061212843E+01  0.51100000000E-03 0. -1.
        -11    1    3    3    0    0 -0.60741416879E+01  0.13991782617E+02 -0.10947357653E+02  0.18775244816E+02  0.51100000000E-03 0.  1.
        -12    1    3    3    0    0  0.63809204022E+01 -0.26186880604E+02 -0.18902257351E+02  0.32920574022E+02  0.00000000000E+00 0.  1.
</event>
<event>
 7    1  0.7284210E-013  0.5930194E+02  0.7816164E-02  0.1266605E+00
        -11   -1    0    0    0    0  0.00000000000E+00  0.00000000000E+00  0.45593999997E+02  0.45594000000E+02  0.51100000000E-03 0.  1.
         11   -1    0    0    0    0 -0.00000000000E+00 -0.00000000000E+00 -0.45593999997E+02  0.45594000000E+02  0.51100000000E-03 0. -1.
    9900012    2    1    2    0    0 -0.12215726553E+02  0.26835687117E+02  0.12138479095E+02  0.59301941087E+02  0.49999994637E+02 0.  0.
        -12    1    1    2    0    0  0.12215726553E+02 -0.26835687117E+02 -0.12138479095E+02  0.31886058913E+02  0.00000000000E+00 0.  1.
         11    1    3    3    0    0 -0.26207399313E+02  0.94954674165E+00  0.14056602057E+02  0.29754285060E+02  0.51100000000E-03 0. -1.
        -11    1    3    3    0    0  0.46559501110E+01  0.85942770820E+01  0.24795479385E+00  0.97775739240E+01  0.51100000000E-03 0.  1.
        -12    1    3    3    0    0  0.93357226488E+01  0.17291863293E+02 -0.21660777565E+01  0.19770082103E+02  0.00000000000E+00 0.  1.
</event>
<event>
 7    1  0.7284210E-013  0.5930230E+02  0.7816164E-02  0.1266604E+00
        -11   -1    0    0    0    0  0.00000000000E+00  0.00000000000E+00  0.45593999997E+02  0.45594000000E+02  0.51100000000E-03 0. -1.
         11   -1    0    0    0    0 -0.00000000000E+00 -0.00000000000E+00 -0.45593999997E+02  0.45594000000E+02  0.51100000000E-03 0.  1.
    9900012    2    1    2    0    0 -0.19998727786E+02 -0.18581373397E+02  0.16476689440E+02  0.59302300301E+02  0.50000649753E+02 0.  0.
        -12    1    1    2    0    0  0.19998727786E+02  0.18581373397E+02 -0.16476689440E+02  0.31885699699E+02  0.00000000000E+00 0.  1.
         11    1    3    3    0    0  0.81920707436E+01  0.12298923510E+01  0.38804066038E+01  0.91476889943E+01  0.51100000000E-03 0.  1.
        -11    1    3    3    0    0 -0.30769165193E+02 -0.31929668920E+01  0.12425511907E+02  0.33336615165E+02  0.51100000000E-03 0. -1.
         12    1    3    3    0    0  0.25783666635E+01 -0.16618298856E+02  0.17077093012E+00  0.16817996142E+02  0.00000000000E+00 0. -1.
</event>
<event>
 7    1  0.7284210E-013  0.5930194E+02  0.7816164E-02  0.1266605E+00
        -11   -1    0    0    0    0  0.00000000000E+00  0.00000000000E+00  0.45593999997E+02  0.45594000000E+02  0.51100000000E-03 0. -1.
         11   -1    0    0    0    0 -0.00000000000E+00 -0.00000000000E+00 -0.45593999997E+02  0.45594000000E+02  0.51100000000E-03 0.  1.
    9900012    2    1    2    0    0 -0.19210668718E+02  0.18652037781E+02  0.17313934294E+02  0.59301943067E+02  0.49999998248E+02 0.  0.
        -12    1    1    2    0    0  0.19210668718E+02 -0.18652037781E+02 -0.17313934294E+02  0.31886056933E+02  0.00000000000E+00 0.  1.
         11    1    3    3    0    0 -0.28005185061E+02  0.18693757967E+02  0.83327340350E+01  0.34686905800E+02  0.51100000000E-03 0. -1.
        -11    1    3    3    0    0  0.82023864792E+01  0.90358887245E+01  0.55641080921E+00  0.12216219638E+02  0.51100000000E-03 0.  1.
         12    1    3    3    0    0  0.59212986339E+00 -0.90776089105E+01  0.84247894501E+01  0.12398817629E+02  0.00000000000E+00 0. -1.
</event>
<event>
 7    1  0.7284210E-013  0.5930195E+02  0.7816164E-02  0.1266605E+00
        -11   -1    0    0    0    0  0.00000000000E+00  0.00000000000E+00  0.45593999997E+02  0.45594000000E+02  0.51100000000E-03 0.  1.
         11   -1    0    0    0    0 -0.00000000000E+00 -0.00000000000E+00 -0.45593999997E+02  0.45594000000E+02  0.51100000000E-03 0. -1.
    9900012    2    1    2    0    0  0.49846318365E+00  0.24397158945E+02 -0.20524377879E+02  0.59301954190E+02  0.50000018533E+02 0.  0.
        -12    1    1    2    0    0 -0.49846318365E+00 -0.24397158945E+02  0.20524377879E+02  0.31886045810E+02  0.00000000000E+00 0.  1.
         11    1    3    3    0    0 -0.13255087216E+01 -0.13657122816E+01 -0.10361598207E+02  0.10534935267E+02  0.51100000000E-03 0. -1.
        -11    1    3    3    0    0  0.64129487269E+01  0.26611172824E+02 -0.22591125219E+02  0.35491398526E+02  0.51100000000E-03 0.  1.
        -12    1    3    3    0    0 -0.45889768216E+01 -0.84830159748E+00  0.12428345547E+02  0.13275620397E+02  0.00000000000E+00 0.  1.
</event>
<event>
 7    1  0.7284210E-013  0.5930196E+02  0.7816164E-02  0.1266605E+00
        -11   -1    0    0    0    0  0.00000000000E+00  0.00000000000E+00  0.45593999997E+02  0.45594000000E+02  0.51100000000E-03 0.  1.
         11   -1    0    0    0    0 -0.00000000000E+00 -0.00000000000E+00 -0.45593999997E+02  0.45594000000E+02  0.51100000000E-03 0. -1.
    9900012    2    1    2    0    0 -0.76523862226E+01 -0.11217309680E+02 -0.28850172100E+02  0.59301961024E+02  0.50000030998E+02 0.  0.
        -12    1    1    2    0    0  0.76523862226E+01  0.11217309680E+02  0.28850172100E+02  0.31886038976E+02  0.00000000000E+00 0.  1.
         11    1    3    3    0    0 -0.66784235916E+01 -0.15100948379E+02 -0.94426464816E+01  0.19021134468E+02  0.51100000000E-03 0. -1.
        -11    1    3    3    0    0 -0.83744121280E+01 -0.22714069862E+01  0.76465304702E+01  0.11565444076E+02  0.51100000000E-03 0.  1.
         12    1    3    3    0    0  0.74004494970E+01  0.61550456853E+01 -0.27054056089E+02  0.28715382480E+02  0.00000000000E+00 0. -1.
</event>
<event>
 7    1  0.7284210E-013  0.5930195E+02  0.7816164E-02  0.1266605E+00
        -11   -1    0    0    0    0  0.00000000000E+00  0.00000000000E+00  0.45593999997E+02  0.45594000000E+02  0.51100000000E-03 0. -1.
         11   -1    0    0    0    0 -0.00000000000E+00 -0.00000000000E+00 -0.45593999997E+02  0.45594000000E+02  0.51100000000E-03 0.  1.
    9900012    2    1    2    0    0 -0.30077434715E+00 -0.62717914380E+01  0.31261711061E+02  0.59301946441E+02  0.50000004402E+02 0.  0.
        -12    1    1    2    0    0  0.30077434715E+00  0.62717914380E+01 -0.31261711061E+02  0.31886053559E+02  0.00000000000E+00 0.  1.
         11    1    3    3    0    0  0.13324502572E+02 -0.86461845131E+00  0.33266051764E+01  0.13760677168E+02  0.51100000000E-03 0. -1.
        -11    1    3    3    0    0 -0.14786188706E+02 -0.50362098361E+01 -0.18515544285E+01  0.15729686584E+02  0.51100000000E-03 0.  1.
         12    1    3    3    0    0  0.11609117875E+01 -0.37096315055E+00  0.29786660314E+02  0.29811582690E+02  0.00000000000E+00 0. -1.
</event>
<event>
 7    1  0.7284210E-013  0.5930178E+02  0.7816164E-02  0.1266605E+00
        -11   -1    0    0    0    0  0.00000000000E+00  0.00000000000E+00  0.45593999997E+02  0.45594000000E+02  0.51100000000E-03 0.  1.
         11   -1    0    0    0    0 -0.00000000000E+00 -0.00000000000E+00 -0.45593999997E+02  0.45594000000E+02  0.51100000000E-03 0. -1.
    9900012    2    1    2    0    0 -0.29501069550E+02  0.96365734262E+01 -0.73180641354E+01  0.59301784880E+02  0.49999709751E+02 0.  0.
        -12    1    1    2    0    0  0.29501069550E+02 -0.96365734262E+01  0.73180641354E+01  0.31886215120E+02  0.00000000000E+00 0.  1.
         11    1    3    3    0    0 -0.16561926201E+02  0.14705140872E+02 -0.20419708412E+02  0.30124791443E+02  0.51100000000E-03 0. -1.
        -11    1    3    3    0    0 -0.38997070114E+01  0.87167660314E+01  0.55482982050E+01  0.11044154022E+02  0.51100000000E-03 0.  1.
        -12    1    3    3    0    0 -0.90394363376E+01 -0.13785333478E+02  0.75533460713E+01  0.18132839415E+02  0.00000000000E+00 0.  1.
</event>
<event>
 7    1  0.7284210E-013  0.5930195E+02  0.7816164E-02  0.1266605E+00
        -11   -1    0    0    0    0  0.00000000000E+00  0.00000000000E+00  0.45593999997E+02  0.45594000000E+02  0.51100000000E-03 0.  1.
         11   -1    0    0    0    0 -0.00000000000E+00 -0.00000000000E+00 -0.45593999997E+02  0.45594000000E+02  0.51100000000E-03 0. -1.
    9900012    2    1    2    0    0 -0.23131572010E+02 -0.71187730107E+01 -0.20759908092E+02  0.59301947613E+02  0.50000006538E+02 0.  0.
        -12    1    1    2    0    0  0.23131572010E+02  0.71187730107E+01  0.20759908092E+02  0.31886052387E+02  0.00000000000E+00 0.  1.
         11    1    3    3    0    0 -0.10432575543E+02 -0.93716420726E+01  0.61599630771E+01  0.15317031467E+02  0.51100000000E-03 0. -1.
        -11    1    3    3    0    0  0.56680936647E+01  0.12221829203E+02 -0.73131686370E+01  0.15329149703E+02  0.51100000000E-03 0.  1.
         12    1    3    3    0    0 -0.18367090132E+02 -0.99689601409E+01 -0.19606702532E+02  0.28655766442E+02  0.00000000000E+00 0. -1.
</event>
<event>
 7    1  0.7284210E-013  0.5930194E+02  0.7816164E-02  0.1266605E+00
        -11   -1    0    0    0    0  0.00000000000E+00  0.00000000000E+00  0.45593999997E+02  0.45594000000E+02  0.51100000000E-03 0. -1.
         11   -1    0    0    0    0 -0.00000000000E+00 -0.00000000000E+00 -0.45593999997E+02  0.45594000000E+02  0.51100000000E-03 0.  1.
    9900012    2    1    2    0    0 -0.20447879299E+02  0.17639855747E+02  0.16954078057E+02  0.59301936565E+02  0.49999986391E+02 0.  0.
        -12    1    1    2    0    0  0.20447879299E+02 -0.17639855747E+02 -0.16954078057E+02  0.31886063435E+02  0.00000000000E+00 0.  1.
         11    1    3    3    0    0  0.88341335535E+01 -0.26444321959E+01  0.10553527606E+02  0.14014702368E+02  0.51100000000E-03 0. -1.
        -11    1    3    3    0    0 -0.11012602806E+00  0.13583285009E+02  0.71411210770E+01  0.15346444861E+02  0.51100000000E-03 0.  1.
         12    1    3    3    0    0 -0.29171886824E+02  0.67010029338E+01 -0.74057062612E+00  0.29940789336E+02  0.00000000000E+00 0. -1.
</event>
<event>
 7    1  0.7284210E-013  0.5930195E+02  0.7816164E-02  0.1266605E+00
        -11   -1    0    0    0    0  0.00000000000E+00  0.00000000000E+00  0.45593999997E+02  0.45594000000E+02  0.51100000000E-03 0. -1.
         11   -1    0    0    0    0 -0.00000000000E+00 -0.00000000000E+00 -0.45593999997E+02  0.45594000000E+02  0.51100000000E-03 0.  1.
    9900012    2    1    2    0    0 -0.29690189091E+02 -0.99675746025E+01  0.59883602541E+01  0.59301947717E+02  0.50000006727E+02 0.  0.
        -12    1    1    2    0    0  0.29690189091E+02  0.99675746025E+01 -0.59883602541E+01  0.31886052283E+02  0.00000000000E+00 0.  1.
         11    1    3    3    0    0 -0.88154145950E+01  0.11060802547E+01 -0.13440097019E+02  0.16111212126E+02  0.51100000000E-03 0. -1.
        -11    1    3    3    0    0  0.28576629232E+01  0.71768145167E+01  0.43784454222E+00  0.77372225051E+01  0.51100000000E-03 0.  1.
         12    1    3    3    0    0 -0.23732437419E+02 -0.18250469374E+02  0.18990612731E+02  0.35453513086E+02  0.00000000000E+00 0. -1.
</event>
<event>
 7    1  0.7284210E-013  0.5930197E+02  0.7816164E-02  0.1266605E+00
        -11   -1    0    0    0    0  0.00000000000E+00  0.00000000000E+00  0.45593999997E+02  0.45594000000E+02  0.51100000000E-03 0.  1.
         11   -1    0    0    0    0 -0.00000000000E+00 -0.00000000000E+00 -0.45593999997E+02  0.45594000000E+02  0.51100000000E-03 0. -1.
    9900012    2    1    2    0    0 -0.12254766294E+02  0.12669690358E+02 -0.26571015238E+02  0.59301965417E+02  0.50000039008E+02 0.  0.
        -12    1    1    2    0    0  0.12254766294E+02 -0.12669690358E+02  0.26571015238E+02  0.31886034583E+02  0.00000000000E+00 0.  1.
         11    1    3    3    0    0 -0.78004477236E+01  0.19976021766E-01  0.20851510709E+01  0.80743568772E+01  0.51100000000E-03 0. -1.
        -11    1    3    3    0    0  0.85360018850E+01  0.16471765323E+02  0.10489414335E+01  0.18581782999E+02  0.51100000000E-03 0.  1.
         12    1    3    3    0    0 -0.12990320455E+02 -0.38220509864E+01 -0.29705107742E+02  0.32645825541E+02  0.00000000000E+00 0. -1.
</event>
<event>
 7    1  0.7284210E-013  0.5930195E+02  0.7816164E-02  0.1266605E+00
        -11   -1    0    0    0    0  0.00000000000E+00  0.00000000000E+00  0.45593999997E+02  0.45594000000E+02  0.51100000000E-03 0.  1.
         11   -1    0    0    0    0 -0.00000000000E+00 -0.00000000000E+00 -0.45593999997E+02  0.45594000000E+02  0.51100000000E-03 0. -1.
    9900012    2    1    2    0    0 -0.15854602696E+02  0.10277853199E+02 -0.25684970776E+02  0.59301946360E+02  0.50000004253E+02 0.  0.
        -12    1    1    2    0    0  0.15854602696E+02 -0.10277853199E+02  0.25684970776E+02  0.31886053640E+02  0.00000000000E+00 0.  1.
         11    1    3    3    0    0 -0.13386383418E+02  0.49065558813E+01  0.54255502174E+01  0.15254709013E+02  0.51100000000E-03 0. -1.
        -11    1    3    3    0    0 -0.80564335993E+01 -0.98277980463E+01 -0.57287692545E+01  0.13939531348E+02  0.51100000000E-03 0.  1.
         12    1    3    3    0    0  0.55882143220E+01  0.15199095364E+02 -0.25381751738E+02  0.30107705999E+02  0.00000000000E+00 0. -1.
</event>
<event>
 7    1  0.7284210E-013  0.5930194E+02  0.7816164E-02  0.1266605E+00
        -11   -1    0    0    0    0  0.00000000000E+00  0.00000000000E+00  0.45593999997E+02  0.45594000000E+02  0.51100000000E-03 0. -1.
         11   -1    0    0    0    0 -0.00000000000E+00 -0.00000000000E+00 -0.45593999997E+02  0.45594000000E+02  0.51100000000E-03 0.  1.
    9900012    2    1    2    0    0  0.73300554556E+00  0.14365852160E+02  0.28457089442E+02  0.59301938077E+02  0.49999989148E+02 0.  0.
        -12    1    1    2    0    0 -0.73300554556E+00 -0.14365852160E+02 -0.28457089442E+02  0.31886061923E+02  0.00000000000E+00 0.  1.
         11    1    3    3    0    0 -0.60054194275E+01  0.49855720316E+00  0.50595413914E+00  0.60472813426E+01  0.51100000000E-03 0. -1.
        -11    1    3    3    0    0 -0.10797954891E+02  0.77395787883E+01 -0.59818113531E+01  0.14569796738E+02  0.51100000000E-03 0.  1.
         12    1    3    3    0    0  0.17536379864E+02  0.61277161682E+01  0.33932946656E+02  0.38684859997E+02  0.00000000000E+00 0. -1.
</event>
<event>
 7    1  0.7284210E-013  0.5930193E+02  0.7816164E-02  0.1266605E+00
        -11   -1    0    0    0    0  0.00000000000E+00  0.00000000000E+00  0.45593999997E+02  0.45594000000E+02  0.51100000000E-03 0. -1.
         11   -1    0    0    0    0 -0.00000000000E+00 -0.00000000000E+00 -0.45593999997E+02  0.45594000000E+02  0.51100000000E-03 0.  1.
    9900012    2    1    2    0    0  0.26479613140E+02  0.20265991918E+01 -0.17647795961E+02  0.59301925946E+02  0.49999967023E+02 0.  0.
        -12    1    1    2    0    0 -0.26479613140E+02 -0.20265991918E+01  0.17647795961E+02  0.31886074054E+02  0.00000000000E+00 0.  1.
         11    1    3    3    0    0  0.62030589983E+01  0.21983227344E+01  0.63413345287E+00  0.66115572506E+01  0.51100000000E-03 0. -1.
        -11    1    3    3    0    0  0.34138859328E+01 -0.20023511570E+02 -0.17207462065E+02  0.26621276899E+02  0.51100000000E-03 0.  1.
         12    1    3    3    0    0  0.16862668208E+02  0.19851788028E+02 -0.10744673486E+01  0.26069091796E+02  0.00000000000E+00 0. -1.
</event>
<event>
 7    1  0.7284210E-013  0.5930202E+02  0.7816164E-02  0.1266605E+00
        -11   -1    0    0    0    0  0.00000000000E+00  0.00000000000E+00  0.45593999997E+02  0.45594000000E+02  0.51100000000E-03 0.  1.
         11   -1    0    0    0    0 -0.00000000000E+00 -0.00000000000E+00 -0.45593999997E+02  0.45594000000E+02  0.51100000000E-03 0. -1.
    9900012    2    1    2    0    0 -0.17748203296E+02  0.16268739882E+02 -0.20905630031E+02  0.59302015860E+02  0.50000131004E+02 0.  0.
        -12    1    1    2    0    0  0.17748203296E+02 -0.16268739882E+02  0.20905630031E+02  0.31885984140E+02  0.00000000000E+00 0.  1.
         11    1    3    3    0    0 -0.21489309513E+02  0.78141553721E+01 -0.88475659726E+01  0.24517970377E+02  0.51100000000E-03 0. -1.
        -11    1    3    3    0    0  0.20743612466E+01  0.13154453056E+02 -0.20812865496E+02  0.24708662048E+02  0.51100000000E-03 0.  1.
        -12    1    3    3    0    0  0.16667449704E+01 -0.46998685465E+01  0.87548014370E+01  0.10075383435E+02  0.00000000000E+00 0.  1.
</event>
<event>
 7    1  0.7284210E-013  0.5930200E+02  0.7816164E-02  0.1266605E+00
        -11   -1    0    0    0    0  0.00000000000E+00  0.00000000000E+00  0.45593999997E+02  0.45594000000E+02  0.51100000000E-03 0. -1.
         11   -1    0    0    0    0 -0.00000000000E+00 -0.00000000000E+00 -0.45593999997E+02  0.45594000000E+02  0.51100000000E-03 0.  1.
    9900012    2    1    2    0    0 -0.61494403172E+01 -0.71077493009E+01  0.30469344808E+02  0.59302004809E+02  0.50000110850E+02 0.  0.
        -12    1    1    2    0    0  0.61494403172E+01  0.71077493009E+01 -0.30469344808E+02  0.31885995191E+02  0.00000000000E+00 0.  1.
         11    1    3    3    0    0 -0.86546505637E+00 -0.24437153919E+02  0.10183744136E+02  0.26488340195E+02  0.51100000000E-03 0. -1.
        -11    1    3    3    0    0 -0.33314711504E-01  0.73759735503E+01  0.20259201661E+02  0.21560179681E+02  0.51100000000E-03 0.  1.
        -12    1    3    3    0    0 -0.52506605493E+01  0.99534310673E+01  0.26399010791E-01  0.11253484932E+02  0.00000000000E+00 0.  1.
</event>
<event>
 7    1  0.7284210E-013  0.5930193E+02  0.7816164E-02  0.1266605E+00
        -11   -1    0    0    0    0  0.00000000000E+00  0.00000000000E+00  0.45593999997E+02  0.45594000000E+02  0.51100000000E-03 0. -1.
         11   -1    0    0    0    0 -0.00000000000E+00 -0.00000000000E+00 -0.45593999997E+02  0.45594000000E+02  0.51100000000E-03 0.  1.
    9900012    2    1    2    0    0  0.25707690211E+02  0.12174244782E+02  0.14409151899E+02  0.59301933600E+02  0.49999980982E+02 0.  0.
        -12    1    1    2    0    0 -0.25707690211E+02 -0.12174244782E+02 -0.14409151899E+02  0.31886066400E+02  0.00000000000E+00 0.  1.
         11    1    3    3    0    0 -0.12261047495E+01 -0.81152714414E+01 -0.63044954452E+01  0.10349281449E+02  0.51100000000E-03 0. -1.
        -11    1    3    3    0    0  0.74055210041E+01  0.44798512545E+01 -0.72996071906E+01  0.11322326351E+02  0.51100000000E-03 0.  1.
         12    1    3    3    0    0  0.19528273957E+02  0.15809664969E+02  0.28013254535E+02  0.37630325800E+02  0.00000000000E+00 0. -1.
</event>
<event>
 7    1  0.7284210E-013  0.5930194E+02  0.7816164E-02  0.1266605E+00
        -11   -1    0    0    0    0  0.00000000000E+00  0.00000000000E+00  0.45593999997E+02  0.45594000000E+02  0.51100000000E-03 0. -1.
         11   -1    0    0    0    0 -0.00000000000E+00 -0.00000000000E+00 -0.45593999997E+02  0.45594000000E+02  0.51100000000E-03 0.  1.
    9900012    2    1    2    0    0  0.51680284971E+01 -0.14920334939E+02  0.27701906325E+02  0.59301944626E+02  0.50000001091E+02 0.  0.
        -12    1    1    2    0    0 -0.51680284971E+01  0.14920334939E+02 -0.27701906325E+02  0.31886055374E+02  0.00000000000E+00 0.  1.
         11    1    3    3    0    0 -0.34829756610E+01  0.13967638619E+02  0.71688725690E+01  0.16081628717E+02  0.51100000000E-03 0. -1.
        -11    1    3    3    0    0  0.44260203787E+01 -0.57784034183E+01 -0.47625057510E+01  0.86983368379E+01  0.51100000000E-03 0.  1.
        -12    1    3    3    0    0  0.42249837795E+01 -0.23109570140E+02  0.25295539507E+02  0.34521979071E+02  0.00000000000E+00 0.  1.
</event>
<event>
 7    1  0.7284210E-013  0.5930197E+02  0.7816164E-02  0.1266605E+00
        -11   -1    0    0    0    0  0.00000000000E+00  0.00000000000E+00  0.45593999997E+02  0.45594000000E+02  0.51100000000E-03 0. -1.
         11   -1    0    0    0    0 -0.00000000000E+00 -0.00000000000E+00 -0.45593999997E+02  0.45594000000E+02  0.51100000000E-03 0.  1.
    9900012    2    1    2    0    0 -0.14063540894E+01  0.78668302576E+01  0.30868331700E+02  0.59301972463E+02  0.50000051859E+02 0.  0.
        -12    1    1    2    0    0  0.14063540894E+01 -0.78668302576E+01 -0.30868331700E+02  0.31886027537E+02  0.00000000000E+00 0.  1.
         11    1    3    3    0    0 -0.54549643069E+01 -0.48143107700E+00  0.28652264790E+01  0.61804477596E+01  0.51100000000E-03 0. -1.
        -11    1    3    3    0    0  0.22033498785E+01 -0.16325718205E+02  0.10108782756E+01  0.16504717530E+02  0.51100000000E-03 0.  1.
         12    1    3    3    0    0  0.18452603391E+01  0.24673979540E+02  0.26992226946E+02  0.36616807173E+02  0.00000000000E+00 0. -1.
</event>
<event>
 7    1  0.7284210E-013  0.5930195E+02  0.7816164E-02  0.1266605E+00
        -11   -1    0    0    0    0  0.00000000000E+00  0.00000000000E+00  0.45593999997E+02  0.45594000000E+02  0.51100000000E-03 0.  1.
         11   -1    0    0    0    0 -0.00000000000E+00 -0.00000000000E+00 -0.45593999997E+02  0.45594000000E+02  0.51100000000E-03 0. -1.
    9900012    2    1    2    0    0 -0.27264283414E+02 -0.39782041268E+01 -0.16048464573E+02  0.59301945473E+02  0.50000002636E+02 0.  0.
        -12    1    1    2    0    0  0.27264283414E+02  0.39782041268E+01  0.16048464573E+02  0.31886054527E+02  0.00000000000E+00 0.  1.
         11    1    3    3    0    0  0.20493256719E+01 -0.39930695948E+01 -0.73858357349E+01  0.86426217239E+01  0.51100000000E-03 0. -1.
        -11    1    3    3    0    0 -0.10900080783E+02 -0.74059081045E+01 -0.22767490980E+02  0.26306232754E+02  0.51100000000E-03 0.  1.
        -12    1    3    3    0    0 -0.18413528303E+02  0.74207735725E+01  0.14104862142E+02  0.24353090995E+02  0.00000000000E+00 0.  1.
</event>
<event>
 7    1  0.7284210E-013  0.5930193E+02  0.7816164E-02  0.1266605E+00
        -11   -1    0    0    0    0  0.00000000000E+00  0.00000000000E+00  0.45593999997E+02  0.45594000000E+02  0.51100000000E-03 0. -1.
         11   -1    0    0    0    0 -0.00000000000E+00 -0.00000000000E+00 -0.45593999997E+02  0.45594000000E+02  0.51100000000E-03 0.  1.
    9900012    2    1    2    0    0 -0.19378719009E+01 -0.31087980521E+02 -0.68193355304E+01  0.59301933804E+02  0.49999981355E+02 0.  0.
        -12    1    1    2    0    0  0.19378719009E+01  0.31087980521E+02  0.68193355304E+01  0.31886066196E+02  0.00000000000E+00 0.  1.
         11    1    3    3    0    0 -0.54868940828E+01 -0.26301503819E+01 -0.18962708823E+01  0.63733461563E+01  0.51100000000E-03 0. -1.
        -11    1    3    3    0    0 -0.12057902003E+02 -0.16362732885E+02 -0.19669484202E+02  0.28284636063E+02  0.51100000000E-03 0.  1.
        -12    1    3    3    0    0  0.15606924185E+02 -0.12095097254E+02  0.14746419553E+02  0.24643951585E+02  0.00000000000E+00 0.  1.
</event>
<event>
 7    1  0.7284210E-013  0.5930194E+02  0.7816164E-02  0.1266605E+00
        -11   -1    0    0    0    0  0.00000000000E+00  0.00000000000E+00  0.45593999997E+02  0.45594000000E+02  0.51100000000E-03 0.  1.
         11   -1    0    0    0    0 -0.00000000000E+00 -0.00000000000E+00 -0.45593999997E+02  0.45594000000E+02  0.51100000000E-03 0. -1.
    9900012    2    1    2    0    0  0.18145335297E+02 -0.61112168144E+01 -0.25497459905E+02  0.59301943085E+02  0.49999998281E+02 0.  0.
        -12    1    1    2    0    0 -0.18145335297E+02  0.61112168144E+01  0.25497459905E+02  0.31886056915E+02  0.00000000000E+00 0.  1.
         11    1    3    3    0    0  0.21547954420E+02 -0.60709434230E+01 -0.17980034735E+02  0.28713278166E+02  0.51100000000E-03 0. -1.
        -11    1    3    3    0    0  0.80730582526E+01 -0.94184220656E+01  0.25606090299E+01  0.12666398960E+02  0.51100000000E-03 0.  1.
        -12    1    3    3    0    0 -0.11475677375E+02  0.93781486742E+01 -0.10078034200E+02  0.17922265959E+02  0.00000000000E+00 0.  1.
</event>
<event>
 7    1  0.7284210E-013  0.5930194E+02  0.7816164E-02  0.1266605E+00
        -11   -1    0    0    0    0  0.00000000000E+00  0.00000000000E+00  0.45593999997E+02  0.45594000000E+02  0.51100000000E-03 0. -1.
         11   -1    0    0    0    0 -0.00000000000E+00 -0.00000000000E+00 -0.45593999997E+02  0.45594000000E+02  0.51100000000E-03 0.  1.
    9900012    2    1    2    0    0  0.28064013593E+02 -0.27075939124E+01  0.14892988210E+02  0.59301936876E+02  0.49999986957E+02 0.  0.
        -12    1    1    2    0    0 -0.28064013593E+02  0.27075939124E+01 -0.14892988210E+02  0.31886063124E+02  0.00000000000E+00 0.  1.
         11    1    3    3    0    0  0.28733130794E+02 -0.15205717730E+02  0.20866905369E+02  0.38629449864E+02  0.51100000000E-03 0. -1.
        -11    1    3    3    0    0 -0.66569685180E+01  0.48573227034E+01  0.15567465394E+01  0.83864339110E+01  0.51100000000E-03 0.  1.
        -12    1    3    3    0    0  0.59878513171E+01  0.76408011145E+01 -0.75306636975E+01  0.12286053101E+02  0.00000000000E+00 0.  1.
</event>
<event>
 7    1  0.7284210E-013  0.5930192E+02  0.7816164E-02  0.1266605E+00
        -11   -1    0    0    0    0  0.00000000000E+00  0.00000000000E+00  0.45593999997E+02  0.45594000000E+02  0.51100000000E-03 0. -1.
         11   -1    0    0    0    0 -0.00000000000E+00 -0.00000000000E+00 -0.45593999997E+02  0.45594000000E+02  0.51100000000E-03 0.  1.
    9900012    2    1    2    0    0  0.25905225038E+02 -0.13572538996E+02  0.12705411469E+02  0.59301921852E+02  0.49999959557E+02 0.  0.
        -12    1    1    2    0    0 -0.25905225038E+02  0.13572538996E+02 -0.12705411469E+02  0.31886078148E+02  0.00000000000E+00 0.  1.
         11    1    3    3    0    0  0.37063100236E+01  0.12077000512E+02  0.94520962450E+00  0.12668231797E+02  0.51100000000E-03 0.  1.
        -11    1    3    3    0    0  0.21010896568E+00 -0.79052787509E+00  0.13380652492E+02  0.13405630962E+02  0.51100000000E-03 0. -1.
        -12    1    3    3    0    0  0.21988806049E+02 -0.24859011633E+02 -0.16204506481E+01  0.33228059094E+02  0.00000000000E+00 0.  1.
</event>
<event>
 7    1  0.7284210E-013  0.5930193E+02  0.7816164E-02  0.1266605E+00
        -11   -1    0    0    0    0  0.00000000000E+00  0.00000000000E+00  0.45593999997E+02  0.45594000000E+02  0.51100000000E-03 0.  1.
         11   -1    0    0    0    0 -0.00000000000E+00 -0.00000000000E+00 -0.45593999997E+02  0.45594000000E+02  0.51100000000E-03 0. -1.
    9900012    2    1    2    0    0 -0.73631913432E+00  0.31513066952E+02  0.48068490277E+01  0.59301931692E+02  0.49999977503E+02 0.  0.
        -12    1    1    2    0    0  0.73631913432E+00 -0.31513066952E+02 -0.48068490277E+01  0.31886068308E+02  0.00000000000E+00 0.  1.
         11    1    3    3    0    0 -0.89920834732E+01  0.18007495271E+02 -0.11079560024E+02  0.22975728535E+02  0.51100000000E-03 0. -1.
        -11    1    3    3    0    0 -0.92557301807E+01  0.27942069045E+01  0.12039724539E+02  0.15441214351E+02  0.51100000000E-03 0.  1.
         12    1    3    3    0    0  0.17511494520E+02  0.10711364776E+02  0.38466845130E+01  0.20884988806E+02  0.00000000000E+00 0. -1.
</event>
<event>
 7    1  0.7284210E-013  0.5930192E+02  0.7816164E-02  0.1266605E+00
        -11   -1    0    0    0    0  0.00000000000E+00  0.00000000000E+00  0.45593999997E+02  0.45594000000E+02  0.51100000000E-03 0. -1.
         11   -1    0    0    0    0 -0.00000000000E+00 -0.00000000000E+00 -0.45593999997E+02  0.45594000000E+02  0.51100000000E-03 0.  1.
    9900012    2    1    2    0    0 -0.24119103361E+02  0.11673792445E+02  0.17283329140E+02  0.59301920857E+02  0.49999957742E+02 0.  0.
        -12    1    1    2    0    0  0.24119103361E+02 -0.11673792445E+02 -0.17283329140E+02  0.31886079143E+02  0.00000000000E+00 0.  1.
         11    1    3    3    0    0 -0.55907431873E+01  0.16831110714E+02  0.14518402851E+02  0.22920006956E+02  0.51100000000E-03 0. -1.
        -11    1    3    3    0    0  0.52025613940E-01  0.10070736530E+02 -0.48535560681E+01  0.11179420723E+02  0.51100000000E-03 0.  1.
        -12    1    3    3    0    0 -0.18580385788E+02 -0.15228054799E+02  0.76184823565E+01  0.25202493178E+02  0.00000000000E+00 0.  1.
</event>
<event>
 7    1  0.7284210E-013  0.5930189E+02  0.7816164E-02  0.1266605E+00
        -11   -1    0    0    0    0  0.00000000000E+00  0.00000000000E+00  0.45593999997E+02  0.45594000000E+02  0.51100000000E-03 0. -1.
         11   -1    0    0    0    0 -0.00000000000E+00 -0.00000000000E+00 -0.45593999997E+02  0.45594000000E+02  0.51100000000E-03 0.  1.
    9900012    2    1    2    0    0  0.83803635831E+01 -0.78311888864E+01  0.29751740471E+02  0.59301889008E+02  0.49999899657E+02 0.  0.
        -12    1    1    2    0    0 -0.83803635831E+01  0.78311888864E+01 -0.29751740471E+02  0.31886110992E+02  0.00000000000E+00 0.  1.
         11    1    3    3    0    0  0.13780519663E+02 -0.19449291102E+01  0.28390217690E+02  0.31617873618E+02  0.51100000000E-03 0. -1.
        -11    1    3    3    0    0  0.46275986274E+01 -0.13866058034E+02 -0.10034700911E+01  0.14652275828E+02  0.51100000000E-03 0.  1.
        -12    1    3    3    0    0 -0.10027754707E+02  0.79797982580E+01  0.23649928723E+01  0.13031739561E+02  0.00000000000E+00 0.  1.
</event>
<event>
 7    1  0.7284210E-013  0.5930194E+02  0.7816164E-02  0.1266605E+00
        -11   -1    0    0    0    0  0.00000000000E+00  0.00000000000E+00  0.45593999997E+02  0.45594000000E+02  0.51100000000E-03 0.  1.
         11   -1    0    0    0    0 -0.00000000000E+00 -0.00000000000E+00 -0.45593999997E+02  0.45594000000E+02  0.51100000000E-03 0. -1.
    9900012    2    1    2    0    0 -0.85921110983E+01 -0.21580230198E+02 -0.21844683385E+02  0.59301938770E+02  0.49999990412E+02 0.  0.
        -12    1    1    2    0    0  0.85921110983E+01  0.21580230198E+02  0.21844683385E+02  0.31886061230E+02  0.00000000000E+00 0.  1.
         11    1    3    3    0    0  0.87929468243E+01  0.18652882848E+01 -0.12569898946E+02  0.15453076523E+02  0.51100000000E-03 0. -1.
        -11    1    3    3    0    0 -0.11110529871E+02  0.29670086272E+01 -0.11931868431E+02  0.16571556920E+02  0.51100000000E-03 0.  1.
        -12    1    3    3    0    0 -0.62745280511E+01 -0.26412527110E+02  0.26570839920E+01  0.27277305328E+02  0.00000000000E+00 0.  1.
</event>
<event>
 7    1  0.7284210E-013  0.5930192E+02  0.7816164E-02  0.1266605E+00
        -11   -1    0    0    0    0  0.00000000000E+00  0.00000000000E+00  0.45593999997E+02  0.45594000000E+02  0.51100000000E-03 0.  1.
         11   -1    0    0    0    0 -0.00000000000E+00 -0.00000000000E+00 -0.45593999997E+02  0.45594000000E+02  0.51100000000E-03 0. -1.
    9900012    2    1    2    0    0 -0.16161640434E+02 -0.25826879864E+02 -0.94072192655E+01  0.59301919662E+02  0.49999955562E+02 0.  0.
        -12    1    1    2    0    0  0.16161640434E+02  0.25826879864E+02  0.94072192655E+01  0.31886080338E+02  0.00000000000E+00 0.  1.
         11    1    3    3    0    0  0.76091362079E+01 -0.62406223467E+01 -0.53636875810E+01  0.11207741335E+02  0.51100000000E-03 0. -1.
        -11    1    3    3    0    0  0.10909571175E+00  0.98923208121E+01  0.37796940554E+00  0.99001401029E+01  0.51100000000E-03 0.  1.
        -12    1    3    3    0    0 -0.23879872354E+02 -0.29478578329E+02 -0.44215010900E+01  0.38194038224E+02  0.00000000000E+00 0.  1.
</event>
<event>
 7    1  0.7284210E-013  0.5930194E+02  0.7816164E-02  0.1266605E+00
        -11   -1    0    0    0    0  0.00000000000E+00  0.00000000000E+00  0.45593999997E+02  0.45594000000E+02  0.51100000000E-03 0. -1.
         11   -1    0    0    0    0 -0.00000000000E+00 -0.00000000000E+00 -0.45593999997E+02  0.45594000000E+02  0.51100000000E-03 0.  1.
    9900012    2    1    2    0    0 -0.11217143033E+02  0.24943727942E+02  0.16392275385E+02  0.59301944211E+02  0.50000000334E+02 0.  0.
        -12    1    1    2    0    0  0.11217143033E+02 -0.24943727942E+02 -0.16392275385E+02  0.31886055789E+02  0.00000000000E+00 0.  1.
         11    1    3    3    0    0 -0.10061248948E+01  0.15849121987E+02 -0.59698733807E+01  0.16966034997E+02  0.51100000000E-03 0. -1.
        -11    1    3    3    0    0 -0.21685407444E+01  0.10347088181E+02 -0.64580758667E+01  0.12388363368E+02  0.51100000000E-03 0.  1.
         12    1    3    3    0    0 -0.80424773939E+01 -0.12524822256E+01  0.28820224632E+02  0.29947545846E+02  0.00000000000E+00 0. -1.
</event>
<event>
 7    1  0.7284210E-013  0.5930192E+02  0.7816164E-02  0.1266605E+00
        -11   -1    0    0    0    0  0.00000000000E+00  0.00000000000E+00  0.45593999997E+02  0.45594000000E+02  0.51100000000E-03 0. -1.
         11   -1    0    0    0    0 -0.00000000000E+00 -0.00000000000E+00 -0.45593999997E+02  0.45594000000E+02  0.51100000000E-03 0.  1.
    9900012    2    1    2    0    0 -0.43191105268E+01 -0.60536119348E+01  0.31006787297E+02  0.59301924800E+02  0.49999964932E+02 0.  0.
        -12    1    1    2    0    0  0.43191105268E+01  0.60536119348E+01 -0.31006787297E+02  0.31886075200E+02  0.00000000000E+00 0.  1.
         11    1    3    3    0    0  0.79391914902E+00  0.98649779149E+00  0.44696755167E+01  0.46455876909E+01  0.51100000000E-03 0. -1.
        -11    1    3    3    0    0  0.24860097245E+01  0.19435618552E+02  0.66841235094E+01  0.20702681474E+02  0.51100000000E-03 0.  1.
         12    1    3    3    0    0 -0.75990394003E+01 -0.26475728278E+02  0.19852988271E+02  0.33953655635E+02  0.00000000000E+00 0. -1.
</event>
<event>
 7    1  0.7284210E-013  0.5930195E+02  0.7816164E-02  0.1266605E+00
        -11   -1    0    0    0    0  0.00000000000E+00  0.00000000000E+00  0.45593999997E+02  0.45594000000E+02  0.51100000000E-03 0.  1.
         11   -1    0    0    0    0 -0.00000000000E+00 -0.00000000000E+00 -0.45593999997E+02  0.45594000000E+02  0.51100000000E-03 0. -1.
    9900012    2    1    2    0    0  0.28259046984E+02  0.52791051897E+01 -0.13794111616E+02  0.59301949706E+02  0.50000010356E+02 0.  0.
        -12    1    1    2    0    0 -0.28259046984E+02 -0.52791051897E+01  0.13794111616E+02  0.31886050294E+02  0.00000000000E+00 0.  1.
         11    1    3    3    0    0 -0.32857921637E+01 -0.32226822338E+00 -0.77431715094E+01  0.84176595462E+01  0.51100000000E-03 0. -1.
        -11    1    3    3    0    0  0.87609077443E+01 -0.14866950605E+02  0.55594512662E+01  0.18129733132E+02  0.51100000000E-03 0.  1.
         12    1    3    3    0    0  0.22783931403E+02  0.20468324018E+02 -0.11610391373E+02  0.32754557028E+02  0.00000000000E+00 0. -1.
</event>
<event>
 7    1  0.7284210E-013  0.5930195E+02  0.7816164E-02  0.1266605E+00
        -11   -1    0    0    0    0  0.00000000000E+00  0.00000000000E+00  0.45593999997E+02  0.45594000000E+02  0.51100000000E-03 0.  1.
         11   -1    0    0    0    0 -0.00000000000E+00 -0.00000000000E+00 -0.45593999997E+02  0.45594000000E+02  0.51100000000E-03 0. -1.
    9900012    2    1    2    0    0  0.31769495666E+02 -0.24111918082E+01  0.12671309262E+01  0.59301947852E+02  0.50000006975E+02 0.  0.
        -12    1    1    2    0    0 -0.31769495666E+02  0.24111918082E+01 -0.12671309262E+01  0.31886052148E+02  0.00000000000E+00 0.  1.
         11    1    3    3    0    0 -0.37096969505E+01 -0.27743293496E+01 -0.10928280896E+02  0.11869544153E+02  0.51100000000E-03 0. -1.
        -11    1    3    3    0    0  0.99363820553E+01 -0.72220267828E+01  0.16365685191E+02  0.20462771348E+02  0.51100000000E-03 0.  1.
         12    1    3    3    0    0  0.25542810561E+02  0.75851643242E+01 -0.41702733693E+01  0.26969632351E+02  0.00000000000E+00 0. -1.
</event>
<event>
 7    1  0.7284210E-013  0.5930195E+02  0.7816164E-02  0.1266605E+00
        -11   -1    0    0    0    0  0.00000000000E+00  0.00000000000E+00  0.45593999997E+02  0.45594000000E+02  0.51100000000E-03 0.  1.
         11   -1    0    0    0    0 -0.00000000000E+00 -0.00000000000E+00 -0.45593999997E+02  0.45594000000E+02  0.51100000000E-03 0. -1.
    9900012    2    1    2    0    0 -0.21299877263E+02  0.16039595182E+02  0.17486190448E+02  0.59301949109E+02  0.50000009268E+02 0.  0.
        -12    1    1    2    0    0  0.21299877263E+02 -0.16039595182E+02 -0.17486190448E+02  0.31886050891E+02  0.00000000000E+00 0.  1.
         11    1    3    3    0    0 -0.49959903073E+01 -0.29851127656E+01 -0.48917506831E+01  0.76026339107E+01  0.51100000000E-03 0. -1.
        -11    1    3    3    0    0  0.11461566175E+02  0.12478020589E+02  0.29828046448E+01  0.17203651380E+02  0.51100000000E-03 0.  1.
        -12    1    3    3    0    0 -0.27765453131E+02  0.65466873582E+01  0.19395136486E+02  0.34495663818E+02  0.00000000000E+00 0.  1.
</event>
<event>
 7    1  0.7284210E-013  0.5930193E+02  0.7816164E-02  0.1266605E+00
        -11   -1    0    0    0    0  0.00000000000E+00  0.00000000000E+00  0.45593999997E+02  0.45594000000E+02  0.51100000000E-03 0.  1.
         11   -1    0    0    0    0 -0.00000000000E+00 -0.00000000000E+00 -0.45593999997E+02  0.45594000000E+02  0.51100000000E-03 0. -1.
    9900012    2    1    2    0    0 -0.14290612283E+02 -0.27142725951E+02 -0.87047207357E+01  0.59301931968E+02  0.49999978005E+02 0.  0.
        -12    1    1    2    0    0  0.14290612283E+02  0.27142725951E+02  0.87047207357E+01  0.31886068032E+02  0.00000000000E+00 0.  1.
         11    1    3    3    0    0 -0.47378523061E+01  0.84538335359E+01 -0.31360232669E+01  0.10185734540E+02  0.51100000000E-03 0. -1.
        -11    1    3    3    0    0  0.77662702332E+01 -0.22124480847E+01 -0.80797486497E+01  0.11423319061E+02  0.51100000000E-03 0.  1.
        -12    1    3    3    0    0 -0.17319030210E+02 -0.33384111402E+02  0.25110511809E+01  0.37692878367E+02  0.00000000000E+00 0.  1.
</event>
<event>
 7    1  0.7284210E-013  0.5930199E+02  0.7816164E-02  0.1266605E+00
        -11   -1    0    0    0    0  0.00000000000E+00  0.00000000000E+00  0.45593999997E+02  0.45594000000E+02  0.51100000000E-03 0.  1.
         11   -1    0    0    0    0 -0.00000000000E+00 -0.00000000000E+00 -0.45593999997E+02  0.45594000000E+02  0.51100000000E-03 0. -1.
    9900012    2    1    2    0    0 -0.15957128899E+02 -0.77745827285E+01 -0.26488549962E+02  0.59301994004E+02  0.50000091145E+02 0.  0.
        -12    1    1    2    0    0  0.15957128899E+02  0.77745827285E+01  0.26488549962E+02  0.31886005996E+02  0.00000000000E+00 0.  1.
         11    1    3    3    0    0 -0.63266588080E+00 -0.19517195446E+01 -0.11297061350E+02  0.11481858330E+02  0.51100000000E-03 0. -1.
        -11    1    3    3    0    0  0.92844883984E+01 -0.50314947419E+01  0.85719429697E+01  0.13601318712E+02  0.51100000000E-03 0.  1.
         12    1    3    3    0    0 -0.24608951416E+02 -0.79136844195E+00 -0.23763431582E+02  0.34218816963E+02  0.00000000000E+00 0. -1.
</event>
<event>
 7    1  0.7284210E-013  0.5930195E+02  0.7816164E-02  0.1266605E+00
        -11   -1    0    0    0    0  0.00000000000E+00  0.00000000000E+00  0.45593999997E+02  0.45594000000E+02  0.51100000000E-03 0.  1.
         11   -1    0    0    0    0 -0.00000000000E+00 -0.00000000000E+00 -0.45593999997E+02  0.45594000000E+02  0.51100000000E-03 0. -1.
    9900012    2    1    2    0    0  0.16235221789E+02 -0.22617179570E+02 -0.15543508258E+02  0.59301954663E+02  0.50000019396E+02 0.  0.
        -12    1    1    2    0    0 -0.16235221789E+02  0.22617179570E+02  0.15543508258E+02  0.31886045337E+02  0.00000000000E+00 0.  1.
         11    1    3    3    0    0  0.18094395684E+02 -0.17561793581E+02 -0.10511093765E+02  0.27318617120E+02  0.51100000000E-03 0. -1.
        -11    1    3    3    0    0 -0.11519406670E+02  0.77891610323E+01 -0.73772447633E+01  0.15741394480E+02  0.51100000000E-03 0.  1.
         12    1    3    3    0    0  0.96602327759E+01 -0.12844547021E+02  0.23448302700E+01  0.16241943063E+02  0.00000000000E+00 0. -1.
</event>
<event>
 7    1  0.7284210E-013  0.5930192E+02  0.7816164E-02  0.1266605E+00
        -11   -1    0    0    0    0  0.00000000000E+00  0.00000000000E+00  0.45593999997E+02  0.45594000000E+02  0.51100000000E-03 0.  1.
         11   -1    0    0    0    0 -0.00000000000E+00 -0.00000000000E+00 -0.45593999997E+02  0.45594000000E+02  0.51100000000E-03 0. -1.
    9900012    2    1    2    0    0 -0.17108945155E+02  0.24923101589E+02 -0.10141251089E+02  0.59301921991E+02  0.49999959810E+02 0.  0.
        -12    1    1    2    0    0  0.17108945155E+02 -0.24923101589E+02  0.10141251089E+02  0.31886078009E+02  0.00000000000E+00 0.  1.
         11    1    3    3    0    0 -0.83906876692E+01  0.30074038637E+02  0.80094418687E+01  0.32233563235E+02  0.51100000000E-03 0. -1.
        -11    1    3    3    0    0 -0.39421280784E+01  0.51181006957E+01 -0.10316727857E+01  0.65421462469E+01  0.51100000000E-03 0.  1.
        -12    1    3    3    0    0 -0.47761294075E+01 -0.10269037744E+02 -0.17119020172E+02  0.20526212509E+02  0.00000000000E+00 0.  1.
</event>
<event>
 7    1  0.7284210E-013  0.5930196E+02  0.7816164E-02  0.1266605E+00
        -11   -1    0    0    0    0  0.00000000000E+00  0.00000000000E+00  0.45593999997E+02  0.45594000000E+02  0.51100000000E-03 0. -1.
         11   -1    0    0    0    0 -0.00000000000E+00 -0.00000000000E+00 -0.45593999997E+02  0.45594000000E+02  0.51100000000E-03 0.  1.
    9900012    2    1    2    0    0 -0.17250540075E+01 -0.15441641547E+02  0.27844204000E+02  0.59301956009E+02  0.50000021851E+02 0.  0.
        -12    1    1    2    0    0  0.17250540075E+01  0.15441641547E+02 -0.27844204000E+02  0.31886043991E+02  0.00000000000E+00 0.  1.
         11    1    3    3    0    0  0.30424308222E+01  0.64462368679E+01  0.25458892688E+02  0.26437957036E+02  0.51100000000E-03 0. -1.
        -11    1    3    3    0    0 -0.45294600749E+01  0.44993738977E+01  0.68317217588E+00  0.64208331644E+01  0.51100000000E-03 0.  1.
         12    1    3    3    0    0 -0.23802475480E+00 -0.26387252312E+02  0.17021391364E+01  0.26443165809E+02  0.00000000000E+00 0. -1.
</event>
<event>
 7    1  0.7284210E-013  0.5930193E+02  0.7816164E-02  0.1266605E+00
        -11   -1    0    0    0    0  0.00000000000E+00  0.00000000000E+00  0.45593999997E+02  0.45594000000E+02  0.51100000000E-03 0. -1.
         11   -1    0    0    0    0 -0.00000000000E+00 -0.00000000000E+00 -0.45593999997E+02  0.45594000000E+02  0.51100000000E-03 0.  1.
    9900012    2    1    2    0    0  0.15279576379E+02 -0.27592794744E+02  0.46790524997E+01  0.59301932378E+02  0.49999978754E+02 0.  0.
        -12    1    1    2    0    0 -0.15279576379E+02  0.27592794744E+02 -0.46790524997E+01  0.31886067622E+02  0.00000000000E+00 0.  1.
         11    1    3    3    0    0  0.19798104352E+02 -0.26834815689E+02  0.95662453058E+01  0.34692727170E+02  0.51100000000E-03 0. -1.
        -11    1    3    3    0    0 -0.22004634160E+01 -0.10354643420E+02  0.40090975790E+01  0.11319608794E+02  0.51100000000E-03 0.  1.
        -12    1    3    3    0    0 -0.23180645577E+01  0.95966643644E+01 -0.88962903851E+01  0.13289596413E+02  0.00000000000E+00 0.  1.
</event>
<event>
 7    1  0.7284210E-013  0.5930191E+02  0.7816164E-02  0.1266605E+00
        -11   -1    0    0    0    0  0.00000000000E+00  0.00000000000E+00  0.45593999997E+02  0.45594000000E+02  0.51100000000E-03 0. -1.
         11   -1    0    0    0    0 -0.00000000000E+00 -0.00000000000E+00 -0.45593999997E+02  0.45594000000E+02  0.51100000000E-03 0.  1.
    9900012    2    1    2    0    0  0.18706330854E+02 -0.16329078438E+02  0.20003927742E+02  0.59301909902E+02  0.49999937762E+02 0.  0.
        -12    1    1    2    0    0 -0.18706330854E+02  0.16329078438E+02 -0.20003927742E+02  0.31886090098E+02  0.00000000000E+00 0.  1.
         11    1    3    3    0    0  0.95123237798E+01 -0.13290920876E+02 -0.52540993521E+01  0.17167948092E+02  0.51100000000E-03 0. -1.
        -11    1    3    3    0    0 -0.18144349600E+01 -0.99174528779E+01 -0.34268407457E+01  0.10648534339E+02  0.51100000000E-03 0.  1.
        -12    1    3    3    0    0  0.11008442035E+02  0.68792953158E+01  0.28684867840E+02  0.31485427471E+02  0.00000000000E+00 0.  1.
</event>
<event>
 7    1  0.7284210E-013  0.5930196E+02  0.7816164E-02  0.1266605E+00
        -11   -1    0    0    0    0  0.00000000000E+00  0.00000000000E+00  0.45593999997E+02  0.45594000000E+02  0.51100000000E-03 0. -1.
         11   -1    0    0    0    0 -0.00000000000E+00 -0.00000000000E+00 -0.45593999997E+02  0.45594000000E+02  0.51100000000E-03 0.  1.
    9900012    2    1    2    0    0  0.15193429741E+02  0.30204835888E+01  0.27870343769E+02  0.59301957753E+02  0.50000025031E+02 0.  0.
        -12    1    1    2    0    0 -0.15193429741E+02 -0.30204835888E+01 -0.27870343769E+02  0.31886042247E+02  0.00000000000E+00 0.  1.
         11    1    3    3    0    0 -0.63122832144E+00 -0.76497920495E+00  0.13283359339E+01  0.16577451530E+01  0.51100000000E-03 0. -1.
        -11    1    3    3    0    0 -0.39721796867E+01  0.56580262867E+01 -0.12242275556E+02  0.14059330851E+02  0.51100000000E-03 0.  1.
         12    1    3    3    0    0  0.19796837749E+02 -0.18725634929E+01  0.38784283391E+02  0.43584881749E+02  0.00000000000E+00 0. -1.
</event>
<event>
 7    1  0.7284210E-013  0.5930193E+02  0.7816164E-02  0.1266605E+00
        -11   -1    0    0    0    0  0.00000000000E+00  0.00000000000E+00  0.45593999997E+02  0.45594000000E+02  0.51100000000E-03 0. -1.
         11   -1    0    0    0    0 -0.00000000000E+00 -0.00000000000E+00 -0.45593999997E+02  0.45594000000E+02  0.51100000000E-03 0.  1.
    9900012    2    1    2    0    0  0.11112256393E+01 -0.29355854921E+02  0.12398416254E+02  0.59301925200E+02  0.49999965663E+02 0.  0.
        -12    1    1    2    0    0 -0.11112256393E+01  0.29355854921E+02 -0.12398416254E+02  0.31886074800E+02  0.00000000000E+00 0.  1.
         11    1    3    3    0    0  0.13653895483E-01  0.10396071390E+00  0.16609819394E+02  0.16610150355E+02  0.51100000000E-03 0. -1.
        -11    1    3    3    0    0  0.70303548083E+01 -0.26046618200E+02  0.84734609895E+01  0.28278114325E+02  0.51100000000E-03 0.  1.
        -12    1    3    3    0    0 -0.59327830645E+01 -0.34131974344E+01 -0.12684864129E+02  0.14413660520E+02  0.00000000000E+00 0.  1.
</event>
<event>
 7    1  0.7284210E-013  0.5930229E+02  0.7816164E-02  0.1266604E+00
        -11   -1    0    0    0    0  0.00000000000E+00  0.00000000000E+00  0.45593999997E+02  0.45594000000E+02  0.51100000000E-03 0. -1.
         11   -1    0    0    0    0 -0.00000000000E+00 -0.00000000000E+00 -0.45593999997E+02  0.45594000000E+02  0.51100000000E-03 0.  1.
    9900012    2    1    2    0    0 -0.11135943959E+02  0.28234207425E+02 -0.97733854719E+01  0.59302285638E+02  0.50000623012E+02 0.  0.
        -12    1    1    2    0    0  0.11135943959E+02 -0.28234207425E+02  0.97733854719E+01  0.31885714362E+02  0.00000000000E+00 0.  1.
         11    1    3    3    0    0 -0.17057139940E+02 -0.39162787386E+01  0.34203718259E+01  0.17832055568E+02  0.51100000000E-03 0. -1.
        -11    1    3    3    0    0  0.14763995505E+01  0.17467767327E+02 -0.18261857656E+02  0.25313990130E+02  0.51100000000E-03 0.  1.
        -12    1    3    3    0    0  0.44447964304E+01  0.14682718837E+02  0.50681003583E+01  0.16156239940E+02  0.00000000000E+00 0.  1.
</event>
<event>
 7    1  0.7284210E-013  0.5930193E+02  0.7816164E-02  0.1266605E+00
        -11   -1    0    0    0    0  0.00000000000E+00  0.00000000000E+00  0.45593999997E+02  0.45594000000E+02  0.51100000000E-03 0. -1.
         11   -1    0    0    0    0 -0.00000000000E+00 -0.00000000000E+00 -0.45593999997E+02  0.45594000000E+02  0.51100000000E-03 0.  1.
    9900012    2    1    2    0    0  0.10376853582E+02  0.18163667768E+02  0.24064981185E+02  0.59301933505E+02  0.49999980810E+02 0.  0.
        -12    1    1    2    0    0 -0.10376853582E+02 -0.18163667768E+02 -0.24064981185E+02  0.31886066495E+02  0.00000000000E+00 0.  1.
         11    1    3    3    0    0 -0.31518128848E+00  0.20108013250E+02  0.11921635518E+02  0.23378557051E+02  0.51100000000E-03 0. -1.
        -11    1    3    3    0    0  0.93585853357E+01  0.13592434710E+02  0.58512897701E+00  0.16513018410E+02  0.51100000000E-03 0.  1.
         12    1    3    3    0    0  0.13334495350E+01 -0.15536780191E+02  0.11558216690E+02  0.19410358045E+02  0.00000000000E+00 0. -1.
</event>
<event>
 7    1  0.7284210E-013  0.5930194E+02  0.7816164E-02  0.1266605E+00
        -11   -1    0    0    0    0  0.00000000000E+00  0.00000000000E+00  0.45593999997E+02  0.45594000000E+02  0.51100000000E-03 0. -1.
         11   -1    0    0    0    0 -0.00000000000E+00 -0.00000000000E+00 -0.45593999997E+02  0.45594000000E+02  0.51100000000E-03 0.  1.
    9900012    2    1    2    0    0 -0.48784675981E+01 -0.85232169438E+01  0.30336049815E+02  0.59301943619E+02  0.49999999254E+02 0.  0.
        -12    1    1    2    0    0  0.48784675981E+01  0.85232169438E+01 -0.30336049815E+02  0.31886056381E+02  0.00000000000E+00 0.  1.
         11    1    3    3    0    0  0.17207779499E+02 -0.99063819508E+01  0.10723412942E+02  0.22566250553E+02  0.51100000000E-03 0. -1.
        -11    1    3    3    0    0 -0.28509038793E+01  0.28233704322E+01 -0.43870232702E+01  0.59451700531E+01  0.51100000000E-03 0.  1.
         12    1    3    3    0    0 -0.19235343218E+02 -0.14402054252E+01  0.23999660143E+02  0.30790523012E+02  0.00000000000E+00 0. -1.
</event>
<event>
 7    1  0.7284210E-013  0.5930194E+02  0.7816164E-02  0.1266605E+00
        -11   -1    0    0    0    0  0.00000000000E+00  0.00000000000E+00  0.45593999997E+02  0.45594000000E+02  0.51100000000E-03 0. -1.
         11   -1    0    0    0    0 -0.00000000000E+00 -0.00000000000E+00 -0.45593999997E+02  0.45594000000E+02  0.51100000000E-03 0.  1.
    9900012    2    1    2    0    0 -0.38553722375E+01  0.29493720192E+02  0.11488154046E+02  0.59301935501E+02  0.49999984449E+02 0.  0.
        -12    1    1    2    0    0  0.38553722375E+01 -0.29493720192E+02 -0.11488154046E+02  0.31886064499E+02  0.00000000000E+00 0.  1.
         11    1    3    3    0    0 -0.18036770334E+02  0.25053035385E+02  0.55651715014E+01  0.31367990056E+02  0.51100000000E-03 0. -1.
        -11    1    3    3    0    0  0.20458114353E+01  0.73615641455E+01 -0.67142771877E+01  0.10171503798E+02  0.51100000000E-03 0.  1.
         12    1    3    3    0    0  0.12135586661E+02 -0.29208793384E+01  0.12637259733E+02  0.17762441647E+02  0.00000000000E+00 0. -1.
</event>
<event>
 7    1  0.7284210E-013  0.5930191E+02  0.7816164E-02  0.1266605E+00
        -11   -1    0    0    0    0  0.00000000000E+00  0.00000000000E+00  0.45593999997E+02  0.45594000000E+02  0.51100000000E-03 0.  1.
         11   -1    0    0    0    0 -0.00000000000E+00 -0.00000000000E+00 -0.45593999997E+02  0.45594000000E+02  0.51100000000E-03 0. -1.
    9900012    2    1    2    0    0  0.35137457247E+01 -0.13605568342E+02 -0.28622797489E+02  0.59301914712E+02  0.49999946535E+02 0.  0.
        -12    1    1    2    0    0 -0.35137457247E+01  0.13605568342E+02  0.28622797489E+02  0.31886085288E+02  0.00000000000E+00 0.  1.
         11    1    3    3    0    0  0.14436552377E+02 -0.30599109616E+01 -0.19737882856E+02  0.24644697595E+02  0.51100000000E-03 0. -1.
        -11    1    3    3    0    0  0.82638482776E+01  0.36756544855E+01 -0.53671794925E+01  0.10517045223E+02  0.51100000000E-03 0.  1.
         12    1    3    3    0    0 -0.19186654930E+02 -0.14221311866E+02 -0.35177351401E+01  0.24140171894E+02  0.00000000000E+00 0. -1.
</event>
<event>
 7    1  0.7284210E-013  0.5930182E+02  0.7816164E-02  0.1266605E+00
        -11   -1    0    0    0    0  0.00000000000E+00  0.00000000000E+00  0.45593999997E+02  0.45594000000E+02  0.51100000000E-03 0. -1.
         11   -1    0    0    0    0 -0.00000000000E+00 -0.00000000000E+00 -0.45593999997E+02  0.45594000000E+02  0.51100000000E-03 0.  1.
    9900012    2    1    2    0    0 -0.14086946389E+01  0.28878803584E+02  0.13444653001E+02  0.59301820999E+02  0.49999775624E+02 0.  0.
        -12    1    1    2    0    0  0.14086946389E+01 -0.28878803584E+02 -0.13444653001E+02  0.31886179001E+02  0.00000000000E+00 0.  1.
         11    1    3    3    0    0 -0.76480643995E+01 -0.18747988794E+01  0.52406017638E+01  0.94589464004E+01  0.51100000000E-03 0. -1.
        -11    1    3    3    0    0  0.13480947237E+02 -0.12661410762E+01  0.10202396416E+02  0.16953700025E+02  0.51100000000E-03 0.  1.
        -12    1    3    3    0    0 -0.72415774767E+01  0.32019743539E+02 -0.19983451794E+01  0.32889174573E+02  0.00000000000E+00 0.  1.
</event>
<event>
 7    1  0.7284210E-013  0.5930197E+02  0.7816164E-02  0.1266605E+00
        -11   -1    0    0    0    0  0.00000000000E+00  0.00000000000E+00  0.45593999997E+02  0.45594000000E+02  0.51100000000E-03 0. -1.
         11   -1    0    0    0    0 -0.00000000000E+00 -0.00000000000E+00 -0.45593999997E+02  0.45594000000E+02  0.51100000000E-03 0.  1.
    9900012    2    1    2    0    0  0.15821774203E+01 -0.31029219008E+02 -0.71696157843E+01  0.59301966880E+02  0.50000041677E+02 0.  0.
        -12    1    1    2    0    0 -0.15821774203E+01  0.31029219008E+02  0.71696157843E+01  0.31886033120E+02  0.00000000000E+00 0.  1.
         11    1    3    3    0    0  0.54928394851E+01 -0.24962207686E+01 -0.15586213922E+02  0.16713242307E+02  0.51100000000E-03 0. -1.
        -11    1    3    3    0    0 -0.12894987229E+02 -0.21493519170E+01 -0.11447394665E+01  0.13122912711E+02  0.51100000000E-03 0.  1.
         12    1    3    3    0    0  0.89843251645E+01 -0.26383646322E+02  0.95613376043E+01  0.29465811862E+02  0.00000000000E+00 0. -1.
</event>
<event>
 7    1  0.7284210E-013  0.5930192E+02  0.7816164E-02  0.1266605E+00
        -11   -1    0    0    0    0  0.00000000000E+00  0.00000000000E+00  0.45593999997E+02  0.45594000000E+02  0.51100000000E-03 0.  1.
         11   -1    0    0    0    0 -0.00000000000E+00 -0.00000000000E+00 -0.45593999997E+02  0.45594000000E+02  0.51100000000E-03 0. -1.
    9900012    2    1    2    0    0 -0.30600811625E+02 -0.67499991725E+01  0.58948842194E+01  0.59301924342E+02  0.49999964097E+02 0.  0.
        -12    1    1    2    0    0  0.30600811625E+02  0.67499991725E+01 -0.58948842194E+01  0.31886075658E+02  0.00000000000E+00 0.  1.
         11    1    3    3    0    0 -0.11161295697E+02 -0.60891615743E+01 -0.11633580768E+02  0.17233473592E+02  0.51100000000E-03 0. -1.
        -11    1    3    3    0    0 -0.15928512485E+02 -0.91184437563E+01 -0.39014779682E+01  0.18763929682E+02  0.51100000000E-03 0.  1.
        -12    1    3    3    0    0 -0.35110034434E+01  0.84576061581E+01  0.21429942956E+02  0.23304521067E+02  0.00000000000E+00 0.  1.
</event>
<event>
 7    1  0.7284210E-013  0.5930187E+02  0.7816164E-02  0.1266605E+00
        -11   -1    0    0    0    0  0.00000000000E+00  0.00000000000E+00  0.45593999997E+02  0.45594000000E+02  0.51100000000E-03 0. -1.
         11   -1    0    0    0    0 -0.00000000000E+00 -0.00000000000E+00 -0.45593999997E+02  0.45594000000E+02  0.51100000000E-03 0.  1.
    9900012    2    1    2    0    0  0.24966611567E+02  0.18494611953E+02 -0.71654104344E+01  0.59301867103E+02  0.49999859707E+02 0.  0.
        -12    1    1    2    0    0 -0.24966611567E+02 -0.18494611953E+02  0.71654104344E+01  0.31886132897E+02  0.00000000000E+00 0.  1.
         11    1    3    3    0    0  0.89019187080E+01 -0.48004167389E+01 -0.90749315039E+01  0.13588323650E+02  0.51100000000E-03 0. -1.
        -11    1    3    3    0    0  0.24227830905E+02  0.41534571279E+01  0.35642096215E+01  0.24838328989E+02  0.51100000000E-03 0.  1.
        -12    1    3    3    0    0 -0.81631380462E+01  0.19141571564E+02 -0.16546885520E+01  0.20875214464E+02  0.00000000000E+00 0.  1.
</event>
<event>
 7    1  0.7284210E-013  0.5930196E+02  0.7816164E-02  0.1266605E+00
        -11   -1    0    0    0    0  0.00000000000E+00  0.00000000000E+00  0.45593999997E+02  0.45594000000E+02  0.51100000000E-03 0.  1.
         11   -1    0    0    0    0 -0.00000000000E+00 -0.00000000000E+00 -0.45593999997E+02  0.45594000000E+02  0.51100000000E-03 0. -1.
    9900012    2    1    2    0    0 -0.13503974650E+02  0.10908985193E+02 -0.26746146447E+02  0.59301958555E+02  0.50000026494E+02 0.  0.
        -12    1    1    2    0    0  0.13503974650E+02 -0.10908985193E+02  0.26746146447E+02  0.31886041445E+02  0.00000000000E+00 0.  1.
         11    1    3    3    0    0 -0.36930769528E+00 -0.28288039876E+01 -0.35169940313E+01  0.45285502593E+01  0.51100000000E-03 0. -1.
        -11    1    3    3    0    0  0.76762165097E+01  0.13572785508E+01 -0.28875113280E+02  0.29908839365E+02  0.51100000000E-03 0.  1.
         12    1    3    3    0    0 -0.20810883464E+02  0.12380510630E+02  0.56459608641E+01  0.24864568931E+02  0.00000000000E+00 0. -1.
</event>
<event>
 7    1  0.7284210E-013  0.5930199E+02  0.7816164E-02  0.1266605E+00
        -11   -1    0    0    0    0  0.00000000000E+00  0.00000000000E+00  0.45593999997E+02  0.45594000000E+02  0.51100000000E-03 0. -1.
         11   -1    0    0    0    0 -0.00000000000E+00 -0.00000000000E+00 -0.45593999997E+02  0.45594000000E+02  0.51100000000E-03 0.  1.
    9900012    2    1    2    0    0  0.63737817205E+01 -0.29785800469E+02  0.94285909462E+01  0.59301994759E+02  0.50000092521E+02 0.  0.
        -12    1    1    2    0    0 -0.63737817205E+01  0.29785800469E+02 -0.94285909462E+01  0.31886005241E+02  0.00000000000E+00 0.  1.
         11    1    3    3    0    0 -0.28446729533E+01  0.82165120339E+01  0.31128616594E+01  0.92354286412E+01  0.51100000000E-03 0. -1.
        -11    1    3    3    0    0  0.14786363534E+02 -0.26792757920E+02 -0.74146777823E+01  0.31487551038E+02  0.51100000000E-03 0.  1.
         12    1    3    3    0    0 -0.55679088604E+01 -0.11209554584E+02  0.13730407069E+02  0.18579015080E+02  0.00000000000E+00 0. -1.
</event>
<event>
 7    1  0.7284210E-013  0.5930189E+02  0.7816164E-02  0.1266605E+00
        -11   -1    0    0    0    0  0.00000000000E+00  0.00000000000E+00  0.45593999997E+02  0.45594000000E+02  0.51100000000E-03 0.  1.
         11   -1    0    0    0    0 -0.00000000000E+00 -0.00000000000E+00 -0.45593999997E+02  0.45594000000E+02  0.51100000000E-03 0. -1.
    9900012    2    1    2    0    0 -0.36347112002E+01  0.26845742622E+02 -0.16817223618E+02  0.59301889659E+02  0.49999900844E+02 0.  0.
        -12    1    1    2    0    0  0.36347112002E+01 -0.26845742622E+02  0.16817223618E+02  0.31886110341E+02  0.00000000000E+00 0.  1.
         11    1    3    3    0    0  0.12806768182E+02  0.27534209254E+02 -0.23919182129E+01  0.30460913701E+02  0.51100000000E-03 0. -1.
        -11    1    3    3    0    0 -0.60461306660E+01 -0.93825038116E+01 -0.44612386290E+01  0.12020387854E+02  0.51100000000E-03 0.  1.
        -12    1    3    3    0    0 -0.10395348716E+02  0.86940371801E+01 -0.99640667763E+01  0.16820588103E+02  0.00000000000E+00 0.  1.
</event>
<event>
 7    1  0.7284210E-013  0.5930193E+02  0.7816164E-02  0.1266605E+00
        -11   -1    0    0    0    0  0.00000000000E+00  0.00000000000E+00  0.45593999997E+02  0.45594000000E+02  0.51100000000E-03 0. -1.
         11   -1    0    0    0    0 -0.00000000000E+00 -0.00000000000E+00 -0.45593999997E+02  0.45594000000E+02  0.51100000000E-03 0.  1.
    9900012    2    1    2    0    0 -0.11501436458E+01  0.28374152187E+02  0.14501932693E+02  0.59301931027E+02  0.49999976290E+02 0.  0.
        -12    1    1    2    0    0  0.11501436458E+01 -0.28374152187E+02 -0.14501932693E+02  0.31886068973E+02  0.00000000000E+00 0.  1.
         11    1    3    3    0    0 -0.60494612379E+01 -0.12129429012E+01  0.55229993416E+01  0.82807447575E+01  0.51100000000E-03 0. -1.
        -11    1    3    3    0    0  0.16163100877E+00 -0.99681042337E+01 -0.79735074260E+00  0.10001249675E+02  0.51100000000E-03 0.  1.
        -12    1    3    3    0    0  0.47376865833E+01  0.39555199322E+02  0.97762840938E+01  0.41019936594E+02  0.00000000000E+00 0.  1.
</event>
<event>
 7    1  0.7284210E-013  0.5930193E+02  0.7816164E-02  0.1266605E+00
        -11   -1    0    0    0    0  0.00000000000E+00  0.00000000000E+00  0.45593999997E+02  0.45594000000E+02  0.51100000000E-03 0.  1.
         11   -1    0    0    0    0 -0.00000000000E+00 -0.00000000000E+00 -0.45593999997E+02  0.45594000000E+02  0.51100000000E-03 0. -1.
    9900012    2    1    2    0    0 -0.14382396997E+02  0.27781434330E+02  0.61692629056E+01  0.59301933425E+02  0.49999980663E+02 0.  0.
        -12    1    1    2    0    0  0.14382396997E+02 -0.27781434330E+02 -0.61692629056E+01  0.31886066575E+02  0.00000000000E+00 0.  1.
         11    1    3    3    0    0 -0.11888002447E-01  0.30874010737E+02 -0.83447905151E+01  0.31981873137E+02  0.51100000000E-03 0. -1.
        -11    1    3    3    0    0 -0.29092810913E+01  0.52771453689E+01 -0.12017678722E+01  0.61446257813E+01  0.51100000000E-03 0.  1.
        -12    1    3    3    0    0 -0.11461227903E+02 -0.83697217757E+01  0.15715821293E+02  0.21175434507E+02  0.00000000000E+00 0.  1.
</event>
<event>
 7    1  0.7284210E-013  0.5930188E+02  0.7816164E-02  0.1266605E+00
        -11   -1    0    0    0    0  0.00000000000E+00  0.00000000000E+00  0.45593999997E+02  0.45594000000E+02  0.51100000000E-03 0.  1.
         11   -1    0    0    0    0 -0.00000000000E+00 -0.00000000000E+00 -0.45593999997E+02  0.45594000000E+02  0.51100000000E-03 0. -1.
    9900012    2    1    2    0    0  0.31315001893E+02  0.33068147493E+01 -0.50159763410E+01  0.59301884118E+02  0.49999890739E+02 0.  0.
        -12    1    1    2    0    0 -0.31315001893E+02 -0.33068147493E+01  0.50159763410E+01  0.31886115882E+02  0.00000000000E+00 0.  1.
         11    1    3    3    0    0 -0.26430648567E+00 -0.89205428823E+01 -0.45097765913E+01  0.99992013880E+01  0.51100000000E-03 0. -1.
        -11    1    3    3    0    0  0.15633545902E+02  0.80397587287E+01  0.17558079869E+02  0.24846159599E+02  0.51100000000E-03 0.  1.
         12    1    3    3    0    0  0.15945762477E+02  0.41875989029E+01 -0.18064279618E+02  0.24456523131E+02  0.00000000000E+00 0. -1.
</event>
<event>
 7    1  0.7284210E-013  0.5930193E+02  0.7816164E-02  0.1266605E+00
        -11   -1    0    0    0    0  0.00000000000E+00  0.00000000000E+00  0.45593999997E+02  0.45594000000E+02  0.51100000000E-03 0.  1.
         11   -1    0    0    0    0 -0.00000000000E+00 -0.00000000000E+00 -0.45593999997E+02  0.45594000000E+02  0.51100000000E-03 0. -1.
    9900012    2    1    2    0    0 -0.15156986315E+02 -0.25121970760E+02 -0.12484936027E+02  0.59301932876E+02  0.49999979662E+02 0.  0.
        -12    1    1    2    0    0  0.15156986315E+02  0.25121970760E+02  0.12484936027E+02  0.31886067124E+02  0.00000000000E+00 0.  1.
         11    1    3    3    0    0 -0.66457906517E+01 -0.46568017265E+01 -0.71896509764E+01  0.10841744192E+02  0.51100000000E-03 0.  1.
        -11    1    3    3    0    0 -0.11676042012E+02 -0.33118935022E+02 -0.34305659734E+01  0.35284027508E+02  0.51100000000E-03 0. -1.
        -12    1    3    3    0    0  0.31648463487E+01  0.12653765988E+02 -0.18647190768E+01  0.13176161176E+02  0.00000000000E+00 0.  1.
</event>
<event>
 7    1  0.7284210E-013  0.5930194E+02  0.7816164E-02  0.1266605E+00
        -11   -1    0    0    0    0  0.00000000000E+00  0.00000000000E+00  0.45593999997E+02  0.45594000000E+02  0.51100000000E-03 0.  1.
         11   -1    0    0    0    0 -0.00000000000E+00 -0.00000000000E+00 -0.45593999997E+02  0.45594000000E+02  0.51100000000E-03 0. -1.
    9900012    2    1    2    0    0 -0.46309187030E+01  0.25590212268E+02 -0.18450370047E+02  0.59301944634E+02  0.50000001105E+02 0.  0.
        -12    1    1    2    0    0  0.46309187030E+01 -0.25590212268E+02  0.18450370047E+02  0.31886055366E+02  0.00000000000E+00 0.  1.
         11    1    3    3    0    0 -0.47499078661E+01  0.80753687219E+01 -0.28775438763E+02  0.30262172444E+02  0.51100000000E-03 0. -1.
        -11    1    3    3    0    0 -0.25536408005E+01  0.15569902234E+02 -0.23399746970E+01  0.15950499013E+02  0.51100000000E-03 0.  1.
        -12    1    3    3    0    0  0.26726299637E+01  0.19449413117E+01  0.12665043413E+02  0.13089273177E+02  0.00000000000E+00 0.  1.
</event>
<event>
 7    1  0.7284210E-013  0.5930194E+02  0.7816164E-02  0.1266605E+00
        -11   -1    0    0    0    0  0.00000000000E+00  0.00000000000E+00  0.45593999997E+02  0.45594000000E+02  0.51100000000E-03 0. -1.
         11   -1    0    0    0    0 -0.00000000000E+00 -0.00000000000E+00 -0.45593999997E+02  0.45594000000E+02  0.51100000000E-03 0.  1.
    9900012    2    1    2    0    0 -0.16480653723E+02  0.25858156158E+02  0.87443933890E+01  0.59301943443E+02  0.49999998933E+02 0.  0.
        -12    1    1    2    0    0  0.16480653723E+02 -0.25858156158E+02 -0.87443933890E+01  0.31886056557E+02  0.00000000000E+00 0.  1.
         11    1    3    3    0    0  0.72695198018E+01  0.13057343617E+01  0.13555714937E+02  0.15437236413E+02  0.51100000000E-03 0. -1.
        -11    1    3    3    0    0 -0.14059371758E+02  0.16019064851E+01  0.75667968049E+01  0.16046446733E+02  0.51100000000E-03 0.  1.
         12    1    3    3    0    0 -0.96908017672E+01  0.22950515311E+02 -0.12378118353E+02  0.27818260296E+02  0.00000000000E+00 0. -1.
</event>
<event>
 7    1  0.7284210E-013  0.5930194E+02  0.7816164E-02  0.1266605E+00
        -11   -1    0    0    0    0  0.00000000000E+00  0.00000000000E+00  0.45593999997E+02  0.45594000000E+02  0.51100000000E-03 0.  1.
         11   -1    0    0    0    0 -0.00000000000E+00 -0.00000000000E+00 -0.45593999997E+02  0.45594000000E+02  0.51100000000E-03 0. -1.
    9900012    2    1    2    0    0  0.12482084539E+02 -0.25088060821E+02 -0.15215375614E+02  0.59301939013E+02  0.49999990855E+02 0.  0.
        -12    1    1    2    0    0 -0.12482084539E+02  0.25088060821E+02  0.15215375614E+02  0.31886060987E+02  0.00000000000E+00 0.  1.
         11    1    3    3    0    0  0.13687812715E+02 -0.55289551404E+01 -0.24824316678E+01  0.14969570105E+02  0.51100000000E-03 0. -1.
        -11    1    3    3    0    0  0.34343673905E+01 -0.19135685028E+02  0.94845222414E+01  0.21631585316E+02  0.51100000000E-03 0.  1.
         12    1    3    3    0    0 -0.46400955674E+01 -0.42342065263E+00 -0.22217466187E+02  0.22700783593E+02  0.00000000000E+00 0. -1.
</event>
<event>
 7    1  0.7284210E-013  0.5930193E+02  0.7816164E-02  0.1266605E+00
        -11   -1    0    0    0    0  0.00000000000E+00  0.00000000000E+00  0.45593999997E+02  0.45594000000E+02  0.51100000000E-03 0.  1.
         11   -1    0    0    0    0 -0.00000000000E+00 -0.00000000000E+00 -0.45593999997E+02  0.45594000000E+02  0.51100000000E-03 0. -1.
    9900012    2    1    2    0    0 -0.54073417094E+01 -0.42085748781E+01 -0.31141126214E+02  0.59301934254E+02  0.49999982176E+02 0.  0.
        -12    1    1    2    0    0  0.54073417094E+01  0.42085748781E+01  0.31141126214E+02  0.31886065746E+02  0.00000000000E+00 0.  1.
         11    1    3    3    0    0 -0.13127256676E+02 -0.51403083429E+01  0.55813953715E+01  0.15162440841E+02  0.51100000000E-03 0. -1.
        -11    1    3    3    0    0 -0.53484169192E+01 -0.71256169074E+01 -0.16472129130E+02  0.18727280053E+02  0.51100000000E-03 0.  1.
        -12    1    3    3    0    0  0.13068331885E+02  0.80573503722E+01 -0.20250392456E+02  0.25412213361E+02  0.00000000000E+00 0.  1.
</event>
<event>
 7    1  0.7284210E-013  0.5930194E+02  0.7816164E-02  0.1266605E+00
        -11   -1    0    0    0    0  0.00000000000E+00  0.00000000000E+00  0.45593999997E+02  0.45594000000E+02  0.51100000000E-03 0.  1.
         11   -1    0    0    0    0 -0.00000000000E+00 -0.00000000000E+00 -0.45593999997E+02  0.45594000000E+02  0.51100000000E-03 0. -1.
    9900012    2    1    2    0    0 -0.10363829901E+02  0.62294582676E+01 -0.29504335266E+02  0.59301938468E+02  0.49999989861E+02 0.  0.
        -12    1    1    2    0    0  0.10363829901E+02 -0.62294582676E+01  0.29504335266E+02  0.31886061532E+02  0.00000000000E+00 0.  1.
         11    1    3    3    0    0  0.10992454883E+02  0.54496836428E+01 -0.73778449639E+01  0.14316623650E+02  0.51100000000E-03 0. -1.
        -11    1    3    3    0    0 -0.85318041194E+01  0.62424200090E+01  0.70109790467E+01  0.12685161274E+02  0.51100000000E-03 0.  1.
         12    1    3    3    0    0 -0.12824480665E+02 -0.54626453841E+01 -0.29137469349E+02  0.32300153544E+02  0.00000000000E+00 0. -1.
</event>
<event>
 7    1  0.7284210E-013  0.5930191E+02  0.7816164E-02  0.1266605E+00
        -11   -1    0    0    0    0  0.00000000000E+00  0.00000000000E+00  0.45593999997E+02  0.45594000000E+02  0.51100000000E-03 0.  1.
         11   -1    0    0    0    0 -0.00000000000E+00 -0.00000000000E+00 -0.45593999997E+02  0.45594000000E+02  0.51100000000E-03 0. -1.
    9900012    2    1    2    0    0 -0.18170038549E+02 -0.11184168104E+02 -0.23695711819E+02  0.59301910938E+02  0.49999939652E+02 0.  0.
        -12    1    1    2    0    0  0.18170038549E+02  0.11184168104E+02  0.23695711819E+02  0.31886089062E+02  0.00000000000E+00 0.  1.
         11    1    3    3    0    0  0.11917011723E+02  0.87906388165E+00  0.68597617473E+00  0.11969063676E+02  0.51100000000E-03 0. -1.
        -11    1    3    3    0    0 -0.21160544804E+01 -0.11574675325E+02 -0.11781392856E+02  0.16650886263E+02  0.51100000000E-03 0.  1.
        -12    1    3    3    0    0 -0.27970995792E+02 -0.48855666000E+00 -0.12600295138E+02  0.30681960999E+02  0.00000000000E+00 0.  1.
</event>
<event>
 7    1  0.7284210E-013  0.5930198E+02  0.7816164E-02  0.1266605E+00
        -11   -1    0    0    0    0  0.00000000000E+00  0.00000000000E+00  0.45593999997E+02  0.45594000000E+02  0.51100000000E-03 0. -1.
         11   -1    0    0    0    0 -0.00000000000E+00 -0.00000000000E+00 -0.45593999997E+02  0.45594000000E+02  0.51100000000E-03 0.  1.
    9900012    2    1    2    0    0  0.27506150531E+02  0.13960751098E+02  0.80763650665E+01  0.59301975460E+02  0.50000057325E+02 0.  0.
        -12    1    1    2    0    0 -0.27506150531E+02 -0.13960751098E+02 -0.80763650665E+01  0.31886024540E+02  0.00000000000E+00 0.  1.
         11    1    3    3    0    0  0.25023327452E+02  0.10302226939E+02 -0.39409900425E+01  0.27346557360E+02  0.51100000000E-03 0. -1.
        -11    1    3    3    0    0 -0.19900600617E+01 -0.14848285155E+01 -0.92734626117E+01  0.96001126994E+01  0.51100000000E-03 0.  1.
         12    1    3    3    0    0  0.44728831410E+01  0.51433526744E+01  0.21290817721E+02  0.22355305400E+02  0.00000000000E+00 0. -1.
</event>
<event>
 7    1  0.7284210E-013  0.5930191E+02  0.7816164E-02  0.1266605E+00
        -11   -1    0    0    0    0  0.00000000000E+00  0.00000000000E+00  0.45593999997E+02  0.45594000000E+02  0.51100000000E-03 0. -1.
         11   -1    0    0    0    0 -0.00000000000E+00 -0.00000000000E+00 -0.45593999997E+02  0.45594000000E+02  0.51100000000E-03 0.  1.
    9900012    2    1    2    0    0 -0.36671580887E+01  0.28730298418E+02  0.13335846125E+02  0.59301907616E+02  0.49999933594E+02 0.  0.
        -12    1    1    2    0    0  0.36671580887E+01 -0.28730298418E+02 -0.13335846125E+02  0.31886092384E+02  0.00000000000E+00 0.  1.
         11    1    3    3    0    0 -0.56664161442E+01 -0.40317625263E+01  0.72182778372E+01  0.10023318621E+02  0.51100000000E-03 0. -1.
        -11    1    3    3    0    0  0.98984879170E+01 -0.29438116857E+01 -0.44025688018E+01  0.11226250603E+02  0.51100000000E-03 0.  1.
         12    1    3    3    0    0 -0.78992298614E+01  0.35705872630E+02  0.10520137089E+02  0.38052338392E+02  0.00000000000E+00 0. -1.
</event>
<event>
 7    1  0.7284210E-013  0.5930200E+02  0.7816164E-02  0.1266605E+00
        -11   -1    0    0    0    0  0.00000000000E+00  0.00000000000E+00  0.45593999997E+02  0.45594000000E+02  0.51100000000E-03 0.  1.
         11   -1    0    0    0    0 -0.00000000000E+00 -0.00000000000E+00 -0.45593999997E+02  0.45594000000E+02  0.51100000000E-03 0. -1.
    9900012    2    1    2    0    0  0.16251706517E+02 -0.24538986602E+02 -0.12265284962E+02  0.59301999257E+02  0.50000100725E+02 0.  0.
        -12    1    1    2    0    0 -0.16251706517E+02  0.24538986602E+02  0.12265284962E+02  0.31886000743E+02  0.00000000000E+00 0.  1.
         11    1    3    3    0    0  0.10940353069E+02  0.12337265962E+02 -0.10655185569E+02  0.19632433280E+02  0.51100000000E-03 0. -1.
        -11    1    3    3    0    0  0.94568757292E+01 -0.24014781370E+02 -0.34219073414E+01  0.26035584743E+02  0.51100000000E-03 0.  1.
        -12    1    3    3    0    0 -0.41455222817E+01 -0.12861471194E+02  0.18118079480E+01  0.13633981235E+02  0.00000000000E+00 0.  1.
</event>
<event>
 7    1  0.7284210E-013  0.5930194E+02  0.7816164E-02  0.1266605E+00
        -11   -1    0    0    0    0  0.00000000000E+00  0.00000000000E+00  0.45593999997E+02  0.45594000000E+02  0.51100000000E-03 0.  1.
         11   -1    0    0    0    0 -0.00000000000E+00 -0.00000000000E+00 -0.45593999997E+02  0.45594000000E+02  0.51100000000E-03 0. -1.
    9900012    2    1    2    0    0 -0.22929876850E+01  0.25621410803E+02 -0.18841604963E+02  0.59301944088E+02  0.50000000109E+02 0.  0.
        -12    1    1    2    0    0  0.22929876850E+01 -0.25621410803E+02  0.18841604963E+02  0.31886055912E+02  0.00000000000E+00 0.  1.
         11    1    3    3    0    0 -0.42763020523E+01  0.53165937742E+01 -0.18739434917E+02  0.19942902243E+02  0.51100000000E-03 0. -1.
        -11    1    3    3    0    0  0.14410598791E+02  0.43656813673E+01 -0.87056040481E+01  0.17392874214E+02  0.51100000000E-03 0.  1.
        -12    1    3    3    0    0 -0.12427284423E+02  0.15939135662E+02  0.86034340020E+01  0.21966167631E+02  0.00000000000E+00 0.  1.
</event>
<event>
 7    1  0.7284210E-013  0.5930194E+02  0.7816164E-02  0.1266605E+00
        -11   -1    0    0    0    0  0.00000000000E+00  0.00000000000E+00  0.45593999997E+02  0.45594000000E+02  0.51100000000E-03 0. -1.
         11   -1    0    0    0    0 -0.00000000000E+00 -0.00000000000E+00 -0.45593999997E+02  0.45594000000E+02  0.51100000000E-03 0.  1.
    9900012    2    1    2    0    0 -0.23714135571E+02  0.19944373608E+02  0.75221463466E+01  0.59301937995E+02  0.49999988998E+02 0.  0.
        -12    1    1    2    0    0  0.23714135571E+02 -0.19944373608E+02 -0.75221463466E+01  0.31886062005E+02  0.00000000000E+00 0.  1.
         11    1    3    3    0    0  0.56460315037E+01  0.29323978333E+01 -0.11598800771E+01  0.64669893187E+01  0.51100000000E-03 0. -1.
        -11    1    3    3    0    0 -0.84818369071E+01  0.20067922413E+02 -0.10620202825E+02  0.24237404474E+02  0.51100000000E-03 0.  1.
         12    1    3    3    0    0 -0.20878330168E+02 -0.30559466386E+01  0.19302229249E+02  0.28597544203E+02  0.00000000000E+00 0. -1.
</event>
<event>
 7    1  0.7284210E-013  0.5930194E+02  0.7816164E-02  0.1266605E+00
        -11   -1    0    0    0    0  0.00000000000E+00  0.00000000000E+00  0.45593999997E+02  0.45594000000E+02  0.51100000000E-03 0.  1.
         11   -1    0    0    0    0 -0.00000000000E+00 -0.00000000000E+00 -0.45593999997E+02  0.45594000000E+02  0.51100000000E-03 0. -1.
    9900012    2    1    2    0    0  0.25990428894E+02 -0.14965841515E+02 -0.10827839446E+02  0.59301938572E+02  0.49999990049E+02 0.  0.
        -12    1    1    2    0    0 -0.25990428894E+02  0.14965841515E+02  0.10827839446E+02  0.31886061428E+02  0.00000000000E+00 0.  1.
         11    1    3    3    0    0  0.22804927535E+02 -0.35923766706E+01 -0.19440148254E+01  0.23167845906E+02  0.51100000000E-03 0. -1.
        -11    1    3    3    0    0  0.53263846439E+01  0.29534268677E+01 -0.18010757921E+02  0.19012640658E+02  0.51100000000E-03 0.  1.
        -12    1    3    3    0    0 -0.21408832854E+01 -0.14326891713E+02  0.91269333004E+01  0.17121452008E+02  0.00000000000E+00 0.  1.
</event>
<event>
 7    1  0.7284210E-013  0.5930191E+02  0.7816164E-02  0.1266605E+00
        -11   -1    0    0    0    0  0.00000000000E+00  0.00000000000E+00  0.45593999997E+02  0.45594000000E+02  0.51100000000E-03 0.  1.
         11   -1    0    0    0    0 -0.00000000000E+00 -0.00000000000E+00 -0.45593999997E+02  0.45594000000E+02  0.51100000000E-03 0. -1.
    9900012    2    1    2    0    0  0.29007941948E+02 -0.10916867527E+02  0.74889221785E+01  0.59301911371E+02  0.49999940442E+02 0.  0.
        -12    1    1    2    0    0 -0.29007941948E+02  0.10916867527E+02 -0.74889221785E+01  0.31886088629E+02  0.00000000000E+00 0.  1.
         11    1    3    3    0    0  0.15329892714E+02  0.88629573195E+01  0.10761586605E+02  0.20721229925E+02  0.51100000000E-03 0. -1.
        -11    1    3    3    0    0  0.13227350105E+02  0.40180460761E+01  0.25958291790E+01  0.14065767468E+02  0.51100000000E-03 0.  1.
        -12    1    3    3    0    0  0.45069912855E+00 -0.23797870923E+02 -0.58684936058E+01  0.24514913978E+02  0.00000000000E+00 0.  1.
</event>
<event>
 7    1  0.7284210E-013  0.5930198E+02  0.7816164E-02  0.1266605E+00
        -11   -1    0    0    0    0  0.00000000000E+00  0.00000000000E+00  0.45593999997E+02  0.45594000000E+02  0.51100000000E-03 0.  1.
         11   -1    0    0    0    0 -0.00000000000E+00 -0.00000000000E+00 -0.45593999997E+02  0.45594000000E+02  0.51100000000E-03 0. -1.
    9900012    2    1    2    0    0 -0.10097529654E+01 -0.27494580450E+02 -0.16116659281E+02  0.59301980155E+02  0.50000065887E+02 0.  0.
        -12    1    1    2    0    0  0.10097529654E+01  0.27494580450E+02  0.16116659281E+02  0.31886019845E+02  0.00000000000E+00 0.  1.
         11    1    3    3    0    0 -0.10691305739E+02 -0.21317898904E+02 -0.29940090926E+02  0.38277485249E+02  0.51100000000E-03 0. -1.
        -11    1    3    3    0    0  0.13188052308E+00 -0.52048193397E+01  0.15284923873E+01  0.54262165521E+01  0.51100000000E-03 0.  1.
        -12    1    3    3    0    0  0.95496722502E+01 -0.97186220629E+00  0.12294939257E+02  0.15598278353E+02  0.00000000000E+00 0.  1.
</event>
<event>
 7    1  0.7284210E-013  0.5930207E+02  0.7816164E-02  0.1266604E+00
        -11   -1    0    0    0    0  0.00000000000E+00  0.00000000000E+00  0.45593999997E+02  0.45594000000E+02  0.51100000000E-03 0.  1.
         11   -1    0    0    0    0 -0.00000000000E+00 -0.00000000000E+00 -0.45593999997E+02  0.45594000000E+02  0.51100000000E-03 0. -1.
    9900012    2    1    2    0    0 -0.23536310457E+02 -0.89391560605E+01 -0.19566449035E+02  0.59302072871E+02  0.50000234980E+02 0.  0.
        -12    1    1    2    0    0  0.23536310457E+02  0.89391560605E+01  0.19566449035E+02  0.31885927129E+02  0.00000000000E+00 0.  1.
         11    1    3    3    0    0  0.12379723712E+01 -0.31871744521E+01 -0.38762477410E+01  0.51687477585E+01  0.51100000000E-03 0. -1.
        -11    1    3    3    0    0  0.31253819125E+01 -0.19887349834E+02 -0.28842978110E+01  0.20337007392E+02  0.51100000000E-03 0.  1.
         12    1    3    3    0    0 -0.27899664740E+02  0.14135368226E+02 -0.12805903483E+02  0.33796317721E+02  0.00000000000E+00 0. -1.
</event>
<event>
 7    1  0.7284210E-013  0.5930197E+02  0.7816164E-02  0.1266605E+00
        -11   -1    0    0    0    0  0.00000000000E+00  0.00000000000E+00  0.45593999997E+02  0.45594000000E+02  0.51100000000E-03 0. -1.
         11   -1    0    0    0    0 -0.00000000000E+00 -0.00000000000E+00 -0.45593999997E+02  0.45594000000E+02  0.51100000000E-03 0.  1.
    9900012    2    1    2    0    0 -0.10164939829E+02 -0.28591806043E+02  0.97929192175E+01  0.59301974200E+02  0.50000055027E+02 0.  0.
        -12    1    1    2    0    0  0.10164939829E+02  0.28591806043E+02 -0.97929192175E+01  0.31886025800E+02  0.00000000000E+00 0.  1.
         11    1    3    3    0    0  0.93580358295E+01  0.79850229208E+01 -0.36889722505E+01  0.12842972481E+02  0.51100000000E-03 0. -1.
        -11    1    3    3    0    0  0.21359616012E+01 -0.62321861476E+00  0.18765192010E+01  0.29106799852E+01  0.51100000000E-03 0.  1.
        -12    1    3    3    0    0 -0.21658937259E+02 -0.35953610349E+02  0.11605372267E+02  0.43548321733E+02  0.00000000000E+00 0.  1.
</event>
<event>
 7    1  0.7284210E-013  0.5930197E+02  0.7816164E-02  0.1266605E+00
        -11   -1    0    0    0    0  0.00000000000E+00  0.00000000000E+00  0.45593999997E+02  0.45594000000E+02  0.51100000000E-03 0.  1.
         11   -1    0    0    0    0 -0.00000000000E+00 -0.00000000000E+00 -0.45593999997E+02  0.45594000000E+02  0.51100000000E-03 0. -1.
    9900012    2    1    2    0    0 -0.17238583875E+02  0.40069483737E+01 -0.26523476496E+02  0.59301965208E+02  0.50000038628E+02 0.  0.
        -12    1    1    2    0    0  0.17238583875E+02 -0.40069483737E+01  0.26523476496E+02  0.31886034792E+02  0.00000000000E+00 0.  1.
         11    1    3    3    0    0 -0.83771152730E+01  0.81886977144E+01 -0.27489234535E+02  0.29881245726E+02  0.51100000000E-03 0.  1.
        -11    1    3    3    0    0 -0.40343006039E+01 -0.23541086881E+01 -0.13381477111E+02  0.14173261410E+02  0.51100000000E-03 0. -1.
        -12    1    3    3    0    0 -0.48271679981E+01 -0.18276406526E+01  0.14347235149E+02  0.15247458072E+02  0.00000000000E+00 0.  1.
</event>
<event>
 7    1  0.7284210E-013  0.5930195E+02  0.7816164E-02  0.1266605E+00
        -11   -1    0    0    0    0  0.00000000000E+00  0.00000000000E+00  0.45593999997E+02  0.45594000000E+02  0.51100000000E-03 0.  1.
         11   -1    0    0    0    0 -0.00000000000E+00 -0.00000000000E+00 -0.45593999997E+02  0.45594000000E+02  0.51100000000E-03 0. -1.
    9900012    2    1    2    0    0  0.12369855824E+02 -0.81197936431E+01 -0.28244923623E+02  0.59301951446E+02  0.50000013530E+02 0.  0.
        -12    1    1    2    0    0 -0.12369855824E+02  0.81197936431E+01  0.28244923623E+02  0.31886048554E+02  0.00000000000E+00 0.  1.
         11    1    3    3    0    0  0.11709596692E+02 -0.49046106759E+01 -0.28635425395E+01  0.13014212873E+02  0.51100000000E-03 0. -1.
        -11    1    3    3    0    0  0.13332995256E+02  0.12660701607E+02 -0.12538932771E+02  0.22255043540E+02  0.51100000000E-03 0.  1.
         12    1    3    3    0    0 -0.12672736124E+02 -0.15875884575E+02 -0.12842448313E+02  0.24032695033E+02  0.00000000000E+00 0. -1.
</event>
<event>
 7    1  0.7284210E-013  0.5930194E+02  0.7816164E-02  0.1266605E+00
        -11   -1    0    0    0    0  0.00000000000E+00  0.00000000000E+00  0.45593999997E+02  0.45594000000E+02  0.51100000000E-03 0.  1.
         11   -1    0    0    0    0 -0.00000000000E+00 -0.00000000000E+00 -0.45593999997E+02  0.45594000000E+02  0.51100000000E-03 0. -1.
    9900012    2    1    2    0    0  0.25413869877E+01 -0.22859274045E+02 -0.22084289615E+02  0.59301938695E+02  0.49999990275E+02 0.  0.
        -12    1    1    2    0    0 -0.25413869877E+01  0.22859274045E+02  0.22084289615E+02  0.31886061305E+02  0.00000000000E+00 0.  1.
         11    1    3    3    0    0 -0.66097626157E+00 -0.51570132431E+01  0.51716424639E+00  0.52248573499E+01  0.51100000000E-03 0. -1.
        -11    1    3    3    0    0  0.12121693558E+02 -0.30903058361E+02 -0.15163555743E+02  0.36494765293E+02  0.51100000000E-03 0.  1.
         12    1    3    3    0    0 -0.89193303084E+01  0.13200797559E+02 -0.74378981182E+01  0.17582316052E+02  0.00000000000E+00 0. -1.
</event>
<event>
 7    1  0.7284210E-013  0.5930194E+02  0.7816164E-02  0.1266605E+00
        -11   -1    0    0    0    0  0.00000000000E+00  0.00000000000E+00  0.45593999997E+02  0.45594000000E+02  0.51100000000E-03 0. -1.
         11   -1    0    0    0    0 -0.00000000000E+00 -0.00000000000E+00 -0.45593999997E+02  0.45594000000E+02  0.51100000000E-03 0.  1.
    9900012    2    1    2    0    0  0.28820708979E+02 -0.13636711471E+02  0.35731033099E+00  0.59301939778E+02  0.49999992250E+02 0.  0.
        -12    1    1    2    0    0 -0.28820708979E+02  0.13636711471E+02 -0.35731033099E+00  0.31886060222E+02  0.00000000000E+00 0.  1.
         11    1    3    3    0    0  0.91974255003E+01 -0.13618483983E+02  0.87424390747E+01  0.18614133960E+02  0.51100000000E-03 0. -1.
        -11    1    3    3    0    0 -0.61495501847E+00 -0.14698523814E+02 -0.45111806203E+01  0.15387511912E+02  0.51100000000E-03 0.  1.
        -12    1    3    3    0    0  0.20238238497E+02  0.14680296326E+02 -0.38739481234E+01  0.25300293906E+02  0.00000000000E+00 0.  1.
</event>
<event>
 7    1  0.7284210E-013  0.5930200E+02  0.7816164E-02  0.1266605E+00
        -11   -1    0    0    0    0  0.00000000000E+00  0.00000000000E+00  0.45593999997E+02  0.45594000000E+02  0.51100000000E-03 0. -1.
         11   -1    0    0    0    0 -0.00000000000E+00 -0.00000000000E+00 -0.45593999997E+02  0.45594000000E+02  0.51100000000E-03 0.  1.
    9900012    2    1    2    0    0 -0.30433678798E+02  0.65495325644E+01 -0.69001518977E+01  0.59301995575E+02  0.50000094009E+02 0.  0.
        -12    1    1    2    0    0  0.30433678798E+02 -0.65495325644E+01  0.69001518977E+01  0.31886004425E+02  0.00000000000E+00 0.  1.
         11    1    3    3    0    0 -0.13303282027E+02  0.10773904187E+02 -0.80276787902E+01  0.18907616220E+02  0.51100000000E-03 0. -1.
        -11    1    3    3    0    0  0.20736906038E+01 -0.69731708977E+01 -0.14010850295E+02  0.15786995640E+02  0.51100000000E-03 0.  1.
        -12    1    3    3    0    0 -0.19204087375E+02  0.27487992749E+01  0.15138377188E+02  0.24607383714E+02  0.00000000000E+00 0.  1.
</event>
<event>
 7    1  0.7284210E-013  0.5930198E+02  0.7816164E-02  0.1266605E+00
        -11   -1    0    0    0    0  0.00000000000E+00  0.00000000000E+00  0.45593999997E+02  0.45594000000E+02  0.51100000000E-03 0.  1.
         11   -1    0    0    0    0 -0.00000000000E+00 -0.00000000000E+00 -0.45593999997E+02  0.45594000000E+02  0.51100000000E-03 0. -1.
    9900012    2    1    2    0    0 -0.18366519924E+01  0.28099335030E+02 -0.14959020672E+02  0.59301980820E+02  0.50000067100E+02 0.  0.
        -12    1    1    2    0    0  0.18366519924E+01 -0.28099335030E+02  0.14959020672E+02  0.31886019180E+02  0.00000000000E+00 0.  1.
         11    1    3    3    0    0 -0.14892687264E+01  0.17032281813E+01  0.78057500830E-01  0.22638464638E+01  0.51100000000E-03 0. -1.
        -11    1    3    3    0    0 -0.12996743607E+02 -0.36851617089E+01  0.92388234714E+01  0.16366173059E+02  0.51100000000E-03 0.  1.
         12    1    3    3    0    0  0.12649360341E+02  0.30081268558E+02 -0.24275901644E+02  0.40671961297E+02  0.00000000000E+00 0. -1.
</event>
<event>
 7    1  0.7284210E-013  0.5930201E+02  0.7816164E-02  0.1266605E+00
        -11   -1    0    0    0    0  0.00000000000E+00  0.00000000000E+00  0.45593999997E+02  0.45594000000E+02  0.51100000000E-03 0.  1.
         11   -1    0    0    0    0 -0.00000000000E+00 -0.00000000000E+00 -0.45593999997E+02  0.45594000000E+02  0.51100000000E-03 0. -1.
    9900012    2    1    2    0    0  0.38892080886E+01 -0.40982465557E+01 -0.31381443060E+02  0.59302007262E+02  0.50000115323E+02 0.  0.
        -12    1    1    2    0    0 -0.38892080886E+01  0.40982465557E+01  0.31381443060E+02  0.31885992738E+02  0.00000000000E+00 0.  1.
         11    1    3    3    0    0  0.87481805343E+01 -0.21869689850E+02 -0.67971601476E+01  0.24515615087E+02  0.51100000000E-03 0. -1.
        -11    1    3    3    0    0 -0.20045437225E+00  0.11306377439E+02 -0.28852298547E+01  0.11670428626E+02  0.51100000000E-03 0.  1.
        -12    1    3    3    0    0 -0.46585180734E+01  0.64650658548E+01 -0.21699053058E+02  0.23115963548E+02  0.00000000000E+00 0.  1.
</event>
<event>
 7    1  0.7284210E-013  0.5930195E+02  0.7816164E-02  0.1266605E+00
        -11   -1    0    0    0    0  0.00000000000E+00  0.00000000000E+00  0.45593999997E+02  0.45594000000E+02  0.51100000000E-03 0.  1.
         11   -1    0    0    0    0 -0.00000000000E+00 -0.00000000000E+00 -0.45593999997E+02  0.45594000000E+02  0.51100000000E-03 0. -1.
    9900012    2    1    2    0    0  0.26173974985E+02 -0.17767283504E+02 -0.39958901703E+01  0.59301945558E+02  0.50000002790E+02 0.  0.
        -12    1    1    2    0    0 -0.26173974985E+02  0.17767283504E+02  0.39958901703E+01  0.31886054442E+02  0.00000000000E+00 0.  1.
         11    1    3    3    0    0  0.60861182217E+01  0.40206348889E+01 -0.13036866251E+01  0.74098541818E+01  0.51100000000E-03 0. -1.
        -11    1    3    3    0    0  0.31790082981E+02 -0.20779243522E+02  0.43021707391E+01  0.38221656303E+02  0.51100000000E-03 0.  1.
         12    1    3    3    0    0 -0.11702226217E+02 -0.10086748717E+01 -0.69943742843E+01  0.13670435072E+02  0.00000000000E+00 0. -1.
</event>
<event>
 7    1  0.7284210E-013  0.5930192E+02  0.7816164E-02  0.1266605E+00
        -11   -1    0    0    0    0  0.00000000000E+00  0.00000000000E+00  0.45593999997E+02  0.45594000000E+02  0.51100000000E-03 0. -1.
         11   -1    0    0    0    0 -0.00000000000E+00 -0.00000000000E+00 -0.45593999997E+02  0.45594000000E+02  0.51100000000E-03 0.  1.
    9900012    2    1    2    0    0 -0.18097496056E+02 -0.21273832848E+02  0.15382680576E+02  0.59301918565E+02  0.49999953562E+02 0.  0.
        -12    1    1    2    0    0  0.18097496056E+02  0.21273832848E+02 -0.15382680576E+02  0.31886081435E+02  0.00000000000E+00 0.  1.
         11    1    3    3    0    0  0.46878932028E+01  0.43436283385E+01  0.10169619403E+02  0.12011020310E+02  0.51100000000E-03 0. -1.
        -11    1    3    3    0    0 -0.29750593706E+01  0.65699666460E+01  0.61585538162E+01  0.94838402221E+01  0.51100000000E-03 0.  1.
         12    1    3    3    0    0 -0.19810329888E+02 -0.32187427833E+02 -0.94549264297E+00  0.37807058033E+02  0.00000000000E+00 0. -1.
</event>
<event>
 7    1  0.7284210E-013  0.5930195E+02  0.7816164E-02  0.1266605E+00
        -11   -1    0    0    0    0  0.00000000000E+00  0.00000000000E+00  0.45593999997E+02  0.45594000000E+02  0.51100000000E-03 0.  1.
         11   -1    0    0    0    0 -0.00000000000E+00 -0.00000000000E+00 -0.45593999997E+02  0.45594000000E+02  0.51100000000E-03 0. -1.
    9900012    2    1    2    0    0  0.49630302156E+00 -0.35791155752E+01 -0.31680656633E+02  0.59301946784E+02  0.50000005027E+02 0.  0.
        -12    1    1    2    0    0 -0.49630302156E+00  0.35791155752E+01  0.31680656633E+02  0.31886053216E+02  0.00000000000E+00 0.  1.
         11    1    3    3    0    0 -0.17379095048E+02 -0.29735141005E+01 -0.17881332773E+02  0.25112084596E+02  0.51100000000E-03 0. -1.
        -11    1    3    3    0    0  0.20482637399E+01 -0.32047721910E+01  0.69748596301E+01  0.79444707983E+01  0.51100000000E-03 0.  1.
        -12    1    3    3    0    0  0.15827134330E+02  0.25991707163E+01 -0.20774183490E+02  0.26245391390E+02  0.00000000000E+00 0.  1.
</event>
<event>
 7    1  0.7284210E-013  0.5930195E+02  0.7816164E-02  0.1266605E+00
        -11   -1    0    0    0    0  0.00000000000E+00  0.00000000000E+00  0.45593999997E+02  0.45594000000E+02  0.51100000000E-03 0.  1.
         11   -1    0    0    0    0 -0.00000000000E+00 -0.00000000000E+00 -0.45593999997E+02  0.45594000000E+02  0.51100000000E-03 0. -1.
    9900012    2    1    2    0    0  0.25476879513E+02 -0.76608038783E+01 -0.17577291334E+02  0.59301945424E+02  0.50000002547E+02 0.  0.
        -12    1    1    2    0    0 -0.25476879513E+02  0.76608038783E+01  0.17577291334E+02  0.31886054576E+02  0.00000000000E+00 0.  1.
         11    1    3    3    0    0  0.27206289824E+02 -0.89793275849E+01 -0.20723675409E+02  0.35359316347E+02  0.51100000000E-03 0. -1.
        -11    1    3    3    0    0  0.77832473038E+01 -0.74376443704E+01  0.73528192061E+00  0.10790650218E+02  0.51100000000E-03 0.  1.
        -12    1    3    3    0    0 -0.95126576150E+01  0.87561680771E+01  0.24111021541E+01  0.13151978858E+02  0.00000000000E+00 0.  1.
</event>
<event>
 7    1  0.7284210E-013  0.5930195E+02  0.7816164E-02  0.1266605E+00
        -11   -1    0    0    0    0  0.00000000000E+00  0.00000000000E+00  0.45593999997E+02  0.45594000000E+02  0.51100000000E-03 0.  1.
         11   -1    0    0    0    0 -0.00000000000E+00 -0.00000000000E+00 -0.45593999997E+02  0.45594000000E+02  0.51100000000E-03 0. -1.
    9900012    2    1    2    0    0  0.25903735666E+01  0.23401044009E+02 -0.21503521050E+02  0.59301947979E+02  0.50000007207E+02 0.  0.
        -12    1    1    2    0    0 -0.25903735666E+01 -0.23401044009E+02  0.21503521050E+02  0.31886052021E+02  0.00000000000E+00 0.  1.
         11    1    3    3    0    0  0.88759338125E+01 -0.10304662281E+02 -0.54250359279E+01  0.14642379617E+02  0.51100000000E-03 0. -1.
        -11    1    3    3    0    0  0.44983666545E+01  0.63676133168E-02 -0.66737807920E+01  0.80482726983E+01  0.51100000000E-03 0.  1.
        -12    1    3    3    0    0 -0.10783926900E+02  0.33699338677E+02 -0.94047043301E+01  0.36611295664E+02  0.00000000000E+00 0.  1.
</event>
<event>
 7    1  0.7284210E-013  0.5930195E+02  0.7816164E-02  0.1266605E+00
        -11   -1    0    0    0    0  0.00000000000E+00  0.00000000000E+00  0.45593999997E+02  0.45594000000E+02  0.51100000000E-03 0.  1.
         11   -1    0    0    0    0 -0.00000000000E+00 -0.00000000000E+00 -0.45593999997E+02  0.45594000000E+02  0.51100000000E-03 0. -1.
    9900012    2    1    2    0    0  0.26240148218E+02  0.72506433430E+01  0.16601297288E+02  0.59301948519E+02  0.50000008191E+02 0.  0.
        -12    1    1    2    0    0 -0.26240148218E+02 -0.72506433430E+01 -0.16601297288E+02  0.31886051481E+02  0.00000000000E+00 0.  1.
         11    1    3    3    0    0 -0.47128923558E+01  0.26526357527E+01 -0.12940882008E+01  0.55607998819E+01  0.51100000000E-03 0. -1.
        -11    1    3    3    0    0  0.13728324402E+02  0.77552155261E+01  0.28997280738E+02  0.33006856094E+02  0.51100000000E-03 0.  1.
        -12    1    3    3    0    0  0.17224716172E+02 -0.31572079359E+01 -0.11101895249E+02  0.20734292543E+02  0.00000000000E+00 0.  1.
</event>
<event>
 7    1  0.7284210E-013  0.5930182E+02  0.7816164E-02  0.1266605E+00
        -11   -1    0    0    0    0  0.00000000000E+00  0.00000000000E+00  0.45593999997E+02  0.45594000000E+02  0.51100000000E-03 0.  1.
         11   -1    0    0    0    0 -0.00000000000E+00 -0.00000000000E+00 -0.45593999997E+02  0.45594000000E+02  0.51100000000E-03 0. -1.
    9900012    2    1    2    0    0  0.13743864979E+02 -0.24159192474E+02 -0.15625873945E+02  0.59301822084E+02  0.49999777603E+02 0.  0.
        -12    1    1    2    0    0 -0.13743864979E+02  0.24159192474E+02  0.15625873945E+02  0.31886177916E+02  0.00000000000E+00 0.  1.
         11    1    3    3    0    0 -0.10002422676E+01  0.73991852918E+00 -0.18378983099E+01  0.22194221054E+01  0.51100000000E-03 0.  1.
        -11    1    3    3    0    0  0.14090675443E+02 -0.15341084257E+02 -0.31020802804E+02  0.37365575166E+02  0.51100000000E-03 0. -1.
        -12    1    3    3    0    0  0.65343180354E+00 -0.95580267465E+01  0.17232827169E+02  0.19716824812E+02  0.00000000000E+00 0.  1.
</event>
<event>
 7    1  0.7284210E-013  0.5930194E+02  0.7816164E-02  0.1266605E+00
        -11   -1    0    0    0    0  0.00000000000E+00  0.00000000000E+00  0.45593999997E+02  0.45594000000E+02  0.51100000000E-03 0. -1.
         11   -1    0    0    0    0 -0.00000000000E+00 -0.00000000000E+00 -0.45593999997E+02  0.45594000000E+02  0.51100000000E-03 0.  1.
    9900012    2    1    2    0    0 -0.24852702268E+02  0.13407340142E+02  0.14809027431E+02  0.59301939204E+02  0.49999991202E+02 0.  0.
        -12    1    1    2    0    0  0.24852702268E+02 -0.13407340142E+02 -0.14809027431E+02  0.31886060796E+02  0.00000000000E+00 0.  1.
         11    1    3    3    0    0  0.98035199130E+00 -0.10807922361E+02  0.85403170513E+01  0.13809753488E+02  0.51100000000E-03 0. -1.
        -11    1    3    3    0    0 -0.88512709286E+01 -0.50960398841E+01 -0.24700957656E+01  0.10507901451E+02  0.51100000000E-03 0.  1.
        -12    1    3    3    0    0 -0.16981783330E+02  0.29311302387E+02  0.87388061448E+01  0.34984284265E+02  0.00000000000E+00 0.  1.
</event>
<event>
 7    1  0.7284210E-013  0.5930196E+02  0.7816164E-02  0.1266605E+00
        -11   -1    0    0    0    0  0.00000000000E+00  0.00000000000E+00  0.45593999997E+02  0.45594000000E+02  0.51100000000E-03 0. -1.
         11   -1    0    0    0    0 -0.00000000000E+00 -0.00000000000E+00 -0.45593999997E+02  0.45594000000E+02  0.51100000000E-03 0.  1.
    9900012    2    1    2    0    0 -0.30567140524E+02 -0.50189945617E+01  0.75616742834E+01  0.59301963805E+02  0.50000036069E+02 0.  0.
        -12    1    1    2    0    0  0.30567140524E+02  0.50189945617E+01 -0.75616742834E+01  0.31886036195E+02  0.00000000000E+00 0.  1.
         11    1    3    3    0    0 -0.22884677845E+01 -0.78486099376E+01  0.21448042816E+01  0.84520972794E+01  0.51100000000E-03 0. -1.
        -11    1    3    3    0    0 -0.15528790749E+02 -0.19240763462E+02  0.56393142301E+01  0.25360445303E+02  0.51100000000E-03 0.  1.
         12    1    3    3    0    0 -0.12749881991E+02  0.22070378838E+02 -0.22244422820E+00  0.25489421223E+02  0.00000000000E+00 0. -1.
</event>
<event>
 7    1  0.7284210E-013  0.5930195E+02  0.7816164E-02  0.1266605E+00
        -11   -1    0    0    0    0  0.00000000000E+00  0.00000000000E+00  0.45593999997E+02  0.45594000000E+02  0.51100000000E-03 0.  1.
         11   -1    0    0    0    0 -0.00000000000E+00 -0.00000000000E+00 -0.45593999997E+02  0.45594000000E+02  0.51100000000E-03 0. -1.
    9900012    2    1    2    0    0 -0.34457785753E+01  0.11373662755E+02 -0.29588626049E+02  0.59301946843E+02  0.50000005135E+02 0.  0.
        -12    1    1    2    0    0  0.34457785753E+01 -0.11373662755E+02  0.29588626049E+02  0.31886053157E+02  0.00000000000E+00 0.  1.
         11    1    3    3    0    0 -0.90542853643E+01  0.94941438244E+01 -0.13442980974E+01  0.13188100244E+02  0.51100000000E-03 0. -1.
        -11    1    3    3    0    0  0.33483548915E+00 -0.16109238097E+02 -0.64218012063E+01  0.17345293248E+02  0.51100000000E-03 0.  1.
        -12    1    3    3    0    0  0.52736712998E+01  0.17988757027E+02 -0.21822526745E+02  0.28768553351E+02  0.00000000000E+00 0.  1.
</event>
<event>
 7    1  0.7284210E-013  0.5930192E+02  0.7816164E-02  0.1266605E+00
        -11   -1    0    0    0    0  0.00000000000E+00  0.00000000000E+00  0.45593999997E+02  0.45594000000E+02  0.51100000000E-03 0.  1.
         11   -1    0    0    0    0 -0.00000000000E+00 -0.00000000000E+00 -0.45593999997E+02  0.45594000000E+02  0.51100000000E-03 0. -1.
    9900012    2    1    2    0    0 -0.20137530688E+02 -0.23584701928E+02 -0.74137428282E+01  0.59301923259E+02  0.49999962122E+02 0.  0.
        -12    1    1    2    0    0  0.20137530688E+02  0.23584701928E+02  0.74137428282E+01  0.31886076741E+02  0.00000000000E+00 0.  1.
         11    1    3    3    0    0  0.35461675181E+01 -0.20421510921E+02 -0.92296931556E+01  0.22689218770E+02  0.51100000000E-03 0. -1.
        -11    1    3    3    0    0  0.10816947902E+01 -0.55887224276E+01 -0.80373539506E+01  0.98490070962E+01  0.51100000000E-03 0.  1.
        -12    1    3    3    0    0 -0.24765392996E+02  0.24255314213E+01  0.98533042780E+01  0.26763697393E+02  0.00000000000E+00 0.  1.
</event>
<event>
 7    1  0.7284210E-013  0.5930197E+02  0.7816164E-02  0.1266605E+00
        -11   -1    0    0    0    0  0.00000000000E+00  0.00000000000E+00  0.45593999997E+02  0.45594000000E+02  0.51100000000E-03 0.  1.
         11   -1    0    0    0    0 -0.00000000000E+00 -0.00000000000E+00 -0.45593999997E+02  0.45594000000E+02  0.51100000000E-03 0. -1.
    9900012    2    1    2    0    0  0.26843120307E+02  0.12936059052E+02 -0.11350062655E+02  0.59301974003E+02  0.50000054667E+02 0.  0.
        -12    1    1    2    0    0 -0.26843120307E+02 -0.12936059052E+02  0.11350062655E+02  0.31886025997E+02  0.00000000000E+00 0.  1.
         11    1    3    3    0    0 -0.82440322117E+00  0.22705712227E+02 -0.44558384868E+01  0.23153477175E+02  0.51100000000E-03 0. -1.
        -11    1    3    3    0    0  0.34325101105E+01 -0.71678743352E+01  0.46186990536E+01  0.91920035549E+01  0.51100000000E-03 0.  1.
        -12    1    3    3    0    0  0.24235013418E+02 -0.26017788392E+01 -0.11512923222E+02  0.26956493273E+02  0.00000000000E+00 0.  1.
</event>
<event>
 7    1  0.7284210E-013  0.5930199E+02  0.7816164E-02  0.1266605E+00
        -11   -1    0    0    0    0  0.00000000000E+00  0.00000000000E+00  0.45593999997E+02  0.45594000000E+02  0.51100000000E-03 0. -1.
         11   -1    0    0    0    0 -0.00000000000E+00 -0.00000000000E+00 -0.45593999997E+02  0.45594000000E+02  0.51100000000E-03 0.  1.
    9900012    2    1    2    0    0  0.26606575066E+02  0.29621955991E+01  0.17321466559E+02  0.59301989851E+02  0.50000083570E+02 0.  0.
        -12    1    1    2    0    0 -0.26606575066E+02 -0.29621955991E+01 -0.17321466559E+02  0.31886010149E+02  0.00000000000E+00 0.  1.
         11    1    3    3    0    0 -0.56023214287E+01 -0.71889897974E+01 -0.24831652453E+01  0.94463585362E+01  0.51100000000E-03 0. -1.
        -11    1    3    3    0    0  0.28173560433E+02 -0.15092989355E+01  0.21222199375E+01  0.28293661984E+02  0.51100000000E-03 0.  1.
         12    1    3    3    0    0  0.40353360614E+01  0.11660484332E+02  0.17682411866E+02  0.21561969330E+02  0.00000000000E+00 0. -1.
</event>
<event>
 7    1  0.7284210E-013  0.5930197E+02  0.7816164E-02  0.1266605E+00
        -11   -1    0    0    0    0  0.00000000000E+00  0.00000000000E+00  0.45593999997E+02  0.45594000000E+02  0.51100000000E-03 0. -1.
         11   -1    0    0    0    0 -0.00000000000E+00 -0.00000000000E+00 -0.45593999997E+02  0.45594000000E+02  0.51100000000E-03 0.  1.
    9900012    2    1    2    0    0  0.41325347079E+01  0.25146357370E+00  0.31616097991E+02  0.59301972821E+02  0.50000052513E+02 0.  0.
        -12    1    1    2    0    0 -0.41325347079E+01 -0.25146357370E+00 -0.31616097991E+02  0.31886027179E+02  0.00000000000E+00 0.  1.
         11    1    3    3    0    0  0.19916612437E+02  0.54993711935E+01  0.15740945844E+02  0.25974832258E+02  0.51100000000E-03 0. -1.
        -11    1    3    3    0    0 -0.10684906398E+02  0.60105248288E+01 -0.11229288895E+01  0.12310751520E+02  0.51100000000E-03 0.  1.
        -12    1    3    3    0    0 -0.50991713316E+01 -0.11258432449E+02  0.16998081037E+02  0.21016389043E+02  0.00000000000E+00 0.  1.
</event>
<event>
 7    1  0.7284210E-013  0.5930194E+02  0.7816164E-02  0.1266605E+00
        -11   -1    0    0    0    0  0.00000000000E+00  0.00000000000E+00  0.45593999997E+02  0.45594000000E+02  0.51100000000E-03 0. -1.
         11   -1    0    0    0    0 -0.00000000000E+00 -0.00000000000E+00 -0.45593999997E+02  0.45594000000E+02  0.51100000000E-03 0.  1.
    9900012    2    1    2    0    0 -0.62115760753E+01  0.11709230732E+02  0.29000538596E+02  0.59301937205E+02  0.49999987557E+02 0.  0.
        -12    1    1    2    0    0  0.62115760753E+01 -0.11709230732E+02 -0.29000538596E+02  0.31886062795E+02  0.00000000000E+00 0.  1.
         11    1    3    3    0    0 -0.20056066102E+01  0.13477354859E+02  0.79633888549E+00  0.13649018564E+02  0.51100000000E-03 0. -1.
        -11    1    3    3    0    0 -0.11701711009E+02 -0.36681271737E+01 -0.37125180171E+01  0.12812805618E+02  0.51100000000E-03 0.  1.
         12    1    3    3    0    0  0.74957415441E+01  0.19000030469E+01  0.31916717728E+02  0.32840113024E+02  0.00000000000E+00 0. -1.
</event>
<event>
 7    1  0.7284210E-013  0.5930192E+02  0.7816164E-02  0.1266605E+00
        -11   -1    0    0    0    0  0.00000000000E+00  0.00000000000E+00  0.45593999997E+02  0.45594000000E+02  0.51100000000E-03 0.  1.
         11   -1    0    0    0    0 -0.00000000000E+00 -0.00000000000E+00 -0.45593999997E+02  0.45594000000E+02  0.51100000000E-03 0. -1.
    9900012    2    1    2    0    0  0.26008093146E+02 -0.14874538598E+02 -0.10910979056E+02  0.59301917275E+02  0.49999951210E+02 0.  0.
        -12    1    1    2    0    0 -0.26008093146E+02  0.14874538598E+02  0.10910979056E+02  0.31886082725E+02  0.00000000000E+00 0.  1.
         11    1    3    3    0    0  0.19217504978E+01 -0.14516145372E+02 -0.50302798166E+01  0.15482742545E+02  0.51100000000E-03 0. -1.
        -11    1    3    3    0    0  0.65514201747E+01 -0.16307401621E+02 -0.92792394546E+01  0.19873518537E+02  0.51100000000E-03 0.  1.
        -12    1    3    3    0    0  0.17534922473E+02  0.15949008395E+02  0.33985402148E+01  0.23945656193E+02  0.00000000000E+00 0.  1.
</event>
<event>
 7    1  0.7284210E-013  0.5930194E+02  0.7816164E-02  0.1266605E+00
        -11   -1    0    0    0    0  0.00000000000E+00  0.00000000000E+00  0.45593999997E+02  0.45594000000E+02  0.51100000000E-03 0.  1.
         11   -1    0    0    0    0 -0.00000000000E+00 -0.00000000000E+00 -0.45593999997E+02  0.45594000000E+02  0.51100000000E-03 0. -1.
    9900012    2    1    2    0    0  0.13276729080E+02  0.56201220373E+01 -0.28440530744E+02  0.59301935712E+02  0.49999984834E+02 0.  0.
        -12    1    1    2    0    0 -0.13276729080E+02 -0.56201220373E+01  0.28440530744E+02  0.31886064288E+02  0.00000000000E+00 0.  1.
         11    1    3    3    0    0 -0.19781355955E+01 -0.10898292937E+01 -0.20724744336E-01  0.22585787787E+01  0.51100000000E-03 0. -1.
        -11    1    3    3    0    0 -0.22139475699E+01 -0.17555459253E+02 -0.33155955001E+01  0.18002468920E+02  0.51100000000E-03 0.  1.
         12    1    3    3    0    0  0.17468812245E+02  0.24265410584E+02 -0.25104210500E+02  0.39040888013E+02  0.00000000000E+00 0. -1.
</event>
<event>
 7    1  0.7284210E-013  0.5930194E+02  0.7816164E-02  0.1266605E+00
        -11   -1    0    0    0    0  0.00000000000E+00  0.00000000000E+00  0.45593999997E+02  0.45594000000E+02  0.51100000000E-03 0. -1.
         11   -1    0    0    0    0 -0.00000000000E+00 -0.00000000000E+00 -0.45593999997E+02  0.45594000000E+02  0.51100000000E-03 0.  1.
    9900012    2    1    2    0    0 -0.30125344516E+02  0.17155212800E+01  0.10307349427E+02  0.59301939602E+02  0.49999991929E+02 0.  0.
        -12    1    1    2    0    0  0.30125344516E+02 -0.17155212800E+01 -0.10307349427E+02  0.31886060398E+02  0.00000000000E+00 0.  1.
         11    1    3    3    0    0 -0.27133095438E+02  0.19774601271E+02  0.50701740393E+01  0.33955064254E+02  0.51100000000E-03 0. -1.
        -11    1    3    3    0    0  0.14834013844E+01 -0.21463766179E-01 -0.42351940455E+01  0.44875170444E+01  0.51100000000E-03 0.  1.
        -12    1    3    3    0    0 -0.44756504629E+01 -0.18037616225E+02  0.94723694335E+01  0.20859358303E+02  0.00000000000E+00 0.  1.
</event>
<event>
 7    1  0.7284210E-013  0.5930193E+02  0.7816164E-02  0.1266605E+00
        -11   -1    0    0    0    0  0.00000000000E+00  0.00000000000E+00  0.45593999997E+02  0.45594000000E+02  0.51100000000E-03 0.  1.
         11   -1    0    0    0    0 -0.00000000000E+00 -0.00000000000E+00 -0.45593999997E+02  0.45594000000E+02  0.51100000000E-03 0. -1.
    9900012    2    1    2    0    0 -0.29369799908E+02 -0.79951944102E+01  0.94980464789E+01  0.59301934592E+02  0.49999982792E+02 0.  0.
        -12    1    1    2    0    0  0.29369799908E+02  0.79951944102E+01 -0.94980464789E+01  0.31886065408E+02  0.00000000000E+00 0.  1.
         11    1    3    3    0    0 -0.13036976197E+02 -0.15992788120E+02  0.79160506954E+01  0.22099680520E+02  0.51100000000E-03 0. -1.
        -11    1    3    3    0    0 -0.16867293882E+02 -0.28919139125E+01  0.12942592252E+02  0.21456455053E+02  0.51100000000E-03 0.  1.
         12    1    3    3    0    0  0.53447017146E+00  0.10889507623E+02 -0.11360596468E+02  0.15745799019E+02  0.00000000000E+00 0. -1.
</event>
<event>
 7    1  0.7284210E-013  0.5930194E+02  0.7816164E-02  0.1266605E+00
        -11   -1    0    0    0    0  0.00000000000E+00  0.00000000000E+00  0.45593999997E+02  0.45594000000E+02  0.51100000000E-03 0. -1.
         11   -1    0    0    0    0 -0.00000000000E+00 -0.00000000000E+00 -0.45593999997E+02  0.45594000000E+02  0.51100000000E-03 0.  1.
    9900012    2    1    2    0    0  0.73210222014E+01 -0.27926002078E+02  0.13537413878E+02  0.59301944543E+02  0.50000000939E+02 0.  0.
        -12    1    1    2    0    0 -0.73210222014E+01  0.27926002078E+02 -0.13537413878E+02  0.31886055457E+02  0.00000000000E+00 0.  1.
         11    1    3    3    0    0  0.10303236922E+02 -0.33111109121E+02  0.91551252388E+01  0.35865283447E+02  0.51100000000E-03 0. -1.
        -11    1    3    3    0    0  0.69059608927E+00 -0.44167082218E+01  0.10543086972E+02  0.11451677503E+02  0.51100000000E-03 0.  1.
        -12    1    3    3    0    0 -0.36728108102E+01  0.96018152652E+01 -0.61607983328E+01  0.11984983593E+02  0.00000000000E+00 0.  1.
</event>
<event>
 7    1  0.7284210E-013  0.5930195E+02  0.7816164E-02  0.1266605E+00
        -11   -1    0    0    0    0  0.00000000000E+00  0.00000000000E+00  0.45593999997E+02  0.45594000000E+02  0.51100000000E-03 0.  1.
         11   -1    0    0    0    0 -0.00000000000E+00 -0.00000000000E+00 -0.45593999997E+02  0.45594000000E+02  0.51100000000E-03 0. -1.
    9900012    2    1    2    0    0  0.20808726392E+02  0.10019367380E+02 -0.21984749251E+02  0.59301952638E+02  0.50000015702E+02 0.  0.
        -12    1    1    2    0    0 -0.20808726392E+02 -0.10019367380E+02  0.21984749251E+02  0.31886047362E+02  0.00000000000E+00 0.  1.
         11    1    3    3    0    0 -0.32857116206E+01 -0.46732915004E-01 -0.84260015615E+00  0.33923531808E+01  0.51100000000E-03 0. -1.
        -11    1    3    3    0    0  0.10218429445E+02 -0.16800097388E+02 -0.12256494548E+01  0.19701821982E+02  0.51100000000E-03 0.  1.
         12    1    3    3    0    0  0.13876008569E+02  0.26866197683E+02 -0.19916499640E+02  0.36207777475E+02  0.00000000000E+00 0. -1.
</event>
<event>
 7    1  0.7284210E-013  0.5930194E+02  0.7816164E-02  0.1266605E+00
        -11   -1    0    0    0    0  0.00000000000E+00  0.00000000000E+00  0.45593999997E+02  0.45594000000E+02  0.51100000000E-03 0. -1.
         11   -1    0    0    0    0 -0.00000000000E+00 -0.00000000000E+00 -0.45593999997E+02  0.45594000000E+02  0.51100000000E-03 0.  1.
    9900012    2    1    2    0    0  0.14003343687E+02  0.16800350840E+02  0.23202921899E+02  0.59301937097E+02  0.49999987361E+02 0.  0.
        -12    1    1    2    0    0 -0.14003343687E+02 -0.16800350840E+02 -0.23202921899E+02  0.31886062903E+02  0.00000000000E+00 0.  1.
         11    1    3    3    0    0  0.13719730296E+02  0.10176887668E+02  0.18070757603E+02  0.24866691027E+02  0.51100000000E-03 0. -1.
        -11    1    3    3    0    0  0.44247694461E+01 -0.62454705522E+01  0.15574103401E+02  0.17353304702E+02  0.51100000000E-03 0.  1.
        -12    1    3    3    0    0 -0.41411560550E+01  0.12868933724E+02 -0.10441939105E+02  0.17081941369E+02  0.00000000000E+00 0.  1.
</event>
<event>
 7    1  0.7284210E-013  0.5930192E+02  0.7816164E-02  0.1266605E+00
        -11   -1    0    0    0    0  0.00000000000E+00  0.00000000000E+00  0.45593999997E+02  0.45594000000E+02  0.51100000000E-03 0. -1.
         11   -1    0    0    0    0 -0.00000000000E+00 -0.00000000000E+00 -0.45593999997E+02  0.45594000000E+02  0.51100000000E-03 0.  1.
    9900012    2    1    2    0    0 -0.17274866023E+02  0.12690485413E+02 -0.23606203368E+02  0.59301917557E+02  0.49999951723E+02 0.  0.
        -12    1    1    2    0    0  0.17274866023E+02 -0.12690485413E+02  0.23606203368E+02  0.31886082443E+02  0.00000000000E+00 0.  1.
         11    1    3    3    0    0 -0.25561026512E+02 -0.10182662533E+01 -0.42100450425E+01  0.25925420383E+02  0.51100000000E-03 0. -1.
        -11    1    3    3    0    0 -0.16760075862E+01 -0.12239256350E+01 -0.14667190126E+02  0.14813286665E+02  0.51100000000E-03 0.  1.
        -12    1    3    3    0    0  0.99621680754E+01  0.14932677302E+02 -0.47289682000E+01  0.18563210509E+02  0.00000000000E+00 0.  1.
</event>
<event>
 7    1  0.7284210E-013  0.5930216E+02  0.7816164E-02  0.1266604E+00
        -11   -1    0    0    0    0  0.00000000000E+00  0.00000000000E+00  0.45593999997E+02  0.45594000000E+02  0.51100000000E-03 0.  1.
         11   -1    0    0    0    0 -0.00000000000E+00 -0.00000000000E+00 -0.45593999997E+02  0.45594000000E+02  0.51100000000E-03 0. -1.
    9900012    2    1    2    0    0 -0.91651241489E+01 -0.21631735639E+02 -0.21558651340E+02  0.59302157765E+02  0.50000389804E+02 0.  0.
        -12    1    1    2    0    0  0.91651241489E+01  0.21631735639E+02  0.21558651340E+02  0.31885842235E+02  0.00000000000E+00 0.  1.
         11    1    3    3    0    0 -0.50935223914E+01 -0.77103974325E+01 -0.15872912547E+02  0.18366914599E+02  0.51100000000E-03 0. -1.
        -11    1    3    3    0    0 -0.41674108467E+01 -0.76860447322E+01 -0.21890527469E+02  0.23571970429E+02  0.51100000000E-03 0.  1.
        -12    1    3    3    0    0  0.95809089193E-01 -0.62352934747E+01  0.16204788676E+02  0.17363272736E+02  0.00000000000E+00 0.  1.
</event>
<event>
 7    1  0.7284210E-013  0.5930197E+02  0.7816164E-02  0.1266605E+00
        -11   -1    0    0    0    0  0.00000000000E+00  0.00000000000E+00  0.45593999997E+02  0.45594000000E+02  0.51100000000E-03 0.  1.
         11   -1    0    0    0    0 -0.00000000000E+00 -0.00000000000E+00 -0.45593999997E+02  0.45594000000E+02  0.51100000000E-03 0. -1.
    9900012    2    1    2    0    0  0.11854154590E+02  0.13016086065E+02 -0.26585326414E+02  0.59301967666E+02  0.50000043111E+02 0.  0.
        -12    1    1    2    0    0 -0.11854154590E+02 -0.13016086065E+02  0.26585326414E+02  0.31886032334E+02  0.00000000000E+00 0.  1.
         11    1    3    3    0    0  0.91354612440E+01  0.23606626074E+02 -0.17789746375E+02  0.30938722066E+02  0.51100000000E-03 0. -1.
        -11    1    3    3    0    0  0.13039371185E+02 -0.57074279754E+01 -0.91832786922E+01  0.16939083292E+02  0.51100000000E-03 0.  1.
        -12    1    3    3    0    0 -0.10320677839E+02 -0.48831120336E+01  0.38769865381E+00  0.11424162308E+02  0.00000000000E+00 0.  1.
</event>
<event>
 7    1  0.7284210E-013  0.5930198E+02  0.7816164E-02  0.1266605E+00
        -11   -1    0    0    0    0  0.00000000000E+00  0.00000000000E+00  0.45593999997E+02  0.45594000000E+02  0.51100000000E-03 0.  1.
         11   -1    0    0    0    0 -0.00000000000E+00 -0.00000000000E+00 -0.45593999997E+02  0.45594000000E+02  0.51100000000E-03 0. -1.
    9900012    2    1    2    0    0 -0.30303916246E+02  0.76000775677E+01 -0.63741409363E+01  0.59301981252E+02  0.50000067889E+02 0.  0.
        -12    1    1    2    0    0  0.30303916246E+02 -0.76000775677E+01  0.63741409363E+01  0.31886018748E+02  0.00000000000E+00 0.  1.
         11    1    3    3    0    0  0.35314830517E+01  0.44285840688E+01  0.88876880004E+01  0.10539199574E+02  0.51100000000E-03 0. -1.
        -11    1    3    3    0    0 -0.82601690052E+01 -0.13251590963E+02 -0.25709934975E+01  0.15825456166E+02  0.51100000000E-03 0.  1.
         12    1    3    3    0    0 -0.25575230293E+02  0.16423084462E+02 -0.12690835439E+02  0.32937325513E+02  0.00000000000E+00 0. -1.
</event>
<event>
 7    1  0.7284210E-013  0.5930196E+02  0.7816164E-02  0.1266605E+00
        -11   -1    0    0    0    0  0.00000000000E+00  0.00000000000E+00  0.45593999997E+02  0.45594000000E+02  0.51100000000E-03 0.  1.
         11   -1    0    0    0    0 -0.00000000000E+00 -0.00000000000E+00 -0.45593999997E+02  0.45594000000E+02  0.51100000000E-03 0. -1.
    9900012    2    1    2    0    0  0.22720197850E+02 -0.61394436744E+01 -0.21513244302E+02  0.59301955414E+02  0.50000020765E+02 0.  0.
        -12    1    1    2    0    0 -0.22720197850E+02  0.61394436744E+01  0.21513244302E+02  0.31886044586E+02  0.00000000000E+00 0.  1.
         11    1    3    3    0    0 -0.66981925134E+01 -0.55138617767E+01 -0.27230314532E+02  0.28578986763E+02  0.51100000000E-03 0. -1.
        -11    1    3    3    0    0  0.69541349631E+01  0.19052377673E+00 -0.14944485693E+01  0.71154528445E+01  0.51100000000E-03 0.  1.
        -12    1    3    3    0    0  0.22464255400E+02 -0.81610567441E+00  0.72115187988E+01  0.23607515806E+02  0.00000000000E+00 0.  1.
</event>
<event>
 7    1  0.7284210E-013  0.5930192E+02  0.7816164E-02  0.1266605E+00
        -11   -1    0    0    0    0  0.00000000000E+00  0.00000000000E+00  0.45593999997E+02  0.45594000000E+02  0.51100000000E-03 0.  1.
         11   -1    0    0    0    0 -0.00000000000E+00 -0.00000000000E+00 -0.45593999997E+02  0.45594000000E+02  0.51100000000E-03 0. -1.
    9900012    2    1    2    0    0 -0.26421600018E+02  0.11343711422E+02 -0.13781922076E+02  0.59301919770E+02  0.49999955759E+02 0.  0.
        -12    1    1    2    0    0  0.26421600018E+02 -0.11343711422E+02  0.13781922076E+02  0.31886080230E+02  0.00000000000E+00 0.  1.
         11    1    3    3    0    0 -0.17988594763E+02  0.86082385802E+01 -0.19770552478E+01  0.20039961595E+02  0.51100000000E-03 0. -1.
        -11    1    3    3    0    0 -0.32891778207E+01 -0.14716377295E+01  0.13047793525E+02  0.13536222681E+02  0.51100000000E-03 0.  1.
         12    1    3    3    0    0 -0.51438274341E+01  0.42071105713E+01 -0.24852660353E+02  0.25725735493E+02  0.00000000000E+00 0. -1.
</event>
<event>
 7    1  0.7284210E-013  0.5930191E+02  0.7816164E-02  0.1266605E+00
        -11   -1    0    0    0    0  0.00000000000E+00  0.00000000000E+00  0.45593999997E+02  0.45594000000E+02  0.51100000000E-03 0.  1.
         11   -1    0    0    0    0 -0.00000000000E+00 -0.00000000000E+00 -0.45593999997E+02  0.45594000000E+02  0.51100000000E-03 0. -1.
    9900012    2    1    2    0    0 -0.16586486401E+02 -0.73790223942E+01  0.26213762808E+02  0.59301907997E+02  0.49999934289E+02 0.  0.
        -12    1    1    2    0    0  0.16586486401E+02  0.73790223942E+01 -0.26213762808E+02  0.31886092003E+02  0.00000000000E+00 0.  1.
         11    1    3    3    0    0 -0.78674097445E+01 -0.13354764165E+02 -0.13729788407E+01  0.15560556967E+02  0.51100000000E-03 0. -1.
        -11    1    3    3    0    0 -0.12809925722E+02 -0.67145635112E+01  0.26715884792E+02  0.30379566498E+02  0.51100000000E-03 0.  1.
         12    1    3    3    0    0  0.40908490648E+01  0.12690305282E+02  0.87085685725E+00  0.13361784532E+02  0.00000000000E+00 0. -1.
</event>
<event>
 7    1  0.7284210E-013  0.5930194E+02  0.7816164E-02  0.1266605E+00
        -11   -1    0    0    0    0  0.00000000000E+00  0.00000000000E+00  0.45593999997E+02  0.45594000000E+02  0.51100000000E-03 0. -1.
         11   -1    0    0    0    0 -0.00000000000E+00 -0.00000000000E+00 -0.45593999997E+02  0.45594000000E+02  0.51100000000E-03 0.  1.
    9900012    2    1    2    0    0 -0.12547891661E+01  0.27353947661E+02 -0.16337318842E+02  0.59301938226E+02  0.49999989420E+02 0.  0.
        -12    1    1    2    0    0  0.12547891661E+01 -0.27353947661E+02  0.16337318842E+02  0.31886061774E+02  0.00000000000E+00 0.  1.
         11    1    3    3    0    0  0.73981731658E+01  0.18949016072E+02  0.12523434274E+02  0.23887958945E+02  0.51100000000E-03 0. -1.
        -11    1    3    3    0    0  0.12022686363E+01  0.41977079923E+01  0.27003142935E+00  0.43748279391E+01  0.51100000000E-03 0.  1.
        -12    1    3    3    0    0 -0.98552309683E+01  0.42072235970E+01 -0.29130784545E+02  0.31039151342E+02  0.00000000000E+00 0.  1.
</event>
<event>
 7    1  0.7284210E-013  0.5930193E+02  0.7816164E-02  0.1266605E+00
        -11   -1    0    0    0    0  0.00000000000E+00  0.00000000000E+00  0.45593999997E+02  0.45594000000E+02  0.51100000000E-03 0.  1.
         11   -1    0    0    0    0 -0.00000000000E+00 -0.00000000000E+00 -0.45593999997E+02  0.45594000000E+02  0.51100000000E-03 0. -1.
    9900012    2    1    2    0    0  0.12425633750E+02 -0.22150035544E+01 -0.29281715715E+02  0.59301929529E+02  0.49999973559E+02 0.  0.
        -12    1    1    2    0    0 -0.12425633750E+02  0.22150035544E+01  0.29281715715E+02  0.31886070471E+02  0.00000000000E+00 0.  1.
         11    1    3    3    0    0 -0.60740255178E+01 -0.79232808676E+01 -0.51275202389E+01  0.11223351984E+02  0.51100000000E-03 0. -1.
        -11    1    3    3    0    0 -0.92201480521E+01  0.68076352043E+01 -0.14975602501E+02  0.18857987637E+02  0.51100000000E-03 0.  1.
        -12    1    3    3    0    0  0.27719807319E+02 -0.10993578911E+01 -0.91785929754E+01  0.29220589909E+02  0.00000000000E+00 0.  1.
</event>
<event>
 7    1  0.7972488E-013  0.5930196E+02  0.7816164E-02  0.1266605E+00
        -11   -1    0    0    0    0  0.00000000000E+00  0.00000000000E+00  0.45593999997E+02  0.45594000000E+02  0.51100000000E-03 0. -1.
         11   -1    0    0    0    0 -0.00000000000E+00 -0.00000000000E+00 -0.45593999997E+02  0.45594000000E+02  0.51100000000E-03 0.  1.
    9900012    2    1    2    0    0  0.11217445704E+02 -0.11433788721E+02  0.27570944857E+02  0.59301958964E+02  0.50000027239E+02 0.  0.
        -12    1    1    2    0    0 -0.11217445704E+02  0.11433788721E+02 -0.27570944857E+02  0.31886041036E+02  0.00000000000E+00 0.  1.
         11    1    3    3    0    0  0.80636206702E+01  0.97365425019E+01  0.11678552737E+01  0.12695909751E+02  0.51100000000E-03 0. -1.
        -11    1    3    3    0    0 -0.53732041414E+01 -0.73672731969E+01 -0.56172319249E+01  0.10709870768E+02  0.51100000000E-03 0.  1.
         12    1    3    3    0    0  0.85270291751E+01 -0.13803058026E+02  0.32020321509E+02  0.35896178445E+02  0.00000000000E+00 0. -1.
</event>
<event>
 7    1  0.7284210E-013  0.5930194E+02  0.7816164E-02  0.1266605E+00
        -11   -1    0    0    0    0  0.00000000000E+00  0.00000000000E+00  0.45593999997E+02  0.45594000000E+02  0.51100000000E-03 0.  1.
         11   -1    0    0    0    0 -0.00000000000E+00 -0.00000000000E+00 -0.45593999997E+02  0.45594000000E+02  0.51100000000E-03 0. -1.
    9900012    2    1    2    0    0  0.46571383523E+00  0.30607200172E+02  0.89276656419E+01  0.59301940263E+02  0.49999993133E+02 0.  0.
        -12    1    1    2    0    0 -0.46571383523E+00 -0.30607200172E+02 -0.89276656419E+01  0.31886059737E+02  0.00000000000E+00 0.  1.
         11    1    3    3    0    0  0.13091336255E+01  0.12091233096E+02  0.14506282725E+02  0.18929975895E+02  0.51100000000E-03 0. -1.
        -11    1    3    3    0    0 -0.29416441399E+01 -0.71688248342E+01  0.80888801966E+01  0.11201575909E+02  0.51100000000E-03 0.  1.
         12    1    3    3    0    0  0.20982243497E+01  0.25684791910E+02 -0.13667497280E+02  0.29170388458E+02  0.00000000000E+00 0. -1.
</event>
<event>
 7    1  0.7284210E-013  0.5930194E+02  0.7816164E-02  0.1266605E+00
        -11   -1    0    0    0    0  0.00000000000E+00  0.00000000000E+00  0.45593999997E+02  0.45594000000E+02  0.51100000000E-03 0. -1.
         11   -1    0    0    0    0 -0.00000000000E+00 -0.00000000000E+00 -0.45593999997E+02  0.45594000000E+02  0.51100000000E-03 0.  1.
    9900012    2    1    2    0    0  0.22064195657E+02 -0.21969211839E+02  0.68735435539E+01  0.59301943489E+02  0.49999999018E+02 0.  0.
        -12    1    1    2    0    0 -0.22064195657E+02  0.21969211839E+02 -0.68735435539E+01  0.31886056511E+02  0.00000000000E+00 0.  1.
         11    1    3    3    0    0 -0.35163068872E+01 -0.68945114189E+01 -0.68111144261E+01  0.10309703285E+02  0.51100000000E-03 0. -1.
        -11    1    3    3    0    0  0.22763251203E+02 -0.67771934117E+01 -0.84318783002E+01  0.25203026164E+02  0.51100000000E-03 0.  1.
         12    1    3    3    0    0  0.28172513412E+01 -0.82975070082E+01  0.22116536280E+02  0.23789214041E+02  0.00000000000E+00 0. -1.
</event>
<event>
 7    1  0.7284210E-013  0.5930186E+02  0.7816164E-02  0.1266605E+00
        -11   -1    0    0    0    0  0.00000000000E+00  0.00000000000E+00  0.45593999997E+02  0.45594000000E+02  0.51100000000E-03 0.  1.
         11   -1    0    0    0    0 -0.00000000000E+00 -0.00000000000E+00 -0.45593999997E+02  0.45594000000E+02  0.51100000000E-03 0. -1.
    9900012    2    1    2    0    0 -0.14731920388E+02  0.23596777952E+02 -0.15584884913E+02  0.59301858092E+02  0.49999843273E+02 0.  0.
        -12    1    1    2    0    0  0.14731920388E+02 -0.23596777952E+02  0.15584884913E+02  0.31886141908E+02  0.00000000000E+00 0.  1.
         11    1    3    3    0    0 -0.24577586907E+02  0.72708316028E+01 -0.86046004759E+01  0.27036307439E+02  0.51100000000E-03 0. -1.
        -11    1    3    3    0    0  0.59465086378E+01 -0.62022425351E+01 -0.11347810500E+01  0.86669778894E+01  0.51100000000E-03 0.  1.
        -12    1    3    3    0    0  0.38991578807E+01  0.22528188884E+02 -0.58455033876E+01  0.23598572763E+02  0.00000000000E+00 0.  1.
</event>
<event>
 7    1  0.7284210E-013  0.5930194E+02  0.7816164E-02  0.1266605E+00
        -11   -1    0    0    0    0  0.00000000000E+00  0.00000000000E+00  0.45593999997E+02  0.45594000000E+02  0.51100000000E-03 0. -1.
         11   -1    0    0    0    0 -0.00000000000E+00 -0.00000000000E+00 -0.45593999997E+02  0.45594000000E+02  0.51100000000E-03 0.  1.
    9900012    2    1    2    0    0  0.10057157824E+02 -0.50818143406E+01  0.29828674828E+02  0.59301935607E+02  0.49999984642E+02 0.  0.
        -12    1    1    2    0    0 -0.10057157824E+02  0.50818143406E+01 -0.29828674828E+02  0.31886064393E+02  0.00000000000E+00 0.  1.
         11    1    3    3    0    0  0.16574957810E+02 -0.98156128446E+00  0.15728335295E+02  0.22870794048E+02  0.51100000000E-03 0. -1.
        -11    1    3    3    0    0 -0.30082971861E+01 -0.77037133807E+01 -0.93295110878E+01  0.12467430738E+02  0.51100000000E-03 0.  1.
        -12    1    3    3    0    0 -0.35095027998E+01  0.36034603245E+01  0.23429850620E+02  0.23963710821E+02  0.00000000000E+00 0.  1.
</event>
<event>
 7    1  0.7284210E-013  0.5930194E+02  0.7816164E-02  0.1266605E+00
        -11   -1    0    0    0    0  0.00000000000E+00  0.00000000000E+00  0.45593999997E+02  0.45594000000E+02  0.51100000000E-03 0. -1.
         11   -1    0    0    0    0 -0.00000000000E+00 -0.00000000000E+00 -0.45593999997E+02  0.45594000000E+02  0.51100000000E-03 0.  1.
    9900012    2    1    2    0    0  0.25718738174E+01  0.29072274865E+02  0.12841699352E+02  0.59301938107E+02  0.49999989203E+02 0.  0.
        -12    1    1    2    0    0 -0.25718738174E+01 -0.29072274865E+02 -0.12841699352E+02  0.31886061893E+02  0.00000000000E+00 0.  1.
         11    1    3    3    0    0 -0.29017968416E+01  0.11988983241E+02  0.16748783465E+01  0.12448347753E+02  0.51100000000E-03 0.  1.
        -11    1    3    3    0    0 -0.50251626960E+00 -0.78267969810E+01 -0.10635648003E+02  0.13214699478E+02  0.51100000000E-03 0. -1.
         12    1    3    3    0    0  0.59761869286E+01  0.24910088606E+02  0.21802469008E+02  0.33638890876E+02  0.00000000000E+00 0. -1.
</event>
<event>
 7    1  0.7284210E-013  0.5930195E+02  0.7816164E-02  0.1266605E+00
        -11   -1    0    0    0    0  0.00000000000E+00  0.00000000000E+00  0.45593999997E+02  0.45594000000E+02  0.51100000000E-03 0.  1.
         11   -1    0    0    0    0 -0.00000000000E+00 -0.00000000000E+00 -0.45593999997E+02  0.45594000000E+02  0.51100000000E-03 0. -1.
    9900012    2    1    2    0    0 -0.54984239969E+01  0.30645427850E+02 -0.68807815098E+01  0.59301951817E+02  0.50000014205E+02 0.  0.
        -12    1    1    2    0    0  0.54984239969E+01 -0.30645427850E+02  0.68807815098E+01  0.31886048183E+02  0.00000000000E+00 0.  1.
         11    1    3    3    0    0 -0.21329322429E+02  0.23863352234E+02 -0.70292394326E+01  0.32769036946E+02  0.51100000000E-03 0.  1.
        -11    1    3    3    0    0 -0.35640350249E+00  0.78728559503E+01  0.53155018824E+01  0.95059689035E+01  0.51100000000E-03 0. -1.
         12    1    3    3    0    0  0.16187301935E+02 -0.10907803341E+01 -0.51670439597E+01  0.17026945967E+02  0.00000000000E+00 0. -1.
</event>
<event>
 7    1  0.7284210E-013  0.5930194E+02  0.7816164E-02  0.1266605E+00
        -11   -1    0    0    0    0  0.00000000000E+00  0.00000000000E+00  0.45593999997E+02  0.45594000000E+02  0.51100000000E-03 0.  1.
         11   -1    0    0    0    0 -0.00000000000E+00 -0.00000000000E+00 -0.45593999997E+02  0.45594000000E+02  0.51100000000E-03 0. -1.
    9900012    2    1    2    0    0  0.30262420526E+02 -0.97886973778E+01 -0.22557345491E+01  0.59301936731E+02  0.49999986692E+02 0.  0.
        -12    1    1    2    0    0 -0.30262420526E+02  0.97886973778E+01  0.22557345491E+01  0.31886063269E+02  0.00000000000E+00 0.  1.
         11    1    3    3    0    0  0.47352349310E+01 -0.77789397605E+01  0.28250262869E+01  0.95349424452E+01  0.51100000000E-03 0. -1.
        -11    1    3    3    0    0  0.14926639517E+01  0.58906091998E+01  0.15822311842E+02  0.16949126075E+02  0.51100000000E-03 0.  1.
         12    1    3    3    0    0  0.24034521644E+02 -0.79003668171E+01 -0.20903072678E+02  0.32817868210E+02  0.00000000000E+00 0. -1.
</event>
<event>
 7    1  0.7284210E-013  0.5930205E+02  0.7816164E-02  0.1266604E+00
        -11   -1    0    0    0    0  0.00000000000E+00  0.00000000000E+00  0.45593999997E+02  0.45594000000E+02  0.51100000000E-03 0.  1.
         11   -1    0    0    0    0 -0.00000000000E+00 -0.00000000000E+00 -0.45593999997E+02  0.45594000000E+02  0.51100000000E-03 0. -1.
    9900012    2    1    2    0    0 -0.22127186028E+02  0.21016157173E+02 -0.92424222681E+01  0.59302053359E+02  0.50000199393E+02 0.  0.
        -12    1    1    2    0    0  0.22127186028E+02 -0.21016157173E+02  0.92424222681E+01  0.31885946641E+02  0.00000000000E+00 0.  1.
         11    1    3    3    0    0 -0.93904971438E+01  0.16223379171E+01 -0.26967422572E+02  0.28601665989E+02  0.51100000000E-03 0. -1.
        -11    1    3    3    0    0 -0.78614812981E+01  0.39350624158E+01  0.51829748916E+01  0.10205431564E+02  0.51100000000E-03 0.  1.
        -12    1    3    3    0    0 -0.48752075863E+01  0.15458756840E+02  0.12542025412E+02  0.20494955806E+02  0.00000000000E+00 0.  1.
</event>
<event>
 7    1  0.7284210E-013  0.5930195E+02  0.7816164E-02  0.1266605E+00
        -11   -1    0    0    0    0  0.00000000000E+00  0.00000000000E+00  0.45593999997E+02  0.45594000000E+02  0.51100000000E-03 0. -1.
         11   -1    0    0    0    0 -0.00000000000E+00 -0.00000000000E+00 -0.45593999997E+02  0.45594000000E+02  0.51100000000E-03 0.  1.
    9900012    2    1    2    0    0  0.20399718340E+02  0.22085853186E+02  0.10620115357E+02  0.59301948669E+02  0.50000008464E+02 0.  0.
        -12    1    1    2    0    0 -0.20399718340E+02 -0.22085853186E+02 -0.10620115357E+02  0.31886051331E+02  0.00000000000E+00 0.  1.
         11    1    3    3    0    0  0.12944049697E+02  0.12758553739E+02  0.26291784332E+02  0.31962275258E+02  0.51100000000E-03 0. -1.
        -11    1    3    3    0    0  0.35330680022E+01 -0.57793834857E+01 -0.42082744597E+01  0.79745480858E+01  0.51100000000E-03 0.  1.
        -12    1    3    3    0    0  0.39226006414E+01  0.15106682933E+02 -0.11463394516E+02  0.19365125325E+02  0.00000000000E+00 0.  1.
</event>
<event>
 7    1  0.7284210E-013  0.5930195E+02  0.7816164E-02  0.1266605E+00
        -11   -1    0    0    0    0  0.00000000000E+00  0.00000000000E+00  0.45593999997E+02  0.45594000000E+02  0.51100000000E-03 0. -1.
         11   -1    0    0    0    0 -0.00000000000E+00 -0.00000000000E+00 -0.45593999997E+02  0.45594000000E+02  0.51100000000E-03 0.  1.
    9900012    2    1    2    0    0 -0.68991886107E+01 -0.31075837853E+02  0.18476523979E+01  0.59301947859E+02  0.50000006987E+02 0.  0.
        -12    1    1    2    0    0  0.68991886107E+01  0.31075837853E+02 -0.18476523979E+01  0.31886052141E+02  0.00000000000E+00 0.  1.
         11    1    3    3    0    0 -0.15033119404E+01 -0.17750371066E+02 -0.19327261814E+02  0.26284570935E+02  0.51100000000E-03 0. -1.
        -11    1    3    3    0    0  0.28674880470E+01 -0.66515394058E+01 -0.20083923261E+01  0.75165885988E+01  0.51100000000E-03 0.  1.
         12    1    3    3    0    0 -0.82633647173E+01 -0.66739273814E+01  0.23183306538E+02  0.25500788324E+02  0.00000000000E+00 0. -1.
</event>
<event>
 7    1  0.7284210E-013  0.5930196E+02  0.7816164E-02  0.1266605E+00
        -11   -1    0    0    0    0  0.00000000000E+00  0.00000000000E+00  0.45593999997E+02  0.45594000000E+02  0.51100000000E-03 0.  1.
         11   -1    0    0    0    0 -0.00000000000E+00 -0.00000000000E+00 -0.45593999997E+02  0.45594000000E+02  0.51100000000E-03 0. -1.
    9900012    2    1    2    0    0 -0.96049636943E+00  0.31862304012E+02  0.76850191304E+00  0.59301959709E+02  0.50000028599E+02 0.  0.
        -12    1    1    2    0    0  0.96049636943E+00 -0.31862304012E+02 -0.76850191304E+00  0.31886040291E+02  0.00000000000E+00 0.  1.
         11    1    3    3    0    0 -0.61798306188E+01  0.10958447620E+02 -0.12049780496E+02  0.17420536472E+02  0.51100000000E-03 0. -1.
        -11    1    3    3    0    0 -0.10661730136E+02  0.33007654495E+01 -0.49941816989E+01  0.12227403369E+02  0.51100000000E-03 0.  1.
        -12    1    3    3    0    0  0.15881064385E+02  0.17603090943E+02  0.17812464108E+02  0.29654019868E+02  0.00000000000E+00 0.  1.
</event>
<event>
 7    1  0.7284210E-013  0.5930192E+02  0.7816164E-02  0.1266605E+00
        -11   -1    0    0    0    0  0.00000000000E+00  0.00000000000E+00  0.45593999997E+02  0.45594000000E+02  0.51100000000E-03 0.  1.
         11   -1    0    0    0    0 -0.00000000000E+00 -0.00000000000E+00 -0.45593999997E+02  0.45594000000E+02  0.51100000000E-03 0. -1.
    9900012    2    1    2    0    0 -0.38946435733E+01 -0.20448929935E+02 -0.24153569670E+02  0.59301922915E+02  0.49999961496E+02 0.  0.
        -12    1    1    2    0    0  0.38946435733E+01  0.20448929935E+02  0.24153569670E+02  0.31886077085E+02  0.00000000000E+00 0.  1.
         11    1    3    3    0    0 -0.42545911514E+01 -0.85166090292E+00 -0.14328037231E+01  0.45694418619E+01  0.51100000000E-03 0. -1.
        -11    1    3    3    0    0  0.17051876200E+02 -0.43795060287E+01  0.56301863659E+01  0.18483656396E+02  0.51100000000E-03 0.  1.
         12    1    3    3    0    0 -0.16691928622E+02 -0.15217763004E+02 -0.28350952313E+02  0.36248824657E+02  0.00000000000E+00 0. -1.
</event>
<event>
 7    1  0.7284210E-013  0.5930195E+02  0.7816164E-02  0.1266605E+00
        -11   -1    0    0    0    0  0.00000000000E+00  0.00000000000E+00  0.45593999997E+02  0.45594000000E+02  0.51100000000E-03 0.  1.
         11   -1    0    0    0    0 -0.00000000000E+00 -0.00000000000E+00 -0.45593999997E+02  0.45594000000E+02  0.51100000000E-03 0. -1.
    9900012    2    1    2    0    0  0.32288747037E+01 -0.11456991702E+02 -0.29580942732E+02  0.59301945624E+02  0.50000002912E+02 0.  0.
        -12    1    1    2    0    0 -0.32288747037E+01  0.11456991702E+02  0.29580942732E+02  0.31886054376E+02  0.00000000000E+00 0.  1.
         11    1    3    3    0    0  0.41574177878E+00 -0.11332206949E+02 -0.28493528841E+02  0.30667131291E+02  0.51100000000E-03 0. -1.
        -11    1    3    3    0    0 -0.22717400846E+01  0.48533002687E+01 -0.13390001049E+02  0.14422463550E+02  0.51100000000E-03 0.  1.
        -12    1    3    3    0    0  0.50848730095E+01 -0.49780850222E+01  0.12302587158E+02  0.14212350783E+02  0.00000000000E+00 0.  1.
</event>
<event>
 7    1  0.7284210E-013  0.5930192E+02  0.7816164E-02  0.1266605E+00
        -11   -1    0    0    0    0  0.00000000000E+00  0.00000000000E+00  0.45593999997E+02  0.45594000000E+02  0.51100000000E-03 0. -1.
         11   -1    0    0    0    0 -0.00000000000E+00 -0.00000000000E+00 -0.45593999997E+02  0.45594000000E+02  0.51100000000E-03 0.  1.
    9900012    2    1    2    0    0  0.12174080034E+02  0.29427072097E+02 -0.16004575602E+01  0.59301917436E+02  0.49999951504E+02 0.  0.
        -12    1    1    2    0    0 -0.12174080034E+02 -0.29427072097E+02  0.16004575602E+01  0.31886082564E+02  0.00000000000E+00 0.  1.
         11    1    3    3    0    0  0.50370413905E+01 -0.64614322135E+01  0.15668109220E+01  0.83412702238E+01  0.51100000000E-03 0. -1.
        -11    1    3    3    0    0 -0.10054147895E+02  0.53201259647E+01 -0.10099231261E+02  0.15211314950E+02  0.51100000000E-03 0.  1.
         12    1    3    3    0    0  0.17191186538E+02  0.30568378345E+02  0.69319627790E+01  0.35749332263E+02  0.00000000000E+00 0. -1.
</event>
<event>
 7    1  0.7284210E-013  0.5930194E+02  0.7816164E-02  0.1266605E+00
        -11   -1    0    0    0    0  0.00000000000E+00  0.00000000000E+00  0.45593999997E+02  0.45594000000E+02  0.51100000000E-03 0.  1.
         11   -1    0    0    0    0 -0.00000000000E+00 -0.00000000000E+00 -0.45593999997E+02  0.45594000000E+02  0.51100000000E-03 0. -1.
    9900012    2    1    2    0    0 -0.19728337971E+02  0.20812699573E+02 -0.13940758593E+02  0.59301944540E+02  0.50000000935E+02 0.  0.
        -12    1    1    2    0    0  0.19728337971E+02 -0.20812699573E+02  0.13940758593E+02  0.31886055460E+02  0.00000000000E+00 0.  1.
         11    1    3    3    0    0 -0.22482346540E+02  0.90727955048E+01 -0.26842265293E+02  0.36170135894E+02  0.51100000000E-03 0. -1.
        -11    1    3    3    0    0 -0.56067910652E+01  0.12077534654E+01  0.34149131964E+01  0.66750585677E+01  0.51100000000E-03 0.  1.
        -12    1    3    3    0    0  0.83607996342E+01  0.10532150603E+02  0.94865935044E+01  0.16456750079E+02  0.00000000000E+00 0.  1.
</event>
<event>
 7    1  0.7284210E-013  0.5930191E+02  0.7816164E-02  0.1266605E+00
        -11   -1    0    0    0    0  0.00000000000E+00  0.00000000000E+00  0.45593999997E+02  0.45594000000E+02  0.51100000000E-03 0. -1.
         11   -1    0    0    0    0 -0.00000000000E+00 -0.00000000000E+00 -0.45593999997E+02  0.45594000000E+02  0.51100000000E-03 0.  1.
    9900012    2    1    2    0    0 -0.60874867982E+01 -0.28119612826E+01  0.31173032730E+02  0.59301912260E+02  0.49999942063E+02 0.  0.
        -12    1    1    2    0    0  0.60874867982E+01  0.28119612826E+01 -0.31173032730E+02  0.31886087740E+02  0.00000000000E+00 0.  1.
         11    1    3    3    0    0  0.16244863598E+02  0.96878159310E-01 -0.14733208806E+01  0.16311825568E+02  0.51100000000E-03 0. -1.
        -11    1    3    3    0    0  0.26970795727E+01 -0.44527185189E+00  0.42937138255E+01  0.50900377130E+01  0.51100000000E-03 0.  1.
        -12    1    3    3    0    0 -0.25029429969E+02 -0.24635675900E+01  0.28352639785E+02  0.37900048979E+02  0.00000000000E+00 0.  1.
</event>
<event>
 7    1  0.7284210E-013  0.5930194E+02  0.7816164E-02  0.1266605E+00
        -11   -1    0    0    0    0  0.00000000000E+00  0.00000000000E+00  0.45593999997E+02  0.45594000000E+02  0.51100000000E-03 0.  1.
         11   -1    0    0    0    0 -0.00000000000E+00 -0.00000000000E+00 -0.45593999997E+02  0.45594000000E+02  0.51100000000E-03 0. -1.
    9900012    2    1    2    0    0  0.13641787496E+02  0.26682545330E+02  0.10893301691E+02  0.59301943280E+02  0.49999998637E+02 0.  0.
        -12    1    1    2    0    0 -0.13641787496E+02 -0.26682545330E+02 -0.10893301691E+02  0.31886056720E+02  0.00000000000E+00 0.  1.
         11    1    3    3    0    0  0.70668683248E+01 -0.47365024241E+01 -0.69782162078E+01  0.11003207934E+02  0.51100000000E-03 0.  1.
        -11    1    3    3    0    0 -0.11946295977E+02  0.58593355459E+01  0.52677571620E+01  0.14310662682E+02  0.51100000000E-03 0. -1.
         12    1    3    3    0    0  0.18521215149E+02  0.25559712208E+02  0.12603760736E+02  0.33988072665E+02  0.00000000000E+00 0. -1.
</event>
<event>
 7    1  0.7284210E-013  0.5930195E+02  0.7816164E-02  0.1266605E+00
        -11   -1    0    0    0    0  0.00000000000E+00  0.00000000000E+00  0.45593999997E+02  0.45594000000E+02  0.51100000000E-03 0.  1.
         11   -1    0    0    0    0 -0.00000000000E+00 -0.00000000000E+00 -0.45593999997E+02  0.45594000000E+02  0.51100000000E-03 0. -1.
    9900012    2    1    2    0    0 -0.25945088961E+02 -0.76395562312E+01 -0.16888154165E+02  0.59301949575E+02  0.50000010117E+02 0.  0.
        -12    1    1    2    0    0  0.25945088961E+02  0.76395562312E+01  0.16888154165E+02  0.31886050425E+02  0.00000000000E+00 0.  1.
         11    1    3    3    0    0 -0.21017815061E+02  0.10922182708E+02  0.78804985647E+01  0.24962870086E+02  0.51100000000E-03 0. -1.
        -11    1    3    3    0    0 -0.29002982485E+01 -0.23409895057E+01  0.96704142261E+00  0.38506014037E+01  0.51100000000E-03 0.  1.
         12    1    3    3    0    0 -0.20269756521E+01 -0.16220749433E+02 -0.25735694152E+02  0.30488478085E+02  0.00000000000E+00 0. -1.
</event>
<event>
 7    1  0.7284210E-013  0.5930194E+02  0.7816164E-02  0.1266605E+00
        -11   -1    0    0    0    0  0.00000000000E+00  0.00000000000E+00  0.45593999997E+02  0.45594000000E+02  0.51100000000E-03 0.  1.
         11   -1    0    0    0    0 -0.00000000000E+00 -0.00000000000E+00 -0.45593999997E+02  0.45594000000E+02  0.51100000000E-03 0. -1.
    9900012    2    1    2    0    0 -0.67386110308E+01 -0.29480517116E+02 -0.10109936281E+02  0.59301943806E+02  0.49999999595E+02 0.  0.
        -12    1    1    2    0    0  0.67386110308E+01  0.29480517116E+02  0.10109936281E+02  0.31886056194E+02  0.00000000000E+00 0.  1.
         11    1    3    3    0    0 -0.79957532884E+01 -0.20841025108E+02  0.97193489484E+01  0.24346378425E+02  0.51100000000E-03 0. -1.
        -11    1    3    3    0    0 -0.97826165059E+00 -0.11103934884E+02  0.32709447096E+01  0.11616946472E+02  0.51100000000E-03 0.  1.
        -12    1    3    3    0    0  0.22354039081E+01  0.24644428761E+01 -0.23100229939E+02  0.23338618909E+02  0.00000000000E+00 0.  1.
</event>
<event>
 7    1  0.7284210E-013  0.5930193E+02  0.7816164E-02  0.1266605E+00
        -11   -1    0    0    0    0  0.00000000000E+00  0.00000000000E+00  0.45593999997E+02  0.45594000000E+02  0.51100000000E-03 0.  1.
         11   -1    0    0    0    0 -0.00000000000E+00 -0.00000000000E+00 -0.45593999997E+02  0.45594000000E+02  0.51100000000E-03 0. -1.
    9900012    2    1    2    0    0  0.25016190216E+02  0.18116894938E+02 -0.79176801961E+01  0.59301932277E+02  0.49999978570E+02 0.  0.
        -12    1    1    2    0    0 -0.25016190216E+02 -0.18116894938E+02  0.79176801961E+01  0.31886067723E+02  0.00000000000E+00 0.  1.
         11    1    3    3    0    0  0.28494051263E+01 -0.30159305932E+01 -0.35492191588E+01  0.54600278218E+01  0.51100000000E-03 0. -1.
        -11    1    3    3    0    0 -0.35539896555E+01 -0.43573908491E+01  0.12640120408E+02  0.13834389819E+02  0.51100000000E-03 0.  1.
        -12    1    3    3    0    0  0.25720774745E+02  0.25490216380E+02 -0.17008581445E+02  0.40007514636E+02  0.00000000000E+00 0.  1.
</event>
<event>
 7    1  0.7284210E-013  0.5930192E+02  0.7816164E-02  0.1266605E+00
        -11   -1    0    0    0    0  0.00000000000E+00  0.00000000000E+00  0.45593999997E+02  0.45594000000E+02  0.51100000000E-03 0. -1.
         11   -1    0    0    0    0 -0.00000000000E+00 -0.00000000000E+00 -0.45593999997E+02  0.45594000000E+02  0.51100000000E-03 0.  1.
    9900012    2    1    2    0    0 -0.26460217463E+02 -0.86794664977E+01 -0.15532098511E+02  0.59301916342E+02  0.49999949508E+02 0.  0.
        -12    1    1    2    0    0  0.26460217463E+02  0.86794664977E+01  0.15532098511E+02  0.31886083658E+02  0.00000000000E+00 0.  1.
         11    1    3    3    0    0 -0.52233928081E+01 -0.18803836534E+02 -0.54789243821E+01  0.20270340734E+02  0.51100000000E-03 0. -1.
        -11    1    3    3    0    0  0.44781855270E+01 -0.36638847871E+01  0.36024342467E+01  0.68158440497E+01  0.51100000000E-03 0.  1.
        -12    1    3    3    0    0 -0.25715010182E+02  0.13788254823E+02 -0.13655608376E+02  0.32215731558E+02  0.00000000000E+00 0.  1.
</event>
<event>
 7    1  0.7284210E-013  0.5930194E+02  0.7816164E-02  0.1266605E+00
        -11   -1    0    0    0    0  0.00000000000E+00  0.00000000000E+00  0.45593999997E+02  0.45594000000E+02  0.51100000000E-03 0.  1.
         11   -1    0    0    0    0 -0.00000000000E+00 -0.00000000000E+00 -0.45593999997E+02  0.45594000000E+02  0.51100000000E-03 0. -1.
    9900012    2    1    2    0    0 -0.23634800403E+01 -0.26781859555E+02  0.17142550554E+02  0.59301935981E+02  0.49999985325E+02 0.  0.
        -12    1    1    2    0    0  0.23634800403E+01  0.26781859555E+02 -0.17142550554E+02  0.31886064019E+02  0.00000000000E+00 0.  1.
         11    1    3    3    0    0  0.35766915451E+01  0.89276019218E+01  0.32651171380E+01  0.10156563822E+02  0.51100000000E-03 0. -1.
        -11    1    3    3    0    0 -0.76155762355E+01 -0.68861071229E+01  0.17252815060E+02  0.20076730323E+02  0.51100000000E-03 0.  1.
         12    1    3    3    0    0  0.16754046501E+01 -0.28823354354E+02 -0.33753816440E+01  0.29068641836E+02  0.00000000000E+00 0. -1.
</event>
<event>
 7    1  0.7284210E-013  0.5930195E+02  0.7816164E-02  0.1266605E+00
        -11   -1    0    0    0    0  0.00000000000E+00  0.00000000000E+00  0.45593999997E+02  0.45594000000E+02  0.51100000000E-03 0.  1.
         11   -1    0    0    0    0 -0.00000000000E+00 -0.00000000000E+00 -0.45593999997E+02  0.45594000000E+02  0.51100000000E-03 0. -1.
    9900012    2    1    2    0    0  0.90083538898E+01  0.30135171605E+02 -0.52384548493E+01  0.59301946361E+02  0.50000004255E+02 0.  0.
        -12    1    1    2    0    0 -0.90083538898E+01 -0.30135171605E+02  0.52384548493E+01  0.31886053639E+02  0.00000000000E+00 0.  1.
         11    1    3    3    0    0 -0.44712804902E+01 -0.92901639118E+01  0.24662415425E+01  0.10601030249E+02  0.51100000000E-03 0. -1.
        -11    1    3    3    0    0  0.86114290430E+00 -0.22525299662E+01  0.30090335463E+01  0.38561303783E+01  0.51100000000E-03 0.  1.
         12    1    3    3    0    0  0.12618491476E+02  0.41677865483E+02 -0.10713729938E+02  0.44844785734E+02  0.00000000000E+00 0. -1.
</event>
<event>
 7    1  0.7284210E-013  0.5930194E+02  0.7816164E-02  0.1266605E+00
        -11   -1    0    0    0    0  0.00000000000E+00  0.00000000000E+00  0.45593999997E+02  0.45594000000E+02  0.51100000000E-03 0.  1.
         11   -1    0    0    0    0 -0.00000000000E+00 -0.00000000000E+00 -0.45593999997E+02  0.45594000000E+02  0.51100000000E-03 0. -1.
    9900012    2    1    2    0    0 -0.21577510456E+02 -0.35076287767E+00 -0.23473572905E+02  0.59301943220E+02  0.49999998527E+02 0.  0.
        -12    1    1    2    0    0  0.21577510456E+02  0.35076287767E+00  0.23473572905E+02  0.31886056780E+02  0.00000000000E+00 0.  1.
         11    1    3    3    0    0  0.98961474043E+01 -0.63117219953E-01 -0.88579425923E+01  0.13281598716E+02  0.51100000000E-03 0. -1.
        -11    1    3    3    0    0  0.54455170518E+01 -0.19483072652E+01  0.10544755837E+01  0.58789009329E+01  0.51100000000E-03 0.  1.
        -12    1    3    3    0    0 -0.36919174912E+02  0.16606616075E+01 -0.15670105896E+02  0.40141443571E+02  0.00000000000E+00 0.  1.
</event>
<event>
 7    1  0.7284210E-013  0.5930184E+02  0.7816164E-02  0.1266605E+00
        -11   -1    0    0    0    0  0.00000000000E+00  0.00000000000E+00  0.45593999997E+02  0.45594000000E+02  0.51100000000E-03 0.  1.
         11   -1    0    0    0    0 -0.00000000000E+00 -0.00000000000E+00 -0.45593999997E+02  0.45594000000E+02  0.51100000000E-03 0. -1.
    9900012    2    1    2    0    0  0.26777716238E+02  0.13109120843E+02 -0.11306287353E+02  0.59301838896E+02  0.49999808265E+02 0.  0.
        -12    1    1    2    0    0 -0.26777716238E+02 -0.13109120843E+02  0.11306287353E+02  0.31886161104E+02  0.00000000000E+00 0.  1.
         11    1    3    3    0    0  0.82900880739E+01  0.66650653986E+01 -0.34972247787E+01  0.11197287102E+02  0.51100000000E-03 0. -1.
        -11    1    3    3    0    0  0.15477560880E+02  0.16232133000E+02 -0.21458742944E+02  0.31040532881E+02  0.51100000000E-03 0.  1.
        -12    1    3    3    0    0  0.30100672842E+01 -0.97880775556E+01  0.13649680369E+02  0.17064018913E+02  0.00000000000E+00 0.  1.
</event>
<event>
 7    1  0.7284210E-013  0.5930194E+02  0.7816164E-02  0.1266605E+00
        -11   -1    0    0    0    0  0.00000000000E+00  0.00000000000E+00  0.45593999997E+02  0.45594000000E+02  0.51100000000E-03 0.  1.
         11   -1    0    0    0    0 -0.00000000000E+00 -0.00000000000E+00 -0.45593999997E+02  0.45594000000E+02  0.51100000000E-03 0. -1.
    9900012    2    1    2    0    0 -0.15957105155E+02 -0.15127173084E+01 -0.27564530991E+02  0.59301938981E+02  0.49999990796E+02 0.  0.
        -12    1    1    2    0    0  0.15957105155E+02  0.15127173084E+01  0.27564530991E+02  0.31886061019E+02  0.00000000000E+00 0.  1.
         11    1    3    3    0    0 -0.25892775572E+02  0.28403771590E+00 -0.24133302435E+02  0.35396790687E+02  0.51100000000E-03 0. -1.
        -11    1    3    3    0    0 -0.45131550384E+01  0.55181509870E+01  0.78101029225E+00  0.71713691896E+01  0.51100000000E-03 0.  1.
         12    1    3    3    0    0  0.14448825456E+02 -0.73149060112E+01 -0.42122388480E+01  0.16733779104E+02  0.00000000000E+00 0. -1.
</event>
<event>
 7    1  0.7284210E-013  0.5930201E+02  0.7816164E-02  0.1266605E+00
        -11   -1    0    0    0    0  0.00000000000E+00  0.00000000000E+00  0.45593999997E+02  0.45594000000E+02  0.51100000000E-03 0. -1.
         11   -1    0    0    0    0 -0.00000000000E+00 -0.00000000000E+00 -0.45593999997E+02  0.45594000000E+02  0.51100000000E-03 0.  1.
    9900012    2    1    2    0    0  0.39588302608E+01  0.20974993331E+02  0.23687419352E+02  0.59302007498E+02  0.50000115754E+02 0.  0.
        -12    1    1    2    0    0 -0.39588302608E+01 -0.20974993331E+02 -0.23687419352E+02  0.31885992502E+02  0.00000000000E+00 0.  1.
         11    1    3    3    0    0 -0.13294077590E+02  0.77136077091E+01  0.17116692841E+02  0.23004639031E+02  0.51100000000E-03 0. -1.
        -11    1    3    3    0    0  0.68008572980E+01  0.11596647941E+02  0.16841536710E+02  0.21549275219E+02  0.51100000000E-03 0.  1.
        -12    1    3    3    0    0  0.10452050553E+02  0.16647376806E+01 -0.10270810199E+02  0.14748093248E+02  0.00000000000E+00 0.  1.
</event>
<event>
 7    1  0.7284210E-013  0.5930188E+02  0.7816164E-02  0.1266605E+00
        -11   -1    0    0    0    0  0.00000000000E+00  0.00000000000E+00  0.45593999997E+02  0.45594000000E+02  0.51100000000E-03 0.  1.
         11   -1    0    0    0    0 -0.00000000000E+00 -0.00000000000E+00 -0.45593999997E+02  0.45594000000E+02  0.51100000000E-03 0. -1.
    9900012    2    1    2    0    0  0.12584697947E+02  0.25376591631E+02 -0.14641672985E+02  0.59301880559E+02  0.49999884248E+02 0.  0.
        -12    1    1    2    0    0 -0.12584697947E+02 -0.25376591631E+02  0.14641672985E+02  0.31886119441E+02  0.00000000000E+00 0.  1.
         11    1    3    3    0    0 -0.34098082693E+01  0.14879199820E+02 -0.68329333114E+01  0.16724423985E+02  0.51100000000E-03 0.  1.
        -11    1    3    3    0    0  0.12876732193E+02  0.23929634601E+02 -0.92678101054E+01  0.28711146764E+02  0.51100000000E-03 0. -1.
        -12    1    3    3    0    0  0.31177740231E+01 -0.13432242790E+02  0.14590704321E+01  0.13866309810E+02  0.00000000000E+00 0.  1.
</event>
<event>
 7    1  0.7284210E-013  0.5930194E+02  0.7816164E-02  0.1266605E+00
        -11   -1    0    0    0    0  0.00000000000E+00  0.00000000000E+00  0.45593999997E+02  0.45594000000E+02  0.51100000000E-03 0. -1.
         11   -1    0    0    0    0 -0.00000000000E+00 -0.00000000000E+00 -0.45593999997E+02  0.45594000000E+02  0.51100000000E-03 0.  1.
    9900012    2    1    2    0    0 -0.15674698566E+02 -0.27638380670E+02  0.26729669505E+01  0.59301937003E+02  0.49999987188E+02 0.  0.
        -12    1    1    2    0    0  0.15674698566E+02  0.27638380670E+02 -0.26729669505E+01  0.31886062997E+02  0.00000000000E+00 0.  1.
         11    1    3    3    0    0  0.30848784331E+01 -0.67774803635E+01  0.83366605017E+01  0.11178131490E+02  0.51100000000E-03 0. -1.
        -11    1    3    3    0    0  0.69541787670E+01 -0.54594367408E-01  0.94697887689E+01  0.11749063046E+02  0.51100000000E-03 0.  1.
        -12    1    3    3    0    0 -0.25713755766E+02 -0.20806305939E+02 -0.15133482320E+02  0.36374742467E+02  0.00000000000E+00 0.  1.
</event>
<event>
 7    1  0.7284210E-013  0.5930194E+02  0.7816164E-02  0.1266605E+00
        -11   -1    0    0    0    0  0.00000000000E+00  0.00000000000E+00  0.45593999997E+02  0.45594000000E+02  0.51100000000E-03 0. -1.
         11   -1    0    0    0    0 -0.00000000000E+00 -0.00000000000E+00 -0.45593999997E+02  0.45594000000E+02  0.51100000000E-03 0.  1.
    9900012    2    1    2    0    0  0.66178124044E+01 -0.32352600232E+01  0.31023510691E+02  0.59301944051E+02  0.50000000042E+02 0.  0.
        -12    1    1    2    0    0 -0.66178124044E+01  0.32352600232E+01 -0.31023510691E+02  0.31886055949E+02  0.00000000000E+00 0.  1.
         11    1    3    3    0    0  0.57999722900E+01 -0.73908668874E+01  0.73773996956E+01  0.11945317846E+02  0.51100000000E-03 0. -1.
        -11    1    3    3    0    0 -0.12598929351E+02 -0.42159415054E+01  0.27967347887E+02  0.30962553701E+02  0.51100000000E-03 0.  1.
        -12    1    3    3    0    0  0.13416769466E+02  0.83715483696E+01 -0.43212368919E+01  0.16394072504E+02  0.00000000000E+00 0.  1.
</event>
<event>
 7    1  0.7284210E-013  0.5930197E+02  0.7816164E-02  0.1266605E+00
        -11   -1    0    0    0    0  0.00000000000E+00  0.00000000000E+00  0.45593999997E+02  0.45594000000E+02  0.51100000000E-03 0.  1.
         11   -1    0    0    0    0 -0.00000000000E+00 -0.00000000000E+00 -0.45593999997E+02  0.45594000000E+02  0.51100000000E-03 0. -1.
    9900012    2    1    2    0    0  0.13881303596E+02  0.54182072721E+01  0.28189919992E+02  0.59301966243E+02  0.50000040515E+02 0.  0.
        -12    1    1    2    0    0 -0.13881303596E+02 -0.54182072721E+01 -0.28189919992E+02  0.31886033757E+02  0.00000000000E+00 0.  1.
         11    1    3    3    0    0  0.87935279172E+00  0.77596492654E+01  0.76945006701E+01  0.10963154604E+02  0.51100000000E-03 0. -1.
        -11    1    3    3    0    0  0.65838832926E+01  0.10998875415E+02  0.28686184001E+02  0.31420056213E+02  0.51100000000E-03 0.  1.
        -12    1    3    3    0    0  0.64180675121E+01 -0.13340317408E+02 -0.81907646793E+01  0.16918755426E+02  0.00000000000E+00 0.  1.
</event>
<event>
 7    1  0.7284210E-013  0.5930195E+02  0.7816164E-02  0.1266605E+00
        -11   -1    0    0    0    0  0.00000000000E+00  0.00000000000E+00  0.45593999997E+02  0.45594000000E+02  0.51100000000E-03 0.  1.
         11   -1    0    0    0    0 -0.00000000000E+00 -0.00000000000E+00 -0.45593999997E+02  0.45594000000E+02  0.51100000000E-03 0. -1.
    9900012    2    1    2    0    0 -0.12221604925E+01  0.29689112118E+02  0.11566472855E+02  0.59301947424E+02  0.50000006194E+02 0.  0.
        -12    1    1    2    0    0  0.12221604925E+01 -0.29689112118E+02 -0.11566472855E+02  0.31886052576E+02  0.00000000000E+00 0.  1.
         11    1    3    3    0    0  0.58000589851E+01  0.15984217557E+02 -0.15364048991E+02  0.22917021988E+02  0.51100000000E-03 0. -1.
        -11    1    3    3    0    0  0.56815051640E+01  0.80392259637E+01  0.69953005756E+01  0.12076542776E+02  0.51100000000E-03 0.  1.
        -12    1    3    3    0    0 -0.12703724642E+02  0.56656685972E+01  0.19935221270E+02  0.24308382659E+02  0.00000000000E+00 0.  1.
</event>
<event>
 7    1  0.7284210E-013  0.5930194E+02  0.7816164E-02  0.1266605E+00
        -11   -1    0    0    0    0  0.00000000000E+00  0.00000000000E+00  0.45593999997E+02  0.45594000000E+02  0.51100000000E-03 0. -1.
         11   -1    0    0    0    0 -0.00000000000E+00 -0.00000000000E+00 -0.45593999997E+02  0.45594000000E+02  0.51100000000E-03 0.  1.
    9900012    2    1    2    0    0 -0.12592872660E+02  0.19938347756E+02  0.21461652330E+02  0.59301942329E+02  0.49999996901E+02 0.  0.
        -12    1    1    2    0    0  0.12592872660E+02 -0.19938347756E+02 -0.21461652330E+02  0.31886057671E+02  0.00000000000E+00 0.  1.
         11    1    3    3    0    0  0.17266011044E+01 -0.26675880737E+01  0.16648839439E+02  0.16949366726E+02  0.51100000000E-03 0. -1.
        -11    1    3    3    0    0  0.28718160359E+00 -0.72916509037E+01  0.53909277477E+01  0.90726373462E+01  0.51100000000E-03 0.  1.
        -12    1    3    3    0    0 -0.14606655368E+02  0.29897586734E+02 -0.57811485621E+00  0.33279938256E+02  0.00000000000E+00 0.  1.
</event>
<event>
 7    1  0.7284210E-013  0.5930195E+02  0.7816164E-02  0.1266605E+00
        -11   -1    0    0    0    0  0.00000000000E+00  0.00000000000E+00  0.45593999997E+02  0.45594000000E+02  0.51100000000E-03 0.  1.
         11   -1    0    0    0    0 -0.00000000000E+00 -0.00000000000E+00 -0.45593999997E+02  0.45594000000E+02  0.51100000000E-03 0. -1.
    9900012    2    1    2    0    0 -0.20114128954E+02 -0.30518742335E+01 -0.24552551044E+02  0.59301954734E+02  0.50000019526E+02 0.  0.
        -12    1    1    2    0    0  0.20114128954E+02  0.30518742335E+01  0.24552551044E+02  0.31886045266E+02  0.00000000000E+00 0.  1.
         11    1    3    3    0    0 -0.17178474626E+01  0.23535837248E+01  0.16870554227E+01  0.33669737918E+01  0.51100000000E-03 0. -1.
        -11    1    3    3    0    0  0.49284579709E+01  0.45441235714E+01 -0.29604968856E+02  0.30354454998E+02  0.51100000000E-03 0.  1.
         12    1    3    3    0    0 -0.23324739462E+02 -0.99495815298E+01  0.33653623886E+01  0.25580525945E+02  0.00000000000E+00 0. -1.
</event>
<event>
 7    1  0.7284210E-013  0.5930192E+02  0.7816164E-02  0.1266605E+00
        -11   -1    0    0    0    0  0.00000000000E+00  0.00000000000E+00  0.45593999997E+02  0.45594000000E+02  0.51100000000E-03 0.  1.
         11   -1    0    0    0    0 -0.00000000000E+00 -0.00000000000E+00 -0.45593999997E+02  0.45594000000E+02  0.51100000000E-03 0. -1.
    9900012    2    1    2    0    0 -0.34607210034E+01 -0.28665376780E+02 -0.13529288312E+02  0.59301920623E+02  0.49999957316E+02 0.  0.
        -12    1    1    2    0    0  0.34607210034E+01  0.28665376780E+02  0.13529288312E+02  0.31886079377E+02  0.00000000000E+00 0.  1.
         11    1    3    3    0    0  0.54431531468E+01  0.76344243877E+01  0.58594330501E+01  0.11056460005E+02  0.51100000000E-03 0. -1.
        -11    1    3    3    0    0  0.23476901000E+01  0.23128959765E+01  0.57366974849E+00  0.33451806895E+01  0.51100000000E-03 0.  1.
         12    1    3    3    0    0 -0.11251564250E+02 -0.38612697144E+02 -0.19962391111E+02  0.44900279929E+02  0.00000000000E+00 0. -1.
</event>
<event>
 7    1  0.7284210E-013  0.5930197E+02  0.7816164E-02  0.1266605E+00
        -11   -1    0    0    0    0  0.00000000000E+00  0.00000000000E+00  0.45593999997E+02  0.45594000000E+02  0.51100000000E-03 0.  1.
         11   -1    0    0    0    0 -0.00000000000E+00 -0.00000000000E+00 -0.45593999997E+02  0.45594000000E+02  0.51100000000E-03 0. -1.
    9900012    2    1    2    0    0 -0.13265266877E+02  0.94692366940E+01 -0.27405927486E+02  0.59301974687E+02  0.50000055916E+02 0.  0.
        -12    1    1    2    0    0  0.13265266877E+02 -0.94692366940E+01  0.27405927486E+02  0.31886025313E+02  0.00000000000E+00 0.  1.
         11    1    3    3    0    0 -0.41568749010E+01  0.45715917093E+01  0.89800411212E+01  0.10900467811E+02  0.51100000000E-03 0. -1.
        -11    1    3    3    0    0  0.56559605481E+01 -0.92749729471E+01 -0.17233560115E+02  0.20371809134E+02  0.51100000000E-03 0.  1.
         12    1    3    3    0    0 -0.14764352524E+02  0.14172617932E+02 -0.19152408492E+02  0.28029697742E+02  0.00000000000E+00 0. -1.
</event>
<event>
 7    1  0.7284210E-013  0.5930197E+02  0.7816164E-02  0.1266605E+00
        -11   -1    0    0    0    0  0.00000000000E+00  0.00000000000E+00  0.45593999997E+02  0.45594000000E+02  0.51100000000E-03 0.  1.
         11   -1    0    0    0    0 -0.00000000000E+00 -0.00000000000E+00 -0.45593999997E+02  0.45594000000E+02  0.51100000000E-03 0. -1.
    9900012    2    1    2    0    0 -0.12778345842E+02 -0.43400482583E+01 -0.28889386221E+02  0.59301972064E+02  0.50000051131E+02 0.  0.
        -12    1    1    2    0    0  0.12778345842E+02  0.43400482583E+01  0.28889386221E+02  0.31886027936E+02  0.00000000000E+00 0.  1.
         11    1    3    3    0    0  0.74245674077E+01 -0.19077345688E+02 -0.15944487392E+02  0.25947947861E+02  0.51100000000E-03 0. -1.
        -11    1    3    3    0    0 -0.77991855737E+01 -0.15489767261E+00  0.28978550036E+01  0.83215895588E+01  0.51100000000E-03 0.  1.
        -12    1    3    3    0    0 -0.12403727676E+02  0.14892195103E+02 -0.15842753832E+02  0.25032434644E+02  0.00000000000E+00 0.  1.
</event>
<event>
 7    1  0.7284210E-013  0.5930170E+02  0.7816164E-02  0.1266606E+00
        -11   -1    0    0    0    0  0.00000000000E+00  0.00000000000E+00  0.45593999997E+02  0.45594000000E+02  0.51100000000E-03 0. -1.
         11   -1    0    0    0    0 -0.00000000000E+00 -0.00000000000E+00 -0.45593999997E+02  0.45594000000E+02  0.51100000000E-03 0.  1.
    9900012    2    1    2    0    0 -0.69956414254E+01 -0.25992123836E+02  0.17094044064E+02  0.59301704466E+02  0.49999563094E+02 0.  0.
        -12    1    1    2    0    0  0.69956414254E+01  0.25992123836E+02 -0.17094044064E+02  0.31886295534E+02  0.00000000000E+00 0.  1.
         11    1    3    3    0    0  0.41218285842E+01 -0.22511688253E+01 -0.42641270022E+00  0.47158307868E+01  0.51100000000E-03 0.  1.
        -11    1    3    3    0    0  0.86610248177E+01  0.90621017729E+01  0.17352585995E+00  0.12536552593E+02  0.51100000000E-03 0. -1.
         12    1    3    3    0    0 -0.19778494827E+02 -0.32803056783E+02  0.17346930904E+02  0.42049321086E+02  0.00000000000E+00 0. -1.
</event>
<event>
 7    1  0.7284210E-013  0.5930195E+02  0.7816164E-02  0.1266605E+00
        -11   -1    0    0    0    0  0.00000000000E+00  0.00000000000E+00  0.45593999997E+02  0.45594000000E+02  0.51100000000E-03 0.  1.
         11   -1    0    0    0    0 -0.00000000000E+00 -0.00000000000E+00 -0.45593999997E+02  0.45594000000E+02  0.51100000000E-03 0. -1.
    9900012    2    1    2    0    0  0.21782243682E+02  0.17773943739E+02  0.15044627033E+02  0.59301952606E+02  0.50000015645E+02 0.  0.
        -12    1    1    2    0    0 -0.21782243682E+02 -0.17773943739E+02 -0.15044627033E+02  0.31886047394E+02  0.00000000000E+00 0.  1.
         11    1    3    3    0    0 -0.42420544106E+01 -0.36680502101E+01  0.88987515344E+01  0.10518431304E+02  0.51100000000E-03 0. -1.
        -11    1    3    3    0    0  0.84700252472E+01 -0.91691350109E+01 -0.18027361909E+01  0.12612066546E+02  0.51100000000E-03 0.  1.
         12    1    3    3    0    0  0.17554272845E+02  0.30611128960E+02  0.79486116896E+01  0.36171454755E+02  0.00000000000E+00 0. -1.
</event>
<event>
 7    1  0.7284210E-013  0.5930195E+02  0.7816164E-02  0.1266605E+00
        -11   -1    0    0    0    0  0.00000000000E+00  0.00000000000E+00  0.45593999997E+02  0.45594000000E+02  0.51100000000E-03 0.  1.
         11   -1    0    0    0    0 -0.00000000000E+00 -0.00000000000E+00 -0.45593999997E+02  0.45594000000E+02  0.51100000000E-03 0. -1.
    9900012    2    1    2    0    0 -0.29032950331E+02  0.88908198410E+01 -0.97345557705E+01  0.59301945706E+02  0.50000003061E+02 0.  0.
        -12    1    1    2    0    0  0.29032950331E+02 -0.88908198410E+01  0.97345557705E+01  0.31886054294E+02  0.00000000000E+00 0.  1.
         11    1    3    3    0    0 -0.17088262025E+02  0.15196813714E+02 -0.62737083181E+01  0.23713103180E+02  0.51100000000E-03 0.  1.
        -11    1    3    3    0    0 -0.22202971390E+02 -0.15472453549E+01  0.31675227789E+01  0.22481083327E+02  0.51100000000E-03 0. -1.
        -12    1    3    3    0    0  0.10258283084E+02 -0.47587485181E+01 -0.66283702313E+01  0.13107759199E+02  0.00000000000E+00 0.  1.
</event>
<event>
 7    1  0.7284210E-013  0.5930197E+02  0.7816164E-02  0.1266605E+00
        -11   -1    0    0    0    0  0.00000000000E+00  0.00000000000E+00  0.45593999997E+02  0.45594000000E+02  0.51100000000E-03 0.  1.
         11   -1    0    0    0    0 -0.00000000000E+00 -0.00000000000E+00 -0.45593999997E+02  0.45594000000E+02  0.51100000000E-03 0. -1.
    9900012    2    1    2    0    0 -0.74368690469E+01  0.26084140057E+02 -0.16763931854E+02  0.59301971791E+02  0.50000050634E+02 0.  0.
        -12    1    1    2    0    0  0.74368690469E+01 -0.26084140057E+02  0.16763931854E+02  0.31886028209E+02  0.00000000000E+00 0.  1.
         11    1    3    3    0    0 -0.18929536721E+02  0.55876851633E+01 -0.13893584774E+02  0.24136720658E+02  0.51100000000E-03 0. -1.
        -11    1    3    3    0    0  0.92164704652E+01 -0.97786757939E+00 -0.87904280809E+01  0.12773847461E+02  0.51100000000E-03 0.  1.
        -12    1    3    3    0    0  0.22761972091E+01  0.21474322473E+02  0.59200810013E+01  0.22391403673E+02  0.00000000000E+00 0.  1.
</event>
<event>
 7    1  0.7284210E-013  0.5930196E+02  0.7816164E-02  0.1266605E+00
        -11   -1    0    0    0    0  0.00000000000E+00  0.00000000000E+00  0.45593999997E+02  0.45594000000E+02  0.51100000000E-03 0.  1.
         11   -1    0    0    0    0 -0.00000000000E+00 -0.00000000000E+00 -0.45593999997E+02  0.45594000000E+02  0.51100000000E-03 0. -1.
    9900012    2    1    2    0    0 -0.16517633863E+02 -0.22486971329E+02 -0.15434488627E+02  0.59301959996E+02  0.50000029122E+02 0.  0.
        -12    1    1    2    0    0  0.16517633863E+02  0.22486971329E+02  0.15434488627E+02  0.31886040004E+02  0.00000000000E+00 0.  1.
         11    1    3    3    0    0 -0.55777850757E+01 -0.10558060239E+02 -0.22748395740E+02  0.25691902058E+02  0.51100000000E-03 0. -1.
        -11    1    3    3    0    0  0.81377156171E+01 -0.77609117796E+01 -0.28429420781E+01  0.11598986466E+02  0.51100000000E-03 0.  1.
        -12    1    3    3    0    0 -0.19077564405E+02 -0.41679993102E+01  0.10156849190E+02  0.22011071472E+02  0.00000000000E+00 0.  1.
</event>
<event>
 7    1  0.7284210E-013  0.5930192E+02  0.7816164E-02  0.1266605E+00
        -11   -1    0    0    0    0  0.00000000000E+00  0.00000000000E+00  0.45593999997E+02  0.45594000000E+02  0.51100000000E-03 0.  1.
         11   -1    0    0    0    0 -0.00000000000E+00 -0.00000000000E+00 -0.45593999997E+02  0.45594000000E+02  0.51100000000E-03 0. -1.
    9900012    2    1    2    0    0  0.18179541395E+02  0.14495475185E+02 -0.21819890376E+02  0.59301919303E+02  0.49999954908E+02 0.  0.
        -12    1    1    2    0    0 -0.18179541395E+02 -0.14495475185E+02  0.21819890376E+02  0.31886080697E+02  0.00000000000E+00 0.  1.
         11    1    3    3    0    0 -0.10967321018E+02  0.68769745960E+01 -0.18796803719E+02  0.22823118547E+02  0.51100000000E-03 0. -1.
        -11    1    3    3    0    0  0.32828713694E+01  0.97039911169E+01  0.68560361431E+00  0.10267168091E+02  0.51100000000E-03 0.  1.
         12    1    3    3    0    0  0.25863991044E+02 -0.20854905275E+01 -0.37086902714E+01  0.26211632665E+02  0.00000000000E+00 0. -1.
</event>
<event>
 7    1  0.7284210E-013  0.5930201E+02  0.7816164E-02  0.1266605E+00
        -11   -1    0    0    0    0  0.00000000000E+00  0.00000000000E+00  0.45593999997E+02  0.45594000000E+02  0.51100000000E-03 0.  1.
         11   -1    0    0    0    0 -0.00000000000E+00 -0.00000000000E+00 -0.45593999997E+02  0.45594000000E+02  0.51100000000E-03 0. -1.
    9900012    2    1    2    0    0 -0.21447213385E+02  0.23458838889E+02 -0.25329744187E+01  0.59302014937E+02  0.50000129322E+02 0.  0.
        -12    1    1    2    0    0  0.21447213385E+02 -0.23458838889E+02  0.25329744187E+01  0.31885985063E+02  0.00000000000E+00 0.  1.
         11    1    3    3    0    0 -0.32123952000E+02  0.11193252175E+02 -0.72441009377E+01  0.34780945718E+02  0.51100000000E-03 0. -1.
        -11    1    3    3    0    0  0.12247065643E+01  0.32137364743E+00 -0.58504605779E+01  0.59859064831E+01  0.51100000000E-03 0.  1.
         12    1    3    3    0    0  0.94520320508E+01  0.11944213067E+02  0.10561587097E+02  0.18535162737E+02  0.00000000000E+00 0. -1.
</event>
<event>
 7    1  0.7284210E-013  0.5930189E+02  0.7816164E-02  0.1266605E+00
        -11   -1    0    0    0    0  0.00000000000E+00  0.00000000000E+00  0.45593999997E+02  0.45594000000E+02  0.51100000000E-03 0.  1.
         11   -1    0    0    0    0 -0.00000000000E+00 -0.00000000000E+00 -0.45593999997E+02  0.45594000000E+02  0.51100000000E-03 0. -1.
    9900012    2    1    2    0    0 -0.21916475531E+02  0.18591832650E+02 -0.13810706309E+02  0.59301894096E+02  0.49999908936E+02 0.  0.
        -12    1    1    2    0    0  0.21916475531E+02 -0.18591832650E+02  0.13810706309E+02  0.31886105904E+02  0.00000000000E+00 0.  1.
         11    1    3    3    0    0 -0.13689619122E+02  0.17886154147E+02 -0.13297480309E+02  0.26156130538E+02  0.51100000000E-03 0. -1.
        -11    1    3    3    0    0  0.51948055807E+01  0.43740963622E+01 -0.12860388148E+02  0.14543325190E+02  0.51100000000E-03 0.  1.
        -12    1    3    3    0    0 -0.13421661989E+02 -0.36684178584E+01  0.12347162148E+02  0.18602438368E+02  0.00000000000E+00 0.  1.
</event>
<event>
 7    1  0.7284210E-013  0.5930194E+02  0.7816164E-02  0.1266605E+00
        -11   -1    0    0    0    0  0.00000000000E+00  0.00000000000E+00  0.45593999997E+02  0.45594000000E+02  0.51100000000E-03 0.  1.
         11   -1    0    0    0    0 -0.00000000000E+00 -0.00000000000E+00 -0.45593999997E+02  0.45594000000E+02  0.51100000000E-03 0. -1.
    9900012    2    1    2    0    0  0.55228446380E+00 -0.28412852770E+02 -0.14461175885E+02  0.59301939901E+02  0.49999992474E+02 0.  0.
        -12    1    1    2    0    0 -0.55228446380E+00  0.28412852770E+02  0.14461175885E+02  0.31886060099E+02  0.00000000000E+00 0.  1.
         11    1    3    3    0    0 -0.92237533661E+01 -0.53632856400E+01  0.88052513857E+01  0.13833832124E+02  0.51100000000E-03 0.  1.
        -11    1    3    3    0    0 -0.14413353423E+01 -0.22074589987E+02 -0.30544542601E+01  0.22331472449E+02  0.51100000000E-03 0. -1.
         12    1    3    3    0    0  0.11217373172E+02 -0.97497714273E+00 -0.20211973011E+02  0.23136635328E+02  0.00000000000E+00 0. -1.
</event>
<event>
 7    1  0.7284210E-013  0.5930229E+02  0.7816164E-02  0.1266604E+00
        -11   -1    0    0    0    0  0.00000000000E+00  0.00000000000E+00  0.45593999997E+02  0.45594000000E+02  0.51100000000E-03 0.  1.
         11   -1    0    0    0    0 -0.00000000000E+00 -0.00000000000E+00 -0.45593999997E+02  0.45594000000E+02  0.51100000000E-03 0. -1.
    9900012    2    1    2    0    0 -0.39771677958E+01  0.30380454386E+02 -0.88265758070E+01  0.59302292969E+02  0.50000636381E+02 0.  0.
        -12    1    1    2    0    0  0.39771677958E+01 -0.30380454386E+02  0.88265758070E+01  0.31885707031E+02  0.00000000000E+00 0.  1.
         11    1    3    3    0    0  0.32796100872E+01 -0.11787021334E+01  0.54383889267E+01  0.64591992865E+01  0.51100000000E-03 0. -1.
        -11    1    3    3    0    0  0.82416811065E+01  0.86518932565E+00 -0.16417960410E+02  0.18390847841E+02  0.51100000000E-03 0.  1.
         12    1    3    3    0    0 -0.15498458990E+02  0.30693967194E+02  0.21529956760E+01  0.34452245842E+02  0.00000000000E+00 0. -1.
</event>
<event>
 7    1  0.7284210E-013  0.5930195E+02  0.7816164E-02  0.1266605E+00
        -11   -1    0    0    0    0  0.00000000000E+00  0.00000000000E+00  0.45593999997E+02  0.45594000000E+02  0.51100000000E-03 0. -1.
         11   -1    0    0    0    0 -0.00000000000E+00 -0.00000000000E+00 -0.45593999997E+02  0.45594000000E+02  0.51100000000E-03 0.  1.
    9900012    2    1    2    0    0  0.19401520938E+02 -0.11688698597E+02  0.22442708812E+02  0.59301954958E+02  0.50000019934E+02 0.  0.
        -12    1    1    2    0    0 -0.19401520938E+02  0.11688698597E+02 -0.22442708812E+02  0.31886045042E+02  0.00000000000E+00 0.  1.
         11    1    3    3    0    0 -0.42382533640E+01 -0.17621601903E+02  0.10704603923E+02  0.21049280050E+02  0.51100000000E-03 0. -1.
        -11    1    3    3    0    0  0.47947999671E+01 -0.10390350694E+02  0.29479608363E+01  0.11816935628E+02  0.51100000000E-03 0.  1.
        -12    1    3    3    0    0  0.18844974335E+02  0.16323254000E+02  0.87901440531E+01  0.26435739280E+02  0.00000000000E+00 0.  1.
</event>
<event>
 7    1  0.7284210E-013  0.5930196E+02  0.7816164E-02  0.1266605E+00
        -11   -1    0    0    0    0  0.00000000000E+00  0.00000000000E+00  0.45593999997E+02  0.45594000000E+02  0.51100000000E-03 0.  1.
         11   -1    0    0    0    0 -0.00000000000E+00 -0.00000000000E+00 -0.45593999997E+02  0.45594000000E+02  0.51100000000E-03 0. -1.
    9900012    2    1    2    0    0 -0.19281706108E+02 -0.23389390494E+02 -0.98930305215E+01  0.59301955544E+02  0.50000021004E+02 0.  0.
        -12    1    1    2    0    0  0.19281706108E+02  0.23389390494E+02  0.98930305215E+01  0.31886044456E+02  0.00000000000E+00 0.  1.
         11    1    3    3    0    0 -0.17431036981E+02 -0.25672716849E+02 -0.12488000513E+02  0.33449657662E+02  0.51100000000E-03 0. -1.
        -11    1    3    3    0    0 -0.54625993077E+00  0.63645109587E+01 -0.10380058626E+02  0.12188150680E+02  0.51100000000E-03 0.  1.
        -12    1    3    3    0    0 -0.13044091956E+01 -0.40811846040E+01  0.12975028618E+02  0.13664147202E+02  0.00000000000E+00 0.  1.
</event>
<event>
 7    1  0.7284210E-013  0.5930195E+02  0.7816164E-02  0.1266605E+00
        -11   -1    0    0    0    0  0.00000000000E+00  0.00000000000E+00  0.45593999997E+02  0.45594000000E+02  0.51100000000E-03 0.  1.
         11   -1    0    0    0    0 -0.00000000000E+00 -0.00000000000E+00 -0.45593999997E+02  0.45594000000E+02  0.51100000000E-03 0. -1.
    9900012    2    1    2    0    0  0.10070165204E+02 -0.37351267524E+01 -0.30022671567E+02  0.59301949647E+02  0.50000010248E+02 0.  0.
        -12    1    1    2    0    0 -0.10070165204E+02  0.37351267524E+01  0.30022671567E+02  0.31886050353E+02  0.00000000000E+00 0.  1.
         11    1    3    3    0    0  0.16468568944E+02 -0.37524856893E+01 -0.23344943955E+02  0.28814602555E+02  0.51100000000E-03 0. -1.
        -11    1    3    3    0    0  0.69897564573E+01 -0.10574077643E+02 -0.29319916997E+01  0.13010164830E+02  0.51100000000E-03 0.  1.
        -12    1    3    3    0    0 -0.13388160197E+02  0.10591436579E+02 -0.37457359126E+01  0.17477182262E+02  0.00000000000E+00 0.  1.
</event>
<event>
 7    1  0.7284210E-013  0.5930197E+02  0.7816164E-02  0.1266605E+00
        -11   -1    0    0    0    0  0.00000000000E+00  0.00000000000E+00  0.45593999997E+02  0.45594000000E+02  0.51100000000E-03 0.  1.
         11   -1    0    0    0    0 -0.00000000000E+00 -0.00000000000E+00 -0.45593999997E+02  0.45594000000E+02  0.51100000000E-03 0. -1.
    9900012    2    1    2    0    0 -0.24499305252E+02  0.19542183371E+02 -0.58827045025E+01  0.59301966992E+02  0.50000041880E+02 0.  0.
        -12    1    1    2    0    0  0.24499305252E+02 -0.19542183371E+02  0.58827045025E+01  0.31886033008E+02  0.00000000000E+00 0.  1.
         11    1    3    3    0    0 -0.10180772428E+02 -0.63667356832E+01 -0.66119593559E+01  0.13707715246E+02  0.51100000000E-03 0.  1.
        -11    1    3    3    0    0 -0.13026663183E+02  0.82128068025E+01  0.15983708089E+02  0.22195113737E+02  0.51100000000E-03 0. -1.
         12    1    3    3    0    0 -0.12918696419E+01  0.17696112252E+02 -0.15254453236E+02  0.23399138008E+02  0.00000000000E+00 0. -1.
</event>
<event>
 7    1  0.7284210E-013  0.5930195E+02  0.7816164E-02  0.1266605E+00
        -11   -1    0    0    0    0  0.00000000000E+00  0.00000000000E+00  0.45593999997E+02  0.45594000000E+02  0.51100000000E-03 0.  1.
         11   -1    0    0    0    0 -0.00000000000E+00 -0.00000000000E+00 -0.45593999997E+02  0.45594000000E+02  0.51100000000E-03 0. -1.
    9900012    2    1    2    0    0 -0.16948208517E+02  0.65691641760E+01 -0.26197801322E+02  0.59301945305E+02  0.50000002330E+02 0.  0.
        -12    1    1    2    0    0  0.16948208517E+02 -0.65691641760E+01  0.26197801322E+02  0.31886054695E+02  0.00000000000E+00 0.  1.
         11    1    3    3    0    0 -0.69197116766E+00 -0.11672188609E+02  0.31611019296E+01  0.12112447180E+02  0.51100000000E-03 0. -1.
        -11    1    3    3    0    0 -0.64526102220E+01  0.13711755892E+01  0.45875116549E+01  0.80350211337E+01  0.51100000000E-03 0.  1.
         12    1    3    3    0    0 -0.98036271278E+01  0.16870177196E+02 -0.33946414906E+02  0.39154476991E+02  0.00000000000E+00 0. -1.
</event>
<event>
 7    1  0.7284210E-013  0.5930196E+02  0.7816164E-02  0.1266605E+00
        -11   -1    0    0    0    0  0.00000000000E+00  0.00000000000E+00  0.45593999997E+02  0.45594000000E+02  0.51100000000E-03 0. -1.
         11   -1    0    0    0    0 -0.00000000000E+00 -0.00000000000E+00 -0.45593999997E+02  0.45594000000E+02  0.51100000000E-03 0.  1.
    9900012    2    1    2    0    0 -0.27345898983E+02 -0.96315050115E+00  0.16370508401E+02  0.59301962375E+02  0.50000033461E+02 0.  0.
        -12    1    1    2    0    0  0.27345898983E+02  0.96315050115E+00 -0.16370508401E+02  0.31886037625E+02  0.00000000000E+00 0.  1.
         11    1    3    3    0    0 -0.62167524927E+01  0.68525953941E+01  0.52834706401E+01  0.10654629860E+02  0.51100000000E-03 0. -1.
        -11    1    3    3    0    0 -0.26891816085E+02  0.23143992532E+01  0.20314828767E+02  0.33781925409E+02  0.51100000000E-03 0.  1.
        -12    1    3    3    0    0  0.57626695946E+01 -0.10130145148E+02 -0.92277910055E+01  0.14865407106E+02  0.00000000000E+00 0.  1.
</event>
